<LesHouchesEvents version="3.0">
  <!--
  <scalesfunctionalform>
    muR  H_T/2 := sum_i mT(i)/2, i=final state
    muF1 H_T/2 := sum_i mT(i)/2, i=final state
    muF2 H_T/2 := sum_i mT(i)/2, i=final state
    QES  H_T/2 := sum_i mT(i)/2, i=final state
  </scalesfunctionalform>
HERWIG6   
  -->
  <header>
      785
  </header>
  <init>
   2212   2212 0.65000000D+04 0.65000000D+04 -1 -1   244800   244800 -4   1
 0.40586540D-03 0.13888858D-05 0.56006291D-06     66
  </init>
  <event>
  8     66 0.56006291E-06 0.40440354E+03 0.75467711E-02 0.96509216E-01
        1 -1    0    0  501    0 0.00000000E+00 0.00000000E+00 0.15796493E+03 0.15796525E+03 0.32000000E+00 0.0000E+00 0.9000E+01
       -1 -1    0    0    0  501 0.00000000E+00 0.00000000E+00 -.11296194E+04 0.11296194E+04 0.32000000E+00 0.0000E+00 0.9000E+01
       25  2    1    2    0    0 -.30825852E+03 -.17326129E+03 -.42034529E+03 0.62580479E+03 0.29983110E+03 0.0000E+00 0.0000E+00
       23  2    1    2    0    0 0.30825852E+03 0.17326129E+03 -.55130916E+03 0.66177988E+03 0.94699711E+02 0.0000E+00 0.0000E+00
       23  1    3    3    0    0 0.22416866E+01 -.48839349E+02 -.39422187E+02 0.11072338E+03 0.91188000E+02 0.0000E+00 0.9000E+01
      -13  1    4    4    0    0 0.62526589E+02 0.64735519E+02 -.20182919E+03 0.22098709E+03 0.10565837E+00 0.0000E+00 0.9000E+01
       13  1    4    4    0    0 0.24573193E+03 0.10852577E+03 -.34947997E+03 0.44079279E+03 0.10565837E+00 0.0000E+00 0.9000E+01
       23  1    3    3    0    0 -.31050021E+03 -.12442194E+03 -.38092311E+03 0.51508141E+03 0.91188000E+02 0.0000E+00 0.9000E+01
#aMCatNLO 1  0  0  2  2 0.39482018D+02 0.00000000D+00  -5  7  0 0.00000000D+00 0.00000000D+00 0.00000000D+00 0.00000000D+00 0.00000000D+00
  <mgrwgt>
 0.8484623274D-04    4    2    0
 0.422422160124178D+03 0.000000000000000D+00 0.000000000000000D+00 0.422422160124178D+03
 0.422422160124178D+03 0.000000000000000D+00 0.000000000000000D+00 -.422422160124178D+03
 0.123408519378446D+03 0.224168646827866D+01 -.488393492786227D+02 0.672614608449666D+02
 0.104671577682279D+03 0.625263614912103D+02 0.647354637738216D+02 -.534407431007110D+02
 0.269853798596513D+03 0.245732158524717D+03 0.108525825045159D+03 -.256695185388834D+02
 0.346910424591118D+03 -.310500206484206D+03 -.124421939540358D+03 0.118488007946278D+02
 0.000000000000000D+00 -.000000000000000D+00 0.000000000000000D+00 0.000000000000000D+00
 0.463396713907631D+03 0.000000000000000D+00 0.000000000000000D+00 0.463396713907631D+03
 0.432502378705849D+03 0.000000000000000D+00 0.000000000000000D+00 -.432502378705849D+03
 0.123917332876350D+03 0.797707278632842D+01 -.495228860018354D+02 0.672614608449666D+02
 0.107329303984499D+03 0.674425760520460D+02 0.641495549953756D+02 -.534407431007110D+02
 0.280951195885114D+03 0.258505103206654D+03 0.107003560236912D+03 -.256695185388834D+02
 0.333568538795512D+03 -.294720174996403D+03 -.126302585484193D+03 0.118488007946278D+02
 0.501327210720053D+02 -.392045770486252D+02 0.467235625374042D+01 0.308943352017814D+02
0.281910257582D-04 0.000000000000D+00 0.000000000000D+00 0.125702750525D-06 0.000000000000D+00  7 1 -1 23 -13 13 23 21 0 0.24302325D-01 0.17378763D+00 0.16354222D+06 0.16354222D+06 0.16354222D+06 0.11046017D+01  1  2  2  2  7  2       -1 0.166587053687D-03 0.100000000000D+01
-.156254956379D-05 0.000000000000D+00 -.108260961779D-06 0.125702750525D-06 0.000000000000D+00  7 1 -1 23 -13 13 23 21 2 0.24302325D-01 0.17378763D+00 0.16354222D+06 0.16354222D+06 0.16354222D+06 0.11046017D+01  1  2  3  2  7  2       -1 -.112661514035D-04 0.100000000000D+01
0.179942754779D-05 0.000000000000D+00 0.000000000000D+00 0.125702750525D-06 0.000000000000D+00  7 1 -1 23 -13 13 23 21 2 0.24302325D-01 0.17378763D+00 0.16354222D+06 0.16354222D+06 0.16354222D+06 0.11046017D+01  1  2 15  2  7  2       -1 0.129740672954D-04 0.100000000000D+01
-.115738536325D-04 0.000000000000D+00 0.000000000000D+00 0.125702750525D-06 0.000000000000D+00  7 1 -1 23 -13 13 23 21 2 0.24302325D-01 0.17378763D+00 0.16354222D+06 0.16354222D+06 0.16354222D+06 0.11046017D+01  1  2  4  2  7  2       -1 -.834487368385D-04 0.100000000000D+01
  </mgrwgt>
  </event>
  <event>
  8     66 0.56006291E-06 0.39404174E+03 0.75467711E-02 0.90353625E-01
        1 -1    0    0  501    0 0.00000000E+00 0.00000000E+00 0.52172974E+03 0.52172984E+03 0.32000000E+00 0.0000E+00 0.9000E+01
       -1 -1    0    0    0  501 0.00000000E+00 0.00000000E+00 -.44146138E+03 0.44146150E+03 0.32000000E+00 0.0000E+00 0.9000E+01
       25  2    1    2    0    0 -.18925670E+03 -.30821237E+03 0.27254703E+03 0.54332670E+03 0.30018171E+03 0.0000E+00 0.0000E+00
       23  2    1    2    0    0 0.18925670E+03 0.30821237E+03 -.19227867E+03 0.41986464E+03 0.92207724E+02 0.0000E+00 0.0000E+00
       23  1    3    3    0    0 -.35140787E+02 -.74678840E+02 0.20862006E+03 0.24217635E+03 0.91188000E+02 0.0000E+00 0.9000E+01
      -11  1    4    4    0    0 0.19189612E+03 0.26326724E+03 -.15217365E+03 0.35956999E+03 0.51099893E-03 0.0000E+00 0.9000E+01
       11  1    4    4    0    0 -.26394244E+01 0.44945126E+02 -.40105023E+02 0.60294641E+02 0.51099893E-03 0.0000E+00 0.9000E+01
       23  1    3    3    0    0 -.15411591E+03 -.23353353E+03 0.63926968E+02 0.30115034E+03 0.91188000E+02 0.0000E+00 0.9000E+01
#aMCatNLO 1  0  0  1  2 0.53508976D+03 0.00000000D+00  -5  7  0 0.00000000D+00 0.00000000D+00 0.00000000D+00 0.00000000D+00 0.00000000D+00
  <mgrwgt>
 0.2306275971D-03    5    2    0
 0.479920445149817D+03 0.000000000000000D+00 0.000000000000000D+00 0.479920445149817D+03
 0.479920445149817D+03 0.000000000000000D+00 0.000000000000000D+00 -.479920445149817D+03
 0.225575485113228D+03 -.351407873956250D+02 -.746788404385442D+02 0.189095859267298D+03
 0.373550902820313D+03 0.191896120982838D+03 0.263267241376779D+03 -.182774493208085D+03
 0.638589590554346D+02 -.263942441199026D+01 0.449451256115200D+02 -.452872584087594D+02
 0.296855543310659D+03 -.154115909175222D+03 -.233533526549754D+03 0.389658923495460D+02
 0.000000000000000D+00 -.000000000000000D+00 0.000000000000000D+00 0.000000000000000D+00
 0.277131724866538D+04 0.000000000000000D+00 0.000000000000000D+00 0.277131724866538D+04
 0.581674197476624D+03 0.000000000000000D+00 0.000000000000000D+00 -.581674197476624D+03
 0.280552379222003D+03 0.418462577717281D+02 -.181345065721653D+03 0.189095859267298D+03
 0.371277841315268D+03 0.305191926662346D+03 0.106294910434970D+03 -.182774493208085D+03
 0.519337861502468D+02 0.149737953559242D+02 0.205418553776606D+02 -.452872584087594D+02
 0.395151633173816D+03 -.488547854429475D+02 -.379373735291020D+03 0.389658923495460D+02
 0.225407580628067D+04 -.313157194347051D+03 0.433882035200043D+03 0.218964305118876D+04
0.204397440089D-04 0.000000000000D+00 0.000000000000D+00 0.122307309776D-05 0.000000000000D+00  7 1 -1 23 -11 11 23 21 0 0.80266130D-01 0.67917152D-01 0.15526889D+06 0.15526889D+06 0.15526889D+06 0.11063707D+01  1  2  2  1  7  1        1 0.236014034297D-03 0.100000000000D+01
-.108187060377D-05 0.000000000000D+00 -.784939989023D-07 0.122307309776D-05 0.000000000000D+00  7 1 -1 23 -11 11 23 21 2 0.80266130D-01 0.67917152D-01 0.15526889D+06 0.15526889D+06 0.15526889D+06 0.11063707D+01  1  2  3  1  7  1        1 -.152911095242D-04 0.100000000000D+01
0.130197272186D-05 0.000000000000D+00 0.000000000000D+00 0.122307309776D-05 0.000000000000D+00  7 1 -1 23 -11 11 23 21 2 0.80266130D-01 0.67917152D-01 0.15526889D+06 0.15526889D+06 0.15526889D+06 0.11063707D+01  1  2 15  1  7  1        1 0.184020227724D-04 0.100000000000D+01
-.447438554836D-04 0.000000000000D+00 -.981911055722D-05 0.122307309776D-05 0.000000000000D+00  7 1 -1 23 -11 11 23 21 2 0.47897385D+00 0.67917152D-01 0.15526889D+06 0.15526889D+06 0.15526889D+06 0.11063707D+01  1  2  5  1  7  1        1 -.810978189662D-05 0.100000000000D+01
-.104123619537D-04 0.000000000000D+00 -.214959977749D-05 0.122307309776D-05 0.000000000000D+00  7 21 -1 23 -11 11 23 -1 2 0.47897385D+00 0.67917152D-01 0.15526889D+06 0.15526889D+06 0.15526889D+06 0.11063707D+01  1  2  5  3  7  1        1 -.387568581989D-06 0.100000000000D+01
  </mgrwgt>
  </event>
  <event>
  8     66 0.56006291E-06 0.13824679E+03 0.75467711E-02 0.10127648E+00
        1 -1    0    0  501    0 0.00000000E+00 0.00000000E+00 0.44194293E+03 0.44194305E+03 0.32000000E+00 0.0000E+00 0.9000E+01
       -1 -1    0    0    0  501 0.00000000E+00 0.00000000E+00 -.13888303E+03 0.13888340E+03 0.32000000E+00 0.0000E+00 0.9000E+01
       25  2    1    2    0    0 -.40420824E+02 0.12283817E+03 0.25649137E+03 0.41517465E+03 0.29976509E+03 0.0000E+00 0.0000E+00
       23  2    1    2    0    0 0.40420824E+02 -.12283817E+03 0.46568539E+02 0.16565180E+03 0.92459880E+02 0.0000E+00 0.0000E+00
       23  1    3    3    0    0 -.13598000E+03 0.10157232E+03 0.14983577E+03 0.24407684E+03 0.91188000E+02 0.0000E+00 0.9000E+01
      -13  1    4    4    0    0 -.72763569E+01 0.10000488E+02 -.75493981E+01 0.14489986E+02 0.10565837E+00 0.0000E+00 0.9000E+01
       13  1    4    4    0    0 0.47697180E+02 -.13283866E+03 0.54117937E+02 0.15116181E+03 0.10565837E+00 0.0000E+00 0.9000E+01
       23  1    3    3    0    0 0.95559174E+02 0.21265854E+02 0.10665560E+03 0.17109781E+03 0.91188000E+02 0.0000E+00 0.9000E+01
#aMCatNLO 1  0  0  1  2 0.89597564D+02 0.00000000D+00  -5  7  0 0.00000000D+00 0.00000000D+00 0.00000000D+00 0.00000000D+00 0.00000000D+00
  <mgrwgt>
 0.1519977441D-03    7    2    0
 0.247746874431900D+03 0.000000000000000D+00 0.000000000000000D+00 0.247746874431900D+03
 0.247746874431900D+03 0.000000000000000D+00 0.000000000000000D+00 -.247746874431900D+03
 0.194466773986620D+03 -.135979997067345D+03 0.101572320181178D+03 0.263548669383912D+02
 0.216027082237350D+02 -.727642755122235D+01 0.100006720233425D+02 -.177120626628627D+02
 0.144094412621291D+03 0.476972524986027D+02 -.132838848527800D+03 -.290174460379911D+02
 0.135329854032154D+03 0.955591721199644D+02 0.212658563232788D+02 0.203746417624626D+02
 0.000000000000000D+00 -.000000000000000D+00 -.000000000000000D+00 0.000000000000000D+00
 0.649774204519151D+03 0.000000000000000D+00 0.000000000000000D+00 0.649774204519151D+03
 0.256807080249357D+03 0.000000000000000D+00 0.000000000000000D+00 -.256807080249357D+03
 0.210675249751045D+03 -.128683145422940D+03 0.137167337899309D+03 0.263548669383912D+02
 0.234603446705209D+02 -.646481485160698D+01 0.139598272632904D+02 -.177120626628627D+02
 0.124632064317304D+03 0.525371780561998D+02 -.109229044687372D+03 -.290174460379911D+02
 0.144761663803828D+03 0.100603788903112D+03 0.458741713237625D+02 0.203746417624626D+02
 0.403051962225811D+03 -.179930066847650D+02 -.877722917989900D+02 0.392967124269794D+03
0.163658456115D-05 0.000000000000D+00 0.000000000000D+00 0.128078678208D-06 0.000000000000D+00  7 1 -1 23 -13 13 23 21 0 0.67991258D-01 0.21366657D-01 0.57592819D+05 0.57592819D+05 0.57592819D+05 0.11419337D+01  1  2  2  1  7  1        1 0.178570180704D-03 0.100000000000D+01
-.908093569832D-07 0.000000000000D+00 -.628491563741D-08 0.128078678208D-06 0.000000000000D+00  7 1 -1 23 -13 13 23 21 2 0.67991258D-01 0.21366657D-01 0.57592819D+05 0.57592819D+05 0.57592819D+05 0.11419337D+01  1  2  3  1  7  1        1 -.129206047260D-04 0.100000000000D+01
0.106651581976D-06 0.000000000000D+00 0.000000000000D+00 0.128078678208D-06 0.000000000000D+00  7 1 -1 23 -13 13 23 21 2 0.67991258D-01 0.21366657D-01 0.57592819D+05 0.57592819D+05 0.57592819D+05 0.11419337D+01  1  2 15  1  7  1        1 0.151746800098D-04 0.100000000000D+01
0.705608932400D-05 0.000000000000D+00 0.000000000000D+00 0.128078678208D-06 0.000000000000D+00  7 1 -1 23 -13 13 23 21 2 0.17727356D+00 0.21366657D-01 0.83674134D+05 0.83674134D+05 0.83674134D+05 0.11281302D+01  1  2 12  1  7  1        1 0.224000332820D-03 0.100000000000D+01
-.787067818493D-05 0.000000000000D+00 -.525619078937D-06 0.128078678208D-06 0.000000000000D+00  7 1 -1 23 -13 13 23 21 2 0.18022592D+00 0.21366657D-01 0.57592819D+05 0.57592819D+05 0.57592819D+05 0.11419337D+01  1  2  5  1  7  1        1 -.250248316951D-03 0.100000000000D+01
0.749573206535D-06 0.000000000000D+00 0.000000000000D+00 0.128078678208D-06 0.000000000000D+00  7 21 -1 23 -13 13 23 -1 2 0.17727356D+00 0.21366657D-01 0.83674134D+05 0.83674134D+05 0.83674134D+05 0.11281302D+01  1  2 12  3  7  1        1 0.277821343737D-04 0.100000000000D+01
-.821849781401D-06 0.000000000000D+00 -.569649760408D-07 0.128078678208D-06 0.000000000000D+00  7 21 -1 23 -13 13 23 -1 2 0.18022592D+00 0.21366657D-01 0.57592819D+05 0.57592819D+05 0.57592819D+05 0.11419337D+01  1  2  5  3  7  1        1 -.303606621305D-04 0.100000000000D+01
  </mgrwgt>
  </event>
  <event>
  9     66 0.56006291E-06 0.26074002E+03 0.75467711E-02 0.10226911E+00
        1 -1    0    0  501    0 0.00000000E+00 0.00000000E+00 0.16435258E+04 0.16435258E+04 0.32000000E+00 0.0000E+00 0.9000E+01
       21 -1    0    0  502  501 0.00000000E+00 0.00000000E+00 -.57773916E+02 0.57778784E+02 0.75000000E+00 0.0000E+00 0.9000E+01
       25  2    1    2    0    0 -.19199653E+03 0.64414823E+01 0.95342269E+03 0.10179729E+04 0.30058240E+03 0.0000E+00 0.0000E+00
       23  2    1    2    0    0 0.20149600E+03 0.54383405E+01 0.45677343E+03 0.50711795E+03 0.88861922E+02 0.0000E+00 0.0000E+00
       23  1    3    3    0    0 -.28510714E+02 0.51478070E+02 0.11662170E+03 0.15930702E+03 0.91188000E+02 0.0000E+00 0.9000E+01
      -11  1    4    4    0    0 0.19309235E+03 0.28935803E+02 0.40932202E+03 0.45350463E+03 0.51099893E-03 0.0000E+00 0.9000E+01
       11  1    4    4    0    0 0.84036524E+01 -.23497463E+02 0.47451406E+02 0.53613320E+02 0.51099893E-03 0.0000E+00 0.9000E+01
       23  1    3    3    0    0 -.16348581E+03 -.45036587E+02 0.83680099E+03 0.85866585E+03 0.91188000E+02 0.0000E+00 0.9000E+01
        1  1    1    2  502    0 -.94994772E+01 -.11879823E+02 0.17555576E+03 0.17621378E+03 0.32000000E+00 0.0000E+00 0.9000E+01
#aMCatNLO 2  0  0  2  1 0.15210860D+02 0.00000000D+00  -5  7  0 0.00000000D+00 0.00000000D+00 0.00000000D+00 0.00000000D+00 0.00000000D+00
  <mgrwgt>
 0.3731296065D-04    1    2    0
 0.290266069656959D+03 0.000000000000000D+00 0.000000000000000D+00 0.290266069656959D+03
 0.290266069656959D+03 0.000000000000000D+00 0.000000000000000D+00 -.290266069656959D+03
 0.134630759218522D+03 -.307177734688300D+02 0.487179724087353D+02 -.805801932316800D+02
 0.193328493777188D+03 0.189899245746567D+03 0.249425807655449D+02 -.263068553003869D+02
 0.259222669585806D+02 0.798242916768155D+01 -.240242346733142D+02 -.557502441397291D+01
 0.226650619359629D+03 -.167163901445418D+03 -.496363185009660D+02 0.112462072946040D+03
 0.000000000000000D+00 -.000000000000000D+00 -.000000000000000D+00 0.000000000000000D+00
 0.325162805832861D+03 0.000000000000000D+00 0.000000000000000D+00 0.325162805832861D+03
 0.292027970114035D+03 0.000000000000000D+00 0.000000000000000D+00 -.292027970114035D+03
 0.135171266655450D+03 -.285107135303253D+02 0.514780696799664D+02 -.805801932316800D+02
 0.197012658075803D+03 0.193092351194214D+03 0.289358033686321D+02 -.263068553003869D+02
 0.255701589887790D+02 0.840365235930399D+01 -.234974628528062D+02 -.557502441397291D+01
 0.222977295692135D+03 -.163485812834595D+03 -.450365873559396D+02 0.112462072946040D+03
 0.364593965347290D+02 -.949947718859782D+01 -.118798228398527D+02 0.331348357188267D+02
0.438724937051D-07 0.000000000000D+00 0.000000000000D+00 0.425423565726D-07 0.153686145960D-11  7 1 21 23 -11 11 23 1 2 0.25284989D+00 0.88886504D-02 0.71952683D+05 0.71952683D+05 0.71952683D+05 0.11336452D+01  1  2  1  4  7  2       -1 0.373129606461D-04 0.100000000000D+01
  </mgrwgt>
  </event>
  <event>
  8     66 0.56006291E-06 0.65240262E+03 0.75467711E-02 0.87765495E-01
        1 -1    0    0  501    0 0.00000000E+00 0.00000000E+00 0.72549367E+03 0.72549374E+03 0.32000000E+00 0.0000E+00 0.9000E+01
       -1 -1    0    0    0  501 0.00000000E+00 0.00000000E+00 -.65155992E+03 0.65156000E+03 0.32000000E+00 0.0000E+00 0.9000E+01
       25  2    1    2    0    0 0.13787681E+03 -.61983531E+03 0.18505901E+03 0.72619846E+03 0.29985253E+03 0.0000E+00 0.0000E+00
       23  2    1    2    0    0 -.13787681E+03 0.61983531E+03 -.11112525E+03 0.65085528E+03 0.89766120E+02 0.0000E+00 0.0000E+00
       23  1    3    3    0    0 0.99155053E+02 -.47872160E+03 0.23014258E+03 0.54798445E+03 0.91188000E+02 0.0000E+00 0.9000E+01
      -13  1    4    4    0    0 -.76207750E+02 0.36667901E+03 -.10985138E+03 0.39029278E+03 0.10565837E+00 0.0000E+00 0.9000E+01
       13  1    4    4    0    0 -.61669059E+02 0.25315630E+03 -.12738683E+01 0.26056250E+03 0.10565837E+00 0.0000E+00 0.9000E+01
       23  1    3    3    0    0 0.38721757E+02 -.14111370E+03 -.45083577E+02 0.17821401E+03 0.91188000E+02 0.0000E+00 0.9000E+01
#aMCatNLO 1  0  0  1  1 0.51747881D+03 0.00000000D+00  -5  7  0 0.00000000D+00 0.00000000D+00 0.00000000D+00 0.00000000D+00 0.00000000D+00
  <mgrwgt>
 0.2552215813D-03    6    2    0
 0.687533781000827D+03 0.000000000000000D+00 0.000000000000000D+00 0.687533781000827D+03
 0.687533781000827D+03 0.000000000000000D+00 0.000000000000000D+00 -.687533781000827D+03
 0.536401809766408D+03 0.991550525412638D+02 -.478721601259945D+03 0.201011328584564D+03
 0.396763132868688D+03 -.762077699216242D+02 0.366679164161803D+03 -.130995228832773D+03
 0.261007170886967D+03 -.616690393132509D+02 0.253156142055686D+03 -.152853061493918D+02
 0.180895448479591D+03 0.387217566936113D+02 -.141113704957544D+03 -.547307936023990D+02
 0.000000000000000D+00 0.000000000000000D+00 0.000000000000000D+00 0.000000000000000D+00
 0.104139359118273D+04 0.000000000000000D+00 0.000000000000000D+00 0.104139359118273D+04
 0.952825658383771D+03 0.000000000000000D+00 0.000000000000000D+00 -.952825658383771D+03
 0.738750944735090D+03 0.425916948674860D+02 -.703717344046579D+03 0.201011328584564D+03
 0.297093015943254D+03 -.106985912682052D+03 0.244250946022520D+03 -.130995228832773D+03
 0.192140979767280D+03 -.817698318137442D+02 0.173199913761531D+03 -.152853061493918D+02
 0.241230878718762D+03 0.199970334441423D+02 -.215596253187553D+03 -.547307936023990D+02
 0.525003430402112D+03 0.126167016184168D+03 0.501862737450081D+03 0.885679327989563D+02
0.575468349922D-04 0.000000000000D+00 0.000000000000D+00 0.207250079900D-05 0.000000000000D+00  7 1 -1 23 -13 13 23 21 0 0.11161442D+00 0.10024000D+00 0.42562918D+06 0.42562918D+06 0.42562918D+06 0.10734887D+01  1  2  2  1  7  1        1 0.175859456145D-03 0.100000000000D+01
-.318635322816D-05 0.000000000000D+00 -.220994998800D-06 0.207250079900D-05 0.000000000000D+00  7 1 -1 23 -13 13 23 21 2 0.11161442D+00 0.10024000D+00 0.42562918D+06 0.42562918D+06 0.42562918D+06 0.10734887D+01  1  2  3  1  7  1        1 -.112210403899D-04 0.100000000000D+01
0.355956283797D-05 0.000000000000D+00 0.000000000000D+00 0.207250079900D-05 0.000000000000D+00  7 1 -1 23 -13 13 23 21 2 0.11161442D+00 0.10024000D+00 0.42562918D+06 0.42562918D+06 0.42562918D+06 0.10734887D+01  1  2 15  1  7  1        1 0.125353328759D-04 0.100000000000D+01
-.191165812038D-04 0.000000000000D+00 -.185781489685D-04 0.207250079900D-05 0.000000000000D+00  7 1 -1 23 -13 13 23 21 2 0.21166551D+00 0.10024000D+00 0.42562918D+06 0.42562918D+06 0.42562918D+06 0.10734887D+01  1  2  5  1  7  1        1 -.212322440364D-04 0.100000000000D+01
0.282654046183D-04 0.000000000000D+00 0.153303121547D-04 0.207250079900D-05 0.000000000000D+00  7 1 -1 23 -13 13 23 21 2 0.11161442D+00 0.10024000D+00 0.42562918D+06 0.42562918D+06 0.42562918D+06 0.10734887D+01  1  2  6  1  7  1        1 0.995392613903D-04 0.100000000000D+01
-.271036051443D-06 0.000000000000D+00 -.129216498054D-05 0.207250079900D-05 0.000000000000D+00  7 21 -1 23 -13 13 23 -1 2 0.21166551D+00 0.10024000D+00 0.42562918D+06 0.42562918D+06 0.42562918D+06 0.10734887D+01  1  2  5  3  7  1        1 -.259184653614D-06 0.100000000000D+01
  </mgrwgt>
  </event>
  <event>
  8     66 0.56006291E-06 0.48033975E+03 0.75467711E-02 0.88149343E-01
        1 -1    0    0  501    0 0.00000000E+00 0.00000000E+00 0.20522832E+04 0.20522832E+04 0.32000000E+00 0.0000E+00 0.9000E+01
       -1 -1    0    0    0  501 0.00000000E+00 0.00000000E+00 -.12800743E+03 0.12800783E+03 0.32000000E+00 0.0000E+00 0.9000E+01
       25  2    1    2    0    0 0.36341041E+03 -.26114093E+03 0.12974947E+04 0.14047860E+04 0.29944902E+03 0.0000E+00 0.0000E+00
       23  2    1    2    0    0 -.36341041E+03 0.26114093E+03 0.62678110E+03 0.77550501E+03 0.91059125E+02 0.0000E+00 0.0000E+00
       23  1    3    3    0    0 0.17498852E+03 -.27130850E+02 0.30905162E+03 0.36767542E+03 0.91188000E+02 0.0000E+00 0.9000E+01
      -11  1    4    4    0    0 -.13845540E+03 0.10213294E+03 0.16861664E+03 0.24089957E+03 0.51099893E-03 0.0000E+00 0.9000E+01
       11  1    4    4    0    0 -.22495501E+03 0.15900799E+03 0.45816447E+03 0.53460544E+03 0.51099893E-03 0.0000E+00 0.9000E+01
       23  1    3    3    0    0 0.18842189E+03 -.23401008E+03 0.98844305E+03 0.10371106E+04 0.91188000E+02 0.0000E+00 0.9000E+01
#aMCatNLO 1  0  0  2  1 0.67611920D+03 0.00000000D+00  -5  7  0 0.00000000D+00 0.00000000D+00 0.00000000D+00 0.00000000D+00 0.00000000D+00
  <mgrwgt>
 0.2511770544D-03    3    2    0
 0.512550452376421D+03 0.000000000000000D+00 0.000000000000000D+00 0.512550452376421D+03
 0.512550452376421D+03 0.000000000000000D+00 0.000000000000000D+00 -.512550452376421D+03
 0.201871739413795D+03 0.174988518036113D+03 -.271308502981779D+02 -.328615785922417D+02
 0.195850258015929D+03 -.138455395877724D+03 0.102132939843225D+03 -.935750475085596D+02
 0.277007541202161D+03 -.224955012131689D+03 0.159007991720702D+03 -.290668018303951D+02
 0.350371366120957D+03 0.188421889973300D+03 -.234010081265749D+03 0.155503427931196D+03
 0.000000000000000D+00 0.000000000000000D+00 0.000000000000000D+00 0.000000000000000D+00
 0.142022954197257D+04 0.000000000000000D+00 0.000000000000000D+00 0.142022954197257D+04
 0.755747978680564D+03 0.000000000000000D+00 0.000000000000000D+00 -.755747978680564D+03
 0.136942363047074D+03 0.779084501783096D+02 -.573441321859208D+02 -.328615785922417D+02
 0.301791109240334D+03 -.281044081977847D+03 0.577564549250630D+02 -.935750475085596D+02
 0.442338902255271D+03 -.431068633249872D+03 0.948612613654192D+02 -.290668018303951D+02
 0.346921535466507D+03 -.113727517231554D+02 -.296190217337321D+03 0.155503427931196D+03
 0.947983610643953D+03 0.645577016772565D+03 0.200916633232759D+03 0.664481563292011D+03
0.361445931408D-04 0.000000000000D+00 0.000000000000D+00 0.129261255593D-05 0.000000000000D+00  7 1 -1 23 -11 11 23 21 0 0.31573591D+00 0.19693484D-01 0.23072628D+06 0.23072628D+06 0.23072628D+06 0.10930901D+01  1  2  2  2  7  2       -1 0.248846887205D-03 0.100000000000D+01
-.199774769598D-05 0.000000000000D+00 -.138804754751D-06 0.129261255593D-05 0.000000000000D+00  7 1 -1 23 -11 11 23 21 2 0.31573591D+00 0.19693484D-01 0.23072628D+06 0.23072628D+06 0.23072628D+06 0.10930901D+01  1  2  3  2  7  2       -1 -.164339285193D-04 0.100000000000D+01
0.228100839933D-05 0.000000000000D+00 0.000000000000D+00 0.129261255593D-05 0.000000000000D+00  7 1 -1 23 -11 11 23 21 2 0.31573591D+00 0.19693484D-01 0.23072628D+06 0.23072628D+06 0.23072628D+06 0.10930901D+01  1  2 15  2  7  2       -1 0.187640957174D-04 0.100000000000D+01
  </mgrwgt>
  </event>
  <event>
  8     66 0.56006291E-06 0.13740991E+03 0.75467711E-02 0.11004718E+00
        1 -1    0    0  501    0 0.00000000E+00 0.00000000E+00 0.12167342E+03 0.12167384E+03 0.32000000E+00 0.0000E+00 0.9000E+01
       -1 -1    0    0    0  501 0.00000000E+00 0.00000000E+00 -.57038841E+03 0.57038850E+03 0.32000000E+00 0.0000E+00 0.9000E+01
       25  2    1    2    0    0 -.40161197E+02 0.39456459E+01 -.49633467E+03 0.58127866E+03 0.29984710E+03 0.0000E+00 0.0000E+00
       23  2    1    2    0    0 0.40161197E+02 -.39456459E+01 0.47619677E+02 0.11078369E+03 0.91525414E+02 0.0000E+00 0.0000E+00
       23  1    3    3    0    0 -.32727995E+02 0.35450186E+02 -.33546085E+02 0.10848239E+03 0.91188000E+02 0.0000E+00 0.9000E+01
      -13  1    4    4    0    0 0.53457470E+02 0.11324521E+02 0.64419419E+02 0.84473775E+02 0.10565837E+00 0.0000E+00 0.9000E+01
       13  1    4    4    0    0 -.13296273E+02 -.15270167E+02 -.16799742E+02 0.26309911E+02 0.10565837E+00 0.0000E+00 0.9000E+01
       23  1    3    3    0    0 -.74332023E+01 -.31504540E+02 -.46278858E+03 0.47279627E+03 0.91188000E+02 0.0000E+00 0.9000E+01
#aMCatNLO 1  0  0  2  1 0.41182431D+02 0.00000000D+00  -5  7  0 0.00000000D+00 0.00000000D+00 0.00000000D+00 0.00000000D+00 0.00000000D+00
  <mgrwgt>
 0.1755300626D-03    4    2    0
 0.263441238056096D+03 0.000000000000000D+00 0.000000000000000D+00 0.263441238056096D+03
 0.263441238056096D+03 0.000000000000000D+00 0.000000000000000D+00 -.263441238056096D+03
 0.113922832665925D+03 -.327279948793141D+02 0.354501856325478D+02 0.483251813077380D+02
 0.165819104294823D+03 0.534575583449359D+02 0.113245554009551D+02 0.156556760473338D+03
 0.202506239919633D+02 -.132963606840803D+02 -.152702013799361D+02 0.339874151592383D+00
 0.226889915159481D+03 -.743320278154153D+01 -.315045396535668D+02 -.205221815932668D+03
 0.000000000000000D+00 0.000000000000000D+00 0.000000000000000D+00 0.000000000000000D+00
 0.373000229873940D+03 0.000000000000000D+00 0.000000000000000D+00 0.373000229873940D+03
 0.268143379689067D+03 0.000000000000000D+00 0.000000000000000D+00 -.268143379689067D+03
 0.115705648365105D+03 -.411296697927362D+02 0.323353186763951D+02 0.483251813077380D+02
 0.162099369786306D+03 0.414596371595286D+02 0.687640326128507D+01 0.156556760473338D+03
 0.217017571943490D+02 -.148313195314706D+02 -.158392775036924D+02 0.339874151592383D+00
 0.228982710144703D+03 -.241127260816870D+02 -.376883656772330D+02 -.205221815932668D+03
 0.112654124072544D+03 0.386140782463652D+02 0.143159212432453D+02 0.104856850184873D+03
0.371444538474D-05 0.000000000000D+00 0.000000000000D+00 0.473787425091D-06 0.000000000000D+00  7 1 -1 23 -13 13 23 21 0 0.18719027D-01 0.87752103D-01 0.18881484D+05 0.18881484D+05 0.18881484D+05 0.11864658D+01  1  2  2  2  7  2       -1 0.179377251246D-03 0.100000000000D+01
-.100070973204D-06 0.000000000000D+00 -.142644483133D-07 0.473787425091D-06 0.000000000000D+00  7 1 -1 23 -13 13 23 21 2 0.18719027D-01 0.87752103D-01 0.18881484D+05 0.18881484D+05 0.18881484D+05 0.11864658D+01  1  2  3  2  7  2       -1 -.680286649474D-05 0.100000000000D+01
0.232870251729D-06 0.000000000000D+00 0.000000000000D+00 0.473787425091D-06 0.000000000000D+00  7 1 -1 23 -13 13 23 21 2 0.18719027D-01 0.87752103D-01 0.18881484D+05 0.18881484D+05 0.18881484D+05 0.11864658D+01  1  2 15  2  7  2       -1 0.158306168351D-04 0.100000000000D+01
-.189391879228D-06 0.000000000000D+00 0.000000000000D+00 0.473787425091D-06 0.000000000000D+00  7 1 -1 23 -13 13 23 21 2 0.18719027D-01 0.87752103D-01 0.18881484D+05 0.18881484D+05 0.18881484D+05 0.11864658D+01  1  2  4  2  7  2       -1 -.128749389391D-04 0.100000000000D+01
  </mgrwgt>
  </event>
  <event>
  8     66 0.56006291E-06 0.31743154E+03 0.75467711E-02 0.92667607E-01
        1 -1    0    0  501    0 0.00000000E+00 0.00000000E+00 0.32061611E+03 0.32061627E+03 0.32000000E+00 0.0000E+00 0.9000E+01
       -1 -1    0    0    0  501 0.00000000E+00 0.00000000E+00 -.35029569E+03 0.35029583E+03 0.32000000E+00 0.0000E+00 0.9000E+01
       25  2    1    2    0    0 0.21797889E+03 -.12293799E+03 -.39417126E+02 0.39162440E+03 0.29864263E+03 0.0000E+00 0.0000E+00
       23  2    1    2    0    0 -.21797889E+03 0.12293799E+03 0.97375512E+01 0.27928770E+03 0.12360524E+03 0.0000E+00 0.0000E+00
       23  1    3    3    0    0 0.18921212E+03 -.17632397E+03 0.28118151E+01 0.27425267E+03 0.91188000E+02 0.0000E+00 0.9000E+01
      -11  1    4    4    0    0 -.19126033E+03 0.99615889E+02 -.38864458E+02 0.21912162E+03 0.51099893E-03 0.0000E+00 0.9000E+01
       11  1    4    4    0    0 -.26718561E+02 0.23322096E+02 0.48602009E+02 0.60166078E+02 0.51099893E-03 0.0000E+00 0.9000E+01
       23  1    3    3    0    0 0.28766772E+02 0.53385981E+02 -.42228941E+02 0.11737174E+03 0.91188000E+02 0.0000E+00 0.9000E+01
#aMCatNLO 1  0  0  1  1 0.42245487D+03 0.00000000D+00  -5  7  0 0.00000000D+00 0.00000000D+00 0.00000000D+00 0.00000000D+00 0.00000000D+00
  <mgrwgt>
 0.3227237415D-03    3    2    0
 0.335127652371643D+03 0.000000000000000D+00 0.000000000000000D+00 0.335127652371643D+03
 0.335127652371643D+03 0.000000000000000D+00 0.000000000000000D+00 -.335127652371643D+03
 0.274645923525567D+03 0.189212120125072D+03 -.176323966866826D+03 0.149587523320942D+02
 0.217615387457690D+03 -.191260330206035D+03 0.996158896604267D+02 -.291996142954136D+02
 0.623771799516176D+02 -.267185626102583D+02 0.233220965822415D+02 0.513138461018739D+02
 0.115616813808411D+03 0.287667726912208D+02 0.533859806241582D+02 -.370729841385545D+02
 0.000000000000000D+00 0.000000000000000D+00 -.000000000000000D+00 -.000000000000000D+00
 0.443089845591476D+03 0.000000000000000D+00 0.000000000000000D+00 0.443089845591476D+03
 0.134647061674576D+04 0.000000000000000D+00 0.000000000000000D+00 -.134647061674576D+04
 0.167273575220410D+03 0.763644492587387D+02 -.116661494251937D+03 0.149587523320942D+02
 0.393152114254352D+03 -.347224686168232D+03 0.182074118926987D+03 -.291996142954136D+02
 0.954918569091946D+02 -.670316810904512D+02 0.446356098243022D+02 0.513138461018739D+02
 0.136364151799733D+03 -.355785778810427D+02 0.874053155997146D+02 -.370729841385545D+02
 0.997278764153548D+03 0.373470495880988D+03 -.197453550099067D+03 -.903380771154286D+03
0.921090945660D-05 0.000000000000D+00 0.000000000000D+00 0.565812863444D-09 0.000000000000D+00  7 1 -1 23 -11 11 23 21 0 0.49325579D-01 0.53891668D-01 0.10076278D+06 0.10076278D+06 0.10076278D+06 0.11214513D+01  1  2  2  1  7  1        1 0.319600370979D-03 0.100000000000D+01
-.509886140678D-06 0.000000000000D+00 -.353723176015D-07 0.565812863444D-09 0.000000000000D+00  7 1 -1 23 -11 11 23 21 2 0.49325579D-01 0.53891668D-01 0.10076278D+06 0.10076278D+06 0.10076278D+06 0.11214513D+01  1  2  3  1  7  1        1 -.222504515788D-04 0.100000000000D+01
0.581460568216D-06 0.000000000000D+00 0.000000000000D+00 0.565812863444D-09 0.000000000000D+00  7 1 -1 23 -11 11 23 21 2 0.49325579D-01 0.53891668D-01 0.10076278D+06 0.10076278D+06 0.10076278D+06 0.11214513D+01  1  2 15  1  7  1        1 0.253738220867D-04 0.100000000000D+01
  </mgrwgt>
  </event>
  <event>
  8     66 0.56006291E-06 0.27888924E+03 0.75467711E-02 0.96788910E-01
        1 -1    0    0  501    0 0.00000000E+00 0.00000000E+00 0.13318319E+04 0.13318319E+04 0.32000000E+00 0.0000E+00 0.9000E+01
       -1 -1    0    0    0  501 0.00000000E+00 0.00000000E+00 -.11141012E+03 0.11141058E+03 0.32000000E+00 0.0000E+00 0.9000E+01
       25  2    1    2    0    0 -.17318543E+03 -.26805661E+03 0.74369096E+03 0.86330034E+03 0.30060555E+03 0.0000E+00 0.0000E+00
       23  2    1    2    0    0 0.17318543E+03 0.26805661E+03 0.47673080E+03 0.57994215E+03 0.84929991E+02 0.0000E+00 0.0000E+00
       23  1    3    3    0    0 -.19286352E+03 -.11382647E+03 0.30641182E+03 0.39032840E+03 0.91188000E+02 0.0000E+00 0.9000E+01
      -13  1    4    4    0    0 0.16762202E+03 0.20891547E+03 0.41766475E+03 0.49617201E+03 0.10565837E+00 0.0000E+00 0.9000E+01
       13  1    4    4    0    0 0.55634095E+01 0.59141143E+02 0.59066056E+02 0.83770140E+02 0.10565837E+00 0.0000E+00 0.9000E+01
       23  1    3    3    0    0 0.19678087E+02 -.15423014E+03 0.43727914E+03 0.47297194E+03 0.91188000E+02 0.0000E+00 0.9000E+01
#aMCatNLO 1  0  0  1  2 0.77656285D+02 0.00000000D+00  -5  7  0 0.00000000D+00 0.00000000D+00 0.00000000D+00 0.00000000D+00 0.00000000D+00
  <mgrwgt>
 0.5461309639D-03    9    2    0
 0.385201123096304D+03 0.000000000000000D+00 0.000000000000000D+00 0.385201123096304D+03
 0.385201123096304D+03 0.000000000000000D+00 0.000000000000000D+00 -.385201123096304D+03
 0.245828560363990D+03 -.192863517493641D+03 -.113826472852218D+03 -.443128361159079D+02
 0.267872573373191D+03 0.167622272045171D+03 0.208915700731371D+03 -.356643630397488D+01
 0.633628512617921D+02 0.556315895352617D+01 0.591409113319944D+02 -.220511856666022D+02
 0.193338261193635D+03 0.196780864949441D+02 -.154230139211148D+03 0.699304580864850D+02
 0.000000000000000D+00 0.000000000000000D+00 -.000000000000000D+00 0.000000000000000D+00
 0.449976444065250D+03 0.000000000000000D+00 0.000000000000000D+00 0.449976444065250D+03
 0.411150954113706D+03 0.000000000000000D+00 0.000000000000000D+00 -.411150954113706D+03
 0.237719722440622D+03 -.195432954557022D+03 -.896534880622291D+02 -.443128361159079D+02
 0.288384762674407D+03 0.164666479900221D+03 0.236723472161368D+03 -.356643630397488D+01
 0.695526568276694D+02 0.485688401692155D+01 0.657854692172272D+02 -.220511856666022D+02
 0.178649076267979D+03 0.177014523387056D+02 -.135634179778982D+03 0.699304580864850D+02
 0.868211799682779D+02 0.820813830117358D+01 -.772212735373840D+02 0.388254899515438D+02
0.115841545929D-04 0.000000000000D+00 0.000000000000D+00 0.112749214408D-07 0.000000000000D+00  7 1 -1 23 -13 13 23 21 0 0.20489725D+00 0.17140056D-01 0.14036289D+06 0.14036289D+06 0.14036289D+06 0.11098349D+01  1  2  2  1  7  1        1 0.305100054745D-03 0.100000000000D+01
-.642960612198D-06 0.000000000000D+00 -.444862038148D-07 0.112749214408D-07 0.000000000000D+00  7 1 -1 23 -13 13 23 21 2 0.20489725D+00 0.17140056D-01 0.14036289D+06 0.14036289D+06 0.14036289D+06 0.11098349D+01  1  2  3  1  7  1        1 -.208583080461D-04 0.100000000000D+01
0.728366538656D-06 0.000000000000D+00 0.000000000000D+00 0.112749214408D-07 0.000000000000D+00  7 1 -1 23 -13 13 23 21 2 0.20489725D+00 0.17140056D-01 0.14036289D+06 0.14036289D+06 0.14036289D+06 0.11098349D+01  1  2 15  1  7  1        1 0.236289647383D-04 0.100000000000D+01
0.145107186905D-04 0.000000000000D+00 0.000000000000D+00 0.112749214408D-07 0.000000000000D+00  7 1 -1 23 -13 13 23 21 2 0.24538185D+00 0.17140056D-01 0.17219599D+06 0.17219599D+06 0.17219599D+06 0.11028533D+01  1  2 12  1  7  1        1 0.307952610106D-03 0.100000000000D+01
-.143475065622D-04 0.000000000000D+00 0.000000000000D+00 0.112749214408D-07 0.000000000000D+00  7 1 -1 23 -13 13 23 21 2 0.20489725D+00 0.17140056D-01 0.14036289D+06 0.14036289D+06 0.14036289D+06 0.11098349D+01  1  2  4  1  7  1        1 -.465447969735D-03 0.100000000000D+01
-.328460202627D-04 0.000000000000D+00 -.771405015381D-05 0.112749214408D-07 0.000000000000D+00  7 1 -1 23 -13 13 23 21 2 0.24754262D+00 0.17140056D-01 0.14036289D+06 0.14036289D+06 0.14036289D+06 0.11098349D+01  1  2  5  1  7  1        1 -.695182381688D-03 0.100000000000D+01
0.338338408283D-04 0.000000000000D+00 0.757818968238D-05 0.112749214408D-07 0.000000000000D+00  7 1 -1 23 -13 13 23 21 2 0.20489725D+00 0.17140056D-01 0.14036289D+06 0.14036289D+06 0.14036289D+06 0.11098349D+01  1  2  6  1  7  1        1 0.109760483145D-02 0.100000000000D+01
0.383214382769D-06 0.000000000000D+00 0.000000000000D+00 0.112749214408D-07 0.000000000000D+00  7 21 -1 23 -13 13 23 -1 2 0.24538185D+00 0.17140056D-01 0.17219599D+06 0.17219599D+06 0.17219599D+06 0.11028533D+01  1  2 12  3  7  1        1 0.592131946699D-05 0.100000000000D+01
-.819484120404D-06 0.000000000000D+00 -.211393493179D-06 0.112749214408D-07 0.000000000000D+00  7 21 -1 23 -13 13 23 -1 2 0.24754262D+00 0.17140056D-01 0.14036289D+06 0.14036289D+06 0.14036289D+06 0.11098349D+01  1  2  5  3  7  1        1 -.125881571191D-04 0.100000000000D+01
  </mgrwgt>
  </event>
  <event>
  7     66 0.56006291E-06 0.25078852E+03 0.75467711E-02 0.94931756E-01
        1 -1    0    0  501    0 0.00000000E+00 0.00000000E+00 0.32061289E+03 0.32061305E+03 0.32000000E+00 0.0000E+00 0.9000E+01
       -1 -1    0    0    0  501 0.00000000E+00 0.00000000E+00 -.71375544E+03 0.71375551E+03 0.32000000E+00 0.0000E+00 0.9000E+01
       23  2    1    2    0    0 -.58969974E+02 0.71229818E+02 -.57018404E+03 0.58475203E+03 0.90961255E+02 0.0000E+00 0.0000E+00
       23  1    1    2    0    0 -.11946291E+03 0.33580628E+02 -.12566612E+02 0.15450637E+03 0.91188000E+02 0.0000E+00 0.9000E+01
      -11  1    3    3    0    0 -.77817281E+02 0.65585803E+02 -.53355170E+03 0.54317073E+03 0.51099893E-03 0.0000E+00 0.9000E+01
       11  1    3    3    0    0 0.18847307E+02 0.56440155E+01 -.36632341E+02 0.41581297E+02 0.51099893E-03 0.0000E+00 0.9000E+01
       23  1    1    2    0    0 0.17843289E+03 -.10481045E+03 0.18960811E+03 0.29511017E+03 0.91188000E+02 0.0000E+00 0.9000E+01
#aMCatNLO 1  0  0  1  2 0.35637005D+03 0.00000000D+00  -5  7  0 0.00000000D+00 0.00000000D+00 0.00000000D+00 0.00000000D+00 0.00000000D+00
  <mgrwgt>
 0.5600127437D-03    5    2    0
 0.478371524650177D+03 0.000000000000000D+00 0.000000000000000D+00 0.478371524650177D+03
 0.478371524650177D+03 0.000000000000000D+00 0.000000000000000D+00 -.478371524650177D+03
 0.161878425477550D+03 -.119462913452582D+03 0.335806284447948D+02 0.499031761891383D+02
 0.367995205416670D+03 -.778172810207345D+02 0.655858025146234D+02 -.353643103273216D+03
 0.299021300403763D+02 0.188473072114204D+02 0.564401545835944D+01 -.225180256979984D+02
 0.396967288365756D+03 0.178432887261896D+03 -.104810446417778D+03 0.326257952782076D+03
 0.000000000000000D+00 0.000000000000000D+00 0.000000000000000D+00 0.000000000000000D+00
 0.893354055431021D+03 0.000000000000000D+00 0.000000000000000D+00 0.893354055431021D+03
 0.593404460060074D+03 0.000000000000000D+00 0.000000000000000D+00 -.593404460060074D+03
 0.183377392985502D+03 -.149625312263883D+03 -.208316070030717D+02 0.499031761891383D+02
 0.385381257727966D+03 -.143634104724309D+03 -.531461501458465D+02 -.353643103273216D+03
 0.266668323974744D+02 0.139053032996903D+02 -.327123966148802D+01 -.225180256979984D+02
 0.425533318999517D+03 0.106577208037352D+03 -.234436347881802D+03 0.326257952782076D+03
 0.465799713380635D+03 0.172776905651150D+03 0.311685344692208D+03 0.299949595370947D+03
0.653834537469D-04 0.000000000000D+00 0.000000000000D+00 0.586377571259D-09 0.000000000000D+00  7 1 -1 23 -11 11 23 21 0 0.49325078D-01 0.10980855D+00 0.62894881D+05 0.62894881D+05 0.62894881D+05 0.11386324D+01  1  2  2  1  7  1        1 0.548061795789D-03 0.100000000000D+01
-.179061239399D-05 0.000000000000D+00 -.251089678247D-06 0.586377571259D-09 0.000000000000D+00  7 1 -1 23 -11 11 23 21 2 0.49325078D-01 0.10980855D+00 0.62894881D+05 0.62894881D+05 0.62894881D+05 0.11386324D+01  1  2  3  1  7  1        1 -.194594407772D-04 0.100000000000D+01
0.392663704460D-05 0.000000000000D+00 0.000000000000D+00 0.586377571259D-09 0.000000000000D+00  7 1 -1 23 -11 11 23 21 2 0.49325078D-01 0.10980855D+00 0.62894881D+05 0.62894881D+05 0.62894881D+05 0.11386324D+01  1  2 15  1  7  1        1 0.426726416500D-04 0.100000000000D+01
-.502306836980D-05 0.000000000000D+00 -.214487646496D-04 0.586377571259D-09 0.000000000000D+00  7 1 -1 23 -11 11 23 21 2 0.10823419D+00 0.10980855D+00 0.62894881D+05 0.62894881D+05 0.62894881D+05 0.11386324D+01  1  2  5  1  7  1        1 -.185486504887D-04 0.100000000000D+01
0.922393756564D-06 0.000000000000D+00 -.182666789636D-05 0.586377571259D-09 0.000000000000D+00  7 21 -1 23 -11 11 23 -1 2 0.10823419D+00 0.10980855D+00 0.62894881D+05 0.62894881D+05 0.62894881D+05 0.11386324D+01  1  2  5  3  7  1        1 0.728639752277D-05 0.100000000000D+01
  </mgrwgt>
  </event>
  <event>
  8     66 0.56006291E-06 0.24230267E+03 0.75467711E-02 0.95273732E-01
        3 -1    0    0  501    0 0.00000000E+00 0.00000000E+00 0.10694628E+04 0.10694629E+04 0.50000000E+00 0.0000E+00 0.9000E+01
       -3 -1    0    0    0  501 0.00000000E+00 0.00000000E+00 -.21078681E+03 0.21078741E+03 0.50000000E+00 0.0000E+00 0.9000E+01
       25  2    1    2    0    0 -.13931050E+03 0.57103476E+02 0.99974843E+03 0.10548551E+04 0.30092200E+03 0.0000E+00 0.0000E+00
       23  2    1    2    0    0 0.13931050E+03 -.57103476E+02 -.14107248E+03 0.22539523E+03 0.90737780E+02 0.0000E+00 0.0000E+00
       23  1    3    3    0    0 0.13408367E+02 0.11032641E+03 0.33228026E+03 0.36204575E+03 0.91188000E+02 0.0000E+00 0.9000E+01
      -11  1    4    4    0    0 0.10436970E+03 -.24095153E+02 -.41583728E+02 0.11490351E+03 0.51099893E-03 0.0000E+00 0.9000E+01
       11  1    4    4    0    0 0.34940799E+02 -.33008323E+02 -.99488749E+02 0.11049172E+03 0.51099893E-03 0.0000E+00 0.9000E+01
       23  1    3    3    0    0 -.15271887E+03 -.53222930E+02 0.66746817E+03 0.69280931E+03 0.91188000E+02 0.0000E+00 0.9000E+01
#aMCatNLO 1  0  0  1  2 0.35252521D+03 0.00000000D+00  -5  7  0 0.00000000D+00 0.00000000D+00 0.00000000D+00 0.00000000D+00 0.00000000D+00
  <mgrwgt>
 0.1812784940D-04    6    2    0
 0.474793749188889D+03 0.000000000000000D+00 0.000000000000000D+00 0.474793749188889D+03
 0.474793749188889D+03 0.000000000000000D+00 0.000000000000000D+00 -.474793749188889D+03
 0.187647905235724D+03 0.134083665702359D+02 0.110326405998727D+03 0.120601761349813D+03
 0.192517493532896D+03 0.104369702547640D+03 -.240951527503578D+02 -.159966790679324D+03
 0.238930748805704D+03 0.349407989446829D+02 -.330083230772351D+02 -.234045922633979D+03
 0.330491350803455D+03 -.152718868062559D+03 -.532229301711344D+02 0.273410951963490D+03
 0.000000000000000D+00 -.000000000000000D+00 -.000000000000000D+00 0.000000000000000D+00
 0.855874560519566D+03 0.000000000000000D+00 0.000000000000000D+00 0.855874560519566D+03
 0.595370780698415D+03 0.000000000000000D+00 0.000000000000000D+00 -.595370780698415D+03
 0.206474559897234D+03 0.841670849543760D+02 0.112639289372590D+03 0.120601761349813D+03
 0.243789082096884D+03 0.182701938959795D+03 -.215347145263129D+02 -.159966790679324D+03
 0.267428306220602D+03 0.125849896866261D+03 -.300367861992746D+02 -.234045922633979D+03
 0.295219912612941D+03 -.403818890909867D+02 -.495509822208790D+02 0.273410951963490D+03
 0.438333480390321D+03 -.352337031689445D+03 -.115168064261237D+02 0.260503779821151D+03
0.134425581329D-04 0.000000000000D+00 0.000000000000D+00 0.447807750716D-06 0.000000000000D+00  7 3 -3 23 -11 11 23 21 0 0.16453279D+00 0.32428795D-01 0.58710583D+05 0.58710583D+05 0.58710583D+05 0.11412106D+01  1  2  2  1  7  1        3 0.126354782002D-04 0.100000000000D+01
-.335919750263D-06 0.000000000000D+00 -.516229627373D-07 0.447807750716D-06 0.000000000000D+00  7 3 -3 23 -11 11 23 21 2 0.16453279D+00 0.32428795D-01 0.58710583D+05 0.58710583D+05 0.58710583D+05 0.11412106D+01  1  2  3  1  7  1        3 -.411222520376D-06 0.100000000000D+01
0.827014530239D-06 0.000000000000D+00 0.000000000000D+00 0.447807750716D-06 0.000000000000D+00  7 3 -3 23 -11 11 23 21 2 0.16453279D+00 0.32428795D-01 0.58710583D+05 0.58710583D+05 0.58710583D+05 0.11412106D+01  1  2 15  1  7  1        3 0.101240549044D-05 0.100000000000D+01
-.133892593479D-05 0.000000000000D+00 -.398638235607D-05 0.447807750716D-06 0.000000000000D+00  7 3 -3 23 -11 11 23 21 2 0.32770828D+00 0.32428795D-01 0.58710583D+05 0.58710583D+05 0.58710583D+05 0.11412106D+01  1  2  5  1  7  1        3 -.635766016105D-07 0.100000000000D+01
0.390964180881D-05 0.000000000000D+00 0.319700696807D-05 0.447807750716D-06 0.000000000000D+00  7 3 -3 23 -11 11 23 21 2 0.16453279D+00 0.32428795D-01 0.58710583D+05 0.58710583D+05 0.58710583D+05 0.11412106D+01  1  2  6  1  7  1        3 0.478606201964D-05 0.100000000000D+01
0.138541063262D-06 0.000000000000D+00 -.297252000304D-06 0.447807750716D-06 0.000000000000D+00  7 21 -3 23 -11 11 23 -3 2 0.32770828D+00 0.32428795D-01 0.58710583D+05 0.58710583D+05 0.58710583D+05 0.11412106D+01  1  2  5  3  7  1        3 0.168702813279D-06 0.100000000000D+01
  </mgrwgt>
  </event>
  <event>
  8     66 0.56006291E-06 0.28230580E+03 0.75467711E-02 0.82300939E-01
        1 -1    0    0  501    0 0.00000000E+00 0.00000000E+00 0.98664559E+03 0.98664565E+03 0.32000000E+00 0.0000E+00 0.9000E+01
       -1 -1    0    0    0  501 0.00000000E+00 0.00000000E+00 -.15041942E+03 0.15041976E+03 0.32000000E+00 0.0000E+00 0.9000E+01
       25  2    1    2    0    0 0.12838022E+03 -.15058444E+03 0.84930234E+03 0.92235237E+03 0.30043680E+03 0.0000E+00 0.0000E+00
       23  2    1    2    0    0 -.12838022E+03 0.15058444E+03 -.13076169E+02 0.21471305E+03 0.82301587E+02 0.0000E+00 0.0000E+00
       23  1    3    3    0    0 -.38512429E+02 0.12647136E+02 0.15647962E+03 0.18559170E+03 0.91188000E+02 0.0000E+00 0.9000E+01
      -13  1    4    4    0    0 -.15366324E+02 -.96274185E+01 -.31142208E+01 0.18398930E+02 0.10565837E+00 0.0000E+00 0.9000E+01
       13  1    4    4    0    0 -.11301390E+03 0.16021186E+03 -.99619486E+01 0.19631412E+03 0.10565837E+00 0.0000E+00 0.9000E+01
       23  1    3    3    0    0 0.16689265E+03 -.16323157E+03 0.69282272E+03 0.73676066E+03 0.91188000E+02 0.0000E+00 0.9000E+01
#aMCatNLO 1  0  0  2  2 0.17282777D+04 0.00000000D+00  -5  7  0 0.00000000D+00 0.00000000D+00 0.00000000D+00 0.00000000D+00 0.00000000D+00
  <mgrwgt>
 0.5591050271D-03    3    2    0
 0.385241334081591D+03 0.000000000000000D+00 0.000000000000000D+00 0.385241334081591D+03
 0.385241334081591D+03 0.000000000000000D+00 0.000000000000000D+00 -.385241334081591D+03
 0.104061461283156D+03 -.385124288886909D+02 0.126471356269776D+02 0.295021891037278D+02
 0.305323377406672D+02 -.153661629456467D+02 -.962769807382586D+01 -.245644481728627D+02
 0.300529505090006D+03 -.113014058549072D+03 0.160212136903038D+03 -.227767155641178D+03
 0.335359364049353D+03 0.166892650383410D+03 -.163231574456190D+03 0.222829414710313D+03
 0.000000000000000D+00 0.000000000000000D+00 -.000000000000000D+00 0.000000000000000D+00
 0.203685395993375D+04 0.000000000000000D+00 0.000000000000000D+00 0.203685395993375D+04
 0.163074107925096D+04 0.000000000000000D+00 0.000000000000000D+00 -.163074107925096D+04
 0.343945953137326D+03 -.285719602088162D+03 0.165763377005338D+03 0.295021891037278D+02
 0.929158916690976D+02 -.834839816392129D+02 0.325634092240016D+02 -.245644481728627D+02
 0.114282104897852D+04 -.909444204395466D+03 0.653508463519019D+03 -.227767155641178D+03
 0.312561082613976D+03 -.190625053391579D+03 0.582092774404389D+02 0.222829414710313D+03
 0.177535106278578D+04 0.146927284151442D+04 -.910044527188797D+03 0.406112880682791D+03
0.190039409509D-04 0.000000000000D+00 0.000000000000D+00 0.130666905720D-07 0.000000000000D+00  7 1 -1 23 -13 13 23 21 0 0.15179166D+00 0.23141480D-01 0.79696565D+05 0.79696565D+05 0.79696565D+05 0.11299009D+01  1  2  2  2  7  2       -1 0.550976003747D-03 0.100000000000D+01
-.931713373874D-06 0.000000000000D+00 -.729801371039D-07 0.130666905720D-07 0.000000000000D+00  7 1 -1 23 -13 13 23 21 2 0.15179166D+00 0.23141480D-01 0.79696565D+05 0.79696565D+05 0.79696565D+05 0.11299009D+01  1  2  3  2  7  2       -1 -.344867343211D-04 0.100000000000D+01
0.115133172547D-05 0.000000000000D+00 0.000000000000D+00 0.130666905720D-07 0.000000000000D+00  7 1 -1 23 -13 13 23 21 2 0.15179166D+00 0.23141480D-01 0.79696565D+05 0.79696565D+05 0.79696565D+05 0.11299009D+01  1  2 15  2  7  2       -1 0.426157576411D-04 0.100000000000D+01
  </mgrwgt>
  </event>
  <event>
  9     66 0.56006291E-06 0.23123531E+03 0.75467711E-02 0.99297573E-01
        1 -1    0    0  501    0 0.00000000E+00 0.00000000E+00 0.14399923E+04 0.14399923E+04 0.32000000E+00 0.0000E+00 0.9000E+01
       -1 -1    0    0    0  502 0.00000000E+00 0.00000000E+00 -.26664089E+03 0.26664108E+03 0.32000000E+00 0.0000E+00 0.9000E+01
       25  2    1    2    0    0 -.12919103E+03 -.57286060E+02 0.10506066E+04 0.11015602E+04 0.29948058E+03 0.0000E+00 0.0000E+00
       23  2    1    2    0    0 0.15003539E+03 -.12261789E+03 0.28829093E+03 0.35970400E+03 0.93432013E+02 0.0000E+00 0.0000E+00
       23  1    3    3    0    0 0.34007512E+02 0.17095780E+02 0.15641872E+03 0.18501580E+03 0.91188000E+02 0.0000E+00 0.9000E+01
      -13  1    4    4    0    0 0.18203399E+02 -.86302250E+01 -.28907474E+01 0.20352201E+02 0.10565837E+00 0.0000E+00 0.9000E+01
       13  1    4    4    0    0 0.13183199E+03 -.11398766E+03 0.29118168E+03 0.33935180E+03 0.10565837E+00 0.0000E+00 0.9000E+01
       23  1    3    3    0    0 -.16319854E+03 -.74381840E+02 0.89418791E+03 0.91654443E+03 0.91188000E+02 0.0000E+00 0.9000E+01
       21  1    1    2  501  502 -.20844357E+02 0.17990395E+03 -.16554619E+03 0.24536916E+03 0.75000000E+00 0.0000E+00 0.9000E+01
#aMCatNLO 2  0  0  2  1 0.18110748D+03 0.00000000D+00  -5  7  0 0.00000000D+00 0.00000000D+00 0.00000000D+00 0.00000000D+00 0.00000000D+00
  <mgrwgt>
 0.9368252368D-04    2    2    0
 0.278319297470487D+03 0.000000000000000D+00 0.000000000000000D+00 0.278319297470487D+03
 0.278319297470487D+03 0.000000000000000D+00 0.000000000000000D+00 -.278319297470487D+03
 0.113709416173508D+03 0.300321773141868D+02 0.514061678673135D+02 -.327116831344210D+02
 0.569098885787465D+02 0.161164894686415D+02 0.938047994203991D+01 -.537680275006392D+02
 0.148688001253318D+03 0.125812306452523D+03 -.620317597572765D+02 -.493096952253659D+02
 0.237331288935403D+03 -.171960973235351D+03 0.124511194792311D+01 0.135789405860426D+03
 0.000000000000000D+00 -.000000000000000D+00 0.000000000000000D+00 -.000000000000000D+00
 0.301023210311591D+03 0.000000000000000D+00 0.000000000000000D+00 0.301023210311591D+03
 0.127551845733957D+04 0.000000000000000D+00 0.000000000000000D+00 -.127551845733957D+04
 0.104086896314061D+03 0.340075094302534D+02 0.170957810338865D+02 -.327116831344210D+02
 0.574180997969743D+02 0.182032636603820D+02 -.863009820896723D+01 -.537680275006392D+02
 0.181119776927872D+03 0.131832130377720D+03 -.113987792992300D+03 -.493096952253659D+02
 0.242735324511789D+03 -.163198546523481D+03 -.743818397899608D+02 0.135789405860426D+03
 0.991181570100469D+03 -.208443569448744D+02 0.179903949957342D+03 -.974495247027984D+03
-.118312263598D-05 0.000000000000D+00 0.000000000000D+00 0.561012759799D-07 0.000000000000D+00  7 1 -1 23 -13 13 23 21 2 0.20482831D+00 0.39614344D-01 0.11409022D+06 0.11409022D+06 0.11409022D+06 0.11170542D+01  1  2 13  2  7  2       -1 -.981311812309D-05 0.100000000000D+01
0.156909169393D-04 0.000000000000D+00 0.000000000000D+00 0.561012759799D-07 0.312190497391D-10  7 1 -1 23 -13 13 23 21 2 0.22153719D+00 0.41021674D-01 0.11409022D+06 0.11409022D+06 0.11409022D+06 0.11170542D+01  1  2  1  2  7  2       -1 0.103495641807D-03 0.100000000000D+01
  </mgrwgt>
  </event>
  <event>
  8     66 0.56006291E-06 0.58617424E+02 0.75467711E-02 0.10227656E+00
        1 -1    0    0  501    0 0.00000000E+00 0.00000000E+00 0.12233937E+03 0.12233979E+03 0.32000000E+00 0.0000E+00 0.9000E+01
       -1 -1    0    0    0  501 0.00000000E+00 0.00000000E+00 -.50589029E+03 0.50589039E+03 0.32000000E+00 0.0000E+00 0.9000E+01
       25  2    1    2    0    0 -.34587936E+02 0.86024719E+02 -.12143712E+03 0.33636626E+03 0.29966432E+03 0.0000E+00 0.0000E+00
       23  2    1    2    0    0 0.34587936E+02 -.86024719E+02 -.26211380E+03 0.29186393E+03 0.88793750E+02 0.0000E+00 0.0000E+00
       23  1    3    3    0    0 -.83735567E+01 0.13043487E+03 -.15895587E+03 0.22509019E+03 0.91188000E+02 0.0000E+00 0.9000E+01
      -11  1    4    4    0    0 0.24584433E+01 -.15161012E+02 -.17251220E+03 0.17319457E+03 0.51099893E-03 0.0000E+00 0.9000E+01
       11  1    4    4    0    0 0.32129493E+02 -.70863707E+02 -.89601599E+02 0.11866935E+03 0.51099893E-03 0.0000E+00 0.9000E+01
       23  1    3    3    0    0 -.26214379E+02 -.44410152E+02 0.37518752E+02 0.11127607E+03 0.91188000E+02 0.0000E+00 0.9000E+01
#aMCatNLO 1  0  0  2  1 0.15516408D+03 0.00000000D+00  -5  7  0 0.00000000D+00 0.00000000D+00 0.00000000D+00 0.00000000D+00 0.00000000D+00
  <mgrwgt>
 0.1645280402D-03    8    2    0
 0.248777940138177D+03 0.000000000000000D+00 0.000000000000000D+00 0.248777940138177D+03
 0.248777940138177D+03 0.000000000000000D+00 0.000000000000000D+00 -.248777940138177D+03
 0.161671848322667D+03 -.837355672577539D+01 0.130434870980752D+03 -.271875555367193D+02
 0.856965934701651D+02 0.245844336149394D+01 -.151610122841994D+02 -.843089905949979D+02
 0.807645861653236D+02 0.321294925009594D+02 -.708637070148514D+02 -.216552330442338D+02
 0.169422852318199D+03 -.262143791366780D+02 -.444101516817008D+02 0.133151779175951D+03
 0.000000000000000D+00 -.000000000000000D+00 -.000000000000000D+00 -.000000000000000D+00
 0.298389326498117D+03 0.000000000000000D+00 0.000000000000000D+00 0.298389326498117D+03
 0.419847814571992D+03 0.000000000000000D+00 0.000000000000000D+00 -.419847814571992D+03
 0.195672080947900D+03 0.308465865879087D+02 0.168171450723047D+03 -.271875555367193D+02
 0.870413336513323D+02 0.214172270499226D+02 0.308062560970638D+01 -.843089905949979D+02
 0.764986730137878D+02 0.493898600565859D+02 -.542562399937667D+02 -.216552330442338D+02
 0.161976693692199D+03 0.101582485308720D+02 -.941337583018544D+01 0.133151779175951D+03
 0.197048359764889D+03 -.111811922225289D+03 -.107582460508801D+03 -.121458488073874D+03
0.168459414168D-05 0.000000000000D+00 0.000000000000D+00 0.638699447707D-07 0.000000000000D+00  7 1 -1 23 -11 11 23 21 0 0.18821482D-01 0.77829316D-01 0.31915106D+05 0.31915106D+05 0.31915106D+05 0.11648506D+01  1  2  2  2  7  2       -1 0.102469585945D-03 0.100000000000D+01
-.811108127986D-07 0.000000000000D+00 -.646928506787D-08 0.638699447707D-07 0.000000000000D+00  7 1 -1 23 -11 11 23 21 2 0.18821482D-01 0.77829316D-01 0.31915106D+05 0.31915106D+05 0.31915106D+05 0.11648506D+01  1  2  3  2  7  2       -1 -.669451160006D-05 0.100000000000D+01
0.103501185887D-06 0.000000000000D+00 0.000000000000D+00 0.638699447707D-07 0.000000000000D+00  7 1 -1 23 -11 11 23 21 2 0.18821482D-01 0.77829316D-01 0.31915106D+05 0.31915106D+05 0.31915106D+05 0.11648506D+01  1  2 15  2  7  2       -1 0.854250950809D-05 0.100000000000D+01
0.288796195892D-07 0.000000000000D+00 0.000000000000D+00 0.638699447707D-07 0.000000000000D+00  7 1 -1 23 -11 11 23 21 2 0.18821482D-01 0.13468125D+00 0.71872009D+05 0.71872009D+05 0.71872009D+05 0.11336865D+01  1  2 12  2  7  2       -1 0.656470079724D-06 0.100000000000D+01
-.672152733588D-06 0.000000000000D+00 -.512809767889D-06 0.638699447707D-07 0.000000000000D+00  7 1 -1 23 -11 11 23 21 2 0.18821482D-01 0.14819866D+00 0.31915106D+05 0.31915106D+05 0.31915106D+05 0.11648506D+01  1  2  5  2  7  2       -1 -.127354497860D-04 0.100000000000D+01
0.899878850572D-06 0.000000000000D+00 0.422184061889D-06 0.638699447707D-07 0.000000000000D+00  7 1 -1 23 -11 11 23 21 2 0.18821482D-01 0.77829316D-01 0.31915106D+05 0.31915106D+05 0.31915106D+05 0.11648506D+01  1  2  6  2  7  2       -1 0.742718411509D-04 0.100000000000D+01
0.175510778895D-08 0.000000000000D+00 0.000000000000D+00 0.638699447707D-07 0.000000000000D+00  7 1 21 23 -11 11 23 1 2 0.18821482D-01 0.13468125D+00 0.71872009D+05 0.71872009D+05 0.71872009D+05 0.11336865D+01  1  2 12  4  7  2       -1 0.265405619806D-06 0.100000000000D+01
-.176694205357D-07 0.000000000000D+00 -.358766999219D-07 0.638699447707D-07 0.000000000000D+00  7 1 21 23 -11 11 23 1 2 0.18821482D-01 0.14819866D+00 0.31915106D+05 0.31915106D+05 0.31915106D+05 0.11648506D+01  1  2  5  4  7  2       -1 -.224781068554D-05 0.100000000000D+01
  </mgrwgt>
  </event>
  <event>
  8     66 0.56006291E-06 0.19707812E+03 0.75467711E-02 0.93996879E-01
        1 -1    0    0  501    0 0.00000000E+00 0.00000000E+00 0.17365186E+03 0.17365216E+03 0.32000000E+00 0.0000E+00 0.9000E+01
       -1 -1    0    0    0  501 0.00000000E+00 0.00000000E+00 -.36623442E+03 0.36623456E+03 0.32000000E+00 0.0000E+00 0.9000E+01
       25  2    1    2    0    0 -.39069168E+02 0.14599691E+02 -.27235146E+03 0.41081690E+03 0.30472227E+03 0.0000E+00 0.0000E+00
       23  2    1    2    0    0 0.39069168E+02 -.14599691E+02 0.79768894E+02 0.12906982E+03 0.92500759E+02 0.0000E+00 0.0000E+00
       23  1    3    3    0    0 -.10123985E+03 0.86736956E+02 -.21010286E+03 0.26501183E+03 0.91188000E+02 0.0000E+00 0.9000E+01
      -13  1    4    4    0    0 -.19590075E+02 0.23688542E+02 0.17660688E+02 0.35451786E+02 0.10565837E+00 0.0000E+00 0.9000E+01
       13  1    4    4    0    0 0.58659243E+02 -.38288232E+02 0.62108206E+02 0.93618032E+02 0.10565837E+00 0.0000E+00 0.9000E+01
       23  1    3    3    0    0 0.62170686E+02 -.72137265E+02 -.62248596E+02 0.14580507E+03 0.91188000E+02 0.0000E+00 0.9000E+01
#aMCatNLO 1  0  0  2  1 0.47712078D+03 0.00000000D+00  -5  7  0 0.00000000D+00 0.00000000D+00 0.00000000D+00 0.00000000D+00 0.00000000D+00
  <mgrwgt>
 0.1136597865D-03    5    2    0
 0.252185261592621D+03 0.000000000000000D+00 0.000000000000000D+00 0.252185261592621D+03
 0.252185261592621D+03 0.000000000000000D+00 0.000000000000000D+00 -.252185261592621D+03
 0.203450082166187D+03 -.101239856267906D+03 0.867369571788771D+02 -.123708836998945D+03
 0.446914151341335D+02 -.195901636070051D+02 0.236886107580822D+02 0.324406812026859D+02
 0.123925049399187D+03 0.586593358804527D+02 -.382883034160274D+02 0.102227716418677D+03
 0.132303976485736D+03 0.621706839944585D+02 -.721372645209319D+02 -.109595606224178D+02
 0.000000000000000D+00 -.000000000000000D+00 0.000000000000000D+00 -.000000000000000D+00
 0.390714979044249D+03 0.000000000000000D+00 0.000000000000000D+00 0.390714979044249D+03
 0.165329099683539D+04 0.000000000000000D+00 0.000000000000000D+00 -.165329099683539D+04
 0.153978879122379D+03 0.463709041755008D+01 -.829848857396013D+01 -.123708836998945D+03
 0.327599940977517D+02 0.335234977074368D+01 0.309534608808499D+01 0.324406812026859D+02
 0.236076536573568D+03 0.165298340697818D+03 -.134007774695882D+03 0.102227716418677D+03
 0.271471174218623D+03 0.181776213299968D+03 -.179495524726735D+03 -.109595606224178D+02
 0.134971939186732D+04 -.355063994186080D+03 0.318706441908492D+03 -.126257601779114D+04
0.156979072062D-05 0.000000000000D+00 0.000000000000D+00 0.282738186933D-08 0.000000000000D+00  7 1 -1 23 -13 13 23 21 0 0.26715704D-01 0.56343791D-01 0.38839785D+05 0.38839785D+05 0.38839785D+05 0.11570708D+01  1  2  2  2  7  2       -1 0.111897756465D-03 0.100000000000D+01
-.807643129645D-07 0.000000000000D+00 -.602840970257D-08 0.282738186933D-08 0.000000000000D+00  7 1 -1 23 -13 13 23 21 2 0.26715704D-01 0.56343791D-01 0.38839785D+05 0.38839785D+05 0.38839785D+05 0.11570708D+01  1  2  3  2  7  2       -1 -.770759668093D-05 0.100000000000D+01
0.101165253058D-06 0.000000000000D+00 0.000000000000D+00 0.282738186933D-08 0.000000000000D+00  7 1 -1 23 -13 13 23 21 2 0.26715704D-01 0.56343791D-01 0.38839785D+05 0.38839785D+05 0.38839785D+05 0.11570708D+01  1  2 15  2  7  2       -1 0.965452363890D-05 0.100000000000D+01
-.317691316547D-06 0.000000000000D+00 -.848300976063D-06 0.282738186933D-08 0.000000000000D+00  7 1 -1 23 -13 13 23 21 2 0.26715704D-01 0.42658315D+00 0.38839785D+05 0.38839785D+05 0.38839785D+05 0.11570708D+01  1  2  5  2  7  2       -1 -.163009714954D-07 0.100000000000D+01
-.170954966550D-06 0.000000000000D+00 -.209146217280D-06 0.282738186933D-08 0.000000000000D+00  7 1 21 23 -13 13 23 1 2 0.26715704D-01 0.42658315D+00 0.38839785D+05 0.38839785D+05 0.38839785D+05 0.11570708D+01  1  2  5  4  7  2       -1 -.168595927522D-06 0.100000000000D+01
  </mgrwgt>
  </event>
  <event>
  8     66 0.56006291E-06 0.41353845E+03 0.75467711E-02 0.89132329E-01
        1 -1    0    0  501    0 0.00000000E+00 0.00000000E+00 0.68753512E+03 0.68753520E+03 0.32000000E+00 0.0000E+00 0.9000E+01
       -1 -1    0    0    0  501 0.00000000E+00 0.00000000E+00 -.42082217E+03 0.42082229E+03 0.32000000E+00 0.0000E+00 0.9000E+01
       25  2    1    2    0    0 0.27918040E+03 -.24241007E+03 0.47710391E+03 0.67329250E+03 0.29831244E+03 0.0000E+00 0.0000E+00
       23  2    1    2    0    0 -.27918040E+03 0.24241007E+03 -.21039096E+03 0.43506499E+03 0.91174859E+02 0.0000E+00 0.0000E+00
       23  1    3    3    0    0 0.22588040E+03 -.25270454E+03 0.27830064E+03 0.44793754E+03 0.91188000E+02 0.0000E+00 0.9000E+01
      -11  1    4    4    0    0 -.15846181E+03 0.14600350E+03 -.17245502E+03 0.27598533E+03 0.51099893E-03 0.0000E+00 0.9000E+01
       11  1    4    4    0    0 -.12071858E+03 0.96406566E+02 -.37935938E+02 0.15907966E+03 0.51099893E-03 0.0000E+00 0.9000E+01
       23  1    3    3    0    0 0.53299998E+02 0.10294474E+02 0.19880327E+03 0.22535496E+03 0.91188000E+02 0.0000E+00 0.9000E+01
#aMCatNLO 1  0  0  2  1 0.68985988D+03 0.00000000D+00  -5  7  0 0.00000000D+00 0.00000000D+00 0.00000000D+00 0.00000000D+00 0.00000000D+00
  <mgrwgt>
 0.2132173592D-03    5    2    0
 0.537894163467072D+03 0.000000000000000D+00 0.000000000000000D+00 0.537894163467072D+03
 0.537894163467072D+03 0.000000000000000D+00 0.000000000000000D+00 -.537894163467072D+03
 0.392501506047546D+03 0.225880397305738D+03 -.252704541472520D+03 0.175671971975488D+03
 0.327096316525839D+03 -.158461813810069D+03 0.146003500874439D+03 -.246099231167436D+03
 0.173300946538294D+03 -.120718581280574D+03 0.964065663422350D+02 -.785239846847716D+02
 0.182889557822465D+03 0.532999977849044D+02 0.102944742558460D+02 0.148951243876719D+03
 0.000000000000000D+00 -.000000000000000D+00 0.000000000000000D+00 -.000000000000000D+00
 0.890655385098364D+03 0.000000000000000D+00 0.000000000000000D+00 0.890655385098364D+03
 0.111174414497238D+04 0.000000000000000D+00 0.000000000000000D+00 -.111174414497238D+04
 0.669073868729775D+03 0.502788998973546D+03 -.394572136936266D+03 0.175671971975488D+03
 0.255444853533259D+03 -.650777960045795D+01 0.681534329296573D+02 -.246099231167436D+03
 0.108786981927097D+03 -.471368312940458D+02 0.587086910226151D+02 -.785239846847716D+02
 0.244672063431462D+03 0.164828103542897D+03 -.468443220661760D+02 0.148951243876719D+03
 0.724421762449153D+03 -.613972491621939D+03 0.314554335050170D+03 -.221088759874017D+03
0.240185976152D-04 0.000000000000D+00 0.000000000000D+00 0.309435508836D-06 0.000000000000D+00  7 1 -1 23 -11 11 23 21 0 0.10577465D+00 0.64741887D-01 0.17101405D+06 0.17101405D+06 0.17101405D+06 0.11030863D+01  1  2  2  2  7  2       -1 0.203289621267D-03 0.100000000000D+01
-.122222275607D-05 0.000000000000D+00 -.922377390842D-07 0.309435508836D-06 0.000000000000D+00  7 1 -1 23 -11 11 23 21 2 0.10577465D+00 0.64741887D-01 0.17101405D+06 0.17101405D+06 0.17101405D+06 0.11030863D+01  1  2  3  2  7  2       -1 -.125874258497D-04 0.100000000000D+01
0.147466436700D-05 0.000000000000D+00 0.000000000000D+00 0.309435508836D-06 0.000000000000D+00  7 1 -1 23 -11 11 23 21 2 0.10577465D+00 0.64741887D-01 0.17101405D+06 0.17101405D+06 0.17101405D+06 0.11030863D+01  1  2 15  2  7  2       -1 0.151872711261D-04 0.100000000000D+01
0.475826862373D-05 0.000000000000D+00 -.724887864718D-05 0.309435508836D-06 0.000000000000D+00  7 1 -1 23 -11 11 23 21 2 0.10577465D+00 0.19440018D+00 0.17101405D+06 0.17101405D+06 0.17101405D+06 0.11030863D+01  1  2  5  2  7  2       -1 0.318818787956D-05 0.100000000000D+01
0.957195806404D-06 0.000000000000D+00 -.907005148333D-06 0.309435508836D-06 0.000000000000D+00  7 1 21 23 -11 11 23 1 2 0.10577465D+00 0.19440018D+00 0.17101405D+06 0.17101405D+06 0.17101405D+06 0.11030863D+01  1  2  5  4  7  2       -1 0.413970476305D-05 0.100000000000D+01
  </mgrwgt>
  </event>
  <event>
  8     66 0.56006291E-06 0.19102727E+03 0.75467711E-02 0.90964171E-01
        3 -1    0    0  501    0 0.00000000E+00 0.00000000E+00 0.17251996E+03 0.17252068E+03 0.50000000E+00 0.0000E+00 0.9000E+01
       -3 -1    0    0    0  501 0.00000000E+00 0.00000000E+00 -.27201563E+03 0.27201609E+03 0.50000000E+00 0.0000E+00 0.9000E+01
       25  2    1    2    0    0 -.58612971E+02 0.40610477E+02 -.12245874E+03 0.32339472E+03 0.29069453E+03 0.0000E+00 0.0000E+00
       23  2    1    2    0    0 0.58612971E+02 -.40610477E+02 0.22963067E+02 0.12114205E+03 0.95201902E+02 0.0000E+00 0.0000E+00
       23  1    3    3    0    0 -.38723341E+02 0.13413058E+03 -.76983745E+02 0.18366343E+03 0.91188000E+02 0.0000E+00 0.9000E+01
      -13  1    4    4    0    0 0.31727195E+02 0.30831547E+01 -.32545833E+02 0.45556154E+02 0.10565837E+00 0.0000E+00 0.9000E+01
       13  1    4    4    0    0 0.26885777E+02 -.43693632E+02 0.55508899E+02 0.75585895E+02 0.10565837E+00 0.0000E+00 0.9000E+01
       23  1    3    3    0    0 -.19889630E+02 -.93520098E+02 -.45474995E+02 0.13973129E+03 0.91188000E+02 0.0000E+00 0.9000E+01
#aMCatNLO 1  0  0  2  1 0.64329866D+03 0.00000000D+00  -5  7  0 0.00000000D+00 0.00000000D+00 0.00000000D+00 0.00000000D+00 0.00000000D+00
  <mgrwgt>
 0.1406834708D-03    5    2    0
 0.216629609150685D+03 0.000000000000000D+00 0.000000000000000D+00 0.216629609150685D+03
 0.216629609150685D+03 0.000000000000000D+00 0.000000000000000D+00 -.216629609150685D+03
 0.170765203199992D+03 -.387234327505153D+02 0.134130523919188D+03 -.368103462237894D+02
 0.392678955549309D+02 0.317272391548487D+02 0.308315847504783D+01 -.229312897749284D+02
 0.903008785665250D+02 0.268859090050246D+02 -.436937581462182D+02 0.743118568326725D+02
 0.132925240979922D+03 -.198897154093580D+02 -.935199242480174D+02 -.145702208339548D+02
 0.000000000000000D+00 -.000000000000000D+00 0.000000000000000D+00 -.000000000000000D+00
 0.505876430340869D+03 0.000000000000000D+00 0.000000000000000D+00 0.505876430340869D+03
 0.126397416606104D+04 0.000000000000000D+00 0.000000000000000D+00 -.126397416606104D+04
 0.173336222559033D+03 0.129105265737068D+03 0.608853305557281D+02 -.368103462237894D+02
 0.111639456400000D+03 0.105329330209653D+03 -.290388769089240D+02 -.229312897749284D+02
 0.224188504877921D+03 0.180271916619553D+03 -.110635752502484D+03 0.743118568326725D+02
 0.266430239925306D+03 0.174888061074323D+03 -.178526457874371D+03 -.145702208339548D+02
 0.994256172639649D+03 -.589594573640597D+03 0.257315756730051D+03 -.758097735720169D+03
0.436194283350D-05 0.000000000000D+00 0.000000000000D+00 0.136506204977D-09 0.000000000000D+00  7 3 -3 23 -13 13 23 21 0 0.26541623D-01 0.41848649D-01 0.36491419D+05 0.36491419D+05 0.36491419D+05 0.11595244D+01  1  2  2  2  7  2       -3 0.137955707525D-03 0.100000000000D+01
-.237669334829D-06 0.000000000000D+00 -.167510090066D-07 0.136506204977D-09 0.000000000000D+00  7 3 -3 23 -13 13 23 21 2 0.26541623D-01 0.41848649D-01 0.36491419D+05 0.36491419D+05 0.36491419D+05 0.11595244D+01  1  2  3  2  7  2       -3 -.101063098743D-04 0.100000000000D+01
0.285351443385D-06 0.000000000000D+00 0.000000000000D+00 0.136506204977D-09 0.000000000000D+00  7 3 -3 23 -13 13 23 21 2 0.26541623D-01 0.41848649D-01 0.36491419D+05 0.36491419D+05 0.36491419D+05 0.11595244D+01  1  2 15  2  7  2       -3 0.121338754620D-04 0.100000000000D+01
0.496857096911D-05 0.000000000000D+00 -.284105370018D-05 0.136506204977D-09 0.000000000000D+00  7 3 -3 23 -13 13 23 21 2 0.26541623D-01 0.38896293D+00 0.36491419D+05 0.36491419D+05 0.36491419D+05 0.11595244D+01  1  2  5  2  7  2       -3 0.172226511239D-08 0.100000000000D+01
0.910702379167D-06 0.000000000000D+00 -.759402828481D-06 0.136506204977D-09 0.000000000000D+00  7 3 21 23 -13 13 23 3 2 0.26541623D-01 0.38896293D+00 0.36491419D+05 0.36491419D+05 0.36491419D+05 0.11595244D+01  1  2  5  4  7  2       -3 0.698475457003D-06 0.100000000000D+01
  </mgrwgt>
  </event>
  <event>
  8     66 0.56006291E-06 0.10445058E+03 0.75467711E-02 0.10128062E+00
        1 -1    0    0  501    0 0.00000000E+00 0.00000000E+00 0.12056197E+03 0.12056240E+03 0.32000000E+00 0.0000E+00 0.9000E+01
       -1 -1    0    0    0  501 0.00000000E+00 0.00000000E+00 -.92753598E+03 0.92753604E+03 0.32000000E+00 0.0000E+00 0.9000E+01
       25  2    1    2    0    0 -.17214223E+03 -.62383202E+02 -.75407515E+03 0.83198985E+03 0.30008858E+03 0.0000E+00 0.0000E+00
       23  2    1    2    0    0 0.17214223E+03 0.62383202E+02 -.52898856E+02 0.21610859E+03 0.10188239E+03 0.0000E+00 0.0000E+00
       23  1    3    3    0    0 -.79731055E+02 0.41068070E+02 -.11598537E+03 0.17266003E+03 0.91188000E+02 0.0000E+00 0.9000E+01
      -13  1    4    4    0    0 0.12369594E+03 -.79598658E+01 -.35594692E+02 0.12896138E+03 0.10565837E+00 0.0000E+00 0.9000E+01
       13  1    4    4    0    0 0.48446293E+02 0.70343068E+02 -.17304164E+02 0.87147207E+02 0.10565837E+00 0.0000E+00 0.9000E+01
       23  1    3    3    0    0 -.92411177E+02 -.10345127E+03 -.63808978E+03 0.65932982E+03 0.91188000E+02 0.0000E+00 0.9000E+01
#aMCatNLO 1  0  0  2  1 0.67768118D+02 0.00000000D+00  -5  7  0 0.00000000D+00 0.00000000D+00 0.00000000D+00 0.00000000D+00 0.00000000D+00
  <mgrwgt>
 0.8469943627D-04    9    2    0
 0.334403679075136D+03 0.000000000000000D+00 0.000000000000000D+00 0.334403679075136D+03
 0.334403679075136D+03 0.000000000000000D+00 0.000000000000000D+00 -.334403679075136D+03
 0.130631826617831D+03 -.797310655289954D+02 0.410680657785540D+02 0.265667827244958D+02
 0.159149349284861D+03 0.123695992132554D+03 -.795985900718051D+01 0.998221295741765D+02
 0.115690708915963D+03 0.484462715946957D+02 0.703430720532184D+02 0.780330129635321D+02
 0.263335473331617D+03 -.924111981982546D+02 -.103451278824592D+03 -.204421925262204D+03
 0.000000000000000D+00 -.000000000000000D+00 0.000000000000000D+00 -.000000000000000D+00
 0.348978772086190D+03 0.000000000000000D+00 0.000000000000000D+00 0.348978772086190D+03
 0.425375695953457D+03 0.000000000000000D+00 0.000000000000000D+00 -.425375695953457D+03
 0.123426090227401D+03 -.727754025587420D+02 0.302769754583436D+02 0.265667827244958D+02
 0.167432688057609D+03 0.132637239121038D+03 -.218314057225218D+02 0.998221295741765D+02
 0.112951706205184D+03 0.547061024239640D+02 0.606315031982066D+02 0.780330129635321D+02
 0.268421469661342D+03 -.778526198887091D+02 -.126037613749678D+03 -.204421925262204D+03
 0.102122513888110D+03 -.367153190975514D+02 0.569605408156492D+02 -.763969238672671D+02
0.391663816531D-05 0.000000000000D+00 0.000000000000D+00 0.680185713780D-08 0.000000000000D+00  7 1 -1 23 -13 13 23 21 0 0.18548033D-01 0.14269788D+00 0.63320000D+05 0.63320000D+05 0.63320000D+05 0.11383811D+01  1  2  2  2  7  2       -1 0.607398337312D-04 0.100000000000D+01
-.196197013157D-06 0.000000000000D+00 -.150409218293D-07 0.680185713780D-08 0.000000000000D+00  7 1 -1 23 -13 13 23 21 2 0.18548033D-01 0.14269788D+00 0.63320000D+05 0.63320000D+05 0.63320000D+05 0.11383811D+01  1  2  3  2  7  2       -1 -.394301024866D-05 0.100000000000D+01
0.251064248418D-06 0.000000000000D+00 0.000000000000D+00 0.680185713780D-08 0.000000000000D+00  7 1 -1 23 -13 13 23 21 2 0.18548033D-01 0.14269788D+00 0.63320000D+05 0.63320000D+05 0.63320000D+05 0.11383811D+01  1  2 15  2  7  2       -1 0.504568794730D-05 0.100000000000D+01
0.653807614014D-05 0.000000000000D+00 0.000000000000D+00 0.680185713780D-08 0.000000000000D+00  7 1 -1 23 -13 13 23 21 2 0.18548033D-01 0.18401909D+00 0.83620927D+05 0.83620927D+05 0.83620927D+05 0.11281533D+01  1  2 12  2  7  2       -1 0.593721290285D-04 0.100000000000D+01
-.690270959012D-05 0.000000000000D+00 0.000000000000D+00 0.680185713780D-08 0.000000000000D+00  7 1 -1 23 -13 13 23 21 2 0.18548033D-01 0.14269788D+00 0.63320000D+05 0.63320000D+05 0.63320000D+05 0.11383811D+01  1  2  4  2  7  2       -1 -.138725122362D-03 0.100000000000D+01
-.921394943468D-05 0.000000000000D+00 -.194835113201D-05 0.680185713780D-08 0.000000000000D+00  7 1 -1 23 -13 13 23 21 2 0.18548033D-01 0.18532945D+00 0.63320000D+05 0.63320000D+05 0.63320000D+05 0.11383811D+01  1  2  5  2  7  2       -1 -.840009194139D-04 0.100000000000D+01
0.946282707777D-05 0.000000000000D+00 0.188362708685D-05 0.680185713780D-08 0.000000000000D+00  7 1 -1 23 -13 13 23 21 2 0.18548033D-01 0.14269788D+00 0.63320000D+05 0.63320000D+05 0.63320000D+05 0.11383811D+01  1  2  6  2  7  2       -1 0.190176310783D-03 0.100000000000D+01
0.224073733182D-06 0.000000000000D+00 0.000000000000D+00 0.680185713780D-08 0.000000000000D+00  7 1 21 23 -13 13 23 1 2 0.18548033D-01 0.18401909D+00 0.83620927D+05 0.83620927D+05 0.83620927D+05 0.11281533D+01  1  2 12  4  7  2       -1 0.132625198717D-04 0.100000000000D+01
-.287115389874D-06 0.000000000000D+00 -.681373658993D-07 0.680185713780D-08 0.000000000000D+00  7 1 21 23 -13 13 23 1 2 0.18548033D-01 0.18532945D+00 0.63320000D+05 0.63320000D+05 0.63320000D+05 0.11383811D+01  1  2  5  4  7  2       -1 -.172279930653D-04 0.100000000000D+01
  </mgrwgt>
  </event>
  <event>
  8     66 0.56006291E-06 0.81369465E+02 0.75467711E-02 0.10578582E+00
        1 -1    0    0  501    0 0.00000000E+00 0.00000000E+00 0.22524295E+04 0.22524295E+04 0.32000000E+00 0.0000E+00 0.9000E+01
       -1 -1    0    0    0  501 0.00000000E+00 0.00000000E+00 -.18720877E+02 0.18723612E+02 0.32000000E+00 0.0000E+00 0.9000E+01
       25  2    1    2    0    0 0.63367722E+01 0.38122001E+02 0.18656874E+04 0.18900358E+04 0.29992040E+03 0.0000E+00 0.0000E+00
       23  2    1    2    0    0 -.63367722E+01 -.38122001E+02 0.36802122E+03 0.38111737E+03 0.91199748E+02 0.0000E+00 0.0000E+00
       23  1    3    3    0    0 0.12145099E+03 0.99723351E+01 0.87818908E+03 0.89128060E+03 0.91188000E+02 0.0000E+00 0.9000E+01
      -11  1    4    4    0    0 0.29415989E+02 -.36971734E+02 0.30511916E+03 0.30875542E+03 0.51099893E-03 0.0000E+00 0.9000E+01
       11  1    4    4    0    0 -.35752761E+02 -.11502669E+01 0.62902059E+02 0.72361951E+02 0.51099893E-03 0.0000E+00 0.9000E+01
       23  1    3    3    0    0 -.11511422E+03 0.28149666E+02 0.98749833E+03 0.99875517E+03 0.91188000E+02 0.0000E+00 0.9000E+01
#aMCatNLO 1  0  0  1  2 0.28139973D+02 0.00000000D+00  -5  7  0 0.00000000D+00 0.00000000D+00 0.00000000D+00 0.00000000D+00 0.00000000D+00
  <mgrwgt>
 0.8586977163D-03    9    2    0
 0.205354785595874D+03 0.000000000000000D+00 0.000000000000000D+00 0.205354785595874D+03
 0.205354785595874D+03 0.000000000000000D+00 0.000000000000000D+00 -.205354785595874D+03
 0.152458586160855D+03 0.121450988426408D+03 0.997233527087180D+01 0.886448473745951D+01
 0.479257117953489D+02 0.294159886612876D+02 -.369717341155538D+02 0.804141397135117D+01
 0.580463754539216D+02 -.357527608831516D+02 -.115026708839559D+01 -.457143158998926D+02
 0.152278897781622D+03 -.115114216204544D+03 0.281496659330776D+02 0.288084171910820D+02
 0.000000000000000D+00 0.000000000000000D+00 0.000000000000000D+00 0.000000000000000D+00
 0.226698565237785D+03 0.000000000000000D+00 0.000000000000000D+00 0.226698565237785D+03
 0.215325313629736D+03 0.000000000000000D+00 0.000000000000000D+00 -.215325313629736D+03
 0.144484978508674D+03 0.111291549809580D+03 0.981170331660430D+01 0.886448473745951D+01
 0.460629179766342D+02 0.262003213478339D+02 -.370225773702173D+02 0.804141397135117D+01
 0.606330198714978D+02 -.398131823751369D+02 -.121446684037077D+01 -.457143158998926D+02
 0.160491538350708D+03 -.125815145354436D+03 0.279804724149458D+02 0.288084171910820D+02
 0.303514241600066D+02 0.281364565721593D+02 0.444868479038025D+00 0.113732516080489D+02
0.358778070305D-05 0.000000000000D+00 0.000000000000D+00 0.121266869533D-06 0.000000000000D+00  7 1 -1 23 -11 11 23 21 0 0.34652783D+00 0.28803471D-02 0.37007610D+05 0.37007610D+05 0.37007610D+05 0.11589704D+01  1  2  2  1  7  1        1 0.352219375444D-03 0.100000000000D+01
-.198287775939D-06 0.000000000000D+00 -.137780225841D-07 0.121266869533D-06 0.000000000000D+00  7 1 -1 23 -11 11 23 21 2 0.34652783D+00 0.28803471D-02 0.37007610D+05 0.37007610D+05 0.37007610D+05 0.11589704D+01  1  2  3  1  7  1        1 -.261473669979D-04 0.100000000000D+01
0.229105082578D-06 0.000000000000D+00 0.000000000000D+00 0.121266869533D-06 0.000000000000D+00  7 1 -1 23 -11 11 23 21 2 0.34652783D+00 0.28803471D-02 0.37007610D+05 0.37007610D+05 0.37007610D+05 0.11589704D+01  1  2 15  1  7  1        1 0.302111143607D-04 0.100000000000D+01
0.541624228114D-05 0.000000000000D+00 0.000000000000D+00 0.121266869533D-06 0.000000000000D+00  7 1 -1 23 -11 11 23 21 2 0.39029247D+00 0.28803471D-02 0.43144449D+05 0.43144449D+05 0.43144449D+05 0.11529717D+01  1  2 12  1  7  1        1 0.455555250584D-03 0.100000000000D+01
-.516015899823D-05 0.000000000000D+00 0.000000000000D+00 0.121266869533D-06 0.000000000000D+00  7 1 -1 23 -11 11 23 21 2 0.34652783D+00 0.28803471D-02 0.37007610D+05 0.37007610D+05 0.37007610D+05 0.11589704D+01  1  2  4  1  7  1        1 -.680448254840D-03 0.100000000000D+01
-.151540001178D-04 0.000000000000D+00 -.302913925609D-05 0.121266869533D-06 0.000000000000D+00  7 1 -1 23 -11 11 23 21 2 0.38955810D+00 0.28803471D-02 0.37007610D+05 0.37007610D+05 0.37007610D+05 0.11589704D+01  1  2  5  1  7  1        1 -.130109126155D-02 0.100000000000D+01
0.154234170375D-04 0.000000000000D+00 0.300850643150D-05 0.121266869533D-06 0.000000000000D+00  7 1 -1 23 -11 11 23 21 2 0.34652783D+00 0.28803471D-02 0.37007610D+05 0.37007610D+05 0.37007610D+05 0.11589704D+01  1  2  6  1  7  1        1 0.203382051027D-02 0.100000000000D+01
0.101997297008D-06 0.000000000000D+00 0.000000000000D+00 0.121266869533D-06 0.000000000000D+00  7 21 -1 23 -11 11 23 -1 2 0.39029247D+00 0.28803471D-02 0.43144449D+05 0.43144449D+05 0.43144449D+05 0.11529717D+01  1  2 12  3  7  1        1 0.315243980670D-05 0.100000000000D+01
-.268179689001D-06 0.000000000000D+00 -.562814700037D-07 0.121266869533D-06 0.000000000000D+00  7 21 -1 23 -11 11 23 -1 2 0.38955810D+00 0.28803471D-02 0.37007610D+05 0.37007610D+05 0.37007610D+05 0.11589704D+01  1  2  5  3  7  1        1 -.857409072529D-05 0.100000000000D+01
  </mgrwgt>
  </event>
  <event>
  8     66 0.56006291E-06 0.28808059E+03 0.75467711E-02 0.97941537E-01
        1 -1    0    0  501    0 0.00000000E+00 0.00000000E+00 0.10491714E+04 0.10491714E+04 0.32000000E+00 0.0000E+00 0.9000E+01
       -1 -1    0    0    0  501 0.00000000E+00 0.00000000E+00 -.10326580E+03 0.10326630E+03 0.32000000E+00 0.0000E+00 0.9000E+01
       25  2    1    2    0    0 -.22337168E+03 0.37063002E+02 0.37625369E+03 0.53186085E+03 0.30006758E+03 0.0000E+00 0.0000E+00
       23  2    1    2    0    0 0.22337168E+03 -.37063002E+02 0.56965188E+03 0.62057687E+03 0.96663390E+02 0.0000E+00 0.0000E+00
       23  1    3    3    0    0 -.86025450E+01 0.30797923E+02 0.94534395E+01 0.97093433E+02 0.91188000E+02 0.0000E+00 0.9000E+01
      -13  1    4    4    0    0 0.28504773E+01 0.18489387E+02 0.39338261E+02 0.43560218E+02 0.10565837E+00 0.0000E+00 0.9000E+01
       13  1    4    4    0    0 0.22052120E+03 -.55552388E+02 0.53031362E+03 0.57701665E+03 0.10565837E+00 0.0000E+00 0.9000E+01
       23  1    3    3    0    0 -.21476913E+03 0.62650791E+01 0.36680025E+03 0.43476741E+03 0.91188000E+02 0.0000E+00 0.9000E+01
#aMCatNLO 1  0  0  1  2 0.15808060D+03 0.00000000D+00  -5  7  0 0.00000000D+00 0.00000000D+00 0.00000000D+00 0.00000000D+00 0.00000000D+00
  <mgrwgt>
 0.2041971151D-03    4    2    0
 0.329156247447445D+03 0.000000000000000D+00 0.000000000000000D+00 0.329156247447445D+03
 0.329156247447445D+03 0.000000000000000D+00 0.000000000000000D+00 -.329156247447445D+03
 0.156387846138927D+03 -.860254711066429D+01 0.307979227873475D+02 -.122960933678815D+03
 0.197322330988692D+02 0.285022079466665D+01 0.184894702475359D+02 0.627508999578832D+01
 0.248133408066199D+03 0.220521460334912D+03 -.555524726878657D+02 0.992693130255719D+02
 0.234059007590895D+03 -.214769134018914D+03 0.626507965298233D+01 0.174165306574552D+02
 0.000000000000000D+00 0.000000000000000D+00 -.000000000000000D+00 -.000000000000000D+00
 0.400737091812361D+03 0.000000000000000D+00 0.000000000000000D+00 0.400737091812361D+03
 0.438914716477001D+03 0.000000000000000D+00 0.000000000000000D+00 -.438914716477001D+03
 0.166975654125562D+03 -.389665102867397D+02 0.541094963159571D+02 -.122960933678815D+03
 0.224540198018630D+02 -.111108537800502D+01 0.215307162001173D+02 0.627508999578832D+01
 0.205060881864835D+03 0.177966333612761D+03 -.228812775658678D+02 0.992693130255719D+02
 0.282535896035190D+03 -.263277603953897D+03 0.435068835997309D+02 0.174165306574552D+02
 0.162625356461913D+03 0.125388866005881D+03 -.962658185499375D+02 -.381776246646403D+02
0.642055116246D-05 0.000000000000D+00 0.000000000000D+00 0.481756456333D-07 0.000000000000D+00  7 1 -1 23 -13 13 23 21 0 0.16141102D+00 0.15887088D-01 0.82990424D+05 0.82990424D+05 0.82990424D+05 0.11284279D+01  1  2  2  1  7  1        1 0.304480221177D-03 0.100000000000D+01
-.348991953286D-06 0.000000000000D+00 -.246566070338D-07 0.481756456333D-07 0.000000000000D+00  7 1 -1 23 -13 13 23 21 2 0.16141102D+00 0.15887088D-01 0.82990424D+05 0.82990424D+05 0.82990424D+05 0.11284279D+01  1  2  3  1  7  1        1 -.210741388214D-04 0.100000000000D+01
0.421181194729D-06 0.000000000000D+00 0.000000000000D+00 0.481756456333D-07 0.000000000000D+00  7 1 -1 23 -13 13 23 21 2 0.16141102D+00 0.15887088D-01 0.82990424D+05 0.82990424D+05 0.82990424D+05 0.11284279D+01  1  2 15  1  7  1        1 0.254333398898D-04 0.100000000000D+01
-.173289753348D-05 0.000000000000D+00 0.000000000000D+00 0.481756456333D-07 0.000000000000D+00  7 1 -1 23 -13 13 23 21 2 0.16141102D+00 0.15887088D-01 0.82990424D+05 0.82990424D+05 0.82990424D+05 0.11284279D+01  1  2  4  1  7  1        1 -.104642307194D-03 0.100000000000D+01
  </mgrwgt>
  </event>
  <event>
  9     66 -.56006291E-06 0.50307261E+03 0.75467711E-02 0.94469295E-01
        1 -1    0    0  502    0 0.00000000E+00 0.00000000E+00 0.24628999E+04 0.24628999E+04 0.32000000E+00 0.0000E+00 0.9000E+01
       -1 -1    0    0    0  501 0.00000000E+00 0.00000000E+00 -.11159623E+03 0.11159669E+03 0.32000000E+00 0.0000E+00 0.9000E+01
       25  2    1    2    0    0 0.46203044E+03 0.45515657E+02 0.11460177E+04 0.12725205E+04 0.30067925E+03 0.0000E+00 0.0000E+00
       23  2    1    2    0    0 -.46953036E+03 -.47600209E+02 0.11524288E+04 0.12485436E+04 0.89690507E+02 0.0000E+00 0.0000E+00
       23  1    3    3    0    0 0.41213700E+03 0.62133464E+02 0.75115266E+03 0.86386518E+03 0.91188000E+02 0.0000E+00 0.9000E+01
      -11  1    4    4    0    0 -.28460132E+03 -.60520361E+01 0.59101678E+03 0.65599952E+03 0.51099893E-03 0.0000E+00 0.9000E+01
       11  1    4    4    0    0 -.18492904E+03 -.41548173E+02 0.56141207E+03 0.59254410E+03 0.51099893E-03 0.0000E+00 0.9000E+01
       23  1    3    3    0    0 0.49893434E+02 -.16617807E+02 0.39486505E+03 0.40865531E+03 0.91188000E+02 0.0000E+00 0.9000E+01
       21  1    1    2  502  501 0.74999235E+01 0.20845522E+01 0.52857072E+02 0.53432451E+02 0.75000000E+00 0.0000E+00 0.9000E+01
#aMCatNLO 2  0  0  1  2 0.77842283D+01 0.00000000D+00  -5  7  0 0.00000000D+00 0.00000000D+00 0.00000000D+00 0.00000000D+00 0.00000000D+00
  <mgrwgt>
 -.1252228871D-03    3    2    0
 0.517891661679693D+03 0.000000000000000D+00 0.000000000000000D+00 0.517891661679693D+03
 0.517891661679693D+03 0.000000000000000D+00 0.000000000000000D+00 -.517891661679693D+03
 0.438890800057605D+03 0.415303587408608D+03 0.630135942007710D+02 -.886684851717084D+02
 0.283118347726187D+03 -.282543860978311D+03 -.548018021524393D+01 -.171736154459003D+02
 0.195014214234107D+03 -.183511868876795D+03 -.411542789091181D+02 0.515777380481424D+02
 0.118759961341486D+03 0.507521424464973D+02 -.163791350764090D+02 0.542643625694663D+02
 0.000000000000000D+00 0.000000000000000D+00 0.000000000000000D+00 0.000000000000000D+00
 0.529316974314842D+03 0.000000000000000D+00 0.000000000000000D+00 0.529316974314842D+03
 0.519233862463942D+03 0.000000000000000D+00 0.000000000000000D+00 -.519233862463942D+03
 0.435769237261964D+03 0.412137002965498D+03 0.621334638004806D+02 -.886684851717084D+02
 0.285183221935519D+03 -.284601317398751D+03 -.605203609827344D+01 -.171736154459003D+02
 0.196431322765259D+03 -.184929042744239D+03 -.415481726535115D+02 0.515777380481424D+02
 0.118428791411123D+03 0.498934337111024D+02 -.166178072724593D+02 0.542643625694663D+02
 0.127382634049179D+02 0.749992346639029D+01 0.208455222376367D+01 0.100831118509000D+02
-.252357451976D-04 0.000000000000D+00 0.000000000000D+00 0.327200193462D-06 0.000000000000D+00  7 1 -1 23 -11 11 23 21 2 0.37937399D+00 0.17123944D-01 0.25700181D+06 0.25700181D+06 0.25700181D+06 0.10895578D+01  1  2 13  1  7  1        1 -.135060663614D-03 0.100000000000D+01
-.254623006248D-03 0.000000000000D+00 0.000000000000D+00 0.327200193462D-06 0.000000000000D+00  7 1 -1 23 -11 11 23 21 2 0.37072112D+00 0.17123944D-01 0.25308205D+06 0.25308205D+06 0.25308205D+06 0.10900590D+01  1  2  8  1  7  1        1 -.149198528303D-02 0.100000000000D+01
0.280402880438D-03 0.000000000000D+00 0.000000000000D+00 0.327200193462D-06 0.341970121920D-07  7 1 -1 23 -11 11 23 21 2 0.37889967D+00 0.17168323D-01 0.25700181D+06 0.25700181D+06 0.25700181D+06 0.10895578D+01  1  2  1  1  7  1        1 0.150182305950D-02 0.100000000000D+01
  </mgrwgt>
  </event>
  <event>
  8     66 0.56006291E-06 0.22108396E+03 0.75467711E-02 0.85129049E-01
        1 -1    0    0  501    0 0.00000000E+00 0.00000000E+00 0.30423927E+03 0.30423944E+03 0.32000000E+00 0.0000E+00 0.9000E+01
       -1 -1    0    0    0  501 0.00000000E+00 0.00000000E+00 -.12192138E+04 0.12192138E+04 0.32000000E+00 0.0000E+00 0.9000E+01
       25  2    1    2    0    0 0.50007409E+02 0.16284693E+03 -.11640310E+04 0.12137034E+04 0.29847606E+03 0.0000E+00 0.0000E+00
       23  2    1    2    0    0 -.50007409E+02 -.16284693E+03 0.24905651E+03 0.30974983E+03 0.69971058E+02 0.0000E+00 0.0000E+00
       23  1    3    3    0    0 0.73849779E+02 0.59947361E+02 -.19922435E+03 0.23885784E+03 0.91188000E+02 0.0000E+00 0.9000E+01
      -13  1    4    4    0    0 -.31414228E+02 -.12197959E+03 0.12348455E+03 0.17639251E+03 0.10565837E+00 0.0000E+00 0.9000E+01
       13  1    4    4    0    0 -.18593181E+02 -.40867343E+02 0.12557196E+03 0.13335731E+03 0.10565837E+00 0.0000E+00 0.9000E+01
       23  1    3    3    0    0 -.23842369E+02 0.10289957E+03 -.96480663E+03 0.97484556E+03 0.91188000E+02 0.0000E+00 0.9000E+01
#aMCatNLO 1  0  0  1  2 0.12166180D+04 0.00000000D+00  -5  7  0 0.00000000D+00 0.00000000D+00 0.00000000D+00 0.00000000D+00 0.00000000D+00
  <mgrwgt>
 0.7311470573D-03    5    2    0
 0.609042580318007D+03 0.000000000000000D+00 0.000000000000000D+00 0.609042580318007D+03
 0.609042580318007D+03 0.000000000000000D+00 0.000000000000000D+00 -.609042580318007D+03
 0.149089376283159D+03 0.738497786999222D+02 0.599473607675077D+02 -.697489419237610D+02
 0.313369798852970D+03 -.314142570032518D+02 -.121979771394082D+03 0.286940256256825D+03
 0.261113616303546D+03 -.185931522297205D+02 -.408671579993915D+02 0.257224591954834D+03
 0.494512369196338D+03 -.238423694669498D+02 0.102899568625966D+03 -.474415906287898D+03
 0.000000000000000D+00 0.000000000000000D+00 -.000000000000000D+00 0.000000000000000D+00
 0.231662505116410D+04 0.000000000000000D+00 0.000000000000000D+00 0.231662505116410D+04
 0.111497608362650D+04 0.000000000000000D+00 0.000000000000000D+00 -.111497608362650D+04
 0.166366694242874D+03 -.462343413979222D+02 0.111175970359239D+03 -.697489419237610D+02
 0.423958803767663D+03 -.312091868694243D+03 -.224101010956386D+01 0.286940256256825D+03
 0.370112832714546D+03 -.258881039498541D+03 0.616411033467909D+02 0.257224591954834D+03
 0.761157085170277D+03 -.501835902163641D+03 0.306814491381273D+03 -.474415906287898D+03
 0.171000571889524D+04 0.111904315175435D+04 -.477390554977739D+03 0.120164896753760D+04
0.291431692771D-03 0.000000000000D+00 0.000000000000D+00 0.974765136127D-09 0.000000000000D+00  7 1 -1 23 -13 13 23 21 0 0.46806058D-01 0.18757136D+00 0.48878115D+05 0.48878115D+05 0.48878115D+05 0.11481633D+01  1  2  2  1  7  1        1 0.602241654822D-03 0.100000000000D+01
0.402375729843D-05 0.000000000000D+00 -.111917443597D-05 0.974765136127D-09 0.000000000000D+00  7 1 -1 23 -13 13 23 21 2 0.46806058D-01 0.18757136D+00 0.48878115D+05 0.48878115D+05 0.48878115D+05 0.11481633D+01  1  2  3  1  7  1        1 0.109615785860D-04 0.100000000000D+01
0.174398132306D-04 0.000000000000D+00 0.000000000000D+00 0.974765136127D-09 0.000000000000D+00  7 1 -1 23 -13 13 23 21 2 0.46806058D-01 0.18757136D+00 0.48878115D+05 0.48878115D+05 0.48878115D+05 0.11481633D+01  1  2 15  1  7  1        1 0.475097947203D-04 0.100000000000D+01
0.408807550095D-03 0.000000000000D+00 -.141842865606D-03 0.974765136127D-09 0.000000000000D+00  7 1 -1 23 -13 13 23 21 2 0.27086483D+00 0.18757136D+00 0.48878115D+05 0.48878115D+05 0.48878115D+05 0.11481633D+01  1  2  5  1  7  1        1 0.622684162772D-04 0.100000000000D+01
0.798755008495D-04 0.000000000000D+00 -.305097631966D-04 0.974765136127D-09 0.000000000000D+00  7 21 -1 23 -13 13 23 -1 2 0.27086483D+00 0.18757136D+00 0.48878115D+05 0.48878115D+05 0.48878115D+05 0.11481633D+01  1  2  5  3  7  1        1 0.816561289444D-05 0.100000000000D+01
  </mgrwgt>
  </event>
  <event>
  8     66 0.56006291E-06 0.21600246E+03 0.75467711E-02 0.10504820E+00
        1 -1    0    0  501    0 0.00000000E+00 0.00000000E+00 0.11679164E+04 0.11679165E+04 0.32000000E+00 0.0000E+00 0.9000E+01
       -1 -1    0    0    0  501 0.00000000E+00 0.00000000E+00 -.47090095E+02 0.47091182E+02 0.32000000E+00 0.0000E+00 0.9000E+01
       25  2    1    2    0    0 -.33227181E+02 -.97078743E+02 0.89247792E+03 0.94881665E+03 0.30529965E+03 0.0000E+00 0.0000E+00
       23  2    1    2    0    0 0.33227181E+02 0.97078743E+02 0.22834843E+03 0.26619101E+03 0.90478304E+02 0.0000E+00 0.0000E+00
       23  1    3    3    0    0 -.34933660E+02 -.16486581E+03 0.40178857E+03 0.44514088E+03 0.91188000E+02 0.0000E+00 0.9000E+01
      -11  1    4    4    0    0 0.45925701E+02 0.22573272E+02 0.14456459E+03 0.15335463E+03 0.51099893E-03 0.0000E+00 0.9000E+01
       11  1    4    4    0    0 -.12698519E+02 0.74505472E+02 0.83783841E+02 0.11283638E+03 0.51099893E-03 0.0000E+00 0.9000E+01
       23  1    3    3    0    0 0.17064780E+01 0.67787065E+02 0.49068935E+03 0.50367578E+03 0.91188000E+02 0.0000E+00 0.9000E+01
#aMCatNLO 1  0  0  2  1 0.55567625D+01 0.00000000D+00  -5  7  0 0.00000000D+00 0.00000000D+00 0.00000000D+00 0.00000000D+00 0.00000000D+00
  <mgrwgt>
 0.8192215387D-04    8    2    0
 0.234516488577379D+03 0.000000000000000D+00 0.000000000000000D+00 0.234516488577379D+03
 0.234516488577379D+03 0.000000000000000D+00 0.000000000000000D+00 -.234516488577379D+03
 0.192980813545298D+03 -.349336595310892D+02 -.164865808098424D+03 -.229182853727073D+02
 0.517986027551474D+02 0.459257007152747D+02 0.225732716522678D+02 0.802325794858337D+01
 0.920829415031871D+02 -.126985192198865D+02 0.745054716905659D+02 -.526018099847127D+02
 0.132170619351124D+03 0.170647803570102D+01 0.677870647555900D+02 0.674968374088366D+02
 0.000000000000000D+00 -.000000000000000D+00 -.000000000000000D+00 0.000000000000000D+00
 0.250566697297721D+03 0.000000000000000D+00 0.000000000000000D+00 0.250566697297721D+03
 0.235014393177072D+03 0.000000000000000D+00 0.000000000000000D+00 -.235014393177072D+03
 0.191927458463665D+03 -.327958086780810D+02 -.164073413742287D+03 -.229182853727073D+02
 0.524053596995491D+02 0.465044685574358D+02 0.227877919360362D+02 0.802325794858337D+01
 0.922551121023113D+02 -.116746719975717D+02 0.748849606335699D+02 -.526018099847127D+02
 0.132477961979645D+03 0.317638459913342D+01 0.683318855803321D+02 0.674968374088366D+02
 0.165151982296236D+02 -.521037248091663D+01 -.193122440765095D+01 0.155523041206492D+02
0.647096173995D-06 0.000000000000D+00 0.000000000000D+00 0.138917577438D-08 0.000000000000D+00  7 1 -1 23 -11 11 23 21 0 0.17967954D+00 0.72447170D-02 0.46657061D+05 0.46657061D+05 0.46657061D+05 0.11499482D+01  1  2  2  2  7  2       -1 0.845190590014D-04 0.100000000000D+01
-.356541883760D-07 0.000000000000D+00 -.248501969248D-08 0.138917577438D-08 0.000000000000D+00  7 1 -1 23 -11 11 23 21 2 0.17967954D+00 0.72447170D-02 0.46657061D+05 0.46657061D+05 0.46657061D+05 0.11499482D+01  1  2  3  2  7  2       -1 -.615818805218D-05 0.100000000000D+01
0.416312339838D-07 0.000000000000D+00 0.000000000000D+00 0.138917577438D-08 0.000000000000D+00  7 1 -1 23 -11 11 23 21 2 0.17967954D+00 0.72447170D-02 0.46657061D+05 0.46657061D+05 0.46657061D+05 0.11499482D+01  1  2 15  2  7  2       -1 0.719054280561D-05 0.100000000000D+01
-.869355956675D-07 0.000000000000D+00 0.000000000000D+00 0.138917577438D-08 0.000000000000D+00  7 1 -1 23 -11 11 23 21 2 0.17967954D+00 0.72447170D-02 0.46657061D+05 0.46657061D+05 0.46657061D+05 0.11499482D+01  1  2  4  2  7  2       -1 -.150155078810D-04 0.100000000000D+01
0.195133610384D-07 0.000000000000D+00 0.000000000000D+00 0.138917577438D-08 0.000000000000D+00  7 1 -1 23 -11 11 23 21 2 0.17967954D+00 0.78618872D-02 0.46657061D+05 0.46657061D+05 0.46657061D+05 0.11499482D+01  1  2  5  2  7  2       -1 0.298065837641D-05 0.100000000000D+01
-.194483309988D-07 0.000000000000D+00 0.000000000000D+00 0.138917577438D-08 0.000000000000D+00  7 1 -1 23 -11 11 23 21 2 0.17967954D+00 0.72447170D-02 0.46657061D+05 0.46657061D+05 0.46657061D+05 0.11499482D+01  1  2  6  2  7  2       -1 -.335911389508D-05 0.100000000000D+01
0.374337742421D-07 0.000000000000D+00 0.000000000000D+00 0.138917577438D-08 0.317338768680D-09  7 1 -1 23 -11 11 23 21 2 0.19197673D+00 0.72600984D-02 0.47891350D+05 0.47891350D+05 0.47891350D+05 0.11489450D+01  1  2 11  2  7  2       -1 0.566703986467D-05 0.100000000000D+01
0.268565214496D-08 0.000000000000D+00 0.000000000000D+00 0.138917577438D-08 0.129670772661D-12  7 1 21 23 -11 11 23 1 2 0.19197673D+00 0.72600984D-02 0.47891350D+05 0.47891350D+05 0.47891350D+05 0.11489450D+01  1  2 11  4  7  2       -1 0.609766365421D-05 0.100000000000D+01
  </mgrwgt>
  </event>
  <event>
  8     66 0.56006291E-06 0.31426503E+03 0.75467711E-02 0.93515866E-01
        1 -1    0    0  501    0 0.00000000E+00 0.00000000E+00 0.36758125E+03 0.36758138E+03 0.32000000E+00 0.0000E+00 0.9000E+01
       -1 -1    0    0    0  501 0.00000000E+00 0.00000000E+00 -.40210460E+03 0.40210472E+03 0.32000000E+00 0.0000E+00 0.9000E+01
       25  2    1    2    0    0 -.19336595E+03 0.16136166E+03 0.17553506E+03 0.42928445E+03 0.30007433E+03 0.0000E+00 0.0000E+00
       23  2    1    2    0    0 0.19336595E+03 -.16136166E+03 -.21005841E+03 0.34040166E+03 0.91218296E+02 0.0000E+00 0.0000E+00
       23  1    3    3    0    0 -.21404700E+03 0.15752406E+03 0.72664536E+02 0.29021601E+03 0.91188000E+02 0.0000E+00 0.9000E+01
      -13  1    4    4    0    0 0.12760756E+03 -.85613488E+02 -.71865430E+02 0.16964082E+03 0.10565837E+00 0.0000E+00 0.9000E+01
       13  1    4    4    0    0 0.65758397E+02 -.75748170E+02 -.13819298E+03 0.17076084E+03 0.10565837E+00 0.0000E+00 0.9000E+01
       23  1    3    3    0    0 0.20681048E+02 0.38375991E+01 0.10287053E+03 0.13906844E+03 0.91188000E+02 0.0000E+00 0.9000E+01
#aMCatNLO 1  0  0  1  1 0.36528425D+03 0.00000000D+00  -5  7  0 0.00000000D+00 0.00000000D+00 0.00000000D+00 0.00000000D+00 0.00000000D+00
  <mgrwgt>
 0.2204226279D-03    3    2    0
 0.384455733392751D+03 0.000000000000000D+00 0.000000000000000D+00 0.384455733392751D+03
 0.384455733392751D+03 0.000000000000000D+00 0.000000000000000D+00 -.384455733392751D+03
 0.293770954972278D+03 -.214046999724800D+03 0.157524059000473D+03 0.857681490190346D+02
 0.166585044420267D+03 0.127607637978660D+03 -.856135012426490D+02 -.643210397846971D+02
 0.164728144254471D+03 0.657583141151836D+02 -.757481569557767D+02 -.130665306612175D+03
 0.143827323138486D+03 0.206810476309562D+02 0.383759919795295D+01 0.109218197377838D+03
 0.000000000000000D+00 0.000000000000000D+00 0.000000000000000D+00 -.000000000000000D+00
 0.495083479661780D+03 0.000000000000000D+00 0.000000000000000D+00 0.495083479661780D+03
 0.905956963404729D+03 0.000000000000000D+00 0.000000000000000D+00 -.905956963404729D+03
 0.256025927336215D+03 -.220768668368854D+03 0.337497230338290D+02 0.857681490190346D+02
 0.221752646403126D+03 0.122859925934983D+03 -.173038951184570D+03 -.643210397846971D+02
 0.216610352521145D+03 0.610961723333221D+02 -.161597896624610D+03 -.130665306612175D+03
 0.156879200588987D+03 0.170046906405076D+02 -.638596750007057D+02 0.109218197377838D+03
 0.549772316217037D+03 0.198078794600421D+02 0.364746799776057D+03 -.410873483742949D+03
0.969626825892D-05 0.000000000000D+00 0.000000000000D+00 0.111282177263D-05 0.000000000000D+00  7 1 -1 23 -13 13 23 21 0 0.56550981D-01 0.61862266D-01 0.98762509D+05 0.98762509D+05 0.98762509D+05 0.11221661D+01  1  2  2  1  7  1        1 0.217654474020D-03 0.100000000000D+01
-.512064507500D-06 0.000000000000D+00 -.372362232003D-07 0.111282177263D-05 0.000000000000D+00  7 1 -1 23 -13 13 23 21 2 0.56550981D-01 0.61862266D-01 0.98762509D+05 0.98762509D+05 0.98762509D+05 0.11221661D+01  1  2  3  1  7  1        1 -.144744455242D-04 0.100000000000D+01
0.609993877595D-06 0.000000000000D+00 0.000000000000D+00 0.111282177263D-05 0.000000000000D+00  7 1 -1 23 -13 13 23 21 2 0.56550981D-01 0.61862266D-01 0.98762509D+05 0.98762509D+05 0.98762509D+05 0.11221661D+01  1  2 15  1  7  1        1 0.172425993639D-04 0.100000000000D+01
  </mgrwgt>
  </event>
  <event>
  9     66 0.56006291E-06 0.16001276E+03 0.75467711E-02 0.10258556E+00
        1 -1    0    0  501    0 0.00000000E+00 0.00000000E+00 0.96957381E+03 0.96957386E+03 0.32000000E+00 0.0000E+00 0.9000E+01
       -1 -1    0    0    0  502 0.00000000E+00 0.00000000E+00 -.39193682E+03 0.39193695E+03 0.32000000E+00 0.0000E+00 0.9000E+01
       25  2    1    2    0    0 0.12292073E+03 -.19092367E+02 0.13605073E+03 0.35169234E+03 0.29950572E+03 0.0000E+00 0.0000E+00
       23  2    1    2    0    0 0.53816142E+02 0.37604491E+02 0.69295916E+03 0.70197514E+03 0.90919912E+02 0.0000E+00 0.0000E+00
       23  1    3    3    0    0 0.12066394E+03 -.60811345E+02 -.22010247E+02 0.16449167E+03 0.91188000E+02 0.0000E+00 0.9000E+01
      -11  1    4    4    0    0 0.63826684E+02 0.33011534E+02 0.28674648E+03 0.29561317E+03 0.51099893E-03 0.0000E+00 0.9000E+01
       11  1    4    4    0    0 -.10010542E+02 0.45929566E+01 0.40621268E+03 0.40636197E+03 0.51099893E-03 0.0000E+00 0.9000E+01
       23  1    3    3    0    0 0.22567833E+01 0.41718978E+02 0.15806098E+03 0.18720067E+03 0.91188000E+02 0.0000E+00 0.9000E+01
       21  1    1    2  501  502 -.17673687E+03 -.18512123E+02 -.25137290E+03 0.30784333E+03 0.75000000E+00 0.0000E+00 0.9000E+01
#aMCatNLO 2  0  0  2  1 0.17770374D+03 0.00000000D+00  -5  7  0 0.00000000D+00 0.00000000D+00 0.00000000D+00 0.00000000D+00 0.00000000D+00
  <mgrwgt>
 0.1084800006D-03    1    2    0
 0.312801511381536D+03 0.000000000000000D+00 0.000000000000000D+00 0.312801511381536D+03
 0.312801511381536D+03 0.000000000000000D+00 0.000000000000000D+00 -.312801511381536D+03
 0.273921653613079D+03 0.419219293258354D+02 -.690590970363391D+02 -.245338977604963D+03
 0.988976705022562D+02 0.344179706736946D+02 0.299311483814576D+02 0.877512329374620D+02
 0.148816843276983D+03 -.500936611110261D+02 0.394491129695787D+00 0.140131803442931D+03
 0.103966855370755D+03 -.262462388885039D+02 0.387334575251856D+02 0.174559412245700D+02
 0.000000000000000D+00 -.000000000000000D+00 -.000000000000000D+00 -.000000000000000D+00
 0.334929419950392D+03 0.000000000000000D+00 0.000000000000000D+00 0.334929419950392D+03
 0.113460148963383D+04 0.000000000000000D+00 0.000000000000000D+00 -.113460148963383D+04
 0.294557757062291D+03 0.120663943642916D+03 -.608113449436701D+02 -.245338977604963D+03
 0.113419071774906D+03 0.638266838939017D+02 0.330115340955941D+02 0.877512329374620D+02
 0.140563966012675D+03 -.100105421795881D+02 0.459295659841259D+01 0.140131803442931D+03
 0.101811234092049D+03 0.225678331835403D+01 0.417189775565548D+02 0.174559412245700D+02
 0.819178880642305D+03 -.176736868675584D+03 -.185121233068914D+02 -.799672069683442D+03
0.145377194988D-04 0.000000000000D+00 0.000000000000D+00 0.404455204400D-06 0.162375499730D-09  7 1 -1 23 -11 11 23 21 2 0.14916514D+00 0.60297956D-01 0.68615698D+05 0.68615698D+05 0.68615698D+05 0.11353978D+01  1  2  1  2  7  2       -1 0.108480000639D-03 0.100000000000D+01
  </mgrwgt>
  </event>
  <event>
  9     66 0.56006291E-06 0.24157208E+03 0.75467711E-02 0.10130348E+00
        1 -1    0    0  501    0 0.00000000E+00 0.00000000E+00 0.82843197E+03 0.82843203E+03 0.32000000E+00 0.0000E+00 0.9000E+01
       21 -1    0    0  502  501 0.00000000E+00 0.00000000E+00 -.20423959E+03 0.20424097E+03 0.75000000E+00 0.0000E+00 0.9000E+01
       25  2    1    2    0    0 -.62184990E+01 -.19625011E+03 0.43596069E+02 0.36056199E+03 0.29925166E+03 0.0000E+00 0.0000E+00
       23  2    1    2    0    0 -.71812052E+02 0.17589072E+03 0.54099689E+03 0.58226956E+03 0.10131969E+03 0.0000E+00 0.0000E+00
       23  1    3    3    0    0 -.53033975E+02 -.16256469E+03 -.67961612E+02 0.20536288E+03 0.91188000E+02 0.0000E+00 0.9000E+01
      -11  1    4    4    0    0 -.27486336E+02 0.23079820E+02 0.23153493E+03 0.23430023E+03 0.51099893E-03 0.0000E+00 0.9000E+01
       11  1    4    4    0    0 -.44325716E+02 0.15281090E+03 0.30946197E+03 0.34796932E+03 0.51099893E-03 0.0000E+00 0.9000E+01
       23  1    3    3    0    0 0.46815476E+02 -.33685419E+02 0.11155768E+03 0.15519911E+03 0.91188000E+02 0.0000E+00 0.9000E+01
        1  1    1    2  502    0 0.78030551E+02 0.20359384E+02 0.39599417E+02 0.89841458E+02 0.32000000E+00 0.0000E+00 0.9000E+01
#aMCatNLO 2  0  0  2  1 0.80642863D+02 0.00000000D+00  -5  7  0 0.00000000D+00 0.00000000D+00 0.00000000D+00 0.00000000D+00 0.00000000D+00
  <mgrwgt>
 0.9178191318D-05    2    2    0
 0.367654431443507D+03 0.000000000000000D+00 0.000000000000000D+00 0.367654431443507D+03
 0.367654431443507D+03 0.000000000000000D+00 0.000000000000000D+00 -.367654431443507D+03
 0.307223953100388D+03 -.200932211195143D+02 -.153969934645142D+03 -.248919319670134D+03
 0.114070540825531D+03 -.153336062531193D+02 0.262506561557778D+02 0.109944858246734D+03
 0.199670575546615D+03 -.232382210529554D+02 0.158312959467468D+03 0.119437559779420D+03
 0.114343793414480D+03 0.586650484255890D+02 -.305936809781038D+02 0.195369016439802D+02
 0.000000000000000D+00 0.000000000000000D+00 0.000000000000000D+00 -.000000000000000D+00
 0.401202107232153D+03 0.000000000000000D+00 0.000000000000000D+00 0.401202107232153D+03
 0.421730331878394D+03 0.000000000000000D+00 0.000000000000000D+00 -.421730331878394D+03
 0.315461502890320D+03 -.530339745459793D+02 -.162564689587355D+03 -.248919319670134D+03
 0.115654868509515D+03 -.274863360011744D+02 0.230798199362409D+02 0.109944858246734D+03
 0.198950426419248D+03 -.443257155656968D+02 0.152810904146030D+03 0.119437559779420D+03
 0.109650982956086D+03 0.468154755373006D+02 -.336854188575082D+02 0.195369016439802D+02
 0.832146583353782D+02 0.780305505755499D+02 0.203593843625921D+02 -.205282246462405D+02
-.112933037838D-06 0.000000000000D+00 0.000000000000D+00 0.600161142610D-08 0.000000000000D+00  7 1 21 23 -11 11 23 1 2 0.11679390D+00 0.32520675D-01 0.83328006D+05 0.83328006D+05 0.83328006D+05 0.11282806D+01  1  2 13  4  7  2       -1 -.388678397259D-04 0.100000000000D+01
0.149556624087D-06 0.000000000000D+00 0.000000000000D+00 0.600161142610D-08 0.137229965606D-12  7 1 21 23 -11 11 23 1 2 0.12745109D+00 0.31421563D-01 0.83328006D+05 0.83328006D+05 0.83328006D+05 0.11282806D+01  1  2  1  4  7  2       -1 0.480460310437D-04 0.100000000000D+01
  </mgrwgt>
  </event>
  <event>
  8     66 0.56006291E-06 0.23092443E+03 0.75467711E-02 0.10308740E+00
        1 -1    0    0  501    0 0.00000000E+00 0.00000000E+00 0.16723357E+04 0.16723357E+04 0.32000000E+00 0.0000E+00 0.9000E+01
       -1 -1    0    0    0  501 0.00000000E+00 0.00000000E+00 -.33230003E+02 0.33231544E+02 0.32000000E+00 0.0000E+00 0.9000E+01
       25  2    1    2    0    0 -.85908509E+02 0.75874494E+02 0.99122014E+03 0.10413617E+04 0.29795898E+03 0.0000E+00 0.0000E+00
       23  2    1    2    0    0 0.85908509E+02 -.75874494E+02 0.64788553E+03 0.66420558E+03 0.90973501E+02 0.0000E+00 0.0000E+00
       23  1    3    3    0    0 -.86955500E+02 0.15289455E+03 0.67001019E+03 0.69868943E+03 0.91188000E+02 0.0000E+00 0.9000E+01
      -13  1    4    4    0    0 0.98679162E+02 -.83686274E+02 0.53990633E+03 0.55519351E+03 0.10565837E+00 0.0000E+00 0.9000E+01
       13  1    4    4    0    0 -.12770653E+02 0.78117803E+01 0.10797920E+03 0.10901207E+03 0.10565837E+00 0.0000E+00 0.9000E+01
       23  1    3    3    0    0 0.10469910E+01 -.77020059E+02 0.32120994E+03 0.34267224E+03 0.91188000E+02 0.0000E+00 0.9000E+01
#aMCatNLO 1  0  0  2  1 0.41208222D+02 0.00000000D+00  -5  7  0 0.00000000D+00 0.00000000D+00 0.00000000D+00 0.00000000D+00 0.00000000D+00
  <mgrwgt>
 0.2498557590D-03    4    2    0
 0.235739388744667D+03 0.000000000000000D+00 0.000000000000000D+00 0.235739388744667D+03
 0.235739388744667D+03 0.000000000000000D+00 0.000000000000000D+00 -.235739388744667D+03
 0.198194061267053D+03 -.869555021851293D+02 0.152894550987085D+03 -.525656691367483D+01
 0.131408679122327D+03 0.986793180265702D+02 -.836864029104912D+02 0.229612523697805D+02
 0.189574422560964D+02 -.127708017462346D+02 0.781190237615175D+01 0.116303663277248D+02
 0.122918594843857D+03 0.104698590479365D+01 -.770200504527460D+02 -.293350517838305D+02
 0.000000000000000D+00 -.000000000000000D+00 -.000000000000000D+00 0.000000000000000D+00
 0.293080498061748D+03 0.000000000000000D+00 0.000000000000000D+00 0.293080498061748D+03
 0.244159558888778D+03 0.000000000000000D+00 0.000000000000000D+00 -.244159558888778D+03
 0.194771738736248D+03 -.703141448742925D+02 0.157000217838130D+03 -.525656691367483D+01
 0.138531315846026D+03 0.110110765518225D+03 -.808660972016904D+02 0.229612523697805D+02
 0.181095603935942D+02 -.112010843928922D+02 0.819917466306615D+01 0.116303663277248D+02
 0.121863578363067D+03 0.114130472964601D+02 -.744625911159438D+02 -.293350517838305D+02
 0.639638636115904D+02 -.400085835475003D+02 -.987070418356226D+01 0.489209391729701D+02
0.288008829918D-05 0.000000000000D+00 0.000000000000D+00 0.147830807040D-07 0.000000000000D+00  7 1 -1 23 -13 13 23 21 0 0.25728253D+00 0.51124290D-02 0.53326093D+05 0.53326093D+05 0.53326093D+05 0.11448433D+01  1  2  2  2  7  2       -1 0.291693493280D-03 0.100000000000D+01
-.159922057494D-06 0.000000000000D+00 -.110602974135D-07 0.147830807040D-07 0.000000000000D+00  7 1 -1 23 -13 13 23 21 2 0.25728253D+00 0.51124290D-02 0.53326093D+05 0.53326093D+05 0.53326093D+05 0.11448433D+01  1  2  3  2  7  2       -1 -.212286015050D-04 0.100000000000D+01
0.184185454090D-06 0.000000000000D+00 0.000000000000D+00 0.147830807040D-07 0.000000000000D+00  7 1 -1 23 -13 13 23 21 2 0.25728253D+00 0.51124290D-02 0.53326093D+05 0.53326093D+05 0.53326093D+05 0.11448433D+01  1  2 15  2  7  2       -1 0.244494078500D-04 0.100000000000D+01
-.339440849188D-06 0.000000000000D+00 0.000000000000D+00 0.147830807040D-07 0.000000000000D+00  7 1 -1 23 -13 13 23 21 2 0.25728253D+00 0.51124290D-02 0.53326093D+05 0.53326093D+05 0.53326093D+05 0.11448433D+01  1  2  4  2  7  2       -1 -.450585406093D-04 0.100000000000D+01
  </mgrwgt>
  </event>
  <event>
  8     66 0.56006291E-06 0.14001694E+03 0.75467711E-02 0.10211338E+00
        1 -1    0    0  501    0 0.00000000E+00 0.00000000E+00 0.90709081E+03 0.90709086E+03 0.32000000E+00 0.0000E+00 0.9000E+01
       -1 -1    0    0    0  501 0.00000000E+00 0.00000000E+00 -.68111494E+02 0.68112246E+02 0.32000000E+00 0.0000E+00 0.9000E+01
       25  2    1    2    0    0 0.10340314E+03 -.50490547E+02 0.40211364E+03 0.51452503E+03 0.29966503E+03 0.0000E+00 0.0000E+00
       23  2    1    2    0    0 -.10340314E+03 0.50490547E+02 0.43686567E+03 0.46067807E+03 0.90172981E+02 0.0000E+00 0.0000E+00
       23  1    3    3    0    0 0.63538760E+02 0.90037775E+02 0.23145243E+03 0.27208354E+03 0.91188000E+02 0.0000E+00 0.9000E+01
      -13  1    4    4    0    0 0.48956713E+01 0.24258351E+02 0.30318457E+02 0.39136367E+02 0.10565837E+00 0.0000E+00 0.9000E+01
       13  1    4    4    0    0 -.10829881E+03 0.26232196E+02 0.40654722E+03 0.42154171E+03 0.10565837E+00 0.0000E+00 0.9000E+01
       23  1    3    3    0    0 0.39864378E+02 -.14052832E+03 0.17066121E+03 0.24244149E+03 0.91188000E+02 0.0000E+00 0.9000E+01
#aMCatNLO 1  0  0  2  1 0.81763683D+02 0.00000000D+00  -5  7  0 0.00000000D+00 0.00000000D+00 0.00000000D+00 0.00000000D+00 0.00000000D+00
  <mgrwgt>
 0.1613227474D-03    9    2    0
 0.248563279969170D+03 0.000000000000000D+00 0.000000000000000D+00 0.248563279969170D+03
 0.248563279969170D+03 0.000000000000000D+00 0.000000000000000D+00 -.248563279969170D+03
 0.143128370919882D+03 0.635387605188738D+02 0.900377732765828D+02 -.514825342221093D+01
 0.256056917657050D+02 0.489582596256112D+01 0.242583483774473D+02 -.657380201580535D+01
 0.140817578339942D+03 -.108298965996217D+03 0.262321995913393D+02 0.860975960075313D+02
 0.187574918912812D+03 0.398643795147819D+02 -.140528321245369D+03 -.743755405695150D+02
 0.000000000000000D+00 0.000000000000000D+00 0.000000000000000D+00 -.000000000000000D+00
 0.263383759710426D+03 0.000000000000000D+00 0.000000000000000D+00 0.263383759710426D+03
 0.397476656846686D+03 0.000000000000000D+00 0.000000000000000D+00 -.397476656846686D+03
 0.127121128277653D+03 0.535829076257381D+02 0.703341837775614D+02 -.514825342221093D+01
 0.220255101159115D+02 0.314111692345202D+01 0.207856105851215D+02 -.657380201580535D+01
 0.146891655698331D+03 -.118898026562794D+03 0.525564030297451D+01 0.860975960075313D+02
 0.207767339459941D+03 0.253001735551541D+02 -.169352284263702D+03 -.743755405695150D+02
 0.157054783005276D+03 0.368738284584497D+02 0.729768495980447D+02 -.134092897136260D+03
0.131553208093D-05 0.000000000000D+00 0.000000000000D+00 0.184490647094D-06 0.000000000000D+00  7 1 -1 23 -13 13 23 21 0 0.13955249D+00 0.10478754D-01 0.50943484D+05 0.50943484D+05 0.50943484D+05 0.11465820D+01  1  2  2  2  7  2       -1 0.152820464427D-03 0.100000000000D+01
-.722582832290D-07 0.000000000000D+00 -.505198957834D-08 0.184490647094D-06 0.000000000000D+00  7 1 -1 23 -13 13 23 21 2 0.13955249D+00 0.10478754D-01 0.50943484D+05 0.50943484D+05 0.50943484D+05 0.11465820D+01  1  2  3  2  7  2       -1 -.110351418554D-04 0.100000000000D+01
0.848230289787D-07 0.000000000000D+00 0.000000000000D+00 0.184490647094D-06 0.000000000000D+00  7 1 -1 23 -13 13 23 21 2 0.13955249D+00 0.10478754D-01 0.50943484D+05 0.50943484D+05 0.50943484D+05 0.11465820D+01  1  2 15  2  7  2       -1 0.129540049328D-04 0.100000000000D+01
0.191169175925D-05 0.000000000000D+00 0.000000000000D+00 0.184490647094D-06 0.000000000000D+00  7 1 -1 23 -13 13 23 21 2 0.13955249D+00 0.16912721D-01 0.73662056D+05 0.73662056D+05 0.73662056D+05 0.11327818D+01  1  2 12  2  7  2       -1 0.135361699513D-03 0.100000000000D+01
-.208810008869D-05 0.000000000000D+00 0.000000000000D+00 0.184490647094D-06 0.000000000000D+00  7 1 -1 23 -13 13 23 21 2 0.13955249D+00 0.10478754D-01 0.50943484D+05 0.50943484D+05 0.50943484D+05 0.11465820D+01  1  2  4  2  7  2       -1 -.318890508564D-03 0.100000000000D+01
-.234033379518D-05 0.000000000000D+00 -.470764128061D-06 0.184490647094D-06 0.000000000000D+00  7 1 -1 23 -13 13 23 21 2 0.13955249D+00 0.17655899D-01 0.50943484D+05 0.50943484D+05 0.50943484D+05 0.11465820D+01  1  2  5  2  7  2       -1 -.159270903460D-03 0.100000000000D+01
0.232043737875D-05 0.000000000000D+00 0.413236936491D-06 0.184490647094D-06 0.000000000000D+00  7 1 -1 23 -13 13 23 21 2 0.13955249D+00 0.10478754D-01 0.50943484D+05 0.50943484D+05 0.50943484D+05 0.11465820D+01  1  2  6  2  7  2       -1 0.354372599192D-03 0.100000000000D+01
0.104169936996D-06 0.000000000000D+00 0.000000000000D+00 0.184490647094D-06 0.000000000000D+00  7 1 21 23 -13 13 23 1 2 0.13955249D+00 0.16912721D-01 0.73662056D+05 0.73662056D+05 0.73662056D+05 0.11327818D+01  1  2 12  4  7  2       -1 0.934989425717D-04 0.100000000000D+01
-.114274709820D-06 0.000000000000D+00 -.274624622919D-07 0.184490647094D-06 0.000000000000D+00  7 1 21 23 -13 13 23 1 2 0.13955249D+00 0.17655899D-01 0.50943484D+05 0.50943484D+05 0.50943484D+05 0.11465820D+01  1  2  5  4  7  2       -1 -.984884093773D-04 0.100000000000D+01
  </mgrwgt>
  </event>
  <event>
  8     66 0.56006291E-06 0.40631451E+03 0.75467711E-02 0.88309516E-01
        1 -1    0    0  501    0 0.00000000E+00 0.00000000E+00 0.65083269E+03 0.65083276E+03 0.32000000E+00 0.0000E+00 0.9000E+01
       -1 -1    0    0    0  501 0.00000000E+00 0.00000000E+00 -.31189914E+03 0.31189930E+03 0.32000000E+00 0.0000E+00 0.9000E+01
       25  2    1    2    0    0 0.30867818E+01 -.38471948E+03 0.87174665E+02 0.49435358E+03 0.29793865E+03 0.0000E+00 0.0000E+00
       23  2    1    2    0    0 -.30867818E+01 0.38471948E+03 0.25175888E+03 0.46837849E+03 0.89315572E+02 0.0000E+00 0.0000E+00
       23  1    3    3    0    0 -.15982225E+02 -.21848065E+03 -.69934466E+02 0.24737685E+03 0.91188000E+02 0.0000E+00 0.9000E+01
      -11  1    4    4    0    0 -.12489517E+00 0.31279525E+03 0.15877161E+03 0.35078384E+03 0.51099893E-03 0.0000E+00 0.9000E+01
       11  1    4    4    0    0 -.29618866E+01 0.71924229E+02 0.92987272E+02 0.11759464E+03 0.51099893E-03 0.0000E+00 0.9000E+01
       23  1    3    3    0    0 0.19069006E+02 -.16623883E+03 0.15710913E+03 0.24697673E+03 0.91188000E+02 0.0000E+00 0.9000E+01
#aMCatNLO 1  0  0  1  2 0.74126656D+03 0.00000000D+00  -5  7  0 0.00000000D+00 0.00000000D+00 0.00000000D+00 0.00000000D+00 0.00000000D+00
  <mgrwgt>
 0.2026079712D-03    3    2    0
 0.450548856485704D+03 0.000000000000000D+00 0.000000000000000D+00 0.450548856485704D+03
 0.450548856485704D+03 0.000000000000000D+00 0.000000000000000D+00 -.450548856485704D+03
 0.290601960508564D+03 -.159822246410227D+02 -.218480646467494D+03 -.167764786895495D+03
 0.315057765715352D+03 -.124895166030868D+00 0.312795246675480D+03 0.376897041109785D+02
 0.906623422231859D+02 -.296188660163569D+01 0.719242292491496D+02 0.551161752307697D+02
 0.204775644524305D+03 0.190690064086893D+02 -.166238829457135D+03 0.749589075537469D+02
 0.000000000000000D+00 0.000000000000000D+00 -.000000000000000D+00 -.000000000000000D+00
 0.915590006173846D+03 0.000000000000000D+00 0.000000000000000D+00 0.915590006173846D+03
 0.996940355351581D+03 0.000000000000000D+00 0.000000000000000D+00 -.996940355351581D+03
 0.262066624292178D+03 -.159639234521003D+03 -.820606806171812D+02 -.167764786895495D+03
 0.585224022984791D+03 -.234138177937824D+03 0.535019585542890D+03 0.376897041109785D+02
 0.159906212953615D+03 -.680930165348195D+02 0.133774232452616D+03 0.551161752307697D+02
 0.159616405208969D+03 -.756486484903897D+02 -.762927888319728D+02 0.749589075537469D+02
 0.745717096085875D+03 0.537519077484036D+03 -.510440348546352D+03 -.813503491777353D+02
0.125571083773D-04 0.000000000000D+00 0.000000000000D+00 0.331501834047D-07 0.000000000000D+00  7 1 -1 23 -11 11 23 21 0 0.10012812D+00 0.47984502D-01 0.16509148D+06 0.16509148D+06 0.16509148D+06 0.11042813D+01  1  2  2  1  7  1        1 0.200929868347D-03 0.100000000000D+01
-.688559239659D-06 0.000000000000D+00 -.482226025316D-07 0.331501834047D-07 0.000000000000D+00  7 1 -1 23 -11 11 23 21 2 0.10012812D+00 0.47984502D-01 0.16509148D+06 0.16509148D+06 0.16509148D+06 0.11042813D+01  1  2  3  1  7  1        1 -.134355558378D-04 0.100000000000D+01
0.774560385523D-06 0.000000000000D+00 0.000000000000D+00 0.331501834047D-07 0.000000000000D+00  7 1 -1 23 -11 11 23 21 2 0.10012812D+00 0.47984502D-01 0.16509148D+06 0.16509148D+06 0.16509148D+06 0.11042813D+01  1  2 15  1  7  1        1 0.151136586514D-04 0.100000000000D+01
  </mgrwgt>
  </event>
  <event>
  8     66 0.56006291E-06 0.25480019E+03 0.75467711E-02 0.99257574E-01
        1 -1    0    0  501    0 0.00000000E+00 0.00000000E+00 0.35359391E+03 0.35359406E+03 0.32000000E+00 0.0000E+00 0.9000E+01
       -1 -1    0    0    0  501 0.00000000E+00 0.00000000E+00 -.24844811E+03 0.24844831E+03 0.32000000E+00 0.0000E+00 0.9000E+01
       25  2    1    2    0    0 0.99652775E+02 0.13230080E+03 0.19096457E+03 0.39251284E+03 0.30027435E+03 0.0000E+00 0.0000E+00
       23  2    1    2    0    0 -.99652775E+02 -.13230080E+03 -.85818764E+02 0.20952953E+03 0.95412709E+02 0.0000E+00 0.0000E+00
       23  1    3    3    0    0 0.68971096E+01 -.60235764E+02 0.75825417E+02 0.13319408E+03 0.91188000E+02 0.0000E+00 0.9000E+01
      -13  1    4    4    0    0 -.81992169E+02 -.89182536E+02 -.10385207E+03 0.15956661E+03 0.10565837E+00 0.0000E+00 0.9000E+01
       13  1    4    4    0    0 -.17660607E+02 -.43118268E+02 0.18033302E+02 0.49962918E+02 0.10565837E+00 0.0000E+00 0.9000E+01
       23  1    3    3    0    0 0.92755666E+02 0.19253657E+03 0.11513915E+03 0.25931876E+03 0.91188000E+02 0.0000E+00 0.9000E+01
#aMCatNLO 1  0  0  2  2 0.14076145D+03 0.00000000D+00  -5  7  0 0.00000000D+00 0.00000000D+00 0.00000000D+00 0.00000000D+00 0.00000000D+00
  <mgrwgt>
 0.1665089108D-03    4    2    0
 0.296394742340700D+03 0.000000000000000D+00 0.000000000000000D+00 0.296394742340700D+03
 0.296394742340700D+03 0.000000000000000D+00 0.000000000000000D+00 -.296394742340700D+03
 0.121823607694933D+03 0.689711084847850D+01 -.602357615087081D+02 0.533837329644409D+02
 0.180478179456571D+03 -.819922496879601D+02 -.891825995018161D+02 -.133776336461888D+03
 0.475439756563350D+02 -.176605290518204D+02 -.431182089157640D+02 0.945279824795372D+01
 0.242943721873561D+03 0.927556678913021D+02 0.192536569926288D+03 0.709398052494930D+02
 0.000000000000000D+00 0.000000000000000D+00 0.000000000000000D+00 0.000000000000000D+00
 0.430074183741937D+03 0.000000000000000D+00 0.000000000000000D+00 0.430074183741937D+03
 0.344125566514360D+03 0.000000000000000D+00 0.000000000000000D+00 -.344125566514360D+03
 0.128730389157738D+03 -.205520320617353D+02 -.705978241988893D+02 0.533837329644409D+02
 0.211190604593891D+03 -.124901054025224D+03 -.105380690712089D+03 -.133776336461888D+03
 0.564053728174724D+02 -.290485753712689D+02 -.474172010652384D+02 0.945279824795372D+01
 0.212946280012166D+03 0.428111849842614D+02 0.173682507174520D+03 0.709398052494930D+02
 0.164927103675031D+03 0.131690476473967D+03 0.497132088016969D+02 0.859486172275777D+02
0.363837360653D-05 0.000000000000D+00 0.000000000000D+00 0.619887297253D-07 0.000000000000D+00  7 1 -1 23 -13 13 23 21 0 0.54399091D-01 0.38222812D-01 0.64923134D+05 0.64923134D+05 0.64923134D+05 0.11374499D+01  1  2  2  2  7  2       -1 0.204331466294D-03 0.100000000000D+01
-.196512444317D-06 0.000000000000D+00 -.139723126548D-07 0.619887297253D-07 0.000000000000D+00  7 1 -1 23 -13 13 23 21 2 0.54399091D-01 0.38222812D-01 0.64923134D+05 0.64923134D+05 0.64923134D+05 0.11374499D+01  1  2  3  2  7  2       -1 -.142784982684D-04 0.100000000000D+01
0.236026870148D-06 0.000000000000D+00 0.000000000000D+00 0.619887297253D-07 0.000000000000D+00  7 1 -1 23 -13 13 23 21 2 0.54399091D-01 0.38222812D-01 0.64923134D+05 0.64923134D+05 0.64923134D+05 0.11374499D+01  1  2 15  2  7  2       -1 0.171495971588D-04 0.100000000000D+01
-.560059561691D-06 0.000000000000D+00 0.000000000000D+00 0.619887297253D-07 0.000000000000D+00  7 1 -1 23 -13 13 23 21 2 0.54399091D-01 0.38222812D-01 0.64923134D+05 0.64923134D+05 0.64923134D+05 0.11374499D+01  1  2  4  2  7  2       -1 -.406936543364D-04 0.100000000000D+01
  </mgrwgt>
  </event>
  <event>
  9     66 0.56006291E-06 0.16545019E+03 0.75467711E-02 0.10572787E+00
        1 -1    0    0  501    0 0.00000000E+00 0.00000000E+00 0.33144794E+04 0.33144794E+04 0.32000000E+00 0.0000E+00 0.9000E+01
       -1 -1    0    0    0  502 0.00000000E+00 0.00000000E+00 -.52636526E+02 0.52637499E+02 0.32000000E+00 0.0000E+00 0.9000E+01
       25  2    1    2    0    0 0.14605047E+02 0.14216637E+02 0.51119104E+03 0.59294996E+03 0.29976317E+03 0.0000E+00 0.0000E+00
       23  2    1    2    0    0 -.53472804E+01 0.44770886E+02 0.26786501E+04 0.26806252E+04 0.92479583E+02 0.0000E+00 0.0000E+00
       23  1    3    3    0    0 -.37897373E+01 -.10962192E+03 0.28653630E+03 0.32007754E+03 0.91188000E+02 0.0000E+00 0.9000E+01
      -11  1    4    4    0    0 -.54496745E+01 -.65736946E+01 0.23914937E+02 0.25393633E+02 0.51099893E-03 0.0000E+00 0.9000E+01
       11  1    4    4    0    0 0.10239408E+00 0.51344580E+02 0.26547351E+04 0.26552316E+04 0.51099893E-03 0.0000E+00 0.9000E+01
       23  1    3    3    0    0 0.18394784E+02 0.12383856E+03 0.22465474E+03 0.27287243E+03 0.91188000E+02 0.0000E+00 0.9000E+01
       21  1    1    2  501  502 -.92577663E+01 -.58987522E+02 0.72001734E+02 0.93541682E+02 0.75000000E+00 0.0000E+00 0.9000E+01
#aMCatNLO 2  0  0  2  1 0.59709581D+02 0.00000000D+00  -5  7  0 0.00000000D+00 0.00000000D+00 0.00000000D+00 0.00000000D+00 0.00000000D+00
  <mgrwgt>
 0.1503821318D-04    2    2    0
 0.366620740372946D+03 0.000000000000000D+00 0.000000000000000D+00 0.366620740372946D+03
 0.366620740372946D+03 0.000000000000000D+00 0.000000000000000D+00 -.366620740372946D+03
 0.191334004040924D+03 -.614181610826209D+01 -.124608611423603D+03 -.112820307623699D+03
 0.993034065438124D+01 -.557088523031046D+01 -.734601041621354D+01 -.368958456030595D+01
 0.301247899133168D+03 -.371451045940220D+01 0.270244867729539D+02 0.300010293588158D+03
 0.230729236917420D+03 0.154272117979748D+02 0.104930135066863D+03 -.183500401404153D+03
 0.000000000000000D+00 -.000000000000000D+00 -.000000000000000D+00 -.000000000000000D+00
 0.377254088914461D+03 0.000000000000000D+00 0.000000000000000D+00 0.377254088914461D+03
 0.462455210348105D+03 0.000000000000000D+00 0.000000000000000D+00 -.462455210348105D+03
 0.181865335609353D+03 -.378973731712355D+01 -.109621918570438D+03 -.112820307623699D+03
 0.930190554464343D+01 -.544967451639797D+01 -.657369456235555D+01 -.368958456030595D+01
 0.304372227153501D+03 0.102394082444991D+00 0.513445802298683D+02 0.300010293588158D+03
 0.240129141261269D+03 0.183947840503314D+02 0.123838555156020D+03 -.183500401404153D+03
 0.104040689693800D+03 -.925776629925486D+01 -.589875222530952D+02 -.852011214336439D+02
-.795466399798D-04 0.000000000000D+00 0.000000000000D+00 0.106378969514D-05 0.000000000000D+00  7 1 -1 23 -11 11 23 21 2 0.49554555D+00 0.81739832D-02 0.43497349D+05 0.43497349D+05 0.43497349D+05 0.11526559D+01  1  2 13  2  7  2       -1 -.469292746179D-03 0.100000000000D+01
0.954272647310D-04 0.000000000000D+00 0.000000000000D+00 0.106378969514D-05 0.216935061605D-08  7 1 -1 23 -11 11 23 21 2 0.50991819D+00 0.80979747D-02 0.43497349D+05 0.43497349D+05 0.43497349D+05 0.11526559D+01  1  2  1  2  7  2       -1 0.484330959362D-03 0.100000000000D+01
  </mgrwgt>
  </event>
  <event>
  8     66 0.56006291E-06 0.11617439E+03 0.75467711E-02 0.10363693E+00
        1 -1    0    0  501    0 0.00000000E+00 0.00000000E+00 0.27597285E+03 0.27597304E+03 0.32000000E+00 0.0000E+00 0.9000E+01
       -1 -1    0    0    0  501 0.00000000E+00 0.00000000E+00 -.25261592E+03 0.25261612E+03 0.32000000E+00 0.0000E+00 0.9000E+01
       25  2    1    2    0    0 0.99551604E+02 0.60931355E+02 -.10313761E+03 0.33422569E+03 0.29571320E+03 0.0000E+00 0.0000E+00
       23  2    1    2    0    0 -.99551604E+02 -.60931355E+02 0.12649454E+03 0.19436347E+03 0.90294711E+02 0.0000E+00 0.0000E+00
       23  1    3    3    0    0 0.82482857E+02 -.61563682E+02 -.11617209E+03 0.18001309E+03 0.91188000E+02 0.0000E+00 0.9000E+01
      -11  1    4    4    0    0 -.62137853E+01 -.47427916E+02 0.19280267E+02 0.51572735E+02 0.51099893E-03 0.0000E+00 0.9000E+01
       11  1    4    4    0    0 -.93337819E+02 -.13503440E+02 0.10721428E+03 0.14279073E+03 0.51099893E-03 0.0000E+00 0.9000E+01
       23  1    3    3    0    0 0.17068747E+02 0.12249504E+03 0.13034481E+02 0.15421260E+03 0.91188000E+02 0.0000E+00 0.9000E+01
#aMCatNLO 1  0  0  1  2 0.51657789D+02 0.00000000D+00  -5  7  0 0.00000000D+00 0.00000000D+00 0.00000000D+00 0.00000000D+00 0.00000000D+00
  <mgrwgt>
 0.2549731365D-03    6    2    0
 0.264036432845034D+03 0.000000000000000D+00 0.000000000000000D+00 0.264036432845034D+03
 0.264036432845034D+03 0.000000000000000D+00 0.000000000000000D+00 -.264036432845034D+03
 0.185327443700227D+03 0.824828569324021D+02 -.615636823293733D+02 -.124247741930297D+03
 0.507703814230120D+02 -.621378528483592D+01 -.474279157972975D+02 0.170180288340494D+02
 0.138188191901524D+03 -.933378187741459D+02 -.135034396047059D+02 0.101003391459590D+03
 0.153786848665306D+03 0.170687471265797D+02 0.122495037731377D+03 0.622632163665743D+01
 0.000000000000000D+00 -.000000000000000D+00 -.000000000000000D+00 -.000000000000000D+00
 0.288823529173550D+03 0.000000000000000D+00 0.000000000000000D+00 0.288823529173550D+03
 0.293653040813545D+03 0.000000000000000D+00 0.000000000000000D+00 -.293653040813545D+03
 0.188431817487637D+03 0.963453684568252D+02 -.497128464266056D+02 -.124247741930297D+03
 0.475359073643237D+02 -.256766275958634D+01 -.443109048825011D+02 0.170180288340494D+02
 0.131049236761668D+03 -.833519606423963D+02 -.496669171027218D+01 0.101003391459590D+03
 0.163576553841479D+03 0.288395693684107D+02 0.132557722446396D+03 0.622632163665743D+01
 0.518830545319878D+02 -.392653144232533D+02 -.335672794270169D+02 -.482951163999498D+01
0.285444918398D-05 0.000000000000D+00 0.000000000000D+00 0.116515122521D-07 0.000000000000D+00  7 1 -1 23 -11 11 23 21 0 0.42457392D-01 0.38864017D-01 0.46939967D+05 0.46939967D+05 0.46939967D+05 0.11497157D+01  1  2  2  1  7  1        1 0.215553089212D-03 0.100000000000D+01
-.151038747849D-06 0.000000000000D+00 -.109618364602D-07 0.116515122521D-07 0.000000000000D+00  7 1 -1 23 -11 11 23 21 2 0.42457392D-01 0.38864017D-01 0.46939967D+05 0.46939967D+05 0.46939967D+05 0.11497157D+01  1  2  3  1  7  1        1 -.150765248240D-04 0.100000000000D+01
0.174125690591D-06 0.000000000000D+00 0.000000000000D+00 0.116515122521D-07 0.000000000000D+00  7 1 -1 23 -11 11 23 21 2 0.42457392D-01 0.38864017D-01 0.46939967D+05 0.46939967D+05 0.46939967D+05 0.11497157D+01  1  2 15  1  7  1        1 0.173810385353D-04 0.100000000000D+01
0.261141848086D-05 0.000000000000D+00 0.000000000000D+00 0.116515122521D-07 0.000000000000D+00  7 1 -1 23 -11 11 23 21 2 0.48594706D-01 0.38864017D-01 0.58725310D+05 0.58725310D+05 0.58725310D+05 0.11412012D+01  1  2 12  1  7  1        1 0.215359340867D-03 0.100000000000D+01
-.199513283961D-05 0.000000000000D+00 0.000000000000D+00 0.116515122521D-07 0.000000000000D+00  7 1 -1 23 -11 11 23 21 2 0.42457392D-01 0.38864017D-01 0.46939967D+05 0.46939967D+05 0.46939967D+05 0.11497157D+01  1  2  4  1  7  1        1 -.199152007097D-03 0.100000000000D+01
0.546595918322D-07 0.000000000000D+00 0.000000000000D+00 0.116515122521D-07 0.000000000000D+00  7 21 -1 23 -11 11 23 -1 2 0.48594706D-01 0.38864017D-01 0.58725310D+05 0.58725310D+05 0.58725310D+05 0.11412012D+01  1  2 12  3  7  1        1 0.209081997763D-04 0.100000000000D+01
  </mgrwgt>
  </event>
  <event>
  9     66 0.56006291E-06 0.23777464E+03 0.75467711E-02 0.95528122E-01
        1 -1    0    0  502    0 0.00000000E+00 0.00000000E+00 0.30925739E+04 0.30925739E+04 0.32000000E+00 0.0000E+00 0.9000E+01
       -1 -1    0    0    0  501 0.00000000E+00 0.00000000E+00 -.80776781E+02 0.80777415E+02 0.32000000E+00 0.0000E+00 0.9000E+01
       25  2    1    2    0    0 0.25696607E+03 0.28338083E+03 0.12107299E+04 0.13044763E+04 0.29909094E+03 0.0000E+00 0.0000E+00
       23  2    1    2    0    0 -.89306009E+02 0.18010402E+02 0.28168544E+03 0.31084157E+03 0.94740988E+02 0.0000E+00 0.0000E+00
       23  1    3    3    0    0 -.14614765E+02 0.68944155E+02 0.18338594E+03 0.21659303E+03 0.91188000E+02 0.0000E+00 0.9000E+01
      -11  1    4    4    0    0 0.76224815E+01 0.27771386E+01 -.38051559E+01 0.89606883E+01 0.51099893E-03 0.0000E+00 0.9000E+01
       11  1    4    4    0    0 -.96928490E+02 0.15233264E+02 0.28549060E+03 0.30188088E+03 0.51099893E-03 0.0000E+00 0.9000E+01
       23  1    3    3    0    0 0.27158084E+03 0.21443667E+03 0.10273439E+04 0.10878833E+04 0.91188000E+02 0.0000E+00 0.9000E+01
       21  1    1    2  502  501 -.16766006E+03 -.30139123E+03 0.15193818E+04 0.15580334E+04 0.75000000E+00 0.0000E+00 0.9000E+01
#aMCatNLO 2  0  0  1  2 0.34488631D+03 0.00000000D+00  -5  7  0 0.00000000D+00 0.00000000D+00 0.00000000D+00 0.00000000D+00 0.00000000D+00
  <mgrwgt>
 0.4152548743D-05    1    2    0
 0.256418525370763D+03 0.000000000000000D+00 0.000000000000000D+00 0.256418525370763D+03
 0.256418525370763D+03 0.000000000000000D+00 0.000000000000000D+00 -.256418525370763D+03
 0.112803404819311D+03 -.496137266042798D+02 0.602887519867763D+01 -.437205625661880D+02
 0.351734371959135D+02 -.242695125684515D+01 -.152880511496151D+02 -.315841112557963D+02
 0.142780071887478D+03 -.132865581769352D+03 -.493684304252501D+02 0.171943068087209D+02
 0.222080136838824D+03 0.184906259630477D+03 0.586276063761877D+02 0.581103670132633D+02
 0.000000000000000D+00 -.000000000000000D+00 -.000000000000000D+00 0.000000000000000D+00
 0.615004686892824D+03 0.000000000000000D+00 0.000000000000000D+00 0.615004686892824D+03
 0.406190092816620D+03 0.000000000000000D+00 0.000000000000000D+00 -.406190092816620D+03
 0.123262430827194D+03 -.146147654154196D+02 0.689441553010624D+02 -.437205625661880D+02
 0.326093668392498D+02 0.762248144146035D+01 0.277713854764926D+01 -.315841112557963D+02
 0.996133961955074D+02 -.969284900735705D+02 0.152332638337442D+02 0.171943068087209D+02
 0.362534555699938D+03 0.271580838688332D+03 0.214436671386863D+03 0.581103670132633D+02
 0.403175030147556D+03 -.167660064640802D+03 -.301391229069319D+03 0.208814594076204D+03
0.129028217628D-05 0.000000000000D+00 0.000000000000D+00 0.114119841074D-07 0.105440749368D-11  7 1 -1 23 -11 11 23 21 2 0.47578028D+00 0.12427238D-01 0.21354211D+06 0.21354211D+06 0.21354211D+06 0.10956467D+01  1  2  1  1  7  1        1 0.415254874277D-05 0.100000000000D+01
  </mgrwgt>
  </event>
  <event>
  7     66 0.56006291E-06 0.14588764E+03 0.75467711E-02 0.10156494E+00
        1 -1    0    0  501    0 0.00000000E+00 0.00000000E+00 0.43645488E+03 0.43645500E+03 0.32000000E+00 0.0000E+00 0.9000E+01
       -1 -1    0    0    0  501 0.00000000E+00 0.00000000E+00 -.31541288E+03 0.31541304E+03 0.32000000E+00 0.0000E+00 0.9000E+01
       25  2    1    2    0    0 0.13492433E+02 0.16087751E+03 0.24460843E+03 0.41880575E+03 0.29916777E+03 0.0000E+00 0.0000E+00
       23  1    3    3    0    0 0.13699830E+02 0.15156672E+03 0.27056047E+03 0.32354037E+03 0.91188000E+02 0.0000E+00 0.9000E+01
      -11  1    1    2    0    0 0.80756432E+02 -.17746739E+03 -.26528231E+02 0.19677404E+03 0.51099893E-03 0.0000E+00 0.9000E+01
       11  1    1    2    0    0 -.94248865E+02 0.16589885E+02 -.97038203E+02 0.13628824E+03 0.51099893E-03 0.0000E+00 0.9000E+01
       23  1    3    3    0    0 -.20739690E+00 0.93107943E+01 -.25952032E+02 0.95265383E+02 0.91188000E+02 0.0000E+00 0.9000E+01
#aMCatNLO 1  0  0  1  2 0.55560811D+01 0.00000000D+00  -5  7  0 0.00000000D+00 0.00000000D+00 0.00000000D+00 0.00000000D+00 0.00000000D+00
  <mgrwgt>
 0.6027506834D-03   11    2    0
 0.371030452568098D+03 0.000000000000000D+00 0.000000000000000D+00 0.371030452568098D+03
 0.371030452568098D+03 0.000000000000000D+00 0.000000000000000D+00 -.371030452568098D+03
 0.283683601945869D+03 0.136998322995626D+02 0.151566739402717D+03 0.221361633466088D+03
 0.203701793532347D+03 0.807564010576829D+02 -.177467384386485D+03 -.589758582432261D+02
 0.153917903272937D+03 -.942488371790139D+02 0.165898420692795D+02 -.120551461121204D+03
 0.100757606385043D+03 -.207396178231637D+00 0.931080291448820D+01 -.418343141016578D+02
 0.000000000000000D+00 0.000000000000000D+00 -.000000000000000D+00 0.000000000000000D+00
 0.374137101316025D+03 0.000000000000000D+00 0.000000000000000D+00 0.374137101316025D+03
 0.373533387757800D+03 0.000000000000000D+00 0.000000000000000D+00 -.373533387757800D+03
 0.283987092111201D+03 0.117053602487032D+02 0.152300456048067D+03 0.221361633466088D+03
 0.202681270133105D+03 0.793286020345720D+02 -.176942132649305D+03 -.589758582432261D+02
 0.154627385988941D+03 -.953328898917919D+02 0.169886380912438D+02 -.120551461121204D+03
 0.100785956815709D+03 -.915505665021718D+00 0.957129877702185D+01 -.418343141016578D+02
 0.558878402486853D+01 0.521443327353844D+01 -.191826026702735D+01 0.603713558225256D+00
0.956887599777D-05 0.000000000000D+00 0.000000000000D+00 0.398307642582D-10 0.000000000000D+00  7 1 -1 23 -11 11 23 21 0 0.67146926D-01 0.48525080D-01 0.78330255D+05 0.78330255D+05 0.78330255D+05 0.11305317D+01  1  2  2  1  7  1        1 0.267187336186D-03 0.100000000000D+01
-.480225666756D-06 0.000000000000D+00 -.367470033744D-07 0.398307642582D-10 0.000000000000D+00  7 1 -1 23 -11 11 23 21 2 0.67146926D-01 0.48525080D-01 0.78330255D+05 0.78330255D+05 0.78330255D+05 0.11305317D+01  1  2  3  1  7  1        1 -.171382231507D-04 0.100000000000D+01
0.593306021708D-06 0.000000000000D+00 0.000000000000D+00 0.398307642582D-10 0.000000000000D+00  7 1 -1 23 -11 11 23 21 2 0.67146926D-01 0.48525080D-01 0.78330255D+05 0.78330255D+05 0.78330255D+05 0.11305317D+01  1  2 15  1  7  1        1 0.211738182705D-04 0.100000000000D+01
0.243116050457D-05 0.000000000000D+00 0.000000000000D+00 0.398307642582D-10 0.000000000000D+00  7 1 -1 23 -11 11 23 21 2 0.67933923D-01 0.48525080D-01 0.80058873D+05 0.80058873D+05 0.80058873D+05 0.11297357D+01  1  2 12  1  7  1        1 0.852582798643D-04 0.100000000000D+01
-.415604546896D-04 0.000000000000D+00 0.000000000000D+00 0.398307642582D-10 0.000000000000D+00  7 1 -1 23 -11 11 23 21 2 0.67146926D-01 0.48525080D-01 0.78330255D+05 0.78330255D+05 0.78330255D+05 0.11305317D+01  1  2  4  1  7  1        1 -.148320341045D-02 0.100000000000D+01
-.756436669081D-03 0.000000000000D+00 -.902350195751D-04 0.398307642582D-10 0.000000000000D+00  7 1 -1 23 -11 11 23 21 2 0.68101922D-01 0.48525080D-01 0.78330255D+05 0.78330255D+05 0.78330255D+05 0.11305317D+01  1  2  5  1  7  1        1 -.264861759471D-01 0.100000000000D+01
0.757644438463D-03 0.000000000000D+00 0.902260221279D-04 0.398307642582D-10 0.000000000000D+00  7 1 -1 23 -11 11 23 21 2 0.67146926D-01 0.48525080D-01 0.78330255D+05 0.78330255D+05 0.78330255D+05 0.11305317D+01  1  2  6  1  7  1        1 0.270387035808D-01 0.100000000000D+01
0.395768247597D-04 0.000000000000D+00 0.000000000000D+00 0.398307642582D-10 0.878358598190D-11  7 1 -1 23 -11 11 23 21 2 0.67709149D-01 0.48852426D-01 0.80058873D+05 0.80058873D+05 0.80058873D+05 0.11297357D+01  1  2 11  1  7  1        1 0.137752315796D-02 0.100000000000D+01
0.174200014905D-06 0.000000000000D+00 0.000000000000D+00 0.398307642582D-10 0.000000000000D+00  7 21 -1 23 -11 11 23 -1 2 0.67933923D-01 0.48525080D-01 0.80058873D+05 0.80058873D+05 0.80058873D+05 0.11297357D+01  1  2 12  3  7  1        1 0.209327695263D-04 0.100000000000D+01
-.195459421708D-05 0.000000000000D+00 -.233953646731D-06 0.398307642582D-10 0.000000000000D+00  7 21 -1 23 -11 11 23 -1 2 0.68101922D-01 0.48525080D-01 0.78330255D+05 0.78330255D+05 0.78330255D+05 0.11305317D+01  1  2  5  3  7  1        1 -.234141087966D-03 0.100000000000D+01
0.105572821260D-06 0.000000000000D+00 0.000000000000D+00 0.398307642582D-10 0.135905391416D-13  7 21 -1 23 -11 11 23 -1 2 0.67709149D-01 0.48852426D-01 0.80058873D+05 0.80058873D+05 0.80058873D+05 0.11297357D+01  1  2 11  3  7  1        1 0.126304095066D-04 0.100000000000D+01
  </mgrwgt>
  </event>
  <event>
  8     66 0.56006291E-06 0.24120411E+03 0.75467711E-02 0.88208157E-01
        1 -1    0    0  501    0 0.00000000E+00 0.00000000E+00 0.34243583E+03 0.34243598E+03 0.32000000E+00 0.0000E+00 0.9000E+01
       -1 -1    0    0    0  501 0.00000000E+00 0.00000000E+00 -.19204524E+03 0.19204551E+03 0.32000000E+00 0.0000E+00 0.9000E+01
       25  2    1    2    0    0 0.13467134E+03 0.69130274E+02 0.89409184E+02 0.34742908E+03 0.29966248E+03 0.0000E+00 0.0000E+00
       23  2    1    2    0    0 -.13467134E+03 -.69130274E+02 0.60981410E+02 0.18705241E+03 0.91402984E+02 0.0000E+00 0.0000E+00
       23  1    3    3    0    0 0.81286523E+02 0.13443286E+03 0.12224142E+03 0.21894728E+03 0.91188000E+02 0.0000E+00 0.9000E+01
      -13  1    4    4    0    0 -.14689663E+03 -.52692559E+02 0.50417378E+02 0.16400320E+03 0.10565837E+00 0.0000E+00 0.9000E+01
       13  1    4    4    0    0 0.12225287E+02 -.16437714E+02 0.10564033E+02 0.23049209E+02 0.10565837E+00 0.0000E+00 0.9000E+01
       23  1    3    3    0    0 0.53384822E+02 -.65302591E+02 -.32832236E+02 0.12848181E+03 0.91188000E+02 0.0000E+00 0.9000E+01
#aMCatNLO 1  0  0  1  1 0.85992540D+03 0.00000000D+00  -5  7  0 0.00000000D+00 0.00000000D+00 0.00000000D+00 0.00000000D+00 0.00000000D+00
  <mgrwgt>
 0.1952676534D-03    5    2    0
 0.256443528577595D+03 0.000000000000000D+00 0.000000000000000D+00 0.256443528577595D+03
 0.256443528577595D+03 0.000000000000000D+00 0.000000000000000D+00 -.256443528577595D+03
 0.192321692402975D+03 0.812865236273340D+02 0.134432863787853D+03 0.631877221865456D+02
 0.156124954087301D+03 -.146896845151772D+03 -.526926085750753D+02 0.445052522429739D+01
 0.209218609983295D+02 0.122254990485044D+02 -.164376658884257D+02 0.425024479164768D+01
 0.143518549666583D+03 0.533848224759334D+02 -.653025893243523D+02 -.718884922024907D+02
 0.000000000000000D+00 0.000000000000000D+00 -.000000000000000D+00 0.000000000000000D+00
 0.363165482031588D+04 0.000000000000000D+00 0.000000000000000D+00 0.363165482031588D+04
 0.559674726049089D+03 0.000000000000000D+00 0.000000000000000D+00 -.559674726049089D+03
 0.350253909722959D+03 -.196443704170144D+03 0.267917399190512D+03 0.631877221865456D+02
 0.488501672765343D+03 -.476864317368759D+03 0.105898536062563D+03 0.445052522429739D+01
 0.104304319406016D+02 -.382291784636649D+01 -.872436982357624D+01 0.425024479164768D+01
 0.152075602822966D+03 -.979220755579189D+02 0.741953079717091D+01 -.718884922024907D+02
 0.319006792911310D+04 0.775053014943188D+03 -.372511096226670D+03 0.307198009426679D+04
0.213299463401D-05 0.000000000000D+00 0.000000000000D+00 0.217620284639D-06 0.000000000000D+00  7 1 -1 23 -13 13 23 21 0 0.52682468D-01 0.29545454D-01 0.58179425D+05 0.58179425D+05 0.58179425D+05 0.11415523D+01  1  2  2  1  7  1        1 0.192681263002D-03 0.100000000000D+01
-.117958918913D-06 0.000000000000D+00 -.819126102499D-08 0.217620284639D-06 0.000000000000D+00  7 1 -1 23 -13 13 23 21 2 0.52682468D-01 0.29545454D-01 0.58179425D+05 0.58179425D+05 0.58179425D+05 0.11415523D+01  1  2  3  1  7  1        1 -.138858389249D-04 0.100000000000D+01
0.139962554270D-06 0.000000000000D+00 0.000000000000D+00 0.217620284639D-06 0.000000000000D+00  7 1 -1 23 -13 13 23 21 2 0.52682468D-01 0.29545454D-01 0.58179425D+05 0.58179425D+05 0.58179425D+05 0.11415523D+01  1  2 15  1  7  1        1 0.164760537144D-04 0.100000000000D+01
-.712489233700D-06 0.000000000000D+00 -.236592856354D-05 0.217620284639D-06 0.000000000000D+00  7 1 -1 23 -13 13 23 21 2 0.81037901D+00 0.29545454D-01 0.58179425D+05 0.58179425D+05 0.58179425D+05 0.11415523D+01  1  2  5  1  7  1        1 -.370479637028D-08 0.100000000000D+01
-.749784539442D-06 0.000000000000D+00 -.725633253246D-06 0.217620284639D-06 0.000000000000D+00  7 21 -1 23 -13 13 23 -1 2 0.81037901D+00 0.29545454D-01 0.58179425D+05 0.58179425D+05 0.58179425D+05 0.11415523D+01  1  2  5  3  7  1        1 -.119639065845D-09 0.100000000000D+01
  </mgrwgt>
  </event>
  <event>
  9     66 0.56006291E-06 0.17680062E+03 0.75467711E-02 0.99344758E-01
        3 -1    0    0  501    0 0.00000000E+00 0.00000000E+00 0.73074077E+03 0.73074094E+03 0.50000000E+00 0.0000E+00 0.9000E+01
       -3 -1    0    0    0  502 0.00000000E+00 0.00000000E+00 -.21317766E+03 0.21317824E+03 0.50000000E+00 0.0000E+00 0.9000E+01
       25  2    1    2    0    0 -.93302950E+02 0.14413120E+03 0.28977938E+03 0.45055613E+03 0.29924821E+03 0.0000E+00 0.0000E+00
       23  2    1    2    0    0 0.57929681E+02 0.98346000E+02 0.19874551E+03 0.24660357E+03 0.91026155E+02 0.0000E+00 0.0000E+00
       23  1    3    3    0    0 -.11388278E+03 0.11060234E+03 0.48135211E+02 0.18929980E+03 0.91188000E+02 0.0000E+00 0.9000E+01
      -13  1    4    4    0    0 0.17898234E+02 -.16254602E+02 0.40387046E+02 0.47071047E+02 0.10565837E+00 0.0000E+00 0.9000E+01
       13  1    4    4    0    0 0.40031447E+02 0.11460060E+03 0.15835847E+03 0.19953253E+03 0.10565837E+00 0.0000E+00 0.9000E+01
       23  1    3    3    0    0 0.20579829E+02 0.33528868E+02 0.24164416E+03 0.26125633E+03 0.91188000E+02 0.0000E+00 0.9000E+01
       21  1    1    2  501  502 0.35373269E+02 -.24247720E+03 0.29038225E+02 0.24675949E+03 0.75000000E+00 0.0000E+00 0.9000E+01
#aMCatNLO 2  0  0  2  2 0.24504380D+03 0.00000000D+00  -5  7  0 0.00000000D+00 0.00000000D+00 0.00000000D+00 0.00000000D+00 0.00000000D+00
  <mgrwgt>
 0.2722744197D-05    1    2    0
 0.216407381312019D+03 0.000000000000000D+00 0.000000000000000D+00 0.216407381312019D+03
 0.216407381312019D+03 0.000000000000000D+00 0.000000000000000D+00 -.216407381312019D+03
 0.179314565381127D+03 -.987712431078851D+02 0.701551539209299D+01 -.118463015715999D+03
 0.408036584219807D+02 0.204504392275134D+02 -.337498262867846D+02 0.103762855411422D+02
 0.817255489380731D+02 0.478602637895129D+02 0.609359874090491D+02 0.259858795831857D+02
 0.130970989882857D+03 0.304605400908588D+02 -.342016765143575D+02 0.821008505916708D+02
 0.000000000000000D+00 0.000000000000000D+00 -.000000000000000D+00 -.000000000000000D+00
 0.306529166008512D+03 0.000000000000000D+00 0.000000000000000D+00 0.306529166008512D+03
 0.508198169085523D+03 0.000000000000000D+00 0.000000000000000D+00 -.508198169085523D+03
 0.218061690589857D+03 -.113882784205310D+03 0.110602327859880D+03 -.118463015715999D+03
 0.263102806848199D+02 0.178982106185233D+02 -.162547723680667D+02 0.103762855411422D+02
 0.124141558790869D+03 0.400314888883744D+02 0.114600787862453D+03 0.259858795831857D+02
 0.128854624642995D+03 0.205798152285310D+02 0.335288604812454D+02 0.821008505916708D+02
 0.317359180385494D+03 0.353732694698816D+02 -.242477203835512D+03 -.201669003077011D+03
0.841306030803D-06 0.000000000000D+00 0.000000000000D+00 0.472791690508D-07 0.104749359990D-10  7 3 -3 23 -13 13 23 21 2 0.11242157D+00 0.32796579D-01 0.11323325D+06 0.11323325D+06 0.11323325D+06 0.11173196D+01  1  2  1  2  7  2       -3 0.272274419695D-05 0.100000000000D+01
  </mgrwgt>
  </event>
  <event>
  8     66 0.56006291E-06 0.35409194E+03 0.75467711E-02 0.92738404E-01
        1 -1    0    0  501    0 0.00000000E+00 0.00000000E+00 0.96212809E+02 0.96213341E+02 0.32000000E+00 0.0000E+00 0.9000E+01
       -1 -1    0    0    0  501 0.00000000E+00 0.00000000E+00 -.17058374E+04 0.17058374E+04 0.32000000E+00 0.0000E+00 0.9000E+01
       25  2    1    2    0    0 -.74032745E+02 0.27711625E+03 -.13215463E+04 0.13852370E+04 0.30020449E+03 0.0000E+00 0.0000E+00
       23  2    1    2    0    0 0.74032745E+02 -.27711625E+03 -.28807824E+03 0.41681369E+03 0.92034327E+02 0.0000E+00 0.0000E+00
       23  1    3    3    0    0 -.13925586E+03 0.23870648E+03 -.10354356E+04 0.10755534E+04 0.91188000E+02 0.0000E+00 0.9000E+01
      -11  1    4    4    0    0 0.10344491E+02 -.19238778E+03 -.21117773E+03 0.28586028E+03 0.51099893E-03 0.0000E+00 0.9000E+01
       11  1    4    4    0    0 0.63688254E+02 -.84728472E+02 -.76900510E+02 0.13095341E+03 0.51099893E-03 0.0000E+00 0.9000E+01
       23  1    3    3    0    0 0.65223120E+02 0.38409771E+02 -.28611066E+03 0.30968359E+03 0.91188000E+02 0.0000E+00 0.9000E+01
#aMCatNLO 1  0  0  1  1 0.39831178D+03 0.00000000D+00  -5  7  0 0.00000000D+00 0.00000000D+00 0.00000000D+00 0.00000000D+00 0.00000000D+00
  <mgrwgt>
 0.1324301677D-03    5    2    0
 0.405122093401363D+03 0.000000000000000D+00 0.000000000000000D+00 0.405122093401363D+03
 0.405122093401363D+03 0.000000000000000D+00 0.000000000000000D+00 -.405122093401363D+03
 0.335132587857643D+03 -.139255864978357D+03 0.238706480134522D+03 -.166209568049126D+03
 0.216253162031604D+03 0.103444908905512D+02 -.192387778552259D+03 0.982108153952988D+02
 0.138481392404682D+03 0.636882538435131D+02 -.847284723139342D+02 0.891178340403902D+02
 0.120377044508798D+03 0.652231202442927D+02 0.384097707316706D+02 -.211190813865627D+02
 0.000000000000000D+00 0.000000000000000D+00 -.000000000000000D+00 0.000000000000000D+00
 0.831255204782313D+03 0.000000000000000D+00 0.000000000000000D+00 0.831255204782313D+03
 0.555851609348126D+03 0.000000000000000D+00 0.000000000000000D+00 -.555851609348126D+03
 0.509281553227385D+03 -.235899357206906D+03 0.409607521747330D+03 -.166209568049126D+03
 0.156142488392729D+03 -.322763208612331D+02 -.117018594815212D+03 0.982108153952988D+02
 0.102641983325442D+03 0.360915996016115D+02 -.359274941392625D+02 0.891178340403902D+02
 0.134789396915667D+03 0.360192322479301D+02 0.900529260298994D+02 -.211190813865627D+02
 0.484251392269216D+03 0.196064846218598D+03 -.346714358822755D+03 0.275403595434187D+03
0.596351691370D-04 0.000000000000D+00 0.000000000000D+00 0.431525327680D-06 0.000000000000D+00  7 1 -1 23 -11 11 23 21 0 0.14802014D-01 0.26243656D+00 0.12538110D+06 0.12538110D+06 0.12538110D+06 0.11137490D+01  1  2  2  1  7  1        1 0.130597701547D-03 0.100000000000D+01
-.324005076204D-05 0.000000000000D+00 -.229014751787D-06 0.431525327680D-06 0.000000000000D+00  7 1 -1 23 -11 11 23 21 2 0.14802014D-01 0.26243656D+00 0.12538110D+06 0.12538110D+06 0.12538110D+06 0.11137490D+01  1  2  3  1  7  1        1 -.880155791863D-05 0.100000000000D+01
0.380950752759D-05 0.000000000000D+00 0.000000000000D+00 0.431525327680D-06 0.000000000000D+00  7 1 -1 23 -11 11 23 21 2 0.14802014D-01 0.26243656D+00 0.12538110D+06 0.12538110D+06 0.12538110D+06 0.11137490D+01  1  2 15  1  7  1        1 0.103484801962D-04 0.100000000000D+01
-.315545392495D-05 0.000000000000D+00 -.206179092777D-04 0.431525327680D-06 0.000000000000D+00  7 1 -1 23 -11 11 23 21 2 0.42892814D-01 0.26243656D+00 0.12538110D+06 0.12538110D+06 0.12538110D+06 0.11137490D+01  1  2  5  1  7  1        1 -.213125285667D-05 0.100000000000D+01
0.715431828539D-06 0.000000000000D+00 -.247950617690D-05 0.431525327680D-06 0.000000000000D+00  7 21 -1 23 -11 11 23 -1 2 0.42892814D-01 0.26243656D+00 0.12538110D+06 0.12538110D+06 0.12538110D+06 0.11137490D+01  1  2  5  3  7  1        1 0.241679677669D-05 0.100000000000D+01
  </mgrwgt>
  </event>
  <event>
  8     66 0.56006291E-06 0.21874306E+03 0.75467711E-02 0.98969222E-01
        1 -1    0    0  501    0 0.00000000E+00 0.00000000E+00 0.34794785E+03 0.34794799E+03 0.32000000E+00 0.0000E+00 0.9000E+01
       -1 -1    0    0    0  501 0.00000000E+00 0.00000000E+00 -.38060100E+03 0.38060113E+03 0.32000000E+00 0.0000E+00 0.9000E+01
       25  2    1    2    0    0 -.13910824E+03 -.19817863E+03 0.14927724E+03 0.41322408E+03 0.29974084E+03 0.0000E+00 0.0000E+00
       23  2    1    2    0    0 0.13910824E+03 0.19817863E+03 -.18193039E+03 0.31532505E+03 0.87780102E+02 0.0000E+00 0.0000E+00
       23  1    3    3    0    0 0.60036466E+02 -.45255093E+02 0.45194572E+02 0.12653142E+03 0.91188000E+02 0.0000E+00 0.9000E+01
      -11  1    4    4    0    0 0.83689641E+02 0.88637448E+02 -.41437673E+02 0.12875416E+03 0.51099893E-03 0.0000E+00 0.9000E+01
       11  1    4    4    0    0 0.55418600E+02 0.10954118E+03 -.14049272E+03 0.18657089E+03 0.51099893E-03 0.0000E+00 0.9000E+01
       23  1    3    3    0    0 -.19914471E+03 -.15292354E+03 0.10408267E+03 0.28669265E+03 0.91188000E+02 0.0000E+00 0.9000E+01
#aMCatNLO 1  0  0  2  1 0.59296965D+02 0.00000000D+00  -5  7  0 0.00000000D+00 0.00000000D+00 0.00000000D+00 0.00000000D+00 0.00000000D+00
  <mgrwgt>
 0.1535285855D-03    9    2    0
 0.363908505345791D+03 0.000000000000000D+00 0.000000000000000D+00 0.363908505345791D+03
 0.363908505345791D+03 0.000000000000000D+00 0.000000000000000D+00 -.363908505345791D+03
 0.128686335115274D+03 0.600364657044303D+02 -.452550929824916D+02 0.509168031819296D+02
 0.127024594912456D+03 0.836896412378727D+02 0.886374481588824D+02 -.357028632749702D+02
 0.180455425213298D+03 0.554186000161515D+02 0.109541183904963D+03 -.132263631773292D+03
 0.291650655450555D+03 -.199144706958454D+03 -.152923539081353D+03 0.117049691866333D+03
 0.000000000000000D+00 -.000000000000000D+00 -.000000000000000D+00 -.000000000000000D+00
 0.389650428486050D+03 0.000000000000000D+00 0.000000000000000D+00 0.389650428486050D+03
 0.400940282594755D+03 0.000000000000000D+00 0.000000000000000D+00 -.400940282594755D+03
 0.133410109157191D+03 0.705802507016257D+02 -.436911117501261D+02 0.509168031819296D+02
 0.135249659939658D+03 0.942405793138793D+02 0.902024904220843D+02 -.357028632749702D+02
 0.186829034048046D+03 0.701939564007539D+02 0.111732842791518D+03 -.132263631773292D+03
 0.274739744010067D+03 -.176359588247801D+03 -.149543775737340D+03 0.117049691866333D+03
 0.603621639258433D+02 -.586551981684583D+02 -.870044572613622D+01 -.112898541087044D+02
0.342592579055D-05 0.000000000000D+00 0.000000000000D+00 0.828483713569D-07 0.000000000000D+00  7 1 -1 23 -11 11 23 21 0 0.53530460D-01 0.58554021D-01 0.99219508D+05 0.99219508D+05 0.99219508D+05 0.11220014D+01  1  2  2  2  7  2       -1 0.916295831771D-04 0.100000000000D+01
-.185506782858D-06 0.000000000000D+00 -.131564571027D-07 0.828483713569D-07 0.000000000000D+00  7 1 -1 23 -11 11 23 21 2 0.53530460D-01 0.58554021D-01 0.99219508D+05 0.99219508D+05 0.99219508D+05 0.11220014D+01  1  2  3  2  7  2       -1 -.624603410910D-05 0.100000000000D+01
0.222152562443D-06 0.000000000000D+00 0.000000000000D+00 0.828483713569D-07 0.000000000000D+00  7 1 -1 23 -11 11 23 21 2 0.53530460D-01 0.58554021D-01 0.99219508D+05 0.99219508D+05 0.99219508D+05 0.11220014D+01  1  2 15  2  7  2       -1 0.747990160288D-05 0.100000000000D+01
0.420766219608D-05 0.000000000000D+00 0.000000000000D+00 0.828483713569D-07 0.000000000000D+00  7 1 -1 23 -11 11 23 21 2 0.53530460D-01 0.66405378D-01 0.12026035D+06 0.12026035D+06 0.12026035D+06 0.11152058D+01  1  2 12  2  7  2       -1 0.110037441871D-03 0.100000000000D+01
-.374163328608D-05 0.000000000000D+00 0.000000000000D+00 0.828483713569D-07 0.000000000000D+00  7 1 -1 23 -11 11 23 21 2 0.53530460D-01 0.58554021D-01 0.99219508D+05 0.99219508D+05 0.99219508D+05 0.11220014D+01  1  2  4  2  7  2       -1 -.125981210868D-03 0.100000000000D+01
-.115015664881D-04 0.000000000000D+00 -.292326568538D-05 0.828483713569D-07 0.000000000000D+00  7 1 -1 23 -11 11 23 21 2 0.53530460D-01 0.68412550D-01 0.99219508D+05 0.99219508D+05 0.99219508D+05 0.11220014D+01  1  2  5  2  7  2       -1 -.288699045809D-03 0.100000000000D+01
0.118477563733D-04 0.000000000000D+00 0.288822817597D-05 0.828483713569D-07 0.000000000000D+00  7 1 -1 23 -11 11 23 21 2 0.53530460D-01 0.58554021D-01 0.99219508D+05 0.99219508D+05 0.99219508D+05 0.11220014D+01  1  2  6  2  7  2       -1 0.398915281068D-03 0.100000000000D+01
0.830705462977D-07 0.000000000000D+00 0.000000000000D+00 0.828483713569D-07 0.000000000000D+00  7 1 21 23 -11 11 23 1 2 0.53530460D-01 0.66405378D-01 0.12026035D+06 0.12026035D+06 0.12026035D+06 0.11152058D+01  1  2 12  4  7  2       -1 0.180980193540D-04 0.100000000000D+01
-.248577456809D-06 0.000000000000D+00 -.686862553636D-07 0.828483713569D-07 0.000000000000D+00  7 1 21 23 -11 11 23 1 2 0.53530460D-01 0.68412550D-01 0.99219508D+05 0.99219508D+05 0.99219508D+05 0.11220014D+01  1  2  5  4  7  2       -1 -.517053508063D-04 0.100000000000D+01
  </mgrwgt>
  </event>
  <event>
  8     66 0.56006291E-06 0.11476114E+03 0.75467711E-02 0.99480478E-01
        1 -1    0    0  501    0 0.00000000E+00 0.00000000E+00 0.17756438E+04 0.17756438E+04 0.32000000E+00 0.0000E+00 0.9000E+01
       -1 -1    0    0    0  501 0.00000000E+00 0.00000000E+00 -.69214141E+02 0.69214881E+02 0.32000000E+00 0.0000E+00 0.9000E+01
       25  2    1    2    0    0 -.78847800E+02 0.12496774E+03 0.16127782E+04 0.16471388E+04 0.30029750E+03 0.0000E+00 0.0000E+00
       23  2    1    2    0    0 0.78847800E+02 -.12496774E+03 0.93651414E+02 0.19771993E+03 0.92133988E+02 0.0000E+00 0.0000E+00
       23  1    3    3    0    0 -.10575892E+03 -.38023324E+02 0.77166235E+03 0.78511704E+03 0.91188000E+02 0.0000E+00 0.9000E+01
      -13  1    4    4    0    0 0.49122617E+02 -.11938105E+03 0.38317497E+02 0.13465923E+03 0.10565837E+00 0.0000E+00 0.9000E+01
       13  1    4    4    0    0 0.29725183E+02 -.55866822E+01 0.55333917E+02 0.63060693E+02 0.10565837E+00 0.0000E+00 0.9000E+01
       23  1    3    3    0    0 0.26911122E+02 0.16299106E+03 0.84111589E+03 0.86202174E+03 0.91188000E+02 0.0000E+00 0.9000E+01
#aMCatNLO 1  0  0  2  1 0.15050175D+03 0.00000000D+00  -5  7  0 0.00000000D+00 0.00000000D+00 0.00000000D+00 0.00000000D+00 0.00000000D+00
  <mgrwgt>
 0.1616235838D-03    9    2    0
 0.350571489937888D+03 0.000000000000000D+00 0.000000000000000D+00 0.350571489937888D+03
 0.350571489937888D+03 0.000000000000000D+00 0.000000000000000D+00 -.350571489937888D+03
 0.187754112276014D+03 -.105758922567996D+03 -.380233237032546D+02 0.119606155712689D+03
 0.261061388293669D+03 0.491226429836455D+02 -.119381204407942D+03 -.226909987524191D+03
 0.312552806649138D+02 0.297251573677728D+02 -.558653273461120D+01 -.788024370871798D+01
 0.221072198641179D+03 0.269111222165780D+02 0.162991060845808D+03 0.115184075520219D+03
 0.000000000000000D+00 -.000000000000000D+00 -.000000000000000D+00 -.000000000000000D+00
 0.402142491257154D+03 0.000000000000000D+00 0.000000000000000D+00 0.402142491257154D+03
 0.488478223403711D+03 0.000000000000000D+00 0.000000000000000D+00 -.488478223403711D+03
 0.168232262330665D+03 -.685976480605719D+02 -.312341630443878D+02 0.119606155712689D+03
 0.272775122499768D+03 0.104849621696241D+03 -.109200191605556D+03 -.226909987524191D+03
 0.380283859527728D+02 0.369576514678783D+02 -.426519580360492D+01 -.788024370871798D+01
 0.238078066757182D+03 0.748416338028077D+02 0.171747701944207D+03 0.115184075520219D+03
 0.173506877120477D+03 -.148051258906355D+03 -.270481514906577D+02 -.863357321465568D+02
0.619750145689D-05 0.000000000000D+00 0.000000000000D+00 0.874702602934D-06 0.000000000000D+00  7 1 -1 23 -13 13 23 21 0 0.27317603D+00 0.10648389D-01 0.60703043D+05 0.60703043D+05 0.60703043D+05 0.11399585D+01  1  2  2  2  7  2       -1 0.178080360030D-03 0.100000000000D+01
-.292232689068D-06 0.000000000000D+00 -.238000374341D-07 0.874702602934D-06 0.000000000000D+00  7 1 -1 23 -13 13 23 21 2 0.27317603D+00 0.10648389D-01 0.60703043D+05 0.60703043D+05 0.60703043D+05 0.11399585D+01  1  2  3  2  7  2       -1 -.109120486471D-04 0.100000000000D+01
0.386170085464D-06 0.000000000000D+00 0.000000000000D+00 0.874702602934D-06 0.000000000000D+00  7 1 -1 23 -13 13 23 21 2 0.27317603D+00 0.10648389D-01 0.60703043D+05 0.60703043D+05 0.60703043D+05 0.11399585D+01  1  2 15  2  7  2       -1 0.144196967563D-04 0.100000000000D+01
0.152217323798D-05 0.000000000000D+00 0.000000000000D+00 0.874702602934D-06 0.000000000000D+00  7 1 -1 23 -13 13 23 21 2 0.27317603D+00 0.15376921D-01 0.11080858D+06 0.11080858D+06 0.11080858D+06 0.11180825D+01  1  2 12  2  7  2       -1 0.303964763737D-04 0.100000000000D+01
-.398737538150D-05 0.000000000000D+00 0.000000000000D+00 0.874702602934D-06 0.000000000000D+00  7 1 -1 23 -13 13 23 21 2 0.27317603D+00 0.10648389D-01 0.60703043D+05 0.60703043D+05 0.60703043D+05 0.11399585D+01  1  2  4  2  7  2       -1 -.148889688816D-03 0.100000000000D+01
-.383981369165D-05 0.000000000000D+00 -.231244666161D-05 0.874702602934D-06 0.000000000000D+00  7 1 -1 23 -13 13 23 21 2 0.27317603D+00 0.17251907D-01 0.60703043D+05 0.60703043D+05 0.60703043D+05 0.11399585D+01  1  2  5  2  7  2       -1 -.678024886987D-04 0.100000000000D+01
0.464914963492D-05 0.000000000000D+00 0.206710951782D-05 0.874702602934D-06 0.000000000000D+00  7 1 -1 23 -13 13 23 21 2 0.27317603D+00 0.10648389D-01 0.60703043D+05 0.60703043D+05 0.60703043D+05 0.11399585D+01  1  2  6  2  7  2       -1 0.173600520686D-03 0.100000000000D+01
0.681108641129D-07 0.000000000000D+00 0.000000000000D+00 0.874702602934D-06 0.000000000000D+00  7 1 21 23 -13 13 23 1 2 0.27317603D+00 0.15376921D-01 0.11080858D+06 0.11080858D+06 0.11080858D+06 0.11180825D+01  1  2 12  4  7  2       -1 0.174451394135D-04 0.100000000000D+01
-.110404887337D-06 0.000000000000D+00 -.126784706179D-06 0.874702602934D-06 0.000000000000D+00  7 1 21 23 -13 13 23 1 2 0.27317603D+00 0.17251907D-01 0.60703043D+05 0.60703043D+05 0.60703043D+05 0.11399585D+01  1  2  5  4  7  2       -1 -.247143832745D-04 0.100000000000D+01
  </mgrwgt>
  </event>
  <event>
  8     66 0.56006291E-06 0.12427600E+03 0.75467711E-02 0.10014951E+00
        1 -1    0    0  501    0 0.00000000E+00 0.00000000E+00 0.36594914E+03 0.36594928E+03 0.32000000E+00 0.0000E+00 0.9000E+01
       -1 -1    0    0    0  501 0.00000000E+00 0.00000000E+00 -.36876832E+03 0.36876845E+03 0.32000000E+00 0.0000E+00 0.9000E+01
       25  2    1    2    0    0 0.16368604E+03 0.13889417E+03 0.20555502E+03 0.42177794E+03 0.29926419E+03 0.0000E+00 0.0000E+00
       23  2    1    2    0    0 -.16368604E+03 -.13889417E+03 -.20837420E+03 0.31293979E+03 0.91797552E+02 0.0000E+00 0.0000E+00
       23  1    3    3    0    0 0.10961718E+03 -.39304449E+02 0.31877081E+02 0.15130157E+03 0.91188000E+02 0.0000E+00 0.9000E+01
      -13  1    4    4    0    0 -.84394396E+02 -.19048283E+02 -.10427904E+03 0.13549679E+03 0.10565837E+00 0.0000E+00 0.9000E+01
       13  1    4    4    0    0 -.79291645E+02 -.11984589E+03 -.10409516E+03 0.17744299E+03 0.10565837E+00 0.0000E+00 0.9000E+01
       23  1    3    3    0    0 0.54068866E+02 0.17819862E+03 0.17367794E+03 0.27047638E+03 0.91188000E+02 0.0000E+00 0.9000E+01
#aMCatNLO 1  0  0  1  2 0.42587362D+02 0.00000000D+00  -5  7  0 0.00000000D+00 0.00000000D+00 0.00000000D+00 0.00000000D+00 0.00000000D+00
  <mgrwgt>
 0.1356152986D-03    9    2    0
 0.367356161272981D+03 0.000000000000000D+00 0.000000000000000D+00 0.367356161272981D+03
 0.367356161272981D+03 0.000000000000000D+00 0.000000000000000D+00 -.367356161272981D+03
 0.151424998035422D+03 0.109617175253100D+03 -.393044490937883D+02 0.324578781960944D+02
 0.135097603172241D+03 -.843944030991970D+02 -.190481500731414D+02 -.103759891515005D+03
 0.177044930528614D+03 -.792916385839332D+02 -.119846024544909D+03 -.103415056337739D+03
 0.271144790809686D+03 0.540688664300300D+02 0.178198623711839D+03 0.174717069656649D+03
 0.000000000000000D+00 0.000000000000000D+00 -.000000000000000D+00 0.000000000000000D+00
 0.395449136955663D+03 0.000000000000000D+00 0.000000000000000D+00 0.395449136955663D+03
 0.384475006011787D+03 0.000000000000000D+00 0.000000000000000D+00 -.384475006011787D+03
 0.146873692939815D+03 0.105875855617429D+03 -.315185607866809D+02 0.324578781960944D+02
 0.136447943448200D+03 -.878001796456129D+02 -.119605450643259D+02 -.103759891515005D+03
 0.173071311241167D+03 -.836828639219260D+02 -.110707647356556D+03 -.103415056337739D+03
 0.279552621235155D+03 0.471619134217532D+02 0.192572366108014D+03 0.174717069656649D+03
 0.439785741031132D+02 0.184452745283562D+02 -.383856129004508D+02 0.109741309438763D+02
0.279904909017D-05 0.000000000000D+00 0.000000000000D+00 0.196458047583D-06 0.000000000000D+00  7 1 -1 23 -13 13 23 21 0 0.56299889D-01 0.56733608D-01 0.85694731D+05 0.85694731D+05 0.85694731D+05 0.11272658D+01  1  2  2  1  7  1        1 0.744120497338D-04 0.100000000000D+01
-.145755184000D-06 0.000000000000D+00 -.107490855128D-07 0.196458047583D-06 0.000000000000D+00  7 1 -1 23 -13 13 23 21 2 0.56299889D-01 0.56733608D-01 0.85694731D+05 0.85694731D+05 0.85694731D+05 0.11272658D+01  1  2  3  1  7  1        1 -.492390235255D-05 0.100000000000D+01
0.178856577516D-06 0.000000000000D+00 0.000000000000D+00 0.196458047583D-06 0.000000000000D+00  7 1 -1 23 -13 13 23 21 2 0.56299889D-01 0.56733608D-01 0.85694731D+05 0.85694731D+05 0.85694731D+05 0.11272658D+01  1  2 15  1  7  1        1 0.604213379332D-05 0.100000000000D+01
0.553841311863D-05 0.000000000000D+00 0.000000000000D+00 0.196458047583D-06 0.000000000000D+00  7 1 -1 23 -13 13 23 21 2 0.61835698D-01 0.56733608D-01 0.99681002D+05 0.99681002D+05 0.99681002D+05 0.11218359D+01  1  2 12  1  7  1        1 0.163101748390D-03 0.100000000000D+01
-.500740741129D-05 0.000000000000D+00 0.000000000000D+00 0.196458047583D-06 0.000000000000D+00  7 1 -1 23 -13 13 23 21 2 0.56299889D-01 0.56733608D-01 0.85694731D+05 0.85694731D+05 0.85694731D+05 0.11272658D+01  1  2  4  1  7  1        1 -.169160262132D-03 0.100000000000D+01
-.159738310197D-04 0.000000000000D+00 -.353398378344D-05 0.196458047583D-06 0.000000000000D+00  7 1 -1 23 -13 13 23 21 2 0.63018891D-01 0.56733608D-01 0.85694731D+05 0.85694731D+05 0.85694731D+05 0.11272658D+01  1  2  5  1  7  1        1 -.464410764540D-03 0.100000000000D+01
0.162909559175D-04 0.000000000000D+00 0.351164232485D-05 0.196458047583D-06 0.000000000000D+00  7 1 -1 23 -13 13 23 21 2 0.56299889D-01 0.56733608D-01 0.85694731D+05 0.85694731D+05 0.85694731D+05 0.11272658D+01  1  2  6  1  7  1        1 0.550341154022D-03 0.100000000000D+01
0.850879624697D-07 0.000000000000D+00 0.000000000000D+00 0.196458047583D-06 0.000000000000D+00  7 21 -1 23 -13 13 23 -1 2 0.61835698D-01 0.56733608D-01 0.99681002D+05 0.99681002D+05 0.99681002D+05 0.11218359D+01  1  2 12  3  7  1        1 0.929447996134D-05 0.100000000000D+01
-.272953043944D-06 0.000000000000D+00 -.636098341420D-07 0.196458047583D-06 0.000000000000D+00  7 21 -1 23 -13 13 23 -1 2 0.63018891D-01 0.56733608D-01 0.85694731D+05 0.85694731D+05 0.85694731D+05 0.11272658D+01  1  2  5  3  7  1        1 -.290813382947D-04 0.100000000000D+01
  </mgrwgt>
  </event>
  <event>
  8     66 0.56006291E-06 0.12847387E+04 0.75467711E-02 0.82611719E-01
        1 -1    0    0  501    0 0.00000000E+00 0.00000000E+00 0.25527982E+04 0.25527982E+04 0.32000000E+00 0.0000E+00 0.9000E+01
       -1 -1    0    0    0  501 0.00000000E+00 0.00000000E+00 -.78770614E+03 0.78770620E+03 0.32000000E+00 0.0000E+00 0.9000E+01
       25  2    1    2    0    0 -.80613859E+03 0.97685869E+03 0.15958870E+04 0.20593790E+04 0.30012389E+03 0.0000E+00 0.0000E+00
       23  2    1    2    0    0 0.80613859E+03 -.97685869E+03 0.16920513E+03 0.12811254E+04 0.92410480E+02 0.0000E+00 0.0000E+00
       23  1    3    3    0    0 -.82811989E+02 0.19464312E+03 0.32777182E+03 0.40061626E+03 0.91188000E+02 0.0000E+00 0.9000E+01
      -11  1    4    4    0    0 0.65866472E+03 -.84987022E+03 0.13882643E+03 0.10841547E+04 0.51099893E-03 0.0000E+00 0.9000E+01
       11  1    4    4    0    0 0.14747387E+03 -.12698847E+03 0.30378698E+02 0.19697076E+03 0.51099893E-03 0.0000E+00 0.9000E+01
       23  1    3    3    0    0 -.72332660E+03 0.78221558E+03 0.12681151E+04 0.16587627E+04 0.91188000E+02 0.0000E+00 0.9000E+01
#aMCatNLO 1  0  0  2  2 0.70880323D+03 0.00000000D+00  -5  7  0 0.00000000D+00 0.00000000D+00 0.00000000D+00 0.00000000D+00 0.00000000D+00
  <mgrwgt>
 0.1545610764D-03    4    2    0
 0.141804617989578D+04 0.000000000000000D+00 0.000000000000000D+00 0.141804617989578D+04
 0.141804617989578D+04 0.000000000000000D+00 0.000000000000000D+00 -.141804617989578D+04
 0.267873131843136D+03 -.828119889845315D+02 0.194643116357104D+03 0.136736956067738D+03
 0.119057551346234D+04 0.658664722605645D+03 -.849870221006639D+03 -.511225433538931D+03
 0.213096195941083D+03 0.147473869724775D+03 -.126988471849086D+03 -.868065348369261D+02
 0.116454751854500D+04 -.723326603345889D+03 0.782215576498620D+03 0.461295012308118D+03
 0.000000000000000D+00 -.000000000000000D+00 -.000000000000000D+00 0.000000000000000D+00
 0.190562349405764D+04 0.000000000000000D+00 0.000000000000000D+00 0.190562349405764D+04
 0.174457036733201D+04 0.000000000000000D+00 0.000000000000000D+00 -.174457036733201D+04
 0.285561965355483D+03 -.259138499164069D+02 0.232081584666957D+03 0.136736956067738D+03
 0.124795957115557D+04 0.909368209011561D+03 -.684909561753100D+03 -.511225433538931D+03
 0.232995047296152D+03 0.193336088661127D+03 -.968115406103968D+02 -.868065348369261D+02
 0.115680719018570D+04 -.484670320590472D+03 0.939249283140378D+03 0.461295012308118D+03
 0.726870087396750D+03 -.592120127165809D+03 -.389609765443837D+03 0.161053126725637D+03
0.222525976165D-02 0.000000000000D+00 0.000000000000D+00 0.881523325005D-05 0.000000000000D+00  7 1 -1 23 -11 11 23 21 0 0.39273819D+00 0.12118557D+00 0.16505536D+07 0.16505536D+07 0.16505536D+07 0.10336771D+01  1  2  2  2  7  2       -1 0.193990049353D-03 0.100000000000D+01
-.122160532354D-03 0.000000000000D+00 -.854558340907D-05 0.881523325005D-05 0.000000000000D+00  7 1 -1 23 -11 11 23 21 2 0.39273819D+00 0.12118557D+00 0.16505536D+07 0.16505536D+07 0.16505536D+07 0.10336771D+01  1  2  3  2  7  2       -1 -.113788791892D-04 0.100000000000D+01
0.142163026979D-03 0.000000000000D+00 0.000000000000D+00 0.881523325005D-05 0.000000000000D+00  7 1 -1 23 -11 11 23 21 2 0.39273819D+00 0.12118557D+00 0.16505536D+07 0.16505536D+07 0.16505536D+07 0.10336771D+01  1  2 15  2  7  2       -1 0.132420502596D-04 0.100000000000D+01
-.443301155306D-03 0.000000000000D+00 0.000000000000D+00 0.881523325005D-05 0.000000000000D+00  7 1 -1 23 -11 11 23 21 2 0.39273819D+00 0.12118557D+00 0.16505536D+07 0.16505536D+07 0.16505536D+07 0.10336771D+01  1  2  4  2  7  2       -1 -.412921439804D-04 0.100000000000D+01
  </mgrwgt>
  </event>
  <event>
  8     66 0.56006291E-06 0.14698744E+03 0.75467711E-02 0.10384742E+00
        1 -1    0    0  501    0 0.00000000E+00 0.00000000E+00 0.31451747E+04 0.31451747E+04 0.32000000E+00 0.0000E+00 0.9000E+01
       -1 -1    0    0    0  501 0.00000000E+00 0.00000000E+00 -.26549001E+02 0.26550930E+02 0.32000000E+00 0.0000E+00 0.9000E+01
       25  2    1    2    0    0 -.34605533E+02 -.14961082E+03 0.12445024E+04 0.12890976E+04 0.29900731E+03 0.0000E+00 0.0000E+00
       23  2    1    2    0    0 0.34605533E+02 0.14961082E+03 0.18741233E+04 0.18826281E+04 0.91484463E+02 0.0000E+00 0.0000E+00
       23  1    3    3    0    0 0.83285459E+02 -.95324612E+02 0.84456286E+03 0.85885093E+03 0.91188000E+02 0.0000E+00 0.9000E+01
      -13  1    4    4    0    0 0.91223874E+01 0.14151848E+02 0.40898395E+02 0.44228753E+02 0.10565837E+00 0.0000E+00 0.9000E+01
       13  1    4    4    0    0 0.25483146E+02 0.13545897E+03 0.18332249E+04 0.18383993E+04 0.10565837E+00 0.0000E+00 0.9000E+01
       23  1    3    3    0    0 -.11789099E+03 -.54286206E+02 0.39993953E+03 0.43024662E+03 0.91188000E+02 0.0000E+00 0.9000E+01
#aMCatNLO 1  0  0  1  2 0.85627502D+01 0.00000000D+00  -5  7  0 0.00000000D+00 0.00000000D+00 0.00000000D+00 0.00000000D+00 0.00000000D+00
  <mgrwgt>
 0.8123862038D-03   11    2    0
 0.288971159379252D+03 0.000000000000000D+00 0.000000000000000D+00 0.288971159379252D+03
 0.288971159379252D+03 0.000000000000000D+00 0.000000000000000D+00 -.288971159379252D+03
 0.156008805588755D+03 0.832854589485152D+02 -.953246119627206D+02 0.496748549800571D+00
 0.220342930788500D+02 0.912236530133971D+01 0.141516861569996D+02 -.142134549532250D+02
 0.196829553313752D+03 0.254831677611845D+02 0.135459132377581D+03 0.140510870305679D+03
 0.203069666777147D+03 -.117890992011039D+03 -.542862065718599D+02 -.126794163902255D+03
 0.000000000000000D+00 0.000000000000000D+00 0.000000000000000D+00 0.000000000000000D+00
 0.295756429140029D+03 0.000000000000000D+00 0.000000000000000D+00 0.295756429140029D+03
 0.291717025501926D+03 0.000000000000000D+00 0.000000000000000D+00 -.291717025501926D+03
 0.157281428414714D+03 0.830093837593867D+02 -.976288473195190D+02 0.496748549800571D+00
 0.218124515423865D+02 0.908372701326003D+01 0.138291953536774D+02 -.142134549532250D+02
 0.194813539891971D+03 0.251380470734249D+02 0.132578615321309D+03 0.140510870305679D+03
 0.204098327962173D+03 -.118249793432068D+03 -.572809085695758D+02 -.126794163902255D+03
 0.946770683071075D+01 0.101863558599609D+01 0.850194521410873D+01 0.403940363810342D+01
0.118154012822D-04 0.000000000000D+00 0.000000000000D+00 0.204509977894D-06 0.000000000000D+00  7 1 -1 23 -13 13 23 21 0 0.48387318D+00 0.40846114D-02 0.55060884D+05 0.55060884D+05 0.55060884D+05 0.11436304D+01  1  2  2  1  7  1        1 0.165681707240D-03 0.100000000000D+01
-.621805941966D-06 0.000000000000D+00 -.453742519902D-07 0.204509977894D-06 0.000000000000D+00  7 1 -1 23 -13 13 23 21 2 0.48387318D+00 0.40846114D-02 0.55060884D+05 0.55060884D+05 0.55060884D+05 0.11436304D+01  1  2  3  1  7  1        1 -.114038711926D-04 0.100000000000D+01
0.766835896388D-06 0.000000000000D+00 0.000000000000D+00 0.204509977894D-06 0.000000000000D+00  7 1 -1 23 -13 13 23 21 2 0.48387318D+00 0.40846114D-02 0.55060884D+05 0.55060884D+05 0.55060884D+05 0.11436304D+01  1  2 15  1  7  1        1 0.140637089453D-04 0.100000000000D+01
0.124095956623D-04 0.000000000000D+00 0.000000000000D+00 0.204509977894D-06 0.000000000000D+00  7 1 -1 23 -13 13 23 21 2 0.49749547D+00 0.40846114D-02 0.56945563D+05 0.56945563D+05 0.56945563D+05 0.11423595D+01  1  2 12  1  7  1        1 0.194411941152D-03 0.100000000000D+01
-.119807168419D-04 0.000000000000D+00 0.000000000000D+00 0.204509977894D-06 0.000000000000D+00  7 1 -1 23 -13 13 23 21 2 0.48387318D+00 0.40846114D-02 0.55060884D+05 0.55060884D+05 0.55060884D+05 0.11436304D+01  1  2  4  1  7  1        1 -.219725387681D-03 0.100000000000D+01
-.267385260821D-03 0.000000000000D+00 -.337584967878D-04 0.204509977894D-06 0.000000000000D+00  7 1 -1 23 -13 13 23 21 2 0.49659262D+00 0.40846114D-02 0.55060884D+05 0.55060884D+05 0.55060884D+05 0.11436304D+01  1  2  5  1  7  1        1 -.424730813362D-02 0.100000000000D+01
0.268182276340D-03 0.000000000000D+00 0.337471359295D-04 0.204509977894D-06 0.000000000000D+00  7 1 -1 23 -13 13 23 21 2 0.48387318D+00 0.40846114D-02 0.55060884D+05 0.55060884D+05 0.55060884D+05 0.11436304D+01  1  2  6  1  7  1        1 0.491844147685D-02 0.100000000000D+01
0.656944333279D-07 0.000000000000D+00 0.000000000000D+00 0.204509977894D-06 0.194206250844D-07  7 1 -1 23 -13 13 23 21 2 0.49523490D+00 0.41234242D-02 0.56945563D+05 0.56945563D+05 0.56945563D+05 0.11423595D+01  1  2 11  1  7  1        1 0.104158895214D-05 0.100000000000D+01
0.338380012277D-06 0.000000000000D+00 0.000000000000D+00 0.204509977894D-06 0.000000000000D+00  7 21 -1 23 -13 13 23 -1 2 0.49749547D+00 0.40846114D-02 0.56945563D+05 0.56945563D+05 0.56945563D+05 0.11423595D+01  1  2 12  3  7  1        1 0.102241974963D-05 0.100000000000D+01
-.124342581204D-05 0.000000000000D+00 -.158029157534D-06 0.204509977894D-06 0.000000000000D+00  7 21 -1 23 -13 13 23 -1 2 0.49659262D+00 0.40846114D-02 0.55060884D+05 0.55060884D+05 0.55060884D+05 0.11436304D+01  1  2  5  3  7  1        1 -.384032358985D-05 0.100000000000D+01
0.346920540943D-09 0.000000000000D+00 0.000000000000D+00 0.204509977894D-06 0.813889931539D-10  7 21 -1 23 -13 13 23 -1 2 0.49523490D+00 0.41234242D-02 0.56945563D+05 0.56945563D+05 0.56945563D+05 0.11423595D+01  1  2 11  3  7  1        1 0.107704367044D-08 0.100000000000D+01
  </mgrwgt>
  </event>
  <event>
  9     66 0.56006291E-06 0.25295295E+03 0.75467711E-02 0.10032189E+00
       21 -1    0    0  501  502 0.00000000E+00 0.00000000E+00 0.18222359E+03 0.18222513E+03 0.75000000E+00 0.0000E+00 0.9000E+01
       -1 -1    0    0    0  501 0.00000000E+00 0.00000000E+00 -.66876063E+03 0.66876071E+03 0.32000000E+00 0.0000E+00 0.9000E+01
       25  2    1    2    0    0 0.17630122E+03 0.12575390E+03 -.42499695E+03 0.56667784E+03 0.30594968E+03 0.0000E+00 0.0000E+00
       23  2    1    2    0    0 -.69270000E+02 -.11235865E+03 -.55551054E+01 0.16277802E+03 0.95094822E+02 0.0000E+00 0.0000E+00
       23  1    3    3    0    0 0.10437267E+03 0.19332814E+03 -.23881394E+03 0.33707087E+03 0.91188000E+02 0.0000E+00 0.9000E+01
      -11  1    4    4    0    0 -.72572075E+02 -.11668623E+03 -.27525842E+02 0.14014298E+03 0.51099893E-03 0.0000E+00 0.9000E+01
       11  1    4    4    0    0 0.33020740E+01 0.43275842E+01 0.21970737E+02 0.22635038E+02 0.51099893E-03 0.0000E+00 0.9000E+01
       23  1    3    3    0    0 0.71928551E+02 -.67574243E+02 -.18618302E+03 0.22960697E+03 0.91188000E+02 0.0000E+00 0.9000E+01
       -1  1    1    2    0  502 -.10703122E+03 -.13395250E+02 -.55984986E+02 0.12152998E+03 0.32000000E+00 0.0000E+00 0.9000E+01
#aMCatNLO 2  0  0  1  2 0.10786619D+03 0.00000000D+00  -5  7  0 0.00000000D+00 0.00000000D+00 0.00000000D+00 0.00000000D+00 0.00000000D+00
  <mgrwgt>
 0.6525513308D-05    2    2    0
 0.289437240100133D+03 0.000000000000000D+00 0.000000000000000D+00 0.289437240100133D+03
 0.289437240100133D+03 0.000000000000000D+00 0.000000000000000D+00 -.289437240100133D+03
 0.223357017896463D+03 0.616317933580317D+02 0.187979003440624D+03 -.493813974340943D+02
 0.172243435497932D+03 -.102427800665281D+03 -.120422757820130D+03 0.683718225733232D+02
 0.441536356671543D+02 -.478762391277250D+01 0.331513629221178D+01 0.437679342814087D+02
 0.139120391138716D+03 0.455836312200220D+02 -.708713819127054D+02 -.627583594206376D+02
 0.000000000000000D+00 -.000000000000000D+00 -.000000000000000D+00 0.000000000000000D+00
 0.358980611656535D+03 0.000000000000000D+00 0.000000000000000D+00 0.358980611656535D+03
 0.339473734907517D+03 0.000000000000000D+00 0.000000000000000D+00 -.339473734907517D+03
 0.242946905282811D+03 0.104372672522175D+03 0.193328141408668D+03 -.493813974340943D+02
 0.153483187548596D+03 -.725720745087079D+02 -.116686232005246D+03 0.683718225733232D+02
 0.441051442331676D+02 0.330207394174056D+01 0.432758411242145D+01 0.437679342814087D+02
 0.148303263166171D+03 0.719285514896264D+02 -.675742430602724D+02 -.627583594206376D+02
 0.109615846333306D+03 -.107031223444834D+03 -.133952504555708D+02 0.195068767490183D+02
-.472086685368D-07 0.000000000000D+00 0.000000000000D+00 0.452171059116D-09 0.000000000000D+00  7 21 -1 23 -11 11 23 -1 2 0.29592241D-01 0.87721451D-01 0.97022289D+05 0.97022289D+05 0.97022289D+05 0.11228010D+01  1  2 13  3  7  1        1 -.102590405899D-04 0.100000000000D+01
0.981314516631D-07 0.000000000000D+00 0.000000000000D+00 0.452171059116D-09 0.100897868961D-13  7 21 -1 23 -11 11 23 -1 2 0.28034504D-01 0.10288631D+00 0.97022289D+05 0.97022289D+05 0.97022289D+05 0.11228010D+01  1  2  1  3  7  1        1 0.167845538983D-04 0.100000000000D+01
  </mgrwgt>
  </event>
  <event>
  8     66 0.56006291E-06 0.52535255E+03 0.75467711E-02 0.90248910E-01
        1 -1    0    0  501    0 0.00000000E+00 0.00000000E+00 0.18058535E+03 0.18058564E+03 0.32000000E+00 0.0000E+00 0.9000E+01
       -1 -1    0    0    0  501 0.00000000E+00 0.00000000E+00 -.20614624E+04 0.20614625E+04 0.32000000E+00 0.0000E+00 0.9000E+01
       25  2    1    2    0    0 -.50192390E+03 0.74894300E+02 -.14670554E+04 0.15807690E+04 0.29839954E+03 0.0000E+00 0.0000E+00
       23  2    1    2    0    0 0.50192390E+03 -.74894300E+02 -.41382165E+03 0.66127909E+03 0.92222083E+02 0.0000E+00 0.0000E+00
       23  1    3    3    0    0 -.19556726E+03 0.29351163E+02 -.30546976E+03 0.37514673E+03 0.91188000E+02 0.0000E+00 0.9000E+01
      -13  1    4    4    0    0 0.75307048E+02 0.71075818E+01 -.99872095E+02 0.12528414E+03 0.10565837E+00 0.0000E+00 0.9000E+01
       13  1    4    4    0    0 0.42661685E+03 -.82001882E+02 -.31394956E+03 0.53599495E+03 0.10565837E+00 0.0000E+00 0.9000E+01
       23  1    3    3    0    0 -.30635663E+03 0.45543137E+02 -.11615857E+04 0.12056223E+04 0.91188000E+02 0.0000E+00 0.9000E+01
#aMCatNLO 1  0  0  1  2 0.38525985D+03 0.00000000D+00  -5  7  0 0.00000000D+00 0.00000000D+00 0.00000000D+00 0.00000000D+00 0.00000000D+00
  <mgrwgt>
 0.2521873278D-03    3    2    0
 0.610139549061918D+03 0.000000000000000D+00 0.000000000000000D+00 0.610139549061918D+03
 0.610139549061918D+03 0.000000000000000D+00 0.000000000000000D+00 -.610139549061918D+03
 0.218430315737520D+03 -.195567264557933D+03 0.293511631009210D+02 0.169854569306606D+02
 0.762491570832168D+02 0.753065866319556D+02 0.710769873810504D+01 0.960898456618460D+01
 0.500890821206452D+03 0.426617310837769D+03 -.820019991165379D+02 0.249329013561030D+03
 0.424708804096646D+03 -.306356632911791D+03 0.455431372775118D+02 -.275923455057875D+03
 0.000000000000000D+00 0.000000000000000D+00 -.000000000000000D+00 -.000000000000000D+00
 0.686044365595830D+03 0.000000000000000D+00 0.000000000000000D+00 0.686044365595830D+03
 0.144266241261885D+04 0.000000000000000D+00 0.000000000000000D+00 -.144266241261885D+04
 0.285438364440633D+03 -.259960194843593D+03 0.727461332325068D+02 0.169854569306606D+02
 0.614968988394979D+02 0.577030472077156D+02 0.189708809870920D+02 0.960898456618460D+01
 0.399099535284600D+03 0.311601199372369D+03 -.449161560781154D+01 0.249329013561030D+03
 0.533616023147616D+03 -.428827717579998D+03 0.128077493729114D+03 -.275923455057875D+03
 0.849055956502329D+03 0.319483665843505D+03 -.215302892340901D+03 -.756618047023015D+03
0.825587133599D-03 0.000000000000D+00 0.000000000000D+00 0.265951316587D-06 0.000000000000D+00  7 1 -1 23 -13 13 23 21 0 0.27782386D-01 0.31714809D+00 0.27599530D+06 0.27599530D+06 0.27599530D+06 0.10872418D+01  1  2  2  1  7  1        1 0.249603460381D-03 0.100000000000D+01
-.446175902220D-04 0.000000000000D+00 -.317047197511D-05 0.265951316587D-06 0.000000000000D+00  7 1 -1 23 -13 13 23 21 2 0.27782386D-01 0.31714809D+00 0.27599530D+06 0.27599530D+06 0.27599530D+06 0.10872418D+01  1  2  3  1  7  1        1 -.159457902683D-04 0.100000000000D+01
0.518474569914D-04 0.000000000000D+00 0.000000000000D+00 0.265951316587D-06 0.000000000000D+00  7 1 -1 23 -13 13 23 21 2 0.27782386D-01 0.31714809D+00 0.27599530D+06 0.27599530D+06 0.27599530D+06 0.10872418D+01  1  2 15  1  7  1        1 0.185296577206D-04 0.100000000000D+01
  </mgrwgt>
  </event>
  <event>
  9     66 -.56006291E-06 0.28587565E+03 0.75467711E-02 0.10068126E+00
        1 -1    0    0  501    0 0.00000000E+00 0.00000000E+00 0.29979707E+04 0.29979707E+04 0.32000000E+00 0.0000E+00 0.9000E+01
       -1 -1    0    0    0  502 0.00000000E+00 0.00000000E+00 -.10688014E+03 0.10688062E+03 0.32000000E+00 0.0000E+00 0.9000E+01
       25  2    1    2    0    0 -.19526125E+03 0.12855055E+03 0.27734665E+03 0.47147104E+03 0.30118363E+03 0.0000E+00 0.0000E+00
       23  2    1    2    0    0 0.19540025E+03 -.90375624E+02 0.25354507E+04 0.25462727E+04 0.92980711E+02 0.0000E+00 0.0000E+00
       23  1    3    3    0    0 -.63333264E+02 0.15401879E+03 0.23787777E+03 0.30435830E+03 0.91188000E+02 0.0000E+00 0.9000E+01
      -11  1    4    4    0    0 0.15572811E+02 -.60099557E+01 0.46443020E+02 0.49351658E+02 0.51099893E-03 0.0000E+00 0.9000E+01
       11  1    4    4    0    0 0.17982744E+03 -.84365668E+02 0.24890077E+04 0.24969210E+04 0.51099893E-03 0.0000E+00 0.9000E+01
       23  1    3    3    0    0 -.13192798E+03 -.25468239E+02 0.39468877E+02 0.16711274E+03 0.91188000E+02 0.0000E+00 0.9000E+01
       21  1    1    2  501  502 -.13900694E+00 -.38174925E+02 0.78293266E+02 0.87107647E+02 0.75000000E+00 0.0000E+00 0.9000E+01
#aMCatNLO 2  0  0  2  1 0.38175178D+02 0.00000000D+00  -5  7  0 0.00000000D+00 0.00000000D+00 0.00000000D+00 0.00000000D+00 0.00000000D+00
  <mgrwgt>
 -.8328228431D-04    3    2    0
 0.546235072690745D+03 0.000000000000000D+00 0.000000000000000D+00 0.546235072690745D+03
 0.546235072690745D+03 0.000000000000000D+00 0.000000000000000D+00 -.546235072690745D+03
 0.222891709560521D+03 -.633619493299768D+02 0.146141076122356D+03 -.126465458105038D+03
 0.169552617349757D+02 0.155706678973673D+02 -.659844220512161D+01 0.122301357191959D+01
 0.491719898580613D+03 0.179765100860701D+03 -.101486627644610D+03 0.446288507113945D+03
 0.360903275505381D+03 -.131973819428092D+03 -.380560062726241D+02 -.321046062580827D+03
 0.000000000000000D+00 -.000000000000000D+00 -.000000000000000D+00 -.000000000000000D+00
 0.562069949771374D+03 0.000000000000000D+00 0.000000000000000D+00 0.562069949771374D+03
 0.570071774209461D+03 0.000000000000000D+00 0.000000000000000D+00 -.570071774209461D+03
 0.228126396469096D+03 -.633332640971620D+02 0.154018787772977D+03 -.126465458105038D+03
 0.167370178021396D+02 0.155728107622981D+02 -.600995571312239D+01 0.122301357191959D+01
 0.488496578319272D+03 0.179827443674599D+03 -.843656680712101D+02 0.446288507113945D+03
 0.359776944289894D+03 -.131927983397091D+03 -.254682389791303D+02 -.321046062580827D+03
 0.390047871004328D+02 -.139006942643993D+00 -.381749250095140D+02 -.800182443808734D+01
-.104774465628D-03 0.000000000000D+00 0.000000000000D+00 0.351689416852D-06 0.000000000000D+00  7 1 -1 23 -11 11 23 21 2 0.44822958D+00 0.16663097D-01 0.91733240D+05 0.91733240D+05 0.91733240D+05 0.11248102D+01  1  2 13  2  7  2       -1 -.318633554363D-03 0.100000000000D+01
-.188995228217D-04 0.000000000000D+00 0.000000000000D+00 0.351689416852D-06 0.000000000000D+00  7 1 -1 23 -11 11 23 21 2 0.44822958D+00 0.15755491D-01 0.81724889D+05 0.81724889D+05 0.81724889D+05 0.11289861D+01  1  2  8  2  7  2       -1 -.636651240477D-04 0.100000000000D+01
0.110941568473D-03 0.000000000000D+00 0.000000000000D+00 0.351689416852D-06 0.162945111992D-08  7 1 -1 23 -11 11 23 21 2 0.46122336D+00 0.16443032D-01 0.91733240D+05 0.91733240D+05 0.91733240D+05 0.11248102D+01  1  2  1  2  7  2       -1 0.299016394101D-03 0.100000000000D+01
  </mgrwgt>
  </event>
  <event>
  8     66 0.56006291E-06 0.16469176E+03 0.75467711E-02 0.10399659E+00
        1 -1    0    0  501    0 0.00000000E+00 0.00000000E+00 0.12600935E+03 0.12600976E+03 0.32000000E+00 0.0000E+00 0.9000E+01
       -1 -1    0    0    0  501 0.00000000E+00 0.00000000E+00 -.41627971E+03 0.41627984E+03 0.32000000E+00 0.0000E+00 0.9000E+01
       25  2    1    2    0    0 -.17022952E+02 0.76533113E+02 -.28631343E+03 0.42188978E+03 0.29978078E+03 0.0000E+00 0.0000E+00
       23  2    1    2    0    0 0.17022952E+02 -.76533113E+02 -.39569378E+01 0.12039981E+03 0.91287231E+02 0.0000E+00 0.0000E+00
       23  1    3    3    0    0 -.21412746E+02 0.11801026E+03 -.39906582E+02 0.15586120E+03 0.91188000E+02 0.0000E+00 0.9000E+01
      -13  1    4    4    0    0 0.40764395E+01 -.13843021E+02 -.43042613E+02 0.45397404E+02 0.10565837E+00 0.0000E+00 0.9000E+01
       13  1    4    4    0    0 0.12946512E+02 -.62690091E+02 0.39085675E+02 0.75002406E+02 0.10565837E+00 0.0000E+00 0.9000E+01
       23  1    3    3    0    0 0.43897939E+01 -.41477146E+02 -.24640684E+03 0.26602858E+03 0.91188000E+02 0.0000E+00 0.9000E+01
#aMCatNLO 1  0  0  2  1 0.12400650D+03 0.00000000D+00  -5  7  0 0.00000000D+00 0.00000000D+00 0.00000000D+00 0.00000000D+00 0.00000000D+00
  <mgrwgt>
 0.1414721193D-03    4    2    0
 0.229031176562006D+03 0.000000000000000D+00 0.000000000000000D+00 0.229031176562006D+03
 0.229031176562006D+03 0.000000000000000D+00 0.000000000000000D+00 -.229031176562006D+03
 0.159232055451623D+03 -.214127471715344D+02 0.118010266194400D+03 0.515234652429714D+02
 0.264690733139534D+02 0.407642789006463D+01 -.138429590200874D+02 -.221893457164632D+02
 0.113562034555288D+03 0.129465269708944D+02 -.626901681554959D+02 0.938012044078534D+02
 0.158799189803148D+03 0.438979231057541D+01 -.414771390188164D+02 -.123135323934362D+03
 0.000000000000000D+00 0.000000000000000D+00 -.000000000000000D+00 0.000000000000000D+00
 0.376218543507283D+03 0.000000000000000D+00 0.000000000000000D+00 0.376218543507283D+03
 0.264944462002065D+03 0.000000000000000D+00 0.000000000000000D+00 -.264944462002065D+03
 0.172603595760567D+03 -.654615773221639D+02 0.120568919499712D+03 0.515234652429714D+02
 0.261028428649995D+02 -.290212127425962D+01 -.134375977920021D+02 -.221893457164632D+02
 0.113166752355329D+03 -.171501120984797D+02 -.609419522603107D+02 0.938012044078534D+02
 0.162677892393788D+03 -.382840112403210D+02 -.389983565373664D+02 -.123135323934362D+03
 0.166611922134665D+03 0.123797821935224D+03 -.719101291003284D+01 0.111274081505218D+03
0.189238989462D-05 0.000000000000D+00 0.000000000000D+00 0.392847112634D-06 0.000000000000D+00  7 1 -1 23 -13 13 23 21 0 0.19386095D-01 0.64043074D-01 0.27123376D+05 0.27123376D+05 0.27123376D+05 0.11714196D+01  1  2  2  2  7  2       -1 0.160785728970D-03 0.100000000000D+01
-.912308478185D-07 0.000000000000D+00 -.726727547303D-08 0.392847112634D-06 0.000000000000D+00  7 1 -1 23 -13 13 23 21 2 0.19386095D-01 0.64043074D-01 0.27123376D+05 0.27123376D+05 0.27123376D+05 0.11714196D+01  1  2  3  2  7  2       -1 -.106366176860D-04 0.100000000000D+01
0.121360815741D-06 0.000000000000D+00 0.000000000000D+00 0.392847112634D-06 0.000000000000D+00  7 1 -1 23 -13 13 23 21 2 0.19386095D-01 0.64043074D-01 0.27123376D+05 0.27123376D+05 0.27123376D+05 0.11714196D+01  1  2 15  2  7  2       -1 0.141494749853D-04 0.100000000000D+01
-.195783847404D-06 0.000000000000D+00 0.000000000000D+00 0.392847112634D-06 0.000000000000D+00  7 1 -1 23 -13 13 23 21 2 0.19386095D-01 0.64043074D-01 0.27123376D+05 0.27123376D+05 0.27123376D+05 0.11714196D+01  1  2  4  2  7  2       -1 -.228264669651D-04 0.100000000000D+01
  </mgrwgt>
  </event>
  <event>
  9     66 -.56006291E-06 0.23680751E+03 0.75467711E-02 0.10360404E+00
        3 -1    0    0  502    0 0.00000000E+00 0.00000000E+00 0.12003645E+03 0.12003749E+03 0.50000000E+00 0.0000E+00 0.9000E+01
       -3 -1    0    0    0  501 0.00000000E+00 0.00000000E+00 -.65464391E+03 0.65464410E+03 0.50000000E+00 0.0000E+00 0.9000E+01
       25  2    1    2    0    0 -.38875312E+02 0.12067122E+03 -.36781772E+03 0.49158618E+03 0.30049004E+03 0.0000E+00 0.0000E+00
       23  2    1    2    0    0 0.30648145E+02 -.11182188E+03 -.19931717E+03 0.24838815E+03 0.92335780E+02 0.0000E+00 0.0000E+00
       23  1    3    3    0    0 0.99265717E+02 0.33317148E+02 -.16356098E+03 0.21454873E+03 0.91188000E+02 0.0000E+00 0.9000E+01
      -11  1    4    4    0    0 0.48026030E+02 -.16394323E+02 -.78115023E+02 0.93151652E+02 0.51099893E-03 0.0000E+00 0.9000E+01
       11  1    4    4    0    0 -.17377884E+02 -.95427558E+02 -.12120215E+03 0.15523650E+03 0.51099893E-03 0.0000E+00 0.9000E+01
       23  1    3    3    0    0 -.13814103E+03 0.87354072E+02 -.20425675E+03 0.27703745E+03 0.91188000E+02 0.0000E+00 0.9000E+01
       21  1    1    2  502  501 0.82271666E+01 -.88493386E+01 0.32527436E+02 0.34707256E+02 0.75000000E+00 0.0000E+00 0.9000E+01
#aMCatNLO 2  0  0  1  2 0.12082924D+02 0.00000000D+00  -5  7  0 0.00000000D+00 0.00000000D+00 0.00000000D+00 0.00000000D+00 0.00000000D+00
  <mgrwgt>
 -.1232244212D-05    2    2    0
 0.237578422117101D+03 0.000000000000000D+00 0.000000000000000D+00 0.237578422117101D+03
 0.237578422117101D+03 0.000000000000000D+00 0.000000000000000D+00 -.237578422117101D+03
 0.139998530095462D+03 0.101679453072832D+03 0.307208747121565D+02 0.136153024924868D+01
 0.529683474972723D+02 0.489330231339194D+02 -.173699074818329D+02 -.104638137234793D+02
 0.985665206878846D+02 -.156845676977445D+02 -.972489305925221D+02 -.346393349544478D+01
 0.183623445953584D+03 -.134927908509007D+03 0.838979633621985D+02 0.125662169696754D+02
 0.000000000000000D+00 0.000000000000000D+00 -.000000000000000D+00 0.000000000000000D+00
 0.330101217616528D+03 0.000000000000000D+00 0.000000000000000D+00 0.330101217616528D+03
 0.238050042073722D+03 0.000000000000000D+00 0.000000000000000D+00 -.238050042073722D+03
 0.138855392140974D+03 0.992657165013689D+02 0.333171479192600D+02 0.136153024924868D+01
 0.518147156000913D+02 0.480260295745689D+02 -.163943233584464D+02 -.104638137234793D+02
 0.970587894949208D+02 -.173778842618620D+02 -.954275585014088D+02 -.346393349544478D+01
 0.187581552560312D+03 -.138141028386386D+03 0.873540725115880D+02 0.125662169696754D+02
 0.928408098939528D+02 0.822716657231041D+01 -.884933857099276D+01 0.920511755428060D+02
-.419675725797D-04 0.000000000000D+00 0.000000000000D+00 0.378250388983D-07 0.000000000000D+00  7 3 -3 23 -11 11 23 21 2 0.18476487D-01 0.10051437D+00 0.59009135D+05 0.59009135D+05 0.59009135D+05 0.11410200D+01  1  2 13  1  7  1        3 -.472419890977D-03 0.100000000000D+01
0.420354849022D-04 0.000000000000D+00 0.000000000000D+00 0.378250388983D-07 0.189418698104D-08  7 3 -3 23 -11 11 23 21 2 0.18467123D-01 0.10071390D+00 0.59009135D+05 0.59009135D+05 0.59009135D+05 0.11410200D+01  1  2  1  1  7  1        3 0.471187646765D-03 0.100000000000D+01
  </mgrwgt>
  </event>
  <event>
  8     66 0.56006291E-06 0.45746952E+03 0.75467711E-02 0.91507158E-01
        1 -1    0    0  501    0 0.00000000E+00 0.00000000E+00 0.13961150E+03 0.13961187E+03 0.32000000E+00 0.0000E+00 0.9000E+01
       -1 -1    0    0    0  501 0.00000000E+00 0.00000000E+00 -.15570091E+04 0.15570091E+04 0.32000000E+00 0.0000E+00 0.9000E+01
       25  2    1    2    0    0 -.19017494E+03 0.36004821E+03 -.64221673E+03 0.81621876E+03 0.29659656E+03 0.0000E+00 0.0000E+00
       23  2    1    2    0    0 0.19017494E+03 -.36004821E+03 -.77518083E+03 0.88040220E+03 0.91659663E+02 0.0000E+00 0.0000E+00
       23  1    3    3    0    0 -.20822262E+03 0.33715147E+03 -.54263027E+03 0.67807864E+03 0.91188000E+02 0.0000E+00 0.9000E+01
      -13  1    4    4    0    0 0.15719804E+03 -.23120603E+03 -.58445663E+03 0.64788658E+03 0.10565837E+00 0.0000E+00 0.9000E+01
       13  1    4    4    0    0 0.32976893E+02 -.12884218E+03 -.19072420E+03 0.23251562E+03 0.10565837E+00 0.0000E+00 0.9000E+01
       23  1    3    3    0    0 0.18047687E+02 0.22896737E+02 -.99586457E+02 0.13814012E+03 0.91188000E+02 0.0000E+00 0.9000E+01
#aMCatNLO 1  0  0  2  2 0.34873302D+03 0.00000000D+00  -5  7  0 0.00000000D+00 0.00000000D+00 0.00000000D+00 0.00000000D+00 0.00000000D+00
  <mgrwgt>
 0.2779598677D-03    3    2    0
 0.466236753038690D+03 0.000000000000000D+00 0.000000000000000D+00 0.466236753038690D+03
 0.466236753038690D+03 0.000000000000000D+00 0.000000000000000D+00 -.466236753038690D+03
 0.408933448782596D+03 -.208222624593762D+03 0.337151471556337D+03 0.433997468184965D+02
 0.290421913379268D+03 0.157198209794058D+03 -.231206164044558D+03 -.785959306594146D+02
 0.133149807257267D+03 0.329767277548552D+02 -.128842044376435D+03 0.641359494591472D+01
 0.999683366582483D+02 0.180476870448484D+02 0.228967368646562D+02 0.287825888950034D+02
 0.000000000000000D+00 -.000000000000000D+00 0.000000000000000D+00 0.000000000000000D+00
 0.850574237283149D+03 0.000000000000000D+00 0.000000000000000D+00 0.850574237283149D+03
 0.583953964243954D+03 0.000000000000000D+00 0.000000000000000D+00 -.583953964243954D+03
 0.292788653446852D+03 -.169599626729211D+03 0.216246093219331D+03 0.433997468184965D+02
 0.410324826452344D+03 0.195767523415675D+03 -.351943489302786D+03 -.785959306594146D+02
 0.191809781681635D+03 0.508626023336621D+02 -.184831961068626D+03 0.641359494591472D+01
 0.100627619704288D+03 0.290885494740249D+02 -.116655633961323D+02 0.287825888950034D+02
 0.438977320241983D+03 -.106119048494151D+03 0.332194920548213D+03 0.266620273039195D+03
0.136396706380D-03 0.000000000000D+00 0.000000000000D+00 0.266427969155D-07 0.000000000000D+00  7 1 -1 23 -13 13 23 21 0 0.21478723D-01 0.23953989D+00 0.20927836D+06 0.20927836D+06 0.20927836D+06 0.10963160D+01  1  2  2  2  7  2       -1 0.275512934416D-03 0.100000000000D+01
-.757427465857D-05 0.000000000000D+00 -.523799266576D-06 0.266427969155D-07 0.000000000000D+00  7 1 -1 23 -13 13 23 21 2 0.21478723D-01 0.23953989D+00 0.20927836D+06 0.20927836D+06 0.20927836D+06 0.10963160D+01  1  2  3  2  7  2       -1 -.183886846964D-04 0.100000000000D+01
0.858216322170D-05 0.000000000000D+00 0.000000000000D+00 0.266427969155D-07 0.000000000000D+00  7 1 -1 23 -13 13 23 21 2 0.21478723D-01 0.23953989D+00 0.20927836D+06 0.20927836D+06 0.20927836D+06 0.10963160D+01  1  2 15  2  7  2       -1 0.208356180110D-04 0.100000000000D+01
  </mgrwgt>
  </event>
  <event>
  8     66 0.56006291E-06 0.35020340E+03 0.75467711E-02 0.98312314E-01
        1 -1    0    0  501    0 0.00000000E+00 0.00000000E+00 0.29783608E+03 0.29783625E+03 0.32000000E+00 0.0000E+00 0.9000E+01
       -1 -1    0    0    0  501 0.00000000E+00 0.00000000E+00 -.66658899E+03 0.66658906E+03 0.32000000E+00 0.0000E+00 0.9000E+01
       25  2    1    2    0    0 -.28031714E+03 0.37098965E+01 0.89782360E+02 0.41980786E+03 0.29930972E+03 0.0000E+00 0.0000E+00
       23  2    1    2    0    0 0.28031714E+03 -.37098965E+01 -.45853526E+03 0.54461745E+03 0.88102891E+02 0.0000E+00 0.0000E+00
       23  1    3    3    0    0 -.13097265E+03 0.12021132E+03 0.39676857E+02 0.20370101E+03 0.91188000E+02 0.0000E+00 0.9000E+01
      -11  1    4    4    0    0 0.21229967E+03 0.30115850E+02 -.37282306E+03 0.43008737E+03 0.51099893E-03 0.0000E+00 0.9000E+01
       11  1    4    4    0    0 0.68017472E+02 -.33825746E+02 -.85712205E+02 0.11453008E+03 0.51099893E-03 0.0000E+00 0.9000E+01
       23  1    3    3    0    0 -.14934449E+03 -.11650143E+03 0.50105503E+02 0.21610685E+03 0.91188000E+02 0.0000E+00 0.9000E+01
#aMCatNLO 1  0  0  2  1 0.32249935D+02 0.00000000D+00  -5  7  0 0.00000000D+00 0.00000000D+00 0.00000000D+00 0.00000000D+00 0.00000000D+00
  <mgrwgt>
 0.4024171106D-04    4    2    0
 0.445571960445307D+03 0.000000000000000D+00 0.000000000000000D+00 0.445571960445307D+03
 0.445571960445307D+03 0.000000000000000D+00 0.000000000000000D+00 -.445571960445307D+03
 0.236870118683576D+03 -.130972648020731D+03 0.120211323370912D+03 0.127230519078652D+03
 0.311181568911180D+03 0.212299668547049D+03 0.301158497195184D+02 -.225512427951339D+03
 0.884807542418573D+02 0.680174718637327D+02 -.338257461827391D+02 -.453683401465735D+02
 0.254611479054000D+03 -.149344492390050D+03 -.116501426907691D+03 0.143650249019261D+03
 0.000000000000000D+00 0.000000000000000D+00 0.000000000000000D+00 0.000000000000000D+00
 0.476822781313187D+03 0.000000000000000D+00 0.000000000000000D+00 0.476822781313187D+03
 0.454262278298672D+03 0.000000000000000D+00 0.000000000000000D+00 -.454262278298672D+03
 0.239086278224170D+03 -.138519472059889D+03 0.116067859316486D+03 0.127230519078652D+03
 0.304126049240285D+03 0.202543274149764D+03 0.247592561013022D+02 -.225512427951339D+03
 0.869701190210445D+02 0.652355009171622D+02 -.353531432119746D+02 -.453683401465735D+02
 0.261544835857898D+03 -.157528731346913D+03 -.120994853513988D+03 0.143650249019261D+03
 0.393577772684605D+02 0.282694283398758D+02 0.155208813081749D+02 0.225605030145146D+02
0.121771565876D-04 0.000000000000D+00 0.000000000000D+00 0.977276218010D-07 0.000000000000D+00  7 1 -1 23 -11 11 23 21 0 0.45820955D-01 0.10255217D+00 0.12264242D+06 0.12264242D+06 0.12264242D+06 0.11145198D+01  1  2  2  2  7  2       -1 0.128553831419D-03 0.100000000000D+01
-.628796561888D-06 0.000000000000D+00 -.467634876154D-07 0.977276218010D-07 0.000000000000D+00  7 1 -1 23 -11 11 23 21 2 0.45820955D-01 0.10255217D+00 0.12264242D+06 0.12264242D+06 0.12264242D+06 0.11145198D+01  1  2  3  2  7  2       -1 -.824564982113D-05 0.100000000000D+01
0.772330298931D-06 0.000000000000D+00 0.000000000000D+00 0.977276218010D-07 0.000000000000D+00  7 1 -1 23 -11 11 23 21 2 0.45820955D-01 0.10255217D+00 0.12264242D+06 0.12264242D+06 0.12264242D+06 0.11145198D+01  1  2 15  2  7  2       -1 0.101278626144D-04 0.100000000000D+01
-.687803724605D-05 0.000000000000D+00 0.000000000000D+00 0.977276218010D-07 0.000000000000D+00  7 1 -1 23 -11 11 23 21 2 0.45820955D-01 0.10255217D+00 0.12264242D+06 0.12264242D+06 0.12264242D+06 0.11145198D+01  1  2  4  2  7  2       -1 -.901943331517D-04 0.100000000000D+01
  </mgrwgt>
  </event>
  <event>
  9     66 -.56006291E-06 0.15830575E+03 0.75467711E-02 0.10867299E+00
        1 -1    0    0  501    0 0.00000000E+00 0.00000000E+00 0.87500977E+03 0.87500983E+03 0.32000000E+00 0.0000E+00 0.9000E+01
       -1 -1    0    0    0  502 0.00000000E+00 0.00000000E+00 -.57479796E+02 0.57480687E+02 0.32000000E+00 0.0000E+00 0.9000E+01
       25  2    1    2    0    0 0.44574832E+02 0.57460022E+02 0.50588037E+03 0.59273136E+03 0.30021151E+03 0.0000E+00 0.0000E+00
       23  2    1    2    0    0 -.53722099E+02 -.35466458E+02 0.25663040E+03 0.27980030E+03 0.91022580E+02 0.0000E+00 0.0000E+00
       23  1    3    3    0    0 0.35090767E+02 0.74472598E+02 0.48069411E+03 0.49614474E+03 0.91188000E+02 0.0000E+00 0.9000E+01
      -11  1    4    4    0    0 -.49740138E+02 -.59042613E+02 0.23570687E+03 0.24802790E+03 0.51099893E-03 0.0000E+00 0.9000E+01
       11  1    4    4    0    0 -.39819610E+01 0.23576155E+02 0.20923538E+02 0.31772402E+02 0.51099893E-03 0.0000E+00 0.9000E+01
       23  1    3    3    0    0 0.94840657E+01 -.17012576E+02 0.25186259E+02 0.96586615E+02 0.91188000E+02 0.0000E+00 0.9000E+01
       21  1    1    2  501  502 0.91472663E+01 -.21993564E+02 0.55019204E+02 0.59958858E+02 0.75000000E+00 0.0000E+00 0.9000E+01
#aMCatNLO 2  0  0  2  1 0.23819936D+02 0.00000000D+00  -5  7  0 0.00000000D+00 0.00000000D+00 0.00000000D+00 0.00000000D+00 0.00000000D+00
  <mgrwgt>
 -.1046227461D-03    2    2    0
 0.211731805440583D+03 0.000000000000000D+00 0.000000000000000D+00 0.211731805440583D+03
 0.211731805440583D+03 0.000000000000000D+00 0.000000000000000D+00 -.211731805440583D+03
 0.153615625937712D+03 0.384373001621016D+02 0.664262373989458D+02 0.969156237636759D+02
 0.886185711922869D+02 -.478503676956502D+02 -.635863503882404D+02 0.389919160321395D+02
 0.264793847649812D+02 -.339676024941967D+01 0.221691060653577D+02 -.140765966626455D+02
 0.154750028986186D+03 0.128098277829684D+02 -.250089930760631D+02 -.121830943133170D+03
 0.000000000000000D+00 0.000000000000000D+00 -.000000000000000D+00 0.000000000000000D+00
 0.226973429577152D+03 0.000000000000000D+00 0.000000000000000D+00 0.226973429577152D+03
 0.221582046670119D+03 0.000000000000000D+00 0.000000000000000D+00 -.221582046670119D+03
 0.156478174744784D+03 0.350907665927416D+02 0.744725976308779D+02 0.969156237636759D+02
 0.864897736804132D+02 -.497401376720309D+02 -.590426129147338D+02 0.389919160321395D+02
 0.277460208182319D+02 -.398196104897447D+01 0.235761549843778D+02 -.140765966626455D+02
 0.153419051253382D+03 0.948406580452607D+01 -.170125757775127D+02 -.121830943133170D+03
 0.244224557504591D+02 0.914726632373774D+01 -.219935639230092D+02 0.539138290703334D+01
-.114949326341D-05 0.000000000000D+00 0.000000000000D+00 0.123910287253D-06 0.000000000000D+00  7 1 -1 23 -11 11 23 21 2 0.12557399D+00 0.91299612D-02 0.29075266D+05 0.29075266D+05 0.29075266D+05 0.11685996D+01  1  2 13  2  7  2       -1 -.265479915968D-03 0.100000000000D+01
0.740544410235D-06 0.000000000000D+00 0.000000000000D+00 0.123910287253D-06 0.159797747104D-08  7 1 -1 23 -11 11 23 21 2 0.13461350D+00 0.88428910D-02 0.29075266D+05 0.29075266D+05 0.29075266D+05 0.11685996D+01  1  2  1  2  7  2       -1 0.160857169841D-03 0.100000000000D+01
  </mgrwgt>
  </event>
  <event>
  8     66 0.56006291E-06 0.25426747E+03 0.75467711E-02 0.97308902E-01
        1 -1    0    0  501    0 0.00000000E+00 0.00000000E+00 0.70973034E+03 0.70973041E+03 0.32000000E+00 0.0000E+00 0.9000E+01
       -1 -1    0    0    0  501 0.00000000E+00 0.00000000E+00 -.16306381E+03 0.16306412E+03 0.32000000E+00 0.0000E+00 0.9000E+01
       25  2    1    2    0    0 0.10237786E+03 0.14745351E+03 0.57008885E+03 0.66882145E+03 0.30016174E+03 0.0000E+00 0.0000E+00
       23  2    1    2    0    0 -.10237786E+03 -.14745351E+03 -.23422321E+02 0.20397308E+03 0.93982176E+02 0.0000E+00 0.0000E+00
       23  1    3    3    0    0 0.15720905E+03 0.84261266E+02 0.22017932E+03 0.29767235E+03 0.91188000E+02 0.0000E+00 0.9000E+01
      -11  1    4    4    0    0 -.23928545E+02 -.94758339E+01 -.36559788E+02 0.44710007E+02 0.51099893E-03 0.0000E+00 0.9000E+01
       11  1    4    4    0    0 -.78449320E+02 -.13797767E+03 0.13137466E+02 0.15926308E+03 0.51099893E-03 0.0000E+00 0.9000E+01
       23  1    3    3    0    0 -.54831188E+02 0.63192242E+02 0.34990953E+03 0.37114910E+03 0.91188000E+02 0.0000E+00 0.9000E+01
#aMCatNLO 1  0  0  2  1 0.21981130D+03 0.00000000D+00  -5  7  0 0.00000000D+00 0.00000000D+00 0.00000000D+00 0.00000000D+00 0.00000000D+00
  <mgrwgt>
 0.1917688502D-03    3    2    0
 0.340193328181566D+03 0.000000000000000D+00 0.000000000000000D+00 0.340193328181566D+03
 0.340193328181566D+03 0.000000000000000D+00 0.000000000000000D+00 -.340193328181566D+03
 0.204945435361906D+03 0.157209051910866D+03 0.842612661946664D+02 0.432750869235355D+02
 0.867281296674635D+02 -.239285447075328D+02 -.947583392956997D+01 -.828215056319020D+02
 0.193745905261990D+03 -.784493195741193D+02 -.137977673836970D+03 -.111109592685260D+03
 0.194967186071771D+03 -.548311876292134D+02 0.631922415718741D+02 0.150656011393627D+03
 0.000000000000000D+00 0.000000000000000D+00 -.000000000000000D+00 0.000000000000000D+00
 0.628444884666863D+03 0.000000000000000D+00 0.000000000000000D+00 0.628444884666863D+03
 0.402089285341342D+03 0.000000000000000D+00 0.000000000000000D+00 -.402089285341342D+03
 0.179945878198343D+03 0.101764554927531D+03 0.108795725783392D+03 0.432750869235355D+02
 0.969724143860443D+02 -.503910391878541D+02 0.223394858752016D+01 -.828215056319020D+02
 0.208744606238040D+03 -.136429022322571D+03 -.112321373366326D+03 -.111109592685260D+03
 0.229349695254755D+03 -.115955030173412D+03 0.902398391947549D+02 0.150656011393627D+03
 0.315521575931022D+03 0.201010536756307D+03 -.889481401993411D+02 0.226355599325521D+03
0.436953897398D-05 0.000000000000D+00 0.000000000000D+00 0.129217899989D-06 0.000000000000D+00  7 1 -1 23 -11 11 23 21 0 0.10918931D+00 0.25086769D-01 0.64651945D+05 0.64651945D+05 0.64651945D+05 0.11376056D+01  1  2  2  2  7  2       -1 0.188662542701D-03 0.100000000000D+01
-.217736585429D-06 0.000000000000D+00 -.167801801861D-07 0.129217899989D-06 0.000000000000D+00  7 1 -1 23 -11 11 23 21 2 0.10918931D+00 0.25086769D-01 0.64651945D+05 0.64651945D+05 0.64651945D+05 0.11376056D+01  1  2  3  2  7  2       -1 -.121664790583D-04 0.100000000000D+01
0.273328411756D-06 0.000000000000D+00 0.000000000000D+00 0.129217899989D-06 0.000000000000D+00  7 1 -1 23 -11 11 23 21 2 0.10918931D+00 0.25086769D-01 0.64651945D+05 0.64651945D+05 0.64651945D+05 0.11376056D+01  1  2 15  2  7  2       -1 0.152727865697D-04 0.100000000000D+01
  </mgrwgt>
  </event>
  <event>
  8     66 0.56006291E-06 0.27435526E+03 0.75467711E-02 0.10011737E+00
        1 -1    0    0  501    0 0.00000000E+00 0.00000000E+00 0.42975246E+03 0.42975258E+03 0.32000000E+00 0.0000E+00 0.9000E+01
       -1 -1    0    0    0  501 0.00000000E+00 0.00000000E+00 -.19987426E+03 0.19987452E+03 0.32000000E+00 0.0000E+00 0.9000E+01
       25  2    1    2    0    0 0.20139897E+03 0.12601178E+02 0.11401370E+03 0.37978186E+03 0.30085678E+03 0.0000E+00 0.0000E+00
       23  2    1    2    0    0 -.20139897E+03 -.12601178E+02 0.11586450E+03 0.24984523E+03 0.90981991E+02 0.0000E+00 0.0000E+00
       23  1    3    3    0    0 0.18367267E+03 -.74494920E+02 0.15390208E+02 0.21871729E+03 0.91188000E+02 0.0000E+00 0.9000E+01
      -11  1    4    4    0    0 -.13256490E+03 -.19605908E+02 0.12088407E+03 0.18047383E+03 0.51099893E-03 0.0000E+00 0.9000E+01
       11  1    4    4    0    0 -.68834074E+02 0.70047299E+01 -.50195706E+01 0.69371407E+02 0.51099893E-03 0.0000E+00 0.9000E+01
       23  1    3    3    0    0 0.17726305E+02 0.87096098E+02 0.98623493E+02 0.16106457E+03 0.91188000E+02 0.0000E+00 0.9000E+01
#aMCatNLO 1  0  0  1  1 0.78273672D+02 0.00000000D+00  -5  7  0 0.00000000D+00 0.00000000D+00 0.00000000D+00 0.00000000D+00 0.00000000D+00
  <mgrwgt>
 0.1147709491D-03    4    2    0
 0.293081171584439D+03 0.000000000000000D+00 0.000000000000000D+00 0.293081171584439D+03
 0.293081171584439D+03 0.000000000000000D+00 0.000000000000000D+00 -.293081171584439D+03
 0.228899824222548D+03 0.183672668341127D+03 -.744949202311254D+02 -.692440318678936D+02
 0.146448506054016D+03 -.132564899766639D+03 -.196059075315583D+02 0.590704720243381D+02
 0.764839427509222D+02 -.688340739087455D+02 0.700472993518538D+01 -.325975079781695D+02
 0.134330070141391D+03 0.177263053342573D+02 0.870960978274984D+02 0.427710678217250D+02
 0.000000000000000D+00 0.000000000000000D+00 0.000000000000000D+00 -.000000000000000D+00
 0.319302576438031D+03 0.000000000000000D+00 0.000000000000000D+00 0.319302576438031D+03
 0.360530322376678D+03 0.000000000000000D+00 0.000000000000000D+00 -.360530322376678D+03
 0.225760208132526D+03 0.167060308832214D+03 -.997423555747762D+02 -.692440318678936D+02
 0.159665870517490D+03 -.143749700964386D+03 -.366045491104497D+02 0.590704720243381D+02
 0.814338913713120D+02 -.746040726916135D+02 -.176450426813413D+01 -.325975079781695D+02
 0.124505450236163D+03 0.826897807389552D+01 0.727228681606581D+02 0.427710678217250D+02
 0.884674785572186D+02 0.430244867498903D+02 0.653885407927018D+02 -.412277459386468D+02
0.282613775934D-05 0.000000000000D+00 0.000000000000D+00 0.145923625642D-06 0.000000000000D+00  7 1 -1 23 -11 11 23 21 0 0.66115792D-01 0.30749915D-01 0.75270809D+05 0.75270809D+05 0.75270809D+05 0.11319891D+01  1  2  2  1  7  1        1 0.176628268680D-03 0.100000000000D+01
-.156175450410D-06 0.000000000000D+00 -.108531131350D-07 0.145923625642D-06 0.000000000000D+00  7 1 -1 23 -11 11 23 21 2 0.66115792D-01 0.30749915D-01 0.75270809D+05 0.75270809D+05 0.75270809D+05 0.11319891D+01  1  2  3  1  7  1        1 -.125073162757D-04 0.100000000000D+01
0.179438438905D-06 0.000000000000D+00 0.000000000000D+00 0.145923625642D-06 0.000000000000D+00  7 1 -1 23 -11 11 23 21 2 0.66115792D-01 0.30749915D-01 0.75270809D+05 0.75270809D+05 0.75270809D+05 0.11319891D+01  1  2 15  1  7  1        1 0.143703335031D-04 0.100000000000D+01
-.795658483876D-06 0.000000000000D+00 0.000000000000D+00 0.145923625642D-06 0.000000000000D+00  7 1 -1 23 -11 11 23 21 2 0.66115792D-01 0.30749915D-01 0.75270809D+05 0.75270809D+05 0.75270809D+05 0.11319891D+01  1  2  4  1  7  1        1 -.637203368336D-04 0.100000000000D+01
  </mgrwgt>
  </event>
  <event>
  8     66 0.56006291E-06 0.41025849E+03 0.75467711E-02 0.92564192E-01
        1 -1    0    0  501    0 0.00000000E+00 0.00000000E+00 0.74741927E+03 0.74741934E+03 0.32000000E+00 0.0000E+00 0.9000E+01
       -1 -1    0    0    0  501 0.00000000E+00 0.00000000E+00 -.25404407E+03 0.25404427E+03 0.32000000E+00 0.0000E+00 0.9000E+01
       25  2    1    2    0    0 -.27225690E+03 0.25536055E+03 0.21510930E+03 0.52566858E+03 0.30120195E+03 0.0000E+00 0.0000E+00
       23  2    1    2    0    0 0.27225690E+03 -.25536055E+03 0.27826590E+03 0.47579504E+03 0.98062131E+02 0.0000E+00 0.0000E+00
       23  1    3    3    0    0 -.26111646E+02 0.10395117E+03 0.16775111E+03 0.21895970E+03 0.91188000E+02 0.0000E+00 0.9000E+01
      -13  1    4    4    0    0 0.83877732E+02 -.48120836E+02 0.29227321E+02 0.10102146E+03 0.10565837E+00 0.0000E+00 0.9000E+01
       13  1    4    4    0    0 0.18837916E+03 -.20723971E+03 0.24903858E+03 0.37477358E+03 0.10565837E+00 0.0000E+00 0.9000E+01
       23  1    3    3    0    0 -.24614525E+03 0.15140938E+03 0.47358184E+02 0.30670887E+03 0.91188000E+02 0.0000E+00 0.9000E+01
#aMCatNLO 1  0  0  2  2 0.32201684D+03 0.00000000D+00  -5  7  0 0.00000000D+00 0.00000000D+00 0.00000000D+00 0.00000000D+00 0.00000000D+00
  <mgrwgt>
 0.1987532298D-03    3    2    0
 0.435749436330567D+03 0.000000000000000D+00 0.000000000000000D+00 0.435749436330567D+03
 0.435749436330567D+03 0.000000000000000D+00 0.000000000000000D+00 -.435749436330567D+03
 0.156644995540953D+03 -.261116464981171D+02 0.103951171897563D+03 0.688094402121237D+02
 0.995401071200871D+02 0.838776081175898D+02 -.481206550767165D+02 -.236047100583366D+02
 0.289676602789340D+03 0.188379290483674D+03 -.207239893266667D+03 0.740094842520945D+02
 0.325637167210755D+03 -.246145252103146D+03 0.151409376445821D+03 -.119214214405882D+03
 0.000000000000000D+00 0.000000000000000D+00 0.000000000000000D+00 0.000000000000000D+00
 0.703602914233963D+03 0.000000000000000D+00 0.000000000000000D+00 0.703602914233963D+03
 0.572984920434426D+03 0.000000000000000D+00 0.000000000000000D+00 -.572984920434426D+03
 0.160123634412421D+03 -.778268985165081D+02 0.808242646637621D+02 0.688094402121237D+02
 0.850840298585130D+02 0.537361014477795D+02 -.615998474123122D+02 -.236047100583366D+02
 0.276537787614801D+03 0.959398342771045D+02 -.248578543761343D+03 0.740094842520945D+02
 0.407342880287245D+03 -.365810661794728D+03 0.978953603476721D+02 -.119214214405882D+03
 0.347499502495409D+03 0.293961624586352D+03 0.131458766162221D+03 0.130617993799537D+03
0.105424932502D-04 0.000000000000D+00 0.000000000000D+00 0.925038047439D-08 0.000000000000D+00  7 1 -1 23 -13 13 23 21 0 0.11498760D+00 0.39083724D-01 0.16831203D+06 0.16831203D+06 0.16831203D+06 0.11036258D+01  1  2  2  2  7  2       -1 0.196478162359D-03 0.100000000000D+01
-.583106461772D-06 0.000000000000D+00 -.404859499831D-07 0.925038047439D-08 0.000000000000D+00  7 1 -1 23 -13 13 23 21 2 0.11498760D+00 0.39083724D-01 0.16831203D+06 0.16831203D+06 0.16831203D+06 0.11036258D+01  1  2  3  2  7  2       -1 -.132361752128D-04 0.100000000000D+01
0.683332283994D-06 0.000000000000D+00 0.000000000000D+00 0.925038047439D-08 0.000000000000D+00  7 1 -1 23 -13 13 23 21 2 0.11498760D+00 0.39083724D-01 0.16831203D+06 0.16831203D+06 0.16831203D+06 0.11036258D+01  1  2 15  2  7  2       -1 0.155112426846D-04 0.100000000000D+01
  </mgrwgt>
  </event>
  <event>
  8     66 0.56006291E-06 0.32974792E+03 0.75467711E-02 0.92527424E-01
        1 -1    0    0  501    0 0.00000000E+00 0.00000000E+00 0.61729000E+03 0.61729008E+03 0.32000000E+00 0.0000E+00 0.9000E+01
       -1 -1    0    0    0  501 0.00000000E+00 0.00000000E+00 -.23853086E+03 0.23853108E+03 0.32000000E+00 0.0000E+00 0.9000E+01
       25  2    1    2    0    0 -.26073143E+03 0.70713757E+02 0.40183708E+03 0.56992005E+03 0.30059027E+03 0.0000E+00 0.0000E+00
       23  2    1    2    0    0 0.26073143E+03 -.70713757E+02 -.23077942E+02 0.28590111E+03 0.90694747E+02 0.0000E+00 0.0000E+00
       23  1    3    3    0    0 -.19390321E+02 -.38192344E+02 0.20251167E+03 0.22618768E+03 0.91188000E+02 0.0000E+00 0.9000E+01
      -11  1    4    4    0    0 0.25567146E+03 -.80203908E+02 -.88979560E+01 0.26810397E+03 0.51099893E-03 0.0000E+00 0.9000E+01
       11  1    4    4    0    0 0.50599704E+01 0.94901507E+01 -.14179986E+02 0.17797142E+02 0.51099893E-03 0.0000E+00 0.9000E+01
       23  1    3    3    0    0 -.24134111E+03 0.10890610E+03 0.19932541E+03 0.34373237E+03 0.91188000E+02 0.0000E+00 0.9000E+01
#aMCatNLO 1  0  0  2  2 0.41819379D+03 0.00000000D+00  -5  7  0 0.00000000D+00 0.00000000D+00 0.00000000D+00 0.00000000D+00 0.00000000D+00
  <mgrwgt>
 0.2800409537D-03    5    2    0
 0.383722350819939D+03 0.000000000000000D+00 0.000000000000000D+00 0.383722350819939D+03
 0.383722350819939D+03 0.000000000000000D+00 0.000000000000000D+00 -.383722350819939D+03
 0.152288573141551D+03 -.193903208378398D+02 -.381923444561913D+02 0.114201219118864D+03
 0.303369387067515D+03 0.255671460937072D+03 -.802039078106339D+02 -.142240719359565D+03
 0.268448914735136D+02 0.505997037185766D+01 0.949015069548588D+01 -.245963805840944D+02
 0.284941849957299D+03 -.241341110471090D+03 0.108906101571339D+03 0.526358808247948D+02
 0.000000000000000D+00 -.000000000000000D+00 0.000000000000000D+00 -.000000000000000D+00
 0.590922595733301D+03 0.000000000000000D+00 0.000000000000000D+00 0.590922595733301D+03
 0.721033564162746D+03 0.000000000000000D+00 0.000000000000000D+00 -.721033564162746D+03
 0.177894684900207D+03 0.469503965168758D+02 -.899166802679966D+02 0.114201219118864D+03
 0.482230175459555D+03 0.413514832041628D+03 -.203270764158082D+03 -.142240719359565D+03
 0.295665056491187D+02 0.163941990492665D+02 0.653112543735849D+00 -.245963805840944D+02
 0.184298002523207D+03 -.147061017017531D+03 0.353980749986712D+02 0.526358808247948D+02
 0.437966791363960D+03 -.329798410590240D+03 0.257136256883672D+03 -.130110968429445D+03
0.950495798947D-05 0.000000000000D+00 0.000000000000D+00 0.612861243299D-06 0.000000000000D+00  7 1 -1 23 -11 11 23 21 0 0.94967715D-01 0.36697078D-01 0.10873369D+06 0.10873369D+06 0.10873369D+06 0.11187501D+01  1  2  2  2  7  2       -1 0.265253645349D-03 0.100000000000D+01
-.513299393710D-06 0.000000000000D+00 -.365015413925D-07 0.612861243299D-06 0.000000000000D+00  7 1 -1 23 -11 11 23 21 2 0.94967715D-01 0.36697078D-01 0.10873369D+06 0.10873369D+06 0.10873369D+06 0.11187501D+01  1  2  3  2  7  2       -1 -.179286707062D-04 0.100000000000D+01
0.614615839126D-06 0.000000000000D+00 0.000000000000D+00 0.612861243299D-06 0.000000000000D+00  7 1 -1 23 -11 11 23 21 2 0.94967715D-01 0.36697078D-01 0.10873369D+06 0.10873369D+06 0.10873369D+06 0.11187501D+01  1  2 15  2  7  2       -1 0.214674810170D-04 0.100000000000D+01
0.548175119868D-06 0.000000000000D+00 -.288728208205D-05 0.612861243299D-06 0.000000000000D+00  7 1 -1 23 -11 11 23 21 2 0.94967715D-01 0.10032185D+00 0.10873369D+06 0.10873369D+06 0.10873369D+06 0.11187501D+01  1  2  5  2  7  2       -1 0.283151941157D-05 0.100000000000D+01
0.227472257208D-06 0.000000000000D+00 -.324635569222D-06 0.612861243299D-06 0.000000000000D+00  7 1 21 23 -11 11 23 1 2 0.94967715D-01 0.10032185D+00 0.10873369D+06 0.10873369D+06 0.10873369D+06 0.11187501D+01  1  2  5  4  7  2       -1 0.841697860713D-05 0.100000000000D+01
  </mgrwgt>
  </event>
  <event>
  8     66 0.56006291E-06 0.31017198E+03 0.75467711E-02 0.92530170E-01
        1 -1    0    0  501    0 0.00000000E+00 0.00000000E+00 0.29379201E+04 0.29379201E+04 0.32000000E+00 0.0000E+00 0.9000E+01
       -1 -1    0    0    0  501 0.00000000E+00 0.00000000E+00 -.66978203E+02 0.66978968E+02 0.32000000E+00 0.0000E+00 0.9000E+01
       25  2    1    2    0    0 0.14234707E+03 0.33125210E+03 0.20574857E+04 0.21104852E+04 0.30151228E+03 0.0000E+00 0.0000E+00
       23  2    1    2    0    0 -.14234707E+03 -.33125210E+03 0.81345615E+03 0.89441385E+03 0.90964774E+02 0.0000E+00 0.0000E+00
       23  1    3    3    0    0 0.14368594E+03 0.14734577E+03 0.14921604E+04 0.15090442E+04 0.91188000E+02 0.0000E+00 0.9000E+01
      -13  1    4    4    0    0 -.15052011E+03 -.31681914E+03 0.73742316E+03 0.81659268E+03 0.10565837E+00 0.0000E+00 0.9000E+01
       13  1    4    4    0    0 0.81730374E+01 -.14432961E+02 0.76032987E+02 0.77821175E+02 0.10565837E+00 0.0000E+00 0.9000E+01
       23  1    3    3    0    0 -.13388626E+01 0.18390633E+03 0.56532525E+03 0.60144096E+03 0.91188000E+02 0.0000E+00 0.9000E+01
#aMCatNLO 1  0  0  2  1 0.34209725D+03 0.00000000D+00  -5  7  0 0.00000000D+00 0.00000000D+00 0.00000000D+00 0.00000000D+00 0.00000000D+00
  <mgrwgt>
 0.2301751614D-03    7    2    0
 0.443596416687576D+03 0.000000000000000D+00 0.000000000000000D+00 0.443596416687576D+03
 0.443596416687576D+03 0.000000000000000D+00 0.000000000000000D+00 -.443596416687576D+03
 0.282486128553032D+03 0.143685936648081D+03 0.147345770715056D+03 0.170665570467009D+03
 0.379489060242517D+03 -.150520325557833D+03 -.316819551371258D+03 -.144848024862708D+03
 0.175362712206052D+02 0.817325145532745D+01 -.144325526157328D+02 0.569387337097691D+01
 0.207681373358998D+03 -.133886254557562D+01 0.183906333271935D+03 -.315114189752782D+02
 0.000000000000000D+00 -.000000000000000D+00 -.000000000000000D+00 -.000000000000000D+00
 0.562826717444945D+03 0.000000000000000D+00 0.000000000000000D+00 0.562826717444945D+03
 0.810206860303336D+03 0.000000000000000D+00 0.000000000000000D+00 -.810206860303336D+03
 0.380653329244107D+03 0.211370712882772D+03 0.250554166824704D+03 0.170665570467009D+03
 0.272738976556986D+03 -.839492473242846D+02 -.215309365565946D+03 -.144848024862708D+03
 0.158694457484376D+02 0.115828788744529D+02 -.923341926794387D+01 0.569387337097691D+01
 0.281601882251033D+03 0.486009009264342D+02 0.260056439348515D+03 -.315114189752782D+02
 0.422169943947718D+03 -.187605245359374D+03 -.286067821339329D+03 -.247380142858390D+03
0.498827208513D-04 0.000000000000D+00 0.000000000000D+00 0.242777636399D-06 0.000000000000D+00  7 1 -1 23 -13 13 23 21 0 0.45198776D+00 0.10304399D-01 0.15909107D+06 0.15909107D+06 0.15909107D+06 0.11055409D+01  1  2  2  2  7  2       -1 0.236705194161D-03 0.100000000000D+01
-.273318914810D-05 0.000000000000D+00 -.191562782491D-06 0.242777636399D-06 0.000000000000D+00  7 1 -1 23 -13 13 23 21 2 0.45198776D+00 0.10304399D-01 0.15909107D+06 0.15909107D+06 0.15909107D+06 0.11055409D+01  1  2  3  2  7  2       -1 -.158517414003D-04 0.100000000000D+01
0.312448348453D-05 0.000000000000D+00 0.000000000000D+00 0.242777636399D-06 0.000000000000D+00  7 1 -1 23 -13 13 23 21 2 0.45198776D+00 0.10304399D-01 0.15909107D+06 0.15909107D+06 0.15909107D+06 0.11055409D+01  1  2 15  2  7  2       -1 0.181211403684D-04 0.100000000000D+01
0.790162755160D-06 0.000000000000D+00 0.000000000000D+00 0.242777636399D-06 0.000000000000D+00  7 1 -1 23 -13 13 23 21 2 0.45198776D+00 0.19251332D-01 0.36487039D+06 0.36487039D+06 0.36487039D+06 0.10783174D+01  1  2 12  2  7  2       -1 0.155234274779D-05 0.100000000000D+01
-.894068505521D-05 0.000000000000D+00 -.154720487299D-04 0.242777636399D-06 0.000000000000D+00  7 1 -1 23 -13 13 23 21 2 0.45198776D+00 0.27111740D-01 0.15909107D+06 0.15909107D+06 0.15909107D+06 0.11055409D+01  1  2  5  2  7  2       -1 -.110926108204D-04 0.100000000000D+01
0.537867865209D-07 0.000000000000D+00 0.000000000000D+00 0.242777636399D-06 0.000000000000D+00  7 1 21 23 -13 13 23 1 2 0.45198776D+00 0.19251332D-01 0.36487039D+06 0.36487039D+06 0.36487039D+06 0.10783174D+01  1  2 12  4  7  2       -1 0.125352863440D-05 0.100000000000D+01
-.373358958213D-07 0.000000000000D+00 -.166182586361D-05 0.242777636399D-06 0.000000000000D+00  7 1 21 23 -13 13 23 1 2 0.45198776D+00 0.27111740D-01 0.15909107D+06 0.15909107D+06 0.15909107D+06 0.11055409D+01  1  2  5  4  7  2       -1 -.512692318776D-06 0.100000000000D+01
  </mgrwgt>
  </event>
  <event>
  8     66 0.56006291E-06 0.31880871E+03 0.75467711E-02 0.92207068E-01
        1 -1    0    0  501    0 0.00000000E+00 0.00000000E+00 0.24723418E+03 0.24723439E+03 0.32000000E+00 0.0000E+00 0.9000E+01
       -1 -1    0    0    0  501 0.00000000E+00 0.00000000E+00 -.59011387E+03 0.59011395E+03 0.32000000E+00 0.0000E+00 0.9000E+01
       25  2    1    2    0    0 0.18879609E+03 -.16603475E+03 -.40433900E+03 0.56297342E+03 0.30039563E+03 0.0000E+00 0.0000E+00
       23  2    1    2    0    0 -.18879609E+03 0.16603475E+03 0.61459321E+02 0.27437493E+03 0.91065084E+02 0.0000E+00 0.0000E+00
       23  1    3    3    0    0 0.12673178E+02 0.39856182E+02 -.14925401E+03 0.17983642E+03 0.91188000E+02 0.0000E+00 0.9000E+01
      -11  1    4    4    0    0 -.52431228E+02 0.46278417E+02 -.23783526E+02 0.73867325E+02 0.51099893E-03 0.0000E+00 0.9000E+01
       11  1    4    4    0    0 -.13636486E+03 0.11975634E+03 0.85242847E+02 0.20050760E+03 0.51099893E-03 0.0000E+00 0.9000E+01
       23  1    3    3    0    0 0.17612291E+03 -.20589094E+03 -.25508499E+03 0.38313700E+03 0.91188000E+02 0.0000E+00 0.9000E+01
#aMCatNLO 1  0  0  1  1 0.46642480D+03 0.00000000D+00  -5  7  0 0.00000000D+00 0.00000000D+00 0.00000000D+00 0.00000000D+00 0.00000000D+00
  <mgrwgt>
 0.1873588708D-03    3    2    0
 0.381963929529241D+03 0.000000000000000D+00 0.000000000000000D+00 0.381963929529241D+03
 0.381963929529241D+03 0.000000000000000D+00 0.000000000000000D+00 -.381963929529241D+03
 0.130129508707944D+03 0.126731780513048D+02 0.398561824384176D+02 -.828813185952446D+02
 0.702917084814025D+02 -.524312279090145D+02 0.462784173175339D+02 0.708510492312085D+01
 0.258038435602856D+03 -.136364862325645D+03 0.119756336233738D+03 0.183430854828594D+03
 0.305468206266280D+03 0.176122912183355D+03 -.205890935989690D+03 -.107634641156470D+03
 0.000000000000000D+00 0.000000000000000D+00 0.000000000000000D+00 -.000000000000000D+00
 0.535826377726020D+03 0.000000000000000D+00 0.000000000000000D+00 0.535826377726020D+03
 0.106351335517763D+04 0.000000000000000D+00 0.000000000000000D+00 -.106351335517763D+04
 0.127108221269908D+03 -.171695767135532D+02 -.260219375487486D+02 -.828813185952446D+02
 0.698292966134832D+02 -.686869956488873D+02 0.103936799302232D+02 0.708510492312085D+01
 0.270085312119506D+03 -.197633741856393D+03 -.154952056902288D+02 0.183430854828594D+03
 0.428040223210969D+03 0.910268721089453D+02 -.393741125512278D+03 -.107634641156470D+03
 0.704276679689785D+03 0.192463442109889D+03 0.424864588821032D+03 -.527686977451611D+03
0.104756944845D-04 0.000000000000D+00 0.000000000000D+00 0.119673558788D-05 0.000000000000D+00  7 1 -1 23 -11 11 23 21 0 0.38036051D-01 0.90786771D-01 0.10163899D+06 0.10163899D+06 0.10163899D+06 0.11211431D+01  1  2  2  1  7  1        1 0.184867888086D-03 0.100000000000D+01
-.558868981294D-06 0.000000000000D+00 -.402294251344D-07 0.119673558788D-05 0.000000000000D+00  7 1 -1 23 -11 11 23 21 2 0.38036051D-01 0.90786771D-01 0.10163899D+06 0.10163899D+06 0.10163899D+06 0.11211431D+01  1  2  3  1  7  1        1 -.123968336920D-04 0.100000000000D+01
0.671166441995D-06 0.000000000000D+00 0.000000000000D+00 0.119673558788D-05 0.000000000000D+00  7 1 -1 23 -11 11 23 21 2 0.38036051D-01 0.90786771D-01 0.10163899D+06 0.10163899D+06 0.10163899D+06 0.11211431D+01  1  2 15  1  7  1        1 0.148878163569D-04 0.100000000000D+01
  </mgrwgt>
  </event>
  <event>
  9     66 -.56006291E-06 0.53052597E+03 0.75467711E-02 0.93462458E-01
        1 -1    0    0  501    0 0.00000000E+00 0.00000000E+00 0.27152092E+04 0.27152092E+04 0.32000000E+00 0.0000E+00 0.9000E+01
       -1 -1    0    0    0  502 0.00000000E+00 0.00000000E+00 -.11542002E+03 0.11542047E+03 0.32000000E+00 0.0000E+00 0.9000E+01
       25  2    1    2    0    0 -.46087687E+03 0.47438160E+02 0.13195006E+04 0.14302682E+04 0.29987885E+03 0.0000E+00 0.0000E+00
       23  2    1    2    0    0 0.50818939E+03 -.45902810E+02 0.11989479E+04 0.13062462E+04 0.91866448E+02 0.0000E+00 0.0000E+00
       23  1    3    3    0    0 -.40270516E+03 -.29584487E+02 0.90887629E+03 0.99870819E+03 0.91188000E+02 0.0000E+00 0.9000E+01
      -13  1    4    4    0    0 0.43897912E+03 -.64544542E+02 0.97750312E+03 0.10734901E+04 0.10565837E+00 0.0000E+00 0.9000E+01
       13  1    4    4    0    0 0.69210270E+02 0.18641732E+02 0.22144478E+03 0.23275605E+03 0.10565837E+00 0.0000E+00 0.9000E+01
       23  1    3    3    0    0 -.58171707E+02 0.77022647E+02 0.41062429E+03 0.43155996E+03 0.91188000E+02 0.0000E+00 0.9000E+01
       21  1    1    2  501  502 -.47312520E+02 -.15353503E+01 0.81340664E+02 0.94115344E+02 0.75000000E+00 0.0000E+00 0.9000E+01
#aMCatNLO 2  0  0  2  1 0.47337425D+02 0.00000000D+00  -5  7  0 0.00000000D+00 0.00000000D+00 0.00000000D+00 0.00000000D+00 0.00000000D+00
  <mgrwgt>
 -.5131904528D-04    3    2    0
 0.534716510832733D+03 0.000000000000000D+00 0.000000000000000D+00 0.534716510832733D+03
 0.534716510832733D+03 0.000000000000000D+00 0.000000000000000D+00 -.534716510832733D+03
 0.433051492861287D+03 -.421450490269743D+03 -.301927963389615D+02 -.261958665826604D+02
 0.425608895274081D+03 0.419741854671200D+03 -.651689411099199D+02 -.266967467721609D+02
 0.710089800843614D+02 0.660031413666503D+02 0.185377828442056D+02 0.184989510398909D+02
 0.139763653445737D+03 -.642945057681075D+02 0.768239546046758D+02 0.343936623149305D+02
 0.000000000000000D+00 -.000000000000000D+00 -.000000000000000D+00 -.000000000000000D+00
 0.553108192350104D+03 0.000000000000000D+00 0.000000000000000D+00 0.553108192350104D+03
 0.566592495850631D+03 0.000000000000000D+00 0.000000000000000D+00 -.566592495850631D+03
 0.414786892430962D+03 -.402705164462224D+03 -.295844871169246D+02 -.261958665826604D+02
 0.444501773856504D+03 0.438979610668563D+03 -.645446519135273D+02 -.266967467721609D+02
 0.740251527821934D+02 0.692097808877630D+02 0.186418422994784D+02 0.184989510398909D+02
 0.137166362735439D+03 -.581717075211183D+02 0.770226470508120D+02 0.343936623149305D+02
 0.492205063956368D+02 -.473125195729838D+02 -.153535031983848D+01 -.134843035005266D+02
-.695499763796D-04 0.000000000000D+00 0.000000000000D+00 0.159035597158D-05 0.000000000000D+00  7 1 -1 23 -13 13 23 21 2 0.40383249D+00 0.18031381D-01 0.30772340D+06 0.30772340D+06 0.30772340D+06 0.10837361D+01  1  2 13  2  7  2       -1 -.260303966836D-03 0.100000000000D+01
-.125780401917D-05 0.000000000000D+00 0.000000000000D+00 0.159035597158D-05 0.000000000000D+00  7 1 -1 23 -13 13 23 21 2 0.40383249D+00 0.16757886D-01 0.28145781D+06 0.28145781D+06 0.28145781D+06 0.10866078D+01  1  2  8  2  7  2       -1 -.534794236383D-05 0.100000000000D+01
0.647338388672D-04 0.000000000000D+00 0.000000000000D+00 0.159035597158D-05 0.446205837183D-08  7 1 -1 23 -13 13 23 21 2 0.41772239D+00 0.17756871D-01 0.30772340D+06 0.30772340D+06 0.30772340D+06 0.10837361D+01  1  2  1  2  7  2       -1 0.214332863924D-03 0.100000000000D+01
  </mgrwgt>
  </event>
  <event>
  8     66 0.56006291E-06 0.38745337E+03 0.75467711E-02 0.87069131E-01
        3 -1    0    0  501    0 0.00000000E+00 0.00000000E+00 0.12510961E+04 0.12510962E+04 0.50000000E+00 0.0000E+00 0.9000E+01
       -3 -1    0    0    0  501 0.00000000E+00 0.00000000E+00 -.52969038E+03 0.52969061E+03 0.50000000E+00 0.0000E+00 0.9000E+01
       25  2    1    2    0    0 0.24664670E+03 -.69268655E+03 0.75461651E+02 0.79790423E+03 0.30051196E+03 0.0000E+00 0.0000E+00
       23  2    1    2    0    0 -.24664670E+03 0.69268655E+03 0.64594409E+03 0.98288260E+03 0.90361408E+02 0.0000E+00 0.0000E+00
       23  1    3    3    0    0 -.29203028E+02 -.18893460E+03 0.37798447E+02 0.21515825E+03 0.91188000E+02 0.0000E+00 0.9000E+01
      -11  1    4    4    0    0 -.46304614E+02 0.83520269E+02 0.12107485E+03 0.15420400E+03 0.51099893E-03 0.0000E+00 0.9000E+01
       11  1    4    4    0    0 -.20034209E+03 0.60916628E+03 0.52486924E+03 0.82867860E+03 0.51099893E-03 0.0000E+00 0.9000E+01
       23  1    3    3    0    0 0.27584973E+03 -.50375195E+03 0.37663203E+02 0.58274597E+03 0.91188000E+02 0.0000E+00 0.9000E+01
#aMCatNLO 1  0  0  2  1 0.46848011D+03 0.00000000D+00  -5  7  0 0.00000000D+00 0.00000000D+00 0.00000000D+00 0.00000000D+00 0.00000000D+00
  <mgrwgt>
 0.1635838947D-04    9    2    0
 0.814060115340701D+03 0.000000000000000D+00 0.000000000000000D+00 0.814060115340701D+03
 0.814060115340701D+03 0.000000000000000D+00 0.000000000000000D+00 -.814060115340701D+03
 0.218585187939493D+03 -.292030280014104D+02 -.188934600308112D+03 -.539919716671499D+02
 0.115016291962868D+03 -.463046140185202D+02 0.835202694692975D+02 0.641014408984653D+02
 0.673817720648950D+03 -.200342085575997D+03 0.609166284140911D+03 0.206905310887761D+03
 0.620701030130091D+03 0.275849727595928D+03 -.503751953302097D+03 -.217014780119076D+03
 0.000000000000000D+00 -.000000000000000D+00 -.000000000000000D+00 -.000000000000000D+00
 0.954971230241277D+03 0.000000000000000D+00 0.000000000000000D+00 0.954971230241277D+03
 0.135569282184447D+04 0.000000000000000D+00 0.000000000000000D+00 -.135569282184447D+04
 0.172524100176472D+03 -.237297378735738D+02 -.134056258092066D+03 -.539919716671499D+02
 0.142274495758960D+03 -.427040165098166D+02 0.119621922707070D+03 0.641014408984653D+02
 0.869854702932356D+03 -.178739512348189D+03 0.825766058436352D+03 0.206905310887761D+03
 0.509527654462733D+03 0.291666456294392D+03 -.345164370700156D+03 -.217014780119076D+03
 0.616483098755229D+03 -.464931895628127D+02 -.466167352351199D+03 -.400721591603196D+03
0.214785642923D-03 0.000000000000D+00 0.000000000000D+00 0.255316939049D-05 0.000000000000D+00  7 3 -3 23 -11 11 23 21 0 0.19247635D+00 0.81490853D-01 0.58530291D+06 0.58530291D+06 0.58530291D+06 0.10637088D+01  1  2  2  2  7  2       -3 0.156233533881D-04 0.100000000000D+01
-.118766007980D-04 0.000000000000D+00 -.824833423184D-06 0.255316939049D-05 0.000000000000D+00  7 3 -3 23 -11 11 23 21 2 0.19247635D+00 0.81490853D-01 0.58530291D+06 0.58530291D+06 0.58530291D+06 0.10637088D+01  1  2  3  2  7  2       -3 -.977477327169D-06 0.100000000000D+01
0.135192674592D-04 0.000000000000D+00 0.000000000000D+00 0.255316939049D-05 0.000000000000D+00  7 3 -3 23 -11 11 23 21 2 0.19247635D+00 0.81490853D-01 0.58530291D+06 0.58530291D+06 0.58530291D+06 0.10637088D+01  1  2 15  2  7  2       -3 0.111267336893D-05 0.100000000000D+01
0.523966300816D-04 0.000000000000D+00 0.000000000000D+00 0.255316939049D-05 0.000000000000D+00  7 3 -3 23 -11 11 23 21 2 0.19247635D+00 0.13886426D+00 0.10663094D+07 0.10663094D+07 0.10663094D+07 0.10460129D+01  1  2 12  2  7  2       -3 0.934632320164D-06 0.100000000000D+01
-.134136760521D-03 0.000000000000D+00 0.000000000000D+00 0.255316939049D-05 0.000000000000D+00  7 3 -3 23 -11 11 23 21 2 0.19247635D+00 0.81490853D-01 0.58530291D+06 0.58530291D+06 0.58530291D+06 0.10637088D+01  1  2  4  2  7  2       -3 -.110398290201D-04 0.100000000000D+01
-.141418343434D-03 0.000000000000D+00 -.663525337221D-04 0.255316939049D-05 0.000000000000D+00  7 3 -3 23 -11 11 23 21 2 0.19247635D+00 0.15031198D+00 0.58530291D+06 0.58530291D+06 0.58530291D+06 0.10637088D+01  1  2  5  2  7  2       -3 -.209560267734D-05 0.100000000000D+01
0.161556257613D-03 0.000000000000D+00 0.556025917624D-04 0.255316939049D-05 0.000000000000D+00  7 3 -3 23 -11 11 23 21 2 0.19247635D+00 0.81490853D-01 0.58530291D+06 0.58530291D+06 0.58530291D+06 0.10637088D+01  1  2  6  2  7  2       -3 0.132965300060D-04 0.100000000000D+01
0.311034967258D-05 0.000000000000D+00 0.000000000000D+00 0.255316939049D-05 0.000000000000D+00  7 3 21 23 -11 11 23 3 2 0.19247635D+00 0.13886426D+00 0.10663094D+07 0.10663094D+07 0.10663094D+07 0.10460129D+01  1  2 12  4  7  2       -3 0.804078939664D-06 0.100000000000D+01
-.579662895044D-05 0.000000000000D+00 -.443357285063D-05 0.255316939049D-05 0.000000000000D+00  7 3 21 23 -11 11 23 3 2 0.19247635D+00 0.15031198D+00 0.58530291D+06 0.58530291D+06 0.58530291D+06 0.10637088D+01  1  2  5  4  7  2       -3 -.129996952396D-05 0.100000000000D+01
  </mgrwgt>
  </event>
  <event>
  9     66 0.56006291E-06 0.21747662E+03 0.75467711E-02 0.10079692E+00
        1 -1    0    0  502    0 0.00000000E+00 0.00000000E+00 0.41620786E+03 0.41620799E+03 0.32000000E+00 0.0000E+00 0.9000E+01
       -1 -1    0    0    0  501 0.00000000E+00 0.00000000E+00 -.49785521E+03 0.49785532E+03 0.32000000E+00 0.0000E+00 0.9000E+01
       25  2    1    2    0    0 -.10849030E+03 -.23277651E+03 -.30944296E+03 0.50143104E+03 0.29953814E+03 0.0000E+00 0.0000E+00
       23  2    1    2    0    0 0.47930352E+02 0.91248678E+02 0.21897269E+03 0.25843745E+03 0.90648974E+02 0.0000E+00 0.0000E+00
       23  1    3    3    0    0 -.20206609E+02 -.41037303E+02 0.15676540E+02 0.10321518E+03 0.91188000E+02 0.0000E+00 0.9000E+01
      -11  1    4    4    0    0 0.40685551E+02 0.24915384E+02 0.26170988E+02 0.54415173E+02 0.51099893E-03 0.0000E+00 0.9000E+01
       11  1    4    4    0    0 0.72448012E+01 0.66333294E+02 0.19280170E+03 0.20402228E+03 0.51099893E-03 0.0000E+00 0.9000E+01
       23  1    3    3    0    0 -.88283688E+02 -.19173920E+03 -.32511951E+03 0.39821587E+03 0.91188000E+02 0.0000E+00 0.9000E+01
       21  1    1    2  502  501 0.60559945E+02 0.14152783E+03 0.88229235E+01 0.15419481E+03 0.75000000E+00 0.0000E+00 0.9000E+01
#aMCatNLO 2  0  0  1  2 0.15394036D+03 0.00000000D+00  -5  7  0 0.00000000D+00 0.00000000D+00 0.00000000D+00 0.00000000D+00 0.00000000D+00
  <mgrwgt>
 0.3055152969D-04    2    2    0
 0.369295823263660D+03 0.000000000000000D+00 0.000000000000000D+00 0.369295823263660D+03
 0.369295823263660D+03 0.000000000000000D+00 0.000000000000000D+00 -.369295823263660D+03
 0.985884281746169D+02 -.119149955877362D+02 -.216599061896435D+02 0.281657268669151D+02
 0.672986313104370D+02 0.457654981785237D+02 0.367871571077741D+02 0.328835829048115D+02
 0.246820655335093D+03 0.265285179761361D+02 0.111399097479840D+03 0.218647924103368D+03
 0.325883931707172D+03 -.603790205669236D+02 -.126526348397970D+03 -.279697233875094D+03
 0.000000000000000D+00 0.000000000000000D+00 0.000000000000000D+00 0.000000000000000D+00
 0.469097642230582D+03 0.000000000000000D+00 0.000000000000000D+00 0.469097642230582D+03
 0.441721545077488D+03 0.000000000000000D+00 0.000000000000000D+00 -.441721545077488D+03
 0.105834431280615D+03 -.202066093848234D+02 -.410373033680178D+02 0.281657268669151D+02
 0.579432521154475D+02 0.406855509976916D+02 0.249153844255097D+02 0.328835829048115D+02
 0.228603385186409D+03 0.724480115327113D+01 0.663332937537642D+02 0.218647924103368D+03
 0.362082485075780D+03 -.882836876307330D+02 -.191739204430374D+03 -.279697233875094D+03
 0.156355633649819D+03 0.605599448645936D+02 0.141527829619118D+03 0.273760971530948D+02
-.530682146296D-06 0.000000000000D+00 0.000000000000D+00 0.811629570230D-06 0.000000000000D+00  7 1 -1 23 -11 11 23 21 2 0.67850096D-01 0.64034608D-01 0.90100808D+05 0.90100808D+05 0.90100808D+05 0.11254561D+01  1  2 13  1  7  1        1 -.111011825139D-04 0.100000000000D+01
0.260468392586D-05 0.000000000000D+00 0.000000000000D+00 0.811629570230D-06 0.239290684130D-09  7 1 -1 23 -11 11 23 21 2 0.64031869D-01 0.76592975D-01 0.90100808D+05 0.90100808D+05 0.90100808D+05 0.11254561D+01  1  2  1  1  7  1        1 0.416527122057D-04 0.100000000000D+01
  </mgrwgt>
  </event>
  <event>
  8     66 0.56006291E-06 0.35804888E+03 0.75467711E-02 0.96245053E-01
        1 -1    0    0  501    0 0.00000000E+00 0.00000000E+00 0.56288513E+03 0.56288522E+03 0.32000000E+00 0.0000E+00 0.9000E+01
       -1 -1    0    0    0  501 0.00000000E+00 0.00000000E+00 -.45882795E+03 0.45882807E+03 0.32000000E+00 0.0000E+00 0.9000E+01
       25  2    1    2    0    0 0.58651993E+02 0.30289846E+03 -.28584151E+03 0.51622563E+03 0.29932591E+03 0.0000E+00 0.0000E+00
       23  2    1    2    0    0 -.58651993E+02 -.30289846E+03 0.38989869E+03 0.50548766E+03 0.91155147E+02 0.0000E+00 0.0000E+00
       23  1    3    3    0    0 0.17600667E+02 0.28758199E+03 -.12679127E+03 0.32772620E+03 0.91188000E+02 0.0000E+00 0.9000E+01
      -13  1    4    4    0    0 -.66688280E+02 -.23273169E+03 0.34614563E+03 0.42240760E+03 0.10565837E+00 0.0000E+00 0.9000E+01
       13  1    4    4    0    0 0.80362867E+01 -.70166763E+02 0.43753054E+02 0.83080067E+02 0.10565837E+00 0.0000E+00 0.9000E+01
       23  1    3    3    0    0 0.41051326E+02 0.15316468E+02 -.15905023E+03 0.18849943E+03 0.91188000E+02 0.0000E+00 0.9000E+01
#aMCatNLO 1  0  0  2  2 0.13509210D+03 0.00000000D+00  -5  7  0 0.00000000D+00 0.00000000D+00 0.00000000D+00 0.00000000D+00 0.00000000D+00
  <mgrwgt>
 0.2223421570D-03    4    2    0
 0.508200292604069D+03 0.000000000000000D+00 0.000000000000000D+00 0.508200292604069D+03
 0.508200292604069D+03 0.000000000000000D+00 0.000000000000000D+00 -.508200292604069D+03
 0.342419869567150D+03 0.176006672472807D+02 0.287581987951491D+03 -.161006001281638D+03
 0.389178190764326D+03 -.666883801338339D+02 -.232731911405010D+03 0.304709995791883D+03
 0.790345524291249D+02 0.803638707291974D+01 -.701665448405141D+02 0.354758078925684D+02
 0.205767972447538D+03 0.410513258136334D+02 0.153164682940329D+02 -.179179802402814D+03
 0.000000000000000D+00 0.000000000000000D+00 0.000000000000000D+00 0.000000000000000D+00
 0.823754813190426D+03 0.000000000000000D+00 0.000000000000000D+00 0.823754813190426D+03
 0.527335785038037D+03 0.000000000000000D+00 0.000000000000000D+00 -.527335785038037D+03
 0.319488683665868D+03 -.163663117612017D+02 0.259936490391753D+03 -.161006001281638D+03
 0.419001445232282D+03 -.108161512029314D+03 -.266486616712330D+03 0.304709995791883D+03
 0.847881382567321D+02 -.370456846017580D+00 -.770088190088482D+02 0.354758078925684D+02
 0.202060713670991D+03 0.201228933998461D+02 -.171704319605377D+01 -.179179802402814D+03
 0.325751617402588D+03 0.104775387236688D+03 0.852759885254790D+02 0.296419028152389D+03
0.238997849586D-04 0.000000000000D+00 0.000000000000D+00 0.950073036192D-06 0.000000000000D+00  7 1 -1 23 -13 13 23 21 0 0.86597728D-01 0.70588932D-01 0.12819900D+06 0.12819900D+06 0.12819900D+06 0.11129749D+01  1  2  2  2  7  2       -1 0.231390993944D-03 0.100000000000D+01
-.112977252193D-05 0.000000000000D+00 -.917814671989D-07 0.950073036192D-06 0.000000000000D+00  7 1 -1 23 -13 13 23 21 2 0.86597728D-01 0.70588932D-01 0.12819900D+06 0.12819900D+06 0.12819900D+06 0.11129749D+01  1  2  3  2  7  2       -1 -.135492179019D-04 0.100000000000D+01
0.147467963896D-05 0.000000000000D+00 0.000000000000D+00 0.950073036192D-06 0.000000000000D+00  7 1 -1 23 -13 13 23 21 2 0.86597728D-01 0.70588932D-01 0.12819900D+06 0.12819900D+06 0.12819900D+06 0.11129749D+01  1  2 15  2  7  2       -1 0.176856450090D-04 0.100000000000D+01
-.109942501192D-05 0.000000000000D+00 0.000000000000D+00 0.950073036192D-06 0.000000000000D+00  7 1 -1 23 -13 13 23 21 2 0.86597728D-01 0.70588932D-01 0.12819900D+06 0.12819900D+06 0.12819900D+06 0.11129749D+01  1  2  4  2  7  2       -1 -.131852640811D-04 0.100000000000D+01
  </mgrwgt>
  </event>
  <event>
  7     66 0.56006291E-06 0.40790507E+03 0.75467711E-02 0.90161456E-01
        1 -1    0    0  501    0 0.00000000E+00 0.00000000E+00 0.80857884E+03 0.80857890E+03 0.32000000E+00 0.0000E+00 0.9000E+01
       -1 -1    0    0    0  501 0.00000000E+00 0.00000000E+00 -.66028941E+03 0.66028949E+03 0.32000000E+00 0.0000E+00 0.9000E+01
       25  2    1    2    0    0 0.38989323E+02 -.19979793E+03 -.21049084E+03 0.41901147E+03 0.29970792E+03 0.0000E+00 0.0000E+00
       23  1    3    3    0    0 0.51705926E+02 -.14833106E+03 -.24770328E+03 0.30716082E+03 0.91188000E+02 0.0000E+00 0.9000E+01
      -11  1    1    2    0    0 0.22333638E+03 0.59108598E+02 0.61508834E+03 0.65704386E+03 0.51099893E-03 0.0000E+00 0.9000E+01
       11  1    1    2    0    0 -.26232571E+03 0.14068934E+03 -.25630808E+03 0.39281306E+03 0.51099893E-03 0.0000E+00 0.9000E+01
       23  1    3    3    0    0 -.12716602E+02 -.51466872E+02 0.37212436E+02 0.11185065E+03 0.91188000E+02 0.0000E+00 0.9000E+01
#aMCatNLO 1  0  0  2  2 0.51459090D+03 0.00000000D+00  -5  7  0 0.00000000D+00 0.00000000D+00 0.00000000D+00 0.00000000D+00 0.00000000D+00
  <mgrwgt>
 0.1495022294D-01    3    2    0
 0.730681974684084D+03 0.000000000000000D+00 0.000000000000000D+00 0.730681974684084D+03
 0.730681974684084D+03 0.000000000000000D+00 0.000000000000000D+00 -.730681974684084D+03
 0.333873808146957D+03 0.517059732006327D+02 -.148331304899532D+03 -.280144221330244D+03
 0.598002838269979D+03 0.223336198373340D+03 0.591088216150674D+02 0.551574550067689D+03
 0.420838332715119D+03 -.262325584595401D+03 0.140689434097383D+03 -.297483903904868D+03
 0.108648970236112D+03 -.127165869785722D+02 -.514669508129183D+02 0.260535751674238D+02
 0.000000000000000D+00 -.000000000000000D+00 -.000000000000000D+00 0.000000000000000D+00
 0.118937768867147D+04 0.000000000000000D+00 0.000000000000000D+00 0.118937768867147D+04
 0.934288037997523D+03 0.000000000000000D+00 0.000000000000000D+00 -.934288037997523D+03
 0.367654383179095D+03 0.171175377181106D+03 -.138103945015985D+03 -.280144221330244D+03
 0.714126909173249D+03 0.446790310140081D+03 0.782379504326044D+02 0.551574550067689D+03
 0.358356575525805D+03 -.129629632496597D+03 0.152049072732780D+03 -.297483903904868D+03
 0.109180816937211D+03 0.243795627764345D+02 -.482912785386980D+02 0.260535751674238D+02
 0.574347041853637D+03 -.512715617601024D+03 -.438917996107013D+02 0.255089650673949D+03
0.553310945360D-02 0.000000000000D+00 0.000000000000D+00 0.801505089303D-10 0.000000000000D+00  7 1 -1 23 -11 11 23 21 0 0.12439675D+00 0.10158300D+00 0.16638655D+06 0.16638655D+06 0.16638655D+06 0.11040161D+01  1  2  2  2  7  2       -1 0.144671632268D-01 0.100000000000D+01
-.180386796054D-03 0.000000000000D+00 -.212485972030D-04 0.801505089303D-10 0.000000000000D+00  7 1 -1 23 -11 11 23 21 2 0.12439675D+00 0.10158300D+00 0.16638655D+06 0.16638655D+06 0.16638655D+06 0.11040161D+01  1  2  3  2  7  2       -1 -.574870011078D-03 0.100000000000D+01
0.331964703579D-03 0.000000000000D+00 0.000000000000D+00 0.801505089303D-10 0.000000000000D+00  7 1 -1 23 -11 11 23 21 2 0.12439675D+00 0.10158300D+00 0.16638655D+06 0.16638655D+06 0.16638655D+06 0.11040161D+01  1  2 15  2  7  2       -1 0.105792972101D-02 0.100000000000D+01
  </mgrwgt>
  </event>
  <event>
  8     66 0.56006291E-06 0.28595073E+03 0.75467711E-02 0.90759703E-01
        1 -1    0    0  501    0 0.00000000E+00 0.00000000E+00 0.13012033E+04 0.13012034E+04 0.32000000E+00 0.0000E+00 0.9000E+01
       -1 -1    0    0    0  502 0.00000000E+00 0.00000000E+00 -.65955957E+03 0.65955964E+03 0.32000000E+00 0.0000E+00 0.9000E+01
       23  2    1    2    0    0 -.30567989E+03 -.13709281E+02 0.69746756E+03 0.76644631E+03 0.85736854E+02 0.0000E+00 0.0000E+00
       23  1    1    2    0    0 -.13326993E+03 -.30426863E+03 -.10476003E+03 0.36004193E+03 0.91188000E+02 0.0000E+00 0.9000E+01
      -11  1    3    3    0    0 -.21121824E+03 0.28088207E+02 0.50238248E+03 0.54570161E+03 0.51099893E-03 0.0000E+00 0.9000E+01
       11  1    3    3    0    0 -.94461649E+02 -.41797488E+02 0.19508508E+03 0.22074470E+03 0.51099893E-03 0.0000E+00 0.9000E+01
       23  1    1    2    0    0 0.76656599E+02 -.13905973E+03 0.15691697E+03 0.24114732E+03 0.91188000E+02 0.0000E+00 0.9000E+01
       21  1    1    2  501  502 0.36229321E+03 0.45703764E+03 -.10798074E+03 0.59312746E+03 0.75000000E+00 0.0000E+00 0.9000E+01
#aMCatNLO 2  0  0  2  2 0.58321504D+03 0.00000000D+00  -5  7  0 0.00000000D+00 0.00000000D+00 0.00000000D+00 0.00000000D+00 0.00000000D+00
  <mgrwgt>
 0.3010363895D-04    1    2    0
 0.492023964157703D+03 0.000000000000000D+00 0.000000000000000D+00 0.492023964157703D+03
 0.492023964157703D+03 0.000000000000000D+00 0.000000000000000D+00 -.492023964157703D+03
 0.389810086950551D+03 0.180747518106350D+02 -.113345347516157D+03 -.361196329006568D+03
 0.310998209719914D+03 -.103240135666347D+03 0.164304004114002D+03 0.243034061540130D+03
 0.103990770945563D+03 -.535887900096056D+02 0.976416177095915D+01 0.885831991523762D+02
 0.179248860699379D+03 0.138754173865317D+03 -.607228183688034D+02 0.295790683140619D+02
 0.000000000000000D+00 0.000000000000000D+00 0.000000000000000D+00 -.000000000000000D+00
 0.703001258646787D+03 0.000000000000000D+00 0.000000000000000D+00 0.703001258646787D+03
 0.122079557028197D+04 0.000000000000000D+00 0.000000000000000D+00 -.122079557028197D+04
 0.499117532571027D+03 -.133269917922765D+03 -.304268632732374D+03 -.361196329006568D+03
 0.323214554657675D+03 -.211218242384520D+03 0.280882067398622D+02 0.243034061540130D+03
 0.136077244802516D+03 -.944616504754558D+02 -.417974876090320D+02 0.885831991523762D+02
 0.185483190524608D+03 0.766565962657048D+02 -.139059726699778D+03 0.295790683140619D+02
 0.779904306372928D+03 0.362293214517036D+03 0.457037640301322D+03 -.517794311635181D+03
0.252634156632D-04 0.000000000000D+00 0.000000000000D+00 0.963797005320D-11 0.240796142638D-15  7 1 -1 23 -11 11 23 21 2 0.20018509D+00 0.10147069D+00 0.50919797D+06 0.50919797D+06 0.50919797D+06 0.10679513D+01  1  2  1  2  7  2       -1 0.301036389464D-04 0.100000000000D+01
  </mgrwgt>
  </event>
  <event>
  8     66 0.56006291E-06 0.38282734E+03 0.75467711E-02 0.94210129E-01
        1 -1    0    0  501    0 0.00000000E+00 0.00000000E+00 0.27310124E+03 0.27310143E+03 0.32000000E+00 0.0000E+00 0.9000E+01
       -1 -1    0    0    0  501 0.00000000E+00 0.00000000E+00 -.59971088E+03 0.59971097E+03 0.32000000E+00 0.0000E+00 0.9000E+01
       25  2    1    2    0    0 -.19421557E+03 -.28127572E+03 -.17689277E+03 0.49003001E+03 0.30331936E+03 0.0000E+00 0.0000E+00
       23  2    1    2    0    0 0.19421557E+03 0.28127572E+03 -.14971687E+03 0.38278239E+03 0.85273089E+02 0.0000E+00 0.0000E+00
       23  1    3    3    0    0 -.17879190E+03 -.11123108E+03 -.18727288E+03 0.29618453E+03 0.91188000E+02 0.0000E+00 0.9000E+01
      -11  1    4    4    0    0 0.12405707E+03 0.19892213E+03 -.59380629E+02 0.24183926E+03 0.51099893E-03 0.0000E+00 0.9000E+01
       11  1    4    4    0    0 0.70158502E+02 0.82353592E+02 -.90336241E+02 0.14094313E+03 0.51099893E-03 0.0000E+00 0.9000E+01
       23  1    3    3    0    0 -.15423675E+02 -.17004464E+03 0.10380111E+02 0.19384547E+03 0.91188000E+02 0.0000E+00 0.9000E+01
#aMCatNLO 1  0  0  2  1 0.23851046D+03 0.00000000D+00  -5  7  0 0.00000000D+00 0.00000000D+00 0.00000000D+00 0.00000000D+00 0.00000000D+00
  <mgrwgt>
 0.4655099448D-03    3    2    0
 0.404699772921923D+03 0.000000000000000D+00 0.000000000000000D+00 0.404699772921923D+03
 0.404699772921923D+03 0.000000000000000D+00 0.000000000000000D+00 -.404699772921923D+03
 0.243820751396695D+03 -.178791898559269D+03 -.111231077550413D+03 -.824282224980913D+02
 0.236824965338461D+03 0.124057072125347D+03 0.198922125387184D+03 0.335543602933372D+02
 0.115532835096378D+03 0.701585016858209D+02 0.823535917485993D+02 -.405401844188293D+02
 0.213220994012313D+03 -.154236752518989D+02 -.170044639585370D+03 0.894140466235835D+02
 0.000000000000000D+00 -.000000000000000D+00 -.000000000000000D+00 0.000000000000000D+00
 0.748876705063731D+03 0.000000000000000D+00 0.000000000000000D+00 0.748876705063731D+03
 0.465400384715947D+03 0.000000000000000D+00 0.000000000000000D+00 -.465400384715947D+03
 0.201246425906228D+03 -.114583487047476D+03 -.110729784736886D+03 -.824282224980913D+02
 0.283906290993197D+03 0.199181297183263D+03 0.199508640973797D+03 0.335543602933372D+02
 0.141307349418404D+03 0.107212009787735D+03 0.826428787265843D+02 -.405401844188293D+02
 0.217349665672556D+03 0.466933702455575D+02 -.169559674644294D+03 0.894140466235835D+02
 0.370467357789292D+03 -.238503190169079D+03 -.186206031920187D+01 0.283476320347784D+03
0.310617234821D-04 0.000000000000D+00 0.000000000000D+00 0.128501835339D-08 0.000000000000D+00  7 1 -1 23 -11 11 23 21 0 0.42015597D-01 0.92263233D-01 0.14655677D+06 0.14655677D+06 0.14655677D+06 0.11083487D+01  1  2  2  2  7  2       -1 0.460948408950D-03 0.100000000000D+01
-.171917419422D-05 0.000000000000D+00 -.119285196911D-06 0.128501835339D-08 0.000000000000D+00  7 1 -1 23 -11 11 23 21 2 0.42015597D-01 0.92263233D-01 0.14655677D+06 0.14655677D+06 0.14655677D+06 0.11083487D+01  1  2  3  2  7  2       -1 -.313400332627D-04 0.100000000000D+01
0.196939966739D-05 0.000000000000D+00 0.000000000000D+00 0.128501835339D-08 0.000000000000D+00  7 1 -1 23 -11 11 23 21 2 0.42015597D-01 0.92263233D-01 0.14655677D+06 0.14655677D+06 0.14655677D+06 0.11083487D+01  1  2 15  2  7  2       -1 0.359015690738D-04 0.100000000000D+01
  </mgrwgt>
  </event>
  <event>
  8     66 0.56006291E-06 0.58728983E+02 0.75467711E-02 0.10561014E+00
        3 -1    0    0  501    0 0.00000000E+00 0.00000000E+00 0.40995256E+03 0.40995286E+03 0.50000000E+00 0.0000E+00 0.9000E+01
       -3 -1    0    0    0  501 0.00000000E+00 0.00000000E+00 -.11376363E+03 0.11376473E+03 0.50000000E+00 0.0000E+00 0.9000E+01
       25  2    1    2    0    0 -.21860049E+02 0.69554539E+02 0.16801760E+03 0.35021266E+03 0.29850175E+03 0.0000E+00 0.0000E+00
       23  2    1    2    0    0 0.21860049E+02 -.69554539E+02 0.12817133E+03 0.17350494E+03 0.91435106E+02 0.0000E+00 0.0000E+00
       23  1    3    3    0    0 -.48681648E+02 0.96078904E+02 -.15370253E+02 0.14195969E+03 0.91188000E+02 0.0000E+00 0.9000E+01
      -11  1    4    4    0    0 0.78758050E+01 -.18518877E+02 0.11789406E+03 0.11959928E+03 0.51099893E-03 0.0000E+00 0.9000E+01
       11  1    4    4    0    0 0.13984244E+02 -.51035662E+02 0.10277263E+02 0.53905659E+02 0.51099893E-03 0.0000E+00 0.9000E+01
       23  1    3    3    0    0 0.26821599E+02 -.26524364E+02 0.18338785E+03 0.20825296E+03 0.91188000E+02 0.0000E+00 0.9000E+01
#aMCatNLO 1  0  0  1  2 0.92456497D+02 0.00000000D+00  -5  7  0 0.00000000D+00 0.00000000D+00 0.00000000D+00 0.00000000D+00 0.00000000D+00
  <mgrwgt>
 0.2842557054D-04    9    2    0
 0.215958466381351D+03 0.000000000000000D+00 0.000000000000000D+00 0.215958466381351D+03
 0.215958466381351D+03 0.000000000000000D+00 0.000000000000000D+00 -.215958466381351D+03
 0.182672365684453D+03 -.486816482871731D+02 0.960789038454818D+02 -.115986564724752D+03
 0.641728257377144D+02 0.787580508669383D+01 -.185188771181205D+02 0.609358223681556D+02
 0.583152188013602D+02 0.139842439527850D+02 -.510356624709405D+02 -.245044245203135D+02
 0.126756522539174D+03 0.268215992476942D+02 -.265243642564208D+02 0.795551668769097D+02
 0.000000000000000D+00 -.000000000000000D+00 0.000000000000000D+00 0.000000000000000D+00
 0.329661024605442D+03 0.000000000000000D+00 0.000000000000000D+00 0.329661024605442D+03
 0.240491058536844D+03 0.000000000000000D+00 0.000000000000000D+00 -.240491058536844D+03
 0.163859657931622D+03 -.353009425494437D+02 0.619329993778769D+02 -.115986564724752D+03
 0.699326265088915D+02 0.130540439565450D+02 -.317331016310932D+02 0.609358223681556D+02
 0.709001340111316D+02 0.189736605000315D+02 -.637680357934461D+02 -.245044245203135D+02
 0.137009336888830D+03 0.370064396322459D+02 -.525148160012868D+02 0.795551668769097D+02
 0.128450327801811D+03 -.337332015393787D+02 0.860829540479493D+02 0.891699660685978D+02
0.117948867592D-05 0.000000000000D+00 0.000000000000D+00 0.259514771525D-07 0.000000000000D+00  7 3 -3 23 -11 11 23 21 0 0.63069732D-01 0.17502205D-01 0.24468526D+05 0.24468526D+05 0.24468526D+05 0.11756385D+01  1  2  2  1  7  1        3 0.343139391994D-04 0.100000000000D+01
-.572400663140D-07 0.000000000000D+00 -.452954708205D-08 0.259514771525D-07 0.000000000000D+00  7 3 -3 23 -11 11 23 21 2 0.63069732D-01 0.17502205D-01 0.24468526D+05 0.24468526D+05 0.24468526D+05 0.11756385D+01  1  2  3  1  7  1        3 -.230157183742D-05 0.100000000000D+01
0.740380727141D-07 0.000000000000D+00 0.000000000000D+00 0.259514771525D-07 0.000000000000D+00  7 3 -3 23 -11 11 23 21 2 0.63069732D-01 0.17502205D-01 0.24468526D+05 0.24468526D+05 0.24468526D+05 0.11756385D+01  1  2 15  1  7  1        3 0.297700464079D-05 0.100000000000D+01
0.478798569096D-06 0.000000000000D+00 0.000000000000D+00 0.259514771525D-07 0.000000000000D+00  7 3 -3 23 -11 11 23 21 2 0.98334590D-01 0.17502205D-01 0.44224535D+05 0.44224535D+05 0.44224535D+05 0.11520139D+01  1  2 12  1  7  1        3 0.707417209983D-05 0.100000000000D+01
-.111961810411D-05 0.000000000000D+00 0.000000000000D+00 0.259514771525D-07 0.000000000000D+00  7 3 -3 23 -11 11 23 21 2 0.63069732D-01 0.17502205D-01 0.24468526D+05 0.24468526D+05 0.24468526D+05 0.11756385D+01  1  2  4  1  7  1        3 -.450188419235D-04 0.100000000000D+01
-.110232406887D-05 0.000000000000D+00 -.450311081978D-06 0.259514771525D-07 0.000000000000D+00  7 3 -3 23 -11 11 23 21 2 0.10368556D+00 0.17502205D-01 0.24468526D+05 0.24468526D+05 0.24468526D+05 0.11756385D+01  1  2  5  1  7  1        3 -.148298430811D-04 0.100000000000D+01
0.122243349569D-05 0.000000000000D+00 0.399874557822D-06 0.259514771525D-07 0.000000000000D+00  7 3 -3 23 -11 11 23 21 2 0.63069732D-01 0.17502205D-01 0.24468526D+05 0.24468526D+05 0.24468526D+05 0.11756385D+01  1  2  6  1  7  1        3 0.491529568006D-04 0.100000000000D+01
0.246351074669D-07 0.000000000000D+00 0.000000000000D+00 0.259514771525D-07 0.000000000000D+00  7 21 -3 23 -11 11 23 -3 2 0.98334590D-01 0.17502205D-01 0.44224535D+05 0.44224535D+05 0.44224535D+05 0.11520139D+01  1  2 12  3  7  1        3 0.518695380946D-05 0.100000000000D+01
-.416897474650D-07 0.000000000000D+00 -.252739679845D-07 0.259514771525D-07 0.000000000000D+00  7 21 -3 23 -11 11 23 -3 2 0.10368556D+00 0.17502205D-01 0.24468526D+05 0.24468526D+05 0.24468526D+05 0.11756385D+01  1  2  5  3  7  1        3 -.812919916748D-05 0.100000000000D+01
  </mgrwgt>
  </event>
  <event>
  8     66 0.56006291E-06 0.27932091E+03 0.75467711E-02 0.95303540E-01
        1 -1    0    0  501    0 0.00000000E+00 0.00000000E+00 0.14489523E+04 0.14489523E+04 0.32000000E+00 0.0000E+00 0.9000E+01
       -1 -1    0    0    0  501 0.00000000E+00 0.00000000E+00 -.16925818E+03 0.16925848E+03 0.32000000E+00 0.0000E+00 0.9000E+01
       25  2    1    2    0    0 -.50582945E+02 0.38581542E+03 0.10447168E+04 0.11544894E+04 0.30000079E+03 0.0000E+00 0.0000E+00
       23  2    1    2    0    0 0.50582945E+02 -.38581542E+03 0.23497731E+03 0.46372138E+03 0.91711561E+02 0.0000E+00 0.0000E+00
       23  1    3    3    0    0 -.61918284E+02 0.17543074E+02 0.25008143E+03 0.27385691E+03 0.91188000E+02 0.0000E+00 0.9000E+01
      -11  1    4    4    0    0 -.17726591E+02 -.34384301E+02 0.41667985E+02 0.56857130E+02 0.51099893E-03 0.0000E+00 0.9000E+01
       11  1    4    4    0    0 0.68309536E+02 -.35143111E+03 0.19330932E+03 0.40686425E+03 0.51099893E-03 0.0000E+00 0.9000E+01
       23  1    3    3    0    0 0.11335339E+02 0.36827234E+03 0.79463538E+03 0.88063253E+03 0.91188000E+02 0.0000E+00 0.9000E+01
#aMCatNLO 1  0  0  1  2 0.52439740D+02 0.00000000D+00  -5  7  0 0.00000000D+00 0.00000000D+00 0.00000000D+00 0.00000000D+00 0.00000000D+00
  <mgrwgt>
 0.2061300457D-03    6    2    0
 0.495224493201182D+03 0.000000000000000D+00 0.000000000000000D+00 0.495224493201182D+03
 0.495224493201182D+03 0.000000000000000D+00 0.000000000000000D+00 -.495224493201182D+03
 0.124317837016285D+03 -.619182837332705D+02 0.175430744950609D+02 0.547543599468978D+02
 0.390575859192451D+02 -.177265913657167D+02 -.343843010734725D+02 -.538356908388063D+01
 0.414978788369911D+03 0.683095359279551D+02 -.351431114193853D+03 -.209850837679372D+03
 0.412094775096924D+03 0.113353391710322D+02 0.368272340772264D+03 0.160480046816355D+03
 0.000000000000000D+00 0.000000000000000D+00 0.000000000000000D+00 -.000000000000000D+00
 0.520310621572476D+03 0.000000000000000D+00 0.000000000000000D+00 0.520310621572476D+03
 0.524102252426724D+03 0.000000000000000D+00 0.000000000000000D+00 -.524102252426724D+03
 0.126302481924590D+03 -.668388126590168D+02 0.130995719567439D+02 0.547543599468978D+02
 0.410289674059301D+02 -.192989626876637D+02 -.358042370327329D+02 -.538356908388063D+01
 0.425346330428396D+03 0.518110968885661D+02 -.366330092912624D+03 -.209850837679372D+03
 0.399158457208894D+03 -.459231989721627D+01 0.353888807097889D+03 0.160480046816355D+03
 0.525766370313884D+02 0.389189983553307D+02 0.351459508907248D+02 -.379163085424779D+01
0.152685546179D-04 0.000000000000D+00 0.000000000000D+00 0.172222536502D-05 0.000000000000D+00  7 1 -1 23 -11 11 23 21 0 0.22291576D+00 0.26039746D-01 0.19707689D+06 0.19707689D+06 0.19707689D+06 0.10983168D+01  1  2  2  1  7  1        1 0.168396430752D-03 0.100000000000D+01
-.835923750692D-06 0.000000000000D+00 -.586352700354D-07 0.172222536502D-05 0.000000000000D+00  7 1 -1 23 -11 11 23 21 2 0.22291576D+00 0.26039746D-01 0.19707689D+06 0.19707689D+06 0.19707689D+06 0.10983168D+01  1  2  3  1  7  1        1 -.111213341385D-04 0.100000000000D+01
0.982515164851D-06 0.000000000000D+00 0.000000000000D+00 0.172222536502D-05 0.000000000000D+00  7 1 -1 23 -11 11 23 21 2 0.22291576D+00 0.26039746D-01 0.19707689D+06 0.19707689D+06 0.19707689D+06 0.10983168D+01  1  2 15  1  7  1        1 0.130716221849D-04 0.100000000000D+01
0.253374979675D-04 0.000000000000D+00 0.000000000000D+00 0.172222536502D-05 0.000000000000D+00  7 1 -1 23 -11 11 23 21 2 0.24036502D+00 0.26039746D-01 0.22202187D+06 0.22202187D+06 0.22202187D+06 0.10943581D+01  1  2 12  1  7  1        1 0.279780362202D-03 0.100000000000D+01
-.185371917312D-04 0.000000000000D+00 0.000000000000D+00 0.172222536502D-05 0.000000000000D+00  7 1 -1 23 -11 11 23 21 2 0.22291576D+00 0.26039746D-01 0.19707689D+06 0.19707689D+06 0.19707689D+06 0.10983168D+01  1  2  4  1  7  1        1 -.246623335036D-03 0.100000000000D+01
0.320893437410D-06 0.000000000000D+00 0.000000000000D+00 0.172222536502D-05 0.000000000000D+00  7 21 -1 23 -11 11 23 -1 2 0.24036502D+00 0.26039746D-01 0.22202187D+06 0.22202187D+06 0.22202187D+06 0.10943581D+01  1  2 12  3  7  1        1 0.262629977193D-05 0.100000000000D+01
  </mgrwgt>
  </event>
  <event>
  8     66 0.56006291E-06 0.19631039E+03 0.75467711E-02 0.96438083E-01
        1 -1    0    0  501    0 0.00000000E+00 0.00000000E+00 0.10756607E+04 0.10756608E+04 0.32000000E+00 0.0000E+00 0.9000E+01
       -1 -1    0    0    0  501 0.00000000E+00 0.00000000E+00 -.18185940E+03 0.18185969E+03 0.32000000E+00 0.0000E+00 0.9000E+01
       25  2    1    2    0    0 -.20516107E+03 -.32462384E+03 0.52988242E+03 0.72080719E+03 0.30218524E+03 0.0000E+00 0.0000E+00
       23  2    1    2    0    0 0.20516107E+03 0.32462384E+03 0.36391889E+03 0.53671325E+03 0.90290951E+02 0.0000E+00 0.0000E+00
       23  1    3    3    0    0 -.51612095E+01 -.36374507E+02 0.28970481E+02 0.10249040E+03 0.91188000E+02 0.0000E+00 0.9000E+01
      -13  1    4    4    0    0 0.94345881E+02 0.11978268E+03 0.89555589E+02 0.17683114E+03 0.10565837E+00 0.0000E+00 0.9000E+01
       13  1    4    4    0    0 0.11081519E+03 0.20484116E+03 0.27436330E+03 0.35988212E+03 0.10565837E+00 0.0000E+00 0.9000E+01
       23  1    3    3    0    0 -.19999986E+03 -.28824934E+03 0.50091194E+03 0.61831679E+03 0.91188000E+02 0.0000E+00 0.9000E+01
#aMCatNLO 1  0  0  1  2 0.86349361D+01 0.00000000D+00  -5  7  0 0.00000000D+00 0.00000000D+00 0.00000000D+00 0.00000000D+00 0.00000000D+00
  <mgrwgt>
 0.3018415933D-03   11    2    0
 0.442288619060845D+03 0.000000000000000D+00 0.000000000000000D+00 0.442288619060845D+03
 0.442288619060845D+03 0.000000000000000D+00 0.000000000000000D+00 -.442288619060845D+03
 0.116428413619987D+03 -.516120947900853D+01 -.363745067495682D+02 -.623745246836100D+02
 0.160894690035336D+03 0.943458585926853D+02 0.119782568497334D+03 -.513624038782958D+02
 0.234386465604610D+03 0.110815214169308D+03 0.204841274445328D+03 0.264018152945125D+02
 0.372867668861756D+03 -.199999863282985D+03 -.288249336193094D+03 0.873351132673933D+02
 0.000000000000000D+00 -.000000000000000D+00 0.000000000000000D+00 0.000000000000000D+00
 0.448087092723753D+03 0.000000000000000D+00 0.000000000000000D+00 0.448087092723753D+03
 0.445536147243069D+03 0.000000000000000D+00 0.000000000000000D+00 -.445536147243069D+03
 0.116701203763416D+03 -.452905819433079D+01 -.373205830366617D+02 -.623745246836100D+02
 0.160441806114878D+03 0.952171905201132D+02 0.118478534961838D+03 -.513624038782958D+02
 0.233336022035050D+03 0.112083484476413D+03 0.202943183763145D+03 0.264018152945125D+02
 0.374140350829908D+03 -.197974285904131D+03 -.291280811050862D+03 0.873351132673933D+02
 0.900385722356899D+01 -.479733089806426D+01 0.717967536254058D+01 0.255094548068383D+01
0.520415592325D-05 0.000000000000D+00 0.000000000000D+00 0.683687407442D-07 0.000000000000D+00  7 1 -1 23 -13 13 23 21 0 0.16548629D+00 0.27978395D-01 0.17900389D+06 0.17900389D+06 0.17900389D+06 0.11015440D+01  1  2  2  1  7  1        1 0.931013114519D-04 0.100000000000D+01
-.288427371777D-06 0.000000000000D+00 -.199853290310D-07 0.683687407442D-07 0.000000000000D+00  7 1 -1 23 -13 13 23 21 2 0.16548629D+00 0.27978395D-01 0.17900389D+06 0.17900389D+06 0.17900389D+06 0.11015440D+01  1  2  3  1  7  1        1 -.626102886502D-05 0.100000000000D+01
0.337164514915D-06 0.000000000000D+00 0.000000000000D+00 0.683687407442D-07 0.000000000000D+00  7 1 -1 23 -13 13 23 21 2 0.16548629D+00 0.27978395D-01 0.17900389D+06 0.17900389D+06 0.17900389D+06 0.11015440D+01  1  2 15  1  7  1        1 0.731898899587D-05 0.100000000000D+01
0.352166886533D-05 0.000000000000D+00 0.000000000000D+00 0.683687407442D-07 0.000000000000D+00  7 1 -1 23 -13 13 23 21 2 0.16825716D+00 0.27978395D-01 0.18271721D+06 0.18271721D+06 0.18271721D+06 0.11008527D+01  1  2 12  1  7  1        1 0.740239675111D-04 0.100000000000D+01
-.323040735348D-05 0.000000000000D+00 0.000000000000D+00 0.683687407442D-07 0.000000000000D+00  7 1 -1 23 -13 13 23 21 2 0.16548629D+00 0.27978395D-01 0.17900389D+06 0.17900389D+06 0.17900389D+06 0.11015440D+01  1  2  4  1  7  1        1 -.701239745774D-04 0.100000000000D+01
-.302924816197D-03 0.000000000000D+00 -.349470273909D-04 0.683687407442D-07 0.000000000000D+00  7 1 -1 23 -13 13 23 21 2 0.16845401D+00 0.27978395D-01 0.17900389D+06 0.17900389D+06 0.17900389D+06 0.11015440D+01  1  2  5  1  7  1        1 -.636510729821D-02 0.100000000000D+01
0.303503555333D-03 0.000000000000D+00 0.349415076995D-04 0.683687407442D-07 0.000000000000D+00  7 1 -1 23 -13 13 23 21 2 0.16548629D+00 0.27978395D-01 0.17900389D+06 0.17900389D+06 0.17900389D+06 0.11015440D+01  1  2  6  1  7  1        1 0.658829468532D-02 0.100000000000D+01
0.422989679114D-07 0.000000000000D+00 0.000000000000D+00 0.683687407442D-07 0.592701785394D-08  7 1 -1 23 -13 13 23 21 2 0.16765584D+00 0.28183828D-01 0.18271721D+06 0.18271721D+06 0.18271721D+06 0.11008527D+01  1  2 11  1  7  1        1 0.884125454335D-06 0.100000000000D+01
0.178979522285D-06 0.000000000000D+00 0.000000000000D+00 0.683687407442D-07 0.000000000000D+00  7 21 -1 23 -13 13 23 -1 2 0.16825716D+00 0.27978395D-01 0.18271721D+06 0.18271721D+06 0.18271721D+06 0.11008527D+01  1  2 12  3  7  1        1 0.454477092945D-05 0.100000000000D+01
-.979123610619D-06 0.000000000000D+00 -.113424043140D-06 0.683687407442D-07 0.000000000000D+00  7 21 -1 23 -13 13 23 -1 2 0.16845401D+00 0.27978395D-01 0.17900389D+06 0.17900389D+06 0.17900389D+06 0.11015440D+01  1  2  5  3  7  1        1 -.248375963443D-04 0.100000000000D+01
0.143564196814D-09 0.000000000000D+00 0.000000000000D+00 0.683687407442D-07 0.141572917260D-10  7 21 -1 23 -13 13 23 -1 2 0.16765584D+00 0.28183828D-01 0.18271721D+06 0.18271721D+06 0.18271721D+06 0.11008527D+01  1  2 11  3  7  1        1 0.364166533110D-08 0.100000000000D+01
  </mgrwgt>
  </event>
  <event>
  8     66 0.56006291E-06 0.13304475E+03 0.75467711E-02 0.10424070E+00
        1 -1    0    0  501    0 0.00000000E+00 0.00000000E+00 0.70185397E+03 0.70185405E+03 0.32000000E+00 0.0000E+00 0.9000E+01
       -1 -1    0    0    0  501 0.00000000E+00 0.00000000E+00 -.13843471E+03 0.13843508E+03 0.32000000E+00 0.0000E+00 0.9000E+01
       25  2    1    2    0    0 0.93526665E+02 0.14662534E+02 0.62064910E+03 0.69548927E+03 0.29922867E+03 0.0000E+00 0.0000E+00
       23  2    1    2    0    0 -.93526665E+02 -.14662534E+02 -.57229828E+02 0.14479986E+03 0.93431892E+02 0.0000E+00 0.0000E+00
       23  1    3    3    0    0 -.43255893E+02 0.72644199E+02 0.15784056E+03 0.20094065E+03 0.91188000E+02 0.0000E+00 0.9000E+01
      -11  1    4    4    0    0 -.99039938E+02 0.15754165E+02 -.53499993E+02 0.11366333E+03 0.51099893E-03 0.0000E+00 0.9000E+01
       11  1    4    4    0    0 0.55132731E+01 -.30416698E+02 -.37298348E+01 0.31136528E+02 0.51099893E-03 0.0000E+00 0.9000E+01
       23  1    3    3    0    0 0.13678256E+03 -.57981665E+02 0.46280854E+03 0.49454862E+03 0.91188000E+02 0.0000E+00 0.9000E+01
#aMCatNLO 1  0  0  2  1 0.31047210D+02 0.00000000D+00  -5  7  0 0.00000000D+00 0.00000000D+00 0.00000000D+00 0.00000000D+00 0.00000000D+00
  <mgrwgt>
 0.1337771705D-03    9    2    0
 0.311706810337869D+03 0.000000000000000D+00 0.000000000000000D+00 0.311706810337869D+03
 0.311706810337869D+03 0.000000000000000D+00 0.000000000000000D+00 -.311706810337869D+03
 0.128193913637480D+03 -.432558932092967D+02 0.726441988806082D+02 0.311476519396626D+02
 0.201556369050812D+03 -.990399380294885D+02 0.157541647015570D+02 -.174836686295006D+03
 0.453393154955520D+02 0.551327309891287D+01 -.304166983843720D+02 -.331674811937256D+02
 0.248324022491894D+03 0.136782558139872D+03 -.579816651977932D+02 0.176856515549069D+03
 0.000000000000000D+00 0.000000000000000D+00 0.000000000000000D+00 -.000000000000000D+00
 0.317095737640599D+03 0.000000000000000D+00 0.000000000000000D+00 0.317095737640599D+03
 0.360264405322086D+03 0.000000000000000D+00 0.000000000000000D+00 -.360264405322086D+03
 0.125977317699529D+03 -.459174480050554D+02 0.669062402031135D+02 0.311476519396626D+02
 0.203169900370695D+03 -.103278030348914D+03 0.661740049177112D+01 -.174836686295006D+03
 0.466541459309230D+02 0.454996329728770D+01 -.324934663863530D+02 -.331674811937256D+02
 0.248384883620785D+03 0.131581269370069D+03 -.691949530393238D+02 0.176856515549069D+03
 0.531738953407524D+02 0.130642456866128D+02 0.281647787307922D+02 -.431686676814865D+02
0.218426747735D-05 0.000000000000D+00 0.000000000000D+00 0.926373860548D-07 0.000000000000D+00  7 1 -1 23 -11 11 23 21 0 0.10797757D+00 0.21297681D-01 0.46196468D+05 0.46196468D+05 0.46196468D+05 0.11503301D+01  1  2  2  2  7  2       -1 0.125276092468D-03 0.100000000000D+01
-.100960000300D-06 0.000000000000D+00 -.838816224386D-08 0.926373860548D-07 0.000000000000D+00  7 1 -1 23 -11 11 23 21 2 0.10797757D+00 0.21297681D-01 0.46196468D+05 0.46196468D+05 0.46196468D+05 0.11503301D+01  1  2  3  2  7  2       -1 -.766225662994D-05 0.100000000000D+01
0.132136213539D-06 0.000000000000D+00 0.000000000000D+00 0.926373860548D-07 0.000000000000D+00  7 1 -1 23 -11 11 23 21 2 0.10797757D+00 0.21297681D-01 0.46196468D+05 0.46196468D+05 0.46196468D+05 0.11503301D+01  1  2 15  2  7  2       -1 0.100283436533D-04 0.100000000000D+01
0.939817140111D-05 0.000000000000D+00 0.000000000000D+00 0.926373860548D-07 0.000000000000D+00  7 1 -1 23 -11 11 23 21 2 0.10797757D+00 0.24780924D-01 0.53781714D+05 0.53781714D+05 0.53781714D+05 0.11445206D+01  1  2 12  2  7  2       -1 0.552548756109D-03 0.100000000000D+01
-.956235671192D-05 0.000000000000D+00 0.000000000000D+00 0.926373860548D-07 0.000000000000D+00  7 1 -1 23 -11 11 23 21 2 0.10797757D+00 0.21297681D-01 0.46196468D+05 0.46196468D+05 0.46196468D+05 0.11503301D+01  1  2  4  2  7  2       -1 -.725725345642D-03 0.100000000000D+01
-.132519682395D-04 0.000000000000D+00 -.190225356394D-05 0.926373860548D-07 0.000000000000D+00  7 1 -1 23 -11 11 23 21 2 0.10797757D+00 0.24963614D-01 0.46196468D+05 0.46196468D+05 0.46196468D+05 0.11503301D+01  1  2  5  2  7  2       -1 -.779059461379D-03 0.100000000000D+01
0.134083649952D-04 0.000000000000D+00 0.187851179706D-05 0.926373860548D-07 0.000000000000D+00  7 1 -1 23 -11 11 23 21 2 0.10797757D+00 0.21297681D-01 0.46196468D+05 0.46196468D+05 0.46196468D+05 0.11503301D+01  1  2  6  2  7  2       -1 0.101761423609D-02 0.100000000000D+01
0.216085877812D-06 0.000000000000D+00 0.000000000000D+00 0.926373860548D-07 0.000000000000D+00  7 1 21 23 -11 11 23 1 2 0.10797757D+00 0.24780924D-01 0.53781714D+05 0.53781714D+05 0.53781714D+05 0.11445206D+01  1  2 12  4  7  2       -1 0.148103390228D-03 0.100000000000D+01
-.301901664841D-06 0.000000000000D+00 -.454357246237D-07 0.926373860548D-07 0.000000000000D+00  7 1 21 23 -11 11 23 1 2 0.10797757D+00 0.24963614D-01 0.46196468D+05 0.46196468D+05 0.46196468D+05 0.11503301D+01  1  2  5  4  7  2       -1 -.207346584370D-03 0.100000000000D+01
  </mgrwgt>
  </event>
  <event>
  8     66 0.56006291E-06 0.72979610E+02 0.75467711E-02 0.10580906E+00
        1 -1    0    0  501    0 0.00000000E+00 0.00000000E+00 0.32842063E+03 0.32842079E+03 0.32000000E+00 0.0000E+00 0.9000E+01
       -1 -1    0    0    0  501 0.00000000E+00 0.00000000E+00 -.33784557E+03 0.33784572E+03 0.32000000E+00 0.0000E+00 0.9000E+01
       25  2    1    2    0    0 0.10788873E+03 0.90075159E+02 -.21718557E+03 0.39684003E+03 0.30093010E+03 0.0000E+00 0.0000E+00
       23  2    1    2    0    0 -.10788873E+03 -.90075159E+02 0.20776064E+03 0.26942648E+03 0.98349558E+02 0.0000E+00 0.0000E+00
       23  1    3    3    0    0 0.55337202E+02 0.84955641E+02 -.25144338E+03 0.28603966E+03 0.91188000E+02 0.0000E+00 0.9000E+01
      -13  1    4    4    0    0 -.64955901E+02 -.37311926E+02 0.32929052E+02 0.81827761E+02 0.10565837E+00 0.0000E+00 0.9000E+01
       13  1    4    4    0    0 -.42932830E+02 -.52763233E+02 0.17483158E+03 0.18759872E+03 0.10565837E+00 0.0000E+00 0.9000E+01
       23  1    3    3    0    0 0.52551528E+02 0.51195173E+01 0.34257803E+02 0.11080037E+03 0.91188000E+02 0.0000E+00 0.9000E+01
#aMCatNLO 1  0  0  1  2 0.28915759D+02 0.00000000D+00  -5  7  0 0.00000000D+00 0.00000000D+00 0.00000000D+00 0.00000000D+00 0.00000000D+00
  <mgrwgt>
 0.1700389456D-03    6    2    0
 0.333099923258264D+03 0.000000000000000D+00 0.000000000000000D+00 0.333099923258264D+03
 0.333099923258264D+03 0.000000000000000D+00 0.000000000000000D+00 -.333099923258264D+03
 0.282511044419042D+03 0.553372054173387D+02 0.849556434374545D+02 -.247421848710791D+03
 0.823016784266982D+02 -.649559155788692D+02 -.373119049745775D+02 0.340898379334745D+02
 0.190091015439902D+03 -.429328190677284D+02 -.527632571173091D+02 0.177503256015892D+03
 0.111296108230886D+03 0.525515292292589D+02 0.511951865443211D+01 0.358287547614244D+02
 0.000000000000000D+00 0.000000000000000D+00 0.000000000000000D+00 -.000000000000000D+00
 0.346245234711720D+03 0.000000000000000D+00 0.000000000000000D+00 0.346245234711720D+03
 0.349703695306352D+03 0.000000000000000D+00 0.000000000000000D+00 -.349703695306352D+03
 0.278787141517753D+03 0.536162326663625D+02 0.729023134532834D+02 -.247421848710791D+03
 0.843808988947982D+02 -.654669740159351D+02 -.408912504230489D+02 0.340898379334745D+02
 0.192800526849425D+03 -.441067867151731D+02 -.609854787866326D+02 0.177503256015892D+03
 0.110858514229591D+03 0.518703902886087D+02 0.348965249638807D+00 0.358287547614244D+02
 0.291218485265046D+02 0.408713777613693D+01 0.286254505067593D+02 -.345846059463259D+01
0.274106708901D-05 0.000000000000D+00 0.000000000000D+00 0.934223553280D-08 0.000000000000D+00  7 1 -1 23 -13 13 23 21 0 0.50526275D-01 0.51976265D-01 0.36992290D+05 0.36992290D+05 0.36992290D+05 0.11589867D+01  1  2  2  1  7  1        1 0.996334308672D-04 0.100000000000D+01
-.964337495097D-07 0.000000000000D+00 -.105264193614D-07 0.934223553280D-08 0.000000000000D+00  7 1 -1 23 -13 13 23 21 2 0.50526275D-01 0.51976265D-01 0.36992290D+05 0.36992290D+05 0.36992290D+05 0.11589867D+01  1  2  3  1  7  1        1 -.470837853350D-05 0.100000000000D+01
0.171330969636D-06 0.000000000000D+00 0.000000000000D+00 0.934223553280D-08 0.000000000000D+00  7 1 -1 23 -13 13 23 21 2 0.50526275D-01 0.51976265D-01 0.36992290D+05 0.36992290D+05 0.36992290D+05 0.11589867D+01  1  2 15  1  7  1        1 0.836523586046D-05 0.100000000000D+01
0.535819063985D-05 0.000000000000D+00 0.000000000000D+00 0.934223553280D-08 0.000000000000D+00  7 1 -1 23 -13 13 23 21 2 0.53725081D-01 0.51976265D-01 0.43003856D+05 0.43003856D+05 0.43003856D+05 0.11530983D+01  1  2 12  1  7  1        1 0.238599764197D-03 0.100000000000D+01
-.375001766573D-05 0.000000000000D+00 0.000000000000D+00 0.934223553280D-08 0.000000000000D+00  7 1 -1 23 -13 13 23 21 2 0.50526275D-01 0.51976265D-01 0.36992290D+05 0.36992290D+05 0.36992290D+05 0.11589867D+01  1  2  4  1  7  1        1 -.183094640282D-03 0.100000000000D+01
0.585316152435D-07 0.000000000000D+00 0.000000000000D+00 0.934223553280D-08 0.000000000000D+00  7 21 -1 23 -13 13 23 -1 2 0.53725081D-01 0.51976265D-01 0.43003856D+05 0.43003856D+05 0.43003856D+05 0.11530983D+01  1  2 12  3  7  1        1 0.112435334637D-04 0.100000000000D+01
  </mgrwgt>
  </event>
  <event>
  8     66 0.56006291E-06 0.17539266E+03 0.75467711E-02 0.85188740E-01
        1 -1    0    0  501    0 0.00000000E+00 0.00000000E+00 0.60953084E+03 0.60953092E+03 0.32000000E+00 0.0000E+00 0.9000E+01
       -1 -1    0    0    0  501 0.00000000E+00 0.00000000E+00 -.13695061E+03 0.13695098E+03 0.32000000E+00 0.0000E+00 0.9000E+01
       25  2    1    2    0    0 -.34343336E+02 -.47161960E+02 0.53600196E+03 0.61700467E+03 0.29998824E+03 0.0000E+00 0.0000E+00
       23  2    1    2    0    0 0.34343336E+02 0.47161960E+02 -.63421727E+02 0.12947724E+03 0.96635003E+02 0.0000E+00 0.0000E+00
       23  1    3    3    0    0 0.70627752E+02 0.45483738E+02 0.13892185E+03 0.18620306E+03 0.91188000E+02 0.0000E+00 0.9000E+01
      -11  1    4    4    0    0 0.76098773E+01 0.20891638E+02 0.24989624E+02 0.33449246E+02 0.51099893E-03 0.0000E+00 0.9000E+01
       11  1    4    4    0    0 0.26733459E+02 0.26270322E+02 -.88411351E+02 0.96027989E+02 0.51099893E-03 0.0000E+00 0.9000E+01
       23  1    3    3    0    0 -.10497109E+03 -.92645698E+02 0.39708011E+03 0.43080161E+03 0.91188000E+02 0.0000E+00 0.9000E+01
#aMCatNLO 1  0  0  2  1 0.12339611D+04 0.00000000D+00  -5  7  0 0.00000000D+00 0.00000000D+00 0.00000000D+00 0.00000000D+00 0.00000000D+00
  <mgrwgt>
 0.1758915035D-03    5    2    0
 0.288921769014982D+03 0.000000000000000D+00 0.000000000000000D+00 0.288921769014982D+03
 0.288921769014982D+03 0.000000000000000D+00 0.000000000000000D+00 -.288921769014982D+03
 0.126929684420742D+03 0.706277521853953D+02 0.454837376180883D+02 0.271816790628623D+02
 0.227737335432329D+02 0.760987731900333D+01 0.208916381641119D+02 0.492667854722757D+01
 0.196358711721950D+03 0.267334589844926D+02 0.262703221618762D+02 -.192748374865626D+03
 0.231781408344040D+03 -.104971088488891D+03 -.926456979440764D+02 0.160640017255536D+03
 0.000000000000000D+00 -.000000000000000D+00 0.000000000000000D+00 -.000000000000000D+00
 0.763876692548054D+03 0.000000000000000D+00 0.000000000000000D+00 0.763876692548054D+03
 0.528992918574124D+04 0.000000000000000D+00 0.000000000000000D+00 -.528992918574124D+04
 0.394720801898151D+03 0.371074025365671D+03 -.951550530942036D+02 0.271816790628623D+02
 0.495046499352110D+02 0.492388444476145D+02 0.140513385970772D+01 0.492667854722757D+01
 0.490935315268982D+03 0.422582661475709D+03 -.159026544906884D+03 -.192748374865626D+03
 0.427396765050851D+03 0.274684697813217D+03 -.270362432810729D+03 0.160640017255536D+03
 0.469124834613610D+04 -.111758022910221D+04 0.523138896952108D+03 -.452605249319318D+04
0.237455637590D-05 0.000000000000D+00 0.000000000000D+00 0.409641849449D-07 0.000000000000D+00  7 1 -1 23 -11 11 23 21 0 0.93774011D-01 0.21069359D-01 0.30762586D+05 0.30762586D+05 0.30762586D+05 0.11663258D+01  1  2  2  2  7  2       -1 0.170351395209D-03 0.100000000000D+01
-.919606171871D-07 0.000000000000D+00 -.911892171850D-08 0.409641849449D-07 0.000000000000D+00  7 1 -1 23 -11 11 23 21 2 0.93774011D-01 0.21069359D-01 0.30762586D+05 0.30762586D+05 0.30762586D+05 0.11663258D+01  1  2  3  2  7  2       -1 -.897438824088D-05 0.100000000000D+01
0.148571331415D-06 0.000000000000D+00 0.000000000000D+00 0.409641849449D-07 0.000000000000D+00  7 1 -1 23 -11 11 23 21 2 0.93774011D-01 0.21069359D-01 0.30762586D+05 0.30762586D+05 0.30762586D+05 0.11663258D+01  1  2 15  2  7  2       -1 0.144989980534D-04 0.100000000000D+01
0.527232441534D-05 0.000000000000D+00 -.411458056840D-05 0.409641849449D-07 0.000000000000D+00  7 1 -1 23 -11 11 23 21 2 0.93774011D-01 0.55528222D+00 0.30762586D+05 0.30762586D+05 0.30762586D+05 0.11663258D+01  1  2  5  2  7  2       -1 0.368877123575D-08 0.100000000000D+01
0.598972583164D-06 0.000000000000D+00 -.137406972526D-05 0.409641849449D-07 0.000000000000D+00  7 1 21 23 -11 11 23 1 2 0.93774011D-01 0.55528222D+00 0.30762586D+05 0.30762586D+05 0.30762586D+05 0.11663258D+01  1  2  5  4  7  2       -1 0.118096758778D-07 0.100000000000D+01
  </mgrwgt>
  </event>
  <event>
  8     66 0.56006291E-06 0.22545476E+03 0.75467711E-02 0.10125634E+00
        1 -1    0    0  501    0 0.00000000E+00 0.00000000E+00 0.13470726E+04 0.13470727E+04 0.32000000E+00 0.0000E+00 0.9000E+01
       -1 -1    0    0    0  501 0.00000000E+00 0.00000000E+00 -.87131082E+02 0.87131669E+02 0.32000000E+00 0.0000E+00 0.9000E+01
       25  2    1    2    0    0 -.14709167E+03 -.12221886E+02 0.27191669E+03 0.43102766E+03 0.30010135E+03 0.0000E+00 0.0000E+00
       23  2    1    2    0    0 0.14709167E+03 0.12221886E+02 0.98802487E+03 0.10031767E+04 0.91569609E+02 0.0000E+00 0.0000E+00
       23  1    3    3    0    0 -.58852468E+02 0.76254938E+02 0.23829589E+03 0.27272442E+03 0.91188000E+02 0.0000E+00 0.9000E+01
      -11  1    4    4    0    0 0.14511458E+01 0.17771192E+02 0.26553023E+03 0.26612821E+03 0.51099893E-03 0.0000E+00 0.9000E+01
       11  1    4    4    0    0 0.14564052E+03 -.55493054E+01 0.72249464E+03 0.73704848E+03 0.51099893E-03 0.0000E+00 0.9000E+01
       23  1    3    3    0    0 -.88239200E+02 -.88476824E+02 0.33620800E+02 0.15830324E+03 0.91188000E+02 0.0000E+00 0.9000E+01
#aMCatNLO 1  0  0  1  2 0.11577801D+03 0.00000000D+00  -5  7  0 0.00000000D+00 0.00000000D+00 0.00000000D+00 0.00000000D+00 0.00000000D+00
  <mgrwgt>
 0.1969906234D-03    4    2    0
 0.342596475017364D+03 0.000000000000000D+00 0.000000000000000D+00 0.342596475017364D+03
 0.342596475017364D+03 0.000000000000000D+00 0.000000000000000D+00 -.342596475017364D+03
 0.132668700528851D+03 -.588524675740997D+02 0.762549376554303D+02 -.270264678047282D+01
 0.687830537083959D+02 0.145114580936769D+01 0.177711915646312D+02 0.664318252320768D+02
 0.214212816133949D+03 0.145640522249461D+03 -.554930534990761D+01 0.156987815084722D+03
 0.269528379663532D+03 -.882392004847292D+02 -.884768238701539D+02 -.220716993536326D+03
 0.000000000000000D+00 0.000000000000000D+00 0.000000000000000D+00 -.000000000000000D+00
 0.388080528495981D+03 0.000000000000000D+00 0.000000000000000D+00 0.388080528495981D+03
 0.429936929618246D+03 0.000000000000000D+00 0.000000000000000D+00 -.429936929618246D+03
 0.134074367304956D+03 -.761609162504995D+02 0.620716937137107D+02 -.270264678047282D+01
 0.676651565259541D+02 -.740271818420122D+01 0.105159767735552D+02 0.664318252320768D+02
 0.198809010963941D+03 0.118840324011467D+03 -.275104733553453D+02 0.156987815084722D+03
 0.294357161266279D+03 -.124828657237279D+03 -.118459706826269D+03 -.220716993536326D+03
 0.123111762053098D+03 0.895519676605125D+02 0.733825096943481D+02 -.418564011222649D+02
0.798182606200D-05 0.000000000000D+00 0.000000000000D+00 0.999788680451D-06 0.000000000000D+00  7 1 -1 23 -11 11 23 21 0 0.20724199D+00 0.13404830D-01 0.50829850D+05 0.50829850D+05 0.50829850D+05 0.11466671D+01  1  2  2  1  7  1        1 0.308263837078D-03 0.100000000000D+01
-.349036367522D-06 0.000000000000D+00 -.306523137411D-07 0.999788680451D-06 0.000000000000D+00  7 1 -1 23 -11 11 23 21 2 0.20724199D+00 0.13404830D-01 0.50829850D+05 0.50829850D+05 0.50829850D+05 0.11466671D+01  1  2  3  1  7  1        1 -.177241620975D-04 0.100000000000D+01
0.499232178630D-06 0.000000000000D+00 0.000000000000D+00 0.999788680451D-06 0.000000000000D+00  7 1 -1 23 -11 11 23 21 2 0.20724199D+00 0.13404830D-01 0.50829850D+05 0.50829850D+05 0.50829850D+05 0.11466671D+01  1  2 15  1  7  1        1 0.253511464181D-04 0.100000000000D+01
-.234146432285D-05 0.000000000000D+00 0.000000000000D+00 0.999788680451D-06 0.000000000000D+00  7 1 -1 23 -11 11 23 21 2 0.20724199D+00 0.13404830D-01 0.50829850D+05 0.50829850D+05 0.50829850D+05 0.11466671D+01  1  2  4  1  7  1        1 -.118900197989D-03 0.100000000000D+01
  </mgrwgt>
  </event>
  <event>
  7     66 0.56006291E-06 0.13597056E+03 0.75467711E-02 0.99515476E-01
        3 -1    0    0  501    0 0.00000000E+00 0.00000000E+00 0.30150764E+03 0.30150806E+03 0.50000000E+00 0.0000E+00 0.9000E+01
       -3 -1    0    0    0  501 0.00000000E+00 0.00000000E+00 -.25349346E+03 0.25349395E+03 0.50000000E+00 0.0000E+00 0.9000E+01
       25  2    1    2    0    0 -.36936365E+02 -.83829002E+02 -.82820017E+02 0.32436374E+03 0.29993513E+03 0.0000E+00 0.0000E+00
       23  1    3    3    0    0 -.89613603E+02 -.94778442E+02 -.13280308E+03 0.20728112E+03 0.91188000E+02 0.0000E+00 0.9000E+01
      -13  1    1    2    0    0 0.79167305E+02 0.47631566E+02 0.43840274E+01 0.92495725E+02 0.10565837E+00 0.0000E+00 0.9000E+01
       13  1    1    2    0    0 -.42230940E+02 0.36197436E+02 0.12645017E+03 0.13814255E+03 0.10565837E+00 0.0000E+00 0.9000E+01
       23  1    3    3    0    0 0.52677237E+02 0.10949440E+02 0.49983067E+02 0.11708262E+03 0.91188000E+02 0.0000E+00 0.9000E+01
#aMCatNLO 1  0  0  2  1 0.18963758D+03 0.00000000D+00  -5  7  0 0.00000000D+00 0.00000000D+00 0.00000000D+00 0.00000000D+00 0.00000000D+00
  <mgrwgt>
 0.3127410160D-04    7    2    0
 0.276460606492531D+03 0.000000000000000D+00 0.000000000000000D+00 0.276460606492531D+03
 0.276460606492531D+03 0.000000000000000D+00 0.000000000000000D+00 -.276460606492531D+03
 0.219609177603868D+03 -.896181483529034D+02 -.947887579388065D+02 -.151316285964408D+03
 0.924539939956614D+02 0.791554406884333D+02 0.476352464723940D+02 -.361116444986904D+01
 0.127679300852050D+03 -.422121869809789D+02 0.362093883669360D+02 0.114930480423792D+03
 0.113178740533483D+03 0.526748946454491D+02 0.109441230994765D+02 0.399969699904852D+02
 0.000000000000000D+00 0.000000000000000D+00 -.000000000000000D+00 -.000000000000000D+00
 0.341364825443300D+03 0.000000000000000D+00 0.000000000000000D+00 0.341364825443300D+03
 0.475391768037248D+03 0.000000000000000D+00 0.000000000000000D+00 -.475391768037248D+03
 0.258318068587589D+03 -.168593892150085D+03 -.842167106128328D+02 -.151316285964408D+03
 0.730000460054459D+02 0.518147607471572D+02 0.512951925313482D+02 -.361116444986904D+01
 0.150977528287454D+03 -.882592171949467D+02 0.423734503844181D+02 0.114930480423792D+03
 0.102242019284389D+03 0.170773955040106D+02 0.157093640141563D+02 0.399969699904852D+02
 0.232218931315669D+03 0.187960953093864D+03 -.251612963170898D+02 -.134026942593948D+03
0.269552202927D-05 0.000000000000D+00 0.000000000000D+00 0.353286759963D-09 0.000000000000D+00  7 3 -3 23 -13 13 23 21 0 0.46385861D-01 0.38999064D-01 0.42649017D+05 0.42649017D+05 0.42649017D+05 0.11534200D+01  1  2  2  2  7  2       -3 0.343730673047D-04 0.100000000000D+01
-.134259820411D-06 0.000000000000D+00 -.103515143397D-07 0.353286759963D-09 0.000000000000D+00  7 3 -3 23 -13 13 23 21 2 0.46385861D-01 0.38999064D-01 0.42649017D+05 0.42649017D+05 0.42649017D+05 0.11534200D+01  1  2  3  2  7  2       -3 -.227769930044D-05 0.100000000000D+01
0.165804373259D-06 0.000000000000D+00 0.000000000000D+00 0.353286759963D-09 0.000000000000D+00  7 3 -3 23 -13 13 23 21 2 0.46385861D-01 0.38999064D-01 0.42649017D+05 0.42649017D+05 0.42649017D+05 0.11534200D+01  1  2 15  2  7  2       -3 0.281284828050D-05 0.100000000000D+01
0.144204361539D-07 0.000000000000D+00 0.000000000000D+00 0.353286759963D-09 0.000000000000D+00  7 3 -3 23 -13 13 23 21 2 0.46385861D-01 0.68915228D-01 0.11019287D+06 0.11019287D+06 0.11019287D+06 0.11182792D+01  1  2 12  2  7  2       -3 0.704864142013D-07 0.100000000000D+01
-.815091772149D-06 0.000000000000D+00 -.829127865945D-06 0.353286759963D-09 0.000000000000D+00  7 3 -3 23 -13 13 23 21 2 0.46385861D-01 0.79663995D-01 0.42649017D+05 0.42649017D+05 0.42649017D+05 0.11534200D+01  1  2  5  2  7  2       -3 -.303666463870D-05 0.100000000000D+01
0.904474151321D-09 0.000000000000D+00 0.000000000000D+00 0.353286759963D-09 0.000000000000D+00  7 3 21 23 -13 13 23 3 2 0.46385861D-01 0.68915228D-01 0.11019287D+06 0.11019287D+06 0.11019287D+06 0.11182792D+01  1  2 12  4  7  2       -3 0.678298164931D-07 0.100000000000D+01
-.124330816656D-07 0.000000000000D+00 -.640427864180D-07 0.353286759963D-09 0.000000000000D+00  7 3 21 23 -13 13 23 3 2 0.46385861D-01 0.79663995D-01 0.42649017D+05 0.42649017D+05 0.42649017D+05 0.11534200D+01  1  2  5  4  7  2       -3 -.735766276234D-06 0.100000000000D+01
  </mgrwgt>
  </event>
  <event>
  7     66 0.56006291E-06 0.30222162E+03 0.75467711E-02 0.87059032E-01
        3 -1    0    0  501    0 0.00000000E+00 0.00000000E+00 0.13888322E+04 0.13888323E+04 0.50000000E+00 0.0000E+00 0.9000E+01
       -3 -1    0    0    0  501 0.00000000E+00 0.00000000E+00 -.38645696E+03 0.38645728E+03 0.50000000E+00 0.0000E+00 0.9000E+01
       25  2    1    2    0    0 0.99763300E+02 -.18992307E+03 0.13198073E+04 0.13702080E+04 0.29925767E+03 0.0000E+00 0.0000E+00
       23  1    3    3    0    0 0.86099891E+02 0.19336933E+02 0.31271833E+03 0.33748350E+03 0.91188000E+02 0.0000E+00 0.9000E+01
      -13  1    1    2    0    0 0.30534891E+02 0.36427805E+02 -.39033872E+02 0.61506251E+02 0.10565837E+00 0.0000E+00 0.9000E+01
       13  1    1    2    0    0 -.13029819E+03 0.15349526E+03 -.27839821E+03 0.34357530E+03 0.10565837E+00 0.0000E+00 0.9000E+01
       23  1    3    3    0    0 0.13663409E+02 -.20926000E+03 0.10070890E+04 0.10327245E+04 0.91188000E+02 0.0000E+00 0.9000E+01
#aMCatNLO 1  0  0  1  1 0.97767834D+03 0.00000000D+00  -5  7  0 0.00000000D+00 0.00000000D+00 0.00000000D+00 0.00000000D+00 0.00000000D+00
  <mgrwgt>
 0.1324023019D-04    3    2    0
 0.732614657183009D+03 0.000000000000000D+00 0.000000000000000D+00 0.732614657183009D+03
 0.732614657183009D+03 0.000000000000000D+00 0.000000000000000D+00 -.732614657183009D+03
 0.194965952957940D+03 0.860998913171398D+02 0.193369321446860D+02 0.148018117942387D+03
 0.101224774527956D+03 0.305349733364628D+02 0.364277253530703D+02 -.893705276205661D+02
 0.606734793004780D+03 -.130298273980633D+03 0.153495341299095D+03 -.572353604897965D+03
 0.562303793875341D+03 0.136634093270306D+02 -.209259998796851D+03 0.513706014576144D+03
 0.000000000000000D+00 -.000000000000000D+00 0.000000000000000D+00 -.000000000000000D+00
 0.960072547823556D+03 0.000000000000000D+00 0.000000000000000D+00 0.960072547823556D+03
 0.389258642606597D+04 0.000000000000000D+00 0.000000000000000D+00 -.389258642606597D+04
 0.223946276646714D+03 0.915212526199989D+02 -.107476418620954D+03 0.148018117942387D+03
 0.982758700054103D+02 0.331168150630444D+02 -.239652243515902D+02 -.893705276205661D+02
 0.623361625324310D+03 -.114378955684749D+03 -.218880153014694D+03 -.572353604897965D+03
 0.815879222481754D+03 0.314991934009100D+02 -.626464353125394D+03 0.513706014576144D+03
 0.309119597943134D+04 -.417583053992041D+02 0.976786149112632D+03 -.293251387824242D+04
0.111991623235D-03 0.000000000000D+00 0.000000000000D+00 0.282109700981D-08 0.000000000000D+00  7 3 -3 23 -13 13 23 21 0 0.21366652D+00 0.59454949D-01 0.91337909D+05 0.91337909D+05 0.91337909D+05 0.11249655D+01  1  2  2  1  7  1        3 0.123542702695D-04 0.100000000000D+01
-.290705248910D-06 0.000000000000D+00 -.430077321294D-06 0.282109700981D-08 0.000000000000D+00  7 3 -3 23 -13 13 23 21 2 0.21366652D+00 0.59454949D-01 0.91337909D+05 0.91337909D+05 0.91337909D+05 0.11249655D+01  1  2  3  1  7  1        3 -.405847431692D-07 0.100000000000D+01
0.663676482474D-05 0.000000000000D+00 0.000000000000D+00 0.282109700981D-08 0.000000000000D+00  7 3 -3 23 -13 13 23 21 2 0.21366652D+00 0.59454949D-01 0.91337909D+05 0.91337909D+05 0.91337909D+05 0.11249655D+01  1  2 15  1  7  1        3 0.926544659570D-06 0.100000000000D+01
  </mgrwgt>
  </event>
  <event>
  8     66 0.56006291E-06 0.29815282E+03 0.75467711E-02 0.99481412E-01
        1 -1    0    0  501    0 0.00000000E+00 0.00000000E+00 0.11548460E+04 0.11548461E+04 0.32000000E+00 0.0000E+00 0.9000E+01
       -1 -1    0    0    0  501 0.00000000E+00 0.00000000E+00 -.12724491E+03 0.12724532E+03 0.32000000E+00 0.0000E+00 0.9000E+01
       25  2    1    2    0    0 0.99100413E+02 0.20842048E+03 0.21922636E+03 0.43734643E+03 0.29991951E+03 0.0000E+00 0.0000E+00
       23  2    1    2    0    0 -.99100413E+02 -.20842048E+03 0.80837476E+03 0.84474497E+03 0.82851147E+02 0.0000E+00 0.0000E+00
       23  1    3    3    0    0 0.16270426E+02 -.17039461E+02 -.77826753E+01 0.94503393E+02 0.91188000E+02 0.0000E+00 0.9000E+01
      -11  1    4    4    0    0 -.10893653E+03 -.14681255E+03 0.60256358E+03 0.62968561E+03 0.51099893E-03 0.0000E+00 0.9000E+01
       11  1    4    4    0    0 0.98361157E+01 -.61607934E+02 0.20581118E+03 0.21505936E+03 0.51099893E-03 0.0000E+00 0.9000E+01
       23  1    3    3    0    0 0.82829987E+02 0.22545995E+03 0.22700904E+03 0.34284304E+03 0.91188000E+02 0.0000E+00 0.9000E+01
#aMCatNLO 1  0  0  1  2 0.64123394D+02 0.00000000D+00  -5  7  0 0.00000000D+00 0.00000000D+00 0.00000000D+00 0.00000000D+00 0.00000000D+00
  <mgrwgt>
 0.2390662933D-03    4    2    0
 0.383338714944178D+03 0.000000000000000D+00 0.000000000000000D+00 0.383338714944178D+03
 0.383338714944178D+03 0.000000000000000D+00 0.000000000000000D+00 -.383338714944178D+03
 0.168466513323752D+03 0.162704258361034D+02 -.170394611757371D+02 -.139680509640445D+03
 0.245369796614307D+03 -.108936528812625D+03 -.146812550743165D+03 0.163661983139299D+03
 0.837822445280069D+02 0.983611566572545D+01 -.616079335523580D+02 0.559211753289347D+02
 0.269058875422289D+03 0.828299873107963D+02 0.225459945471260D+03 -.799026488277882D+02
 0.000000000000000D+00 -.000000000000000D+00 0.000000000000000D+00 -.000000000000000D+00
 0.399400964131336D+03 0.000000000000000D+00 0.000000000000000D+00 0.399400964131336D+03
 0.454492881974210D+03 0.000000000000000D+00 0.000000000000000D+00 -.454492881974210D+03
 0.170944990736452D+03 0.285516704616281D+02 -.241059298580637D+02 -.139680509640445D+03
 0.244453131983209D+03 -.912128066130677D+02 -.157010550349584D+03 0.163661983139299D+03
 0.873576413848651D+02 0.160286305891665D+02 -.651710262278666D+02 0.559211753289347D+02
 0.266598569866822D+03 0.102212182794401D+03 0.214307681872914D+03 -.799026488277882D+02
 0.845395121341977D+02 -.555796772321280D+02 0.319798245626003D+02 -.550919178428736D+02
0.119668865122D-04 0.000000000000D+00 0.000000000000D+00 0.142729353409D-07 0.000000000000D+00  7 1 -1 23 -11 11 23 21 0 0.17766866D+00 0.19576175D-01 0.88895104D+05 0.88895104D+05 0.88895104D+05 0.11259415D+01  1  2  2  1  7  1        1 0.341613566802D-03 0.100000000000D+01
-.613774250981D-06 0.000000000000D+00 -.459559951605D-07 0.142729353409D-07 0.000000000000D+00  7 1 -1 23 -11 11 23 21 2 0.17766866D+00 0.19576175D-01 0.88895104D+05 0.88895104D+05 0.88895104D+05 0.11259415D+01  1  2  3  1  7  1        1 -.222123372664D-04 0.100000000000D+01
0.757710665314D-06 0.000000000000D+00 0.000000000000D+00 0.142729353409D-07 0.000000000000D+00  7 1 -1 23 -11 11 23 21 2 0.17766866D+00 0.19576175D-01 0.88895104D+05 0.88895104D+05 0.88895104D+05 0.11259415D+01  1  2 15  1  7  1        1 0.274213602499D-04 0.100000000000D+01
-.297753628318D-05 0.000000000000D+00 0.000000000000D+00 0.142729353409D-07 0.000000000000D+00  7 1 -1 23 -11 11 23 21 2 0.17766866D+00 0.19576175D-01 0.88895104D+05 0.88895104D+05 0.88895104D+05 0.11259415D+01  1  2  4  1  7  1        1 -.107756296455D-03 0.100000000000D+01
  </mgrwgt>
  </event>
  <event>
  8     66 0.56006291E-06 0.28876040E+03 0.75467711E-02 0.89743915E-01
        1 -1    0    0  501    0 0.00000000E+00 0.00000000E+00 0.55453664E+03 0.55453674E+03 0.32000000E+00 0.0000E+00 0.9000E+01
       -1 -1    0    0    0  501 0.00000000E+00 0.00000000E+00 -.17047355E+03 0.17047385E+03 0.32000000E+00 0.0000E+00 0.9000E+01
       25  2    1    2    0    0 -.13347229E+03 0.15899825E+03 0.13715469E+03 0.38986366E+03 0.30014492E+03 0.0000E+00 0.0000E+00
       23  2    1    2    0    0 0.13347229E+03 -.15899825E+03 0.24690841E+03 0.33514692E+03 0.90908750E+02 0.0000E+00 0.0000E+00
       23  1    3    3    0    0 0.19520684E+02 -.27879359E+02 0.78704709E+02 0.12517188E+03 0.91188000E+02 0.0000E+00 0.9000E+01
      -11  1    4    4    0    0 0.11771525E+03 -.16703188E+03 0.24211507E+03 0.31682209E+03 0.51099893E-03 0.0000E+00 0.9000E+01
       11  1    4    4    0    0 0.15757037E+02 0.80336266E+01 0.47933377E+01 0.18324832E+02 0.51099893E-03 0.0000E+00 0.9000E+01
       23  1    3    3    0    0 -.15299297E+03 0.18687761E+03 0.58449978E+02 0.26469179E+03 0.91188000E+02 0.0000E+00 0.9000E+01
#aMCatNLO 1  0  0  2  2 0.68184076D+03 0.00000000D+00  -5  7  0 0.00000000D+00 0.00000000D+00 0.00000000D+00 0.00000000D+00 0.00000000D+00
  <mgrwgt>
 0.3513969499D-03    3    2    0
 0.307463771309699D+03 0.000000000000000D+00 0.000000000000000D+00 0.307463771309699D+03
 0.307463771309699D+03 0.000000000000000D+00 0.000000000000000D+00 -.307463771309699D+03
 0.984235630435915D+02 0.195206835170083D+02 -.278793586981540D+02 0.146161106934880D+02
 0.222321971324736D+03 0.117715249835127D+03 -.167031877905961D+03 0.875815657154987D+02
 0.186115471439082D+02 0.157570372475657D+02 0.803362655829725D+01 -.579364380943158D+01
 0.275570461107162D+03 -.152992970599701D+03 0.186877610045818D+03 -.964040325995551D+02
 0.000000000000000D+00 -.000000000000000D+00 -.000000000000000D+00 0.000000000000000D+00
 0.118958648283082D+04 0.000000000000000D+00 0.000000000000000D+00 0.118958648283082D+04
 0.618192537839708D+03 0.000000000000000D+00 0.000000000000000D+00 -.618192537839708D+03
 0.145136594118331D+03 0.105148096002195D+03 0.384659176879763D+02 0.146161106934880D+02
 0.321700082339121D+03 0.308974778211699D+03 -.188414105854657D+02 0.875815657154987D+02
 0.470566044012260D+02 0.388437110492938D+02 0.259214934195908D+02 -.579364380943158D+01
 0.404280287901014D+03 0.860192766907478D+02 0.372067529324277D+03 -.964040325995551D+02
 0.889605451910839D+03 -.538985861953935D+03 -.417613529846378D+03 0.571393944991115D+03
0.606902373600D-05 0.000000000000D+00 0.000000000000D+00 0.525856892657D-06 0.000000000000D+00  7 1 -1 23 -11 11 23 21 0 0.85313360D-01 0.26226730D-01 0.83382568D+05 0.83382568D+05 0.83382568D+05 0.11282568D+01  1  2  2  2  7  2       -1 0.347501286395D-03 0.100000000000D+01
-.335553278932D-06 0.000000000000D+00 -.233066491569D-07 0.525856892657D-06 0.000000000000D+00  7 1 -1 23 -11 11 23 21 2 0.85313360D-01 0.26226730D-01 0.83382568D+05 0.83382568D+05 0.83382568D+05 0.11282568D+01  1  2  3  2  7  2       -1 -.244576668049D-04 0.100000000000D+01
0.389000840516D-06 0.000000000000D+00 0.000000000000D+00 0.525856892657D-06 0.000000000000D+00  7 1 -1 23 -11 11 23 21 2 0.85313360D-01 0.26226730D-01 0.83382568D+05 0.83382568D+05 0.83382568D+05 0.11282568D+01  1  2 15  2  7  2       -1 0.283533302802D-04 0.100000000000D+01
  </mgrwgt>
  </event>
  <event>
  8     66 0.56006291E-06 0.16759815E+03 0.75467711E-02 0.10435853E+00
        1 -1    0    0  501    0 0.00000000E+00 0.00000000E+00 0.75344573E+03 0.75344580E+03 0.32000000E+00 0.0000E+00 0.9000E+01
       -1 -1    0    0    0  501 0.00000000E+00 0.00000000E+00 -.14468728E+03 0.14468763E+03 0.32000000E+00 0.0000E+00 0.9000E+01
       25  2    1    2    0    0 -.13137488E+03 0.54378612E+02 0.63952195E+03 0.72674314E+03 0.31456460E+03 0.0000E+00 0.0000E+00
       23  2    1    2    0    0 0.13137488E+03 -.54378612E+02 -.30763493E+02 0.17139029E+03 0.90619247E+02 0.0000E+00 0.0000E+00
       23  1    3    3    0    0 -.14875706E+03 0.85046194E+02 0.58153798E+03 0.61307682E+03 0.91188000E+02 0.0000E+00 0.9000E+01
      -11  1    4    4    0    0 0.76687368E+02 -.51627889E+02 -.59112758E+02 0.10973017E+03 0.51099893E-03 0.0000E+00 0.9000E+01
       11  1    4    4    0    0 0.54687510E+02 -.27507227E+01 0.28349265E+02 0.61660125E+02 0.51099893E-03 0.0000E+00 0.9000E+01
       23  1    3    3    0    0 0.17382181E+02 -.30667582E+02 0.57983968E+02 0.11366632E+03 0.91188000E+02 0.0000E+00 0.9000E+01
#aMCatNLO 1  0  0  2  1 0.20996180D+02 0.00000000D+00  -5  7  0 0.00000000D+00 0.00000000D+00 0.00000000D+00 0.00000000D+00 0.00000000D+00
  <mgrwgt>
 0.9171469924D-04    9    2    0
 0.330172990097667D+03 0.000000000000000D+00 0.000000000000000D+00 0.330172990097667D+03
 0.330172990097667D+03 0.000000000000000D+00 0.000000000000000D+00 -.330172990097667D+03
 0.297735789590995D+03 -.148757058723060D+03 0.850461938267611D+02 0.225764991650651D+03
 0.203738233050092D+03 0.766873677847858D+02 -.516278893380650D+02 -.181556812791784D+03
 0.577290789313429D+02 0.546875097850104D+02 -.275072266795554D+01 -.182854136562345D+02
 0.101142878622904D+03 0.173821811532635D+02 -.306675818207406D+02 -.259227652026321D+02
 0.000000000000000D+00 0.000000000000000D+00 -.000000000000000D+00 -.000000000000000D+00
 0.337947337491674D+03 0.000000000000000D+00 0.000000000000000D+00 0.337947337491674D+03
 0.344826865055540D+03 0.000000000000000D+00 0.000000000000000D+00 -.344826865055540D+03
 0.301056260034502D+03 -.149722594203672D+03 0.945141983612290D+02 0.225764991650651D+03
 0.201960742029624D+03 0.760331895018039D+02 -.452130417493468D+02 -.181556812791784D+03
 0.574948340016942D+02 0.545017144388275D+02 -.928820505407714D+00 -.182854136562345D+02
 0.100167854202817D+03 0.170575732108355D+02 -.274844885708835D+02 -.259227652026321D+02
 0.220945122785769D+02 0.213011705220459D+01 -.208878475355910D+02 -.687952756386643D+01
0.140445058538D-05 0.000000000000D+00 0.000000000000D+00 0.152376834334D-08 0.000000000000D+00  7 1 -1 23 -11 11 23 21 0 0.11591476D+00 0.22259614D-01 0.48196244D+05 0.48196244D+05 0.48196244D+05 0.11487016D+01  1  2  2  2  7  2       -1 0.674383877975D-04 0.100000000000D+01
-.622254521431D-07 0.000000000000D+00 -.539346004818D-08 0.152376834334D-08 0.000000000000D+00  7 1 -1 23 -11 11 23 21 2 0.11591476D+00 0.22259614D-01 0.48196244D+05 0.48196244D+05 0.48196244D+05 0.11487016D+01  1  2  3  2  7  2       -1 -.394260458152D-05 0.100000000000D+01
0.865468374662D-07 0.000000000000D+00 0.000000000000D+00 0.152376834334D-08 0.000000000000D+00  7 1 -1 23 -11 11 23 21 2 0.11591476D+00 0.22259614D-01 0.48196244D+05 0.48196244D+05 0.48196244D+05 0.11487016D+01  1  2 15  2  7  2       -1 0.548360752969D-05 0.100000000000D+01
0.367123265352D-05 0.000000000000D+00 0.000000000000D+00 0.152376834334D-08 0.000000000000D+00  7 1 -1 23 -11 11 23 21 2 0.11591476D+00 0.23500612D-01 0.52872998D+05 0.52872998D+05 0.52872998D+05 0.11451672D+01  1  2 12  2  7  2       -1 0.211640928667D-03 0.100000000000D+01
-.338508056788D-05 0.000000000000D+00 0.000000000000D+00 0.152376834334D-08 0.000000000000D+00  7 1 -1 23 -11 11 23 21 2 0.11591476D+00 0.22259614D-01 0.48196244D+05 0.48196244D+05 0.48196244D+05 0.11487016D+01  1  2  4  2  7  2       -1 -.214478701176D-03 0.100000000000D+01
-.150001373586D-04 0.000000000000D+00 -.279441792767D-05 0.152376834334D-08 0.000000000000D+00  7 1 -1 23 -11 11 23 21 2 0.11591476D+00 0.23770185D-01 0.48196244D+05 0.48196244D+05 0.48196244D+05 0.11487016D+01  1  2  5  2  7  2       -1 -.855153682955D-03 0.100000000000D+01
0.151569435729D-04 0.000000000000D+00 0.278840538714D-05 0.152376834334D-08 0.000000000000D+00  7 1 -1 23 -11 11 23 21 2 0.11591476D+00 0.22259614D-01 0.48196244D+05 0.48196244D+05 0.48196244D+05 0.11487016D+01  1  2  6  2  7  2       -1 0.960343928634D-03 0.100000000000D+01
0.449124515401D-07 0.000000000000D+00 0.000000000000D+00 0.152376834334D-08 0.000000000000D+00  7 1 21 23 -11 11 23 1 2 0.11591476D+00 0.23500612D-01 0.52872998D+05 0.52872998D+05 0.52872998D+05 0.11451672D+01  1  2 12  4  7  2       -1 0.306073903388D-04 0.100000000000D+01
-.163628255231D-06 0.000000000000D+00 -.312569250121D-07 0.152376834334D-08 0.000000000000D+00  7 1 21 23 -11 11 23 1 2 0.11591476D+00 0.23770185D-01 0.48196244D+05 0.48196244D+05 0.48196244D+05 0.11487016D+01  1  2  5  4  7  2       -1 -.110224555013D-03 0.100000000000D+01
  </mgrwgt>
  </event>
  <event>
  8     66 0.56006291E-06 0.13173857E+03 0.75467711E-02 0.98812621E-01
        1 -1    0    0  501    0 0.00000000E+00 0.00000000E+00 0.50324530E+03 0.50324541E+03 0.32000000E+00 0.0000E+00 0.9000E+01
       -1 -1    0    0    0  501 0.00000000E+00 0.00000000E+00 -.35752647E+03 0.35752661E+03 0.32000000E+00 0.0000E+00 0.9000E+01
       25  2    1    2    0    0 -.19175400E+03 -.17064355E+03 0.34171262E+03 0.52515511E+03 0.30517463E+03 0.0000E+00 0.0000E+00
       23  2    1    2    0    0 0.19175400E+03 0.17064355E+03 -.19599379E+03 0.33561691E+03 0.91303507E+02 0.0000E+00 0.0000E+00
       23  1    3    3    0    0 -.14650458E+03 0.13634506E+02 0.84071902E+02 0.19243916E+03 0.91188000E+02 0.0000E+00 0.9000E+01
      -13  1    4    4    0    0 0.16129226E+03 0.87492083E+02 -.14054485E+03 0.23113400E+03 0.10565837E+00 0.0000E+00 0.9000E+01
       13  1    4    4    0    0 0.30461736E+02 0.83151467E+02 -.55448932E+02 0.10448291E+03 0.10565837E+00 0.0000E+00 0.9000E+01
       23  1    3    3    0    0 -.45249417E+02 -.18427806E+03 0.25764072E+03 0.33271595E+03 0.91188000E+02 0.0000E+00 0.9000E+01
#aMCatNLO 1  0  0  2  1 0.44306787D+02 0.00000000D+00  -5  7  0 0.00000000D+00 0.00000000D+00 0.00000000D+00 0.00000000D+00 0.00000000D+00
  <mgrwgt>
 0.1313971740D-03    9    2    0
 0.424174047804245D+03 0.000000000000000D+00 0.000000000000000D+00 0.424174047804245D+03
 0.424174047804245D+03 0.000000000000000D+00 0.000000000000000D+00 -.424174047804245D+03
 0.180816556982031D+03 -.146504583752672D+03 0.136345064589648D+02 0.522482833011093D+02
 0.258660185341501D+03 0.161292439308279D+03 0.874920891450267D+02 -.182304621005403D+03
 0.115537194791455D+03 0.304615613969681D+02 0.831514609654952D+02 -.742076222287238D+02
 0.293334158493504D+03 -.452494169525746D+02 -.184278056569487D+03 0.204263959933017D+03
 0.000000000000000D+00 -.000000000000000D+00 -.000000000000000D+00 -.000000000000000D+00
 0.438519570775482D+03 0.000000000000000D+00 0.000000000000000D+00 0.438519570775482D+03
 0.460399584784538D+03 0.000000000000000D+00 0.000000000000000D+00 -.460399584784538D+03
 0.176533969211666D+03 -.140334094360746D+03 0.206264343419254D+02 0.522482833011093D+02
 0.268012767867417D+03 0.170386674890931D+03 0.977969831827274D+02 -.182304621005403D+03
 0.120003461697907D+03 0.345287195951547D+02 0.877600543855764D+02 -.742076222287238D+02
 0.284954117098211D+03 -.352639225753258D+02 -.172963256052565D+03 0.204263959933017D+03
 0.494148396848193D+02 -.293173775500138D+02 -.332202158576645D+02 -.218800140090567D+02
0.472023176659D-05 0.000000000000D+00 0.000000000000D+00 0.148129927362D-07 0.000000000000D+00  7 1 -1 23 -13 13 23 21 0 0.77422373D-01 0.55004091D-01 0.10747869D+06 0.10747869D+06 0.10747869D+06 0.11191607D+01  1  2  2  2  7  2       -1 0.859933355494D-04 0.100000000000D+01
-.241074341540D-06 0.000000000000D+00 -.181269328493D-07 0.148129927362D-07 0.000000000000D+00  7 1 -1 23 -13 13 23 21 2 0.77422373D-01 0.55004091D-01 0.10747869D+06 0.10747869D+06 0.10747869D+06 0.11191607D+01  1  2  3  2  7  2       -1 -.550094585769D-05 0.100000000000D+01
0.300355448862D-06 0.000000000000D+00 0.000000000000D+00 0.148129927362D-07 0.000000000000D+00  7 1 -1 23 -13 13 23 21 2 0.77422373D-01 0.55004091D-01 0.10747869D+06 0.10747869D+06 0.10747869D+06 0.11191607D+01  1  2 15  2  7  2       -1 0.685364959082D-05 0.100000000000D+01
0.110760881510D-04 0.000000000000D+00 0.000000000000D+00 0.148129927362D-07 0.000000000000D+00  7 1 -1 23 -13 13 23 21 2 0.77422373D-01 0.60573937D-01 0.12333501D+06 0.12333501D+06 0.12333501D+06 0.11143231D+01  1  2 12  2  7  2       -1 0.208879366205D-03 0.100000000000D+01
-.107566201549D-04 0.000000000000D+00 0.000000000000D+00 0.148129927362D-07 0.000000000000D+00  7 1 -1 23 -13 13 23 21 2 0.77422373D-01 0.55004091D-01 0.10747869D+06 0.10747869D+06 0.10747869D+06 0.11191607D+01  1  2  4  2  7  2       -1 -.245449535217D-03 0.100000000000D+01
-.276334415136D-04 0.000000000000D+00 -.558943360351D-05 0.148129927362D-07 0.000000000000D+00  7 1 -1 23 -13 13 23 21 2 0.77422373D-01 0.61360976D-01 0.10747869D+06 0.10747869D+06 0.10747869D+06 0.11191607D+01  1  2  5  2  7  2       -1 -.514878321319D-03 0.100000000000D+01
0.281097219225D-04 0.000000000000D+00 0.555617170216D-05 0.148129927362D-07 0.000000000000D+00  7 1 -1 23 -13 13 23 21 2 0.77422373D-01 0.55004091D-01 0.10747869D+06 0.10747869D+06 0.10747869D+06 0.11191607D+01  1  2  6  2  7  2       -1 0.641420639717D-03 0.100000000000D+01
0.174368334631D-06 0.000000000000D+00 0.000000000000D+00 0.148129927362D-07 0.000000000000D+00  7 1 21 23 -13 13 23 1 2 0.77422373D-01 0.60573937D-01 0.12333501D+06 0.12333501D+06 0.12333501D+06 0.11143231D+01  1  2 12  4  7  2       -1 0.283228554724D-04 0.100000000000D+01
-.462908251156D-06 0.000000000000D+00 -.980379169456D-07 0.148129927362D-07 0.000000000000D+00  7 1 21 23 -13 13 23 1 2 0.77422373D-01 0.61360976D-01 0.10747869D+06 0.10747869D+06 0.10747869D+06 0.11191607D+01  1  2  5  4  7  2       -1 -.742438701081D-04 0.100000000000D+01
  </mgrwgt>
  </event>
  <event>
  8     66 0.56006291E-06 0.20503060E+03 0.75467711E-02 0.10400792E+00
        1 -1    0    0  501    0 0.00000000E+00 0.00000000E+00 0.21078721E+04 0.21078721E+04 0.32000000E+00 0.0000E+00 0.9000E+01
       -1 -1    0    0    0  501 0.00000000E+00 0.00000000E+00 -.22543723E+02 0.22545994E+02 0.32000000E+00 0.0000E+00 0.9000E+01
       25  2    1    2    0    0 0.82688854E+02 -.51171207E+01 0.14044685E+04 0.14388973E+04 0.30171179E+03 0.0000E+00 0.0000E+00
       23  2    1    2    0    0 -.82688854E+02 0.51171207E+01 0.68085980E+03 0.69152075E+03 0.88132038E+02 0.0000E+00 0.0000E+00
       23  1    3    3    0    0 -.45722439E+02 0.64740115E+02 0.84225148E+03 0.85087286E+03 0.91188000E+02 0.0000E+00 0.9000E+01
      -13  1    4    4    0    0 -.29459113E+02 -.38257891E+02 0.19796879E+03 0.20377232E+03 0.10565837E+00 0.0000E+00 0.9000E+01
       13  1    4    4    0    0 -.53229741E+02 0.43375012E+02 0.48289100E+03 0.48774843E+03 0.10565837E+00 0.0000E+00 0.9000E+01
       23  1    3    3    0    0 0.12841129E+03 -.69857236E+02 0.56221706E+03 0.58802446E+03 0.91188000E+02 0.0000E+00 0.9000E+01
#aMCatNLO 1  0  0  2  2 0.57768048D+02 0.00000000D+00  -5  7  0 0.00000000D+00 0.00000000D+00 0.00000000D+00 0.00000000D+00 0.00000000D+00
  <mgrwgt>
 0.2020027789D-03    4    2    0
 0.217994789679169D+03 0.000000000000000D+00 0.000000000000000D+00 0.217994789679169D+03
 0.217994789679169D+03 0.000000000000000D+00 0.000000000000000D+00 -.217994789679169D+03
 0.129232550391760D+03 -.457223994970564D+02 0.647401124344304D+02 0.458691700706220D+02
 0.488320838070092D+02 -.294591221027845D+02 -.382579455936650D+02 -.728437593896539D+01
 0.736755961305047D+02 -.532298280115243D+02 0.433750722631459D+02 0.267073394634443D+02
 0.184249349029064D+03 0.128411349611365D+03 -.698572391039114D+02 -.652921335951009D+02
 0.000000000000000D+00 -.000000000000000D+00 0.000000000000000D+00 0.000000000000000D+00
 0.313556712048149D+03 0.000000000000000D+00 0.000000000000000D+00 0.313556712048149D+03
 0.228807936588072D+03 0.000000000000000D+00 0.000000000000000D+00 -.228807936588072D+03
 0.122110756655630D+03 -.298308085424217D+02 0.600160615647855D+02 0.458691700706220D+02
 0.469618005163800D+02 -.234023973643936D+02 -.400584120069570D+02 -.728437593896539D+01
 0.659213910988920D+02 -.444035805748632D+02 0.407513172220120D+02 0.267073394634443D+02
 0.204806075252893D+03 0.153010014019823D+03 -.771696184825782D+02 -.652921335951009D+02
 0.102564625112426D+03 -.553732275381445D+02 0.164606517027377D+02 0.847487754600772D+02
0.232192546991D-05 0.000000000000D+00 0.000000000000D+00 0.140449778200D-08 0.000000000000D+00  7 1 -1 23 -13 13 23 21 0 0.32428819D+00 0.34684416D-02 0.42037546D+05 0.42037546D+05 0.42037546D+05 0.11539812D+01  1  2  2  2  7  2       -1 0.216750494660D-03 0.100000000000D+01
-.128406273307D-06 0.000000000000D+00 -.891680518149D-08 0.140449778200D-08 0.000000000000D+00  7 1 -1 23 -13 13 23 21 2 0.32428819D+00 0.34684416D-02 0.42037546D+05 0.42037546D+05 0.42037546D+05 0.11539812D+01  1  2  3  2  7  2       -1 -.159623010082D-04 0.100000000000D+01
0.152244418666D-06 0.000000000000D+00 0.000000000000D+00 0.140449778200D-08 0.000000000000D+00  7 1 -1 23 -13 13 23 21 2 0.32428819D+00 0.34684416D-02 0.42037546D+05 0.42037546D+05 0.42037546D+05 0.11539812D+01  1  2 15  2  7  2       -1 0.189256426105D-04 0.100000000000D+01
-.142473875004D-06 0.000000000000D+00 0.000000000000D+00 0.140449778200D-08 0.000000000000D+00  7 1 -1 23 -13 13 23 21 2 0.32428819D+00 0.34684416D-02 0.42037546D+05 0.42037546D+05 0.42037546D+05 0.11539812D+01  1  2  4  2  7  2       -1 -.177110574121D-04 0.100000000000D+01
  </mgrwgt>
  </event>
  <event>
  9     66 0.56006291E-06 0.36841002E+03 0.75467711E-02 0.98086512E-01
       21 -1    0    0  501  502 0.00000000E+00 0.00000000E+00 0.83464429E+03 0.83464462E+03 0.75000000E+00 0.0000E+00 0.9000E+01
       -1 -1    0    0    0  501 0.00000000E+00 0.00000000E+00 -.35407485E+03 0.35407499E+03 0.32000000E+00 0.0000E+00 0.9000E+01
       25  2    1    2    0    0 0.30214153E+03 0.11042642E+03 -.11935686E+03 0.45569034E+03 0.29987352E+03 0.0000E+00 0.0000E+00
       23  2    1    2    0    0 -.31006543E+03 -.11028600E+03 0.62145768E+03 0.71008345E+03 0.98515474E+02 0.0000E+00 0.0000E+00
       23  1    3    3    0    0 0.18784927E+03 -.11190167E+02 0.33393570E+02 0.21176154E+03 0.91188000E+02 0.0000E+00 0.9000E+01
      -13  1    4    4    0    0 -.11237115E+03 -.79904981E+02 0.19251943E+03 0.23680335E+03 0.10565837E+00 0.0000E+00 0.9000E+01
       13  1    4    4    0    0 -.19769428E+03 -.30381015E+02 0.42893824E+03 0.47328011E+03 0.10565837E+00 0.0000E+00 0.9000E+01
       23  1    3    3    0    0 0.11429226E+03 0.12161659E+03 -.15275043E+03 0.24392880E+03 0.91188000E+02 0.0000E+00 0.9000E+01
       -1  1    1    2    0  502 0.79239003E+01 -.14042910E+00 -.21531382E+02 0.22945821E+02 0.32000000E+00 0.0000E+00 0.9000E+01
#aMCatNLO 2  0  0  1  2 0.79251445D+01 0.00000000D+00  -5  7  0 0.00000000D+00 0.00000000D+00 0.00000000D+00 0.00000000D+00 0.00000000D+00
  <mgrwgt>
 0.3125789930D-05    1    2    0
 0.526037188796946D+03 0.000000000000000D+00 0.000000000000000D+00 0.526037188796946D+03
 0.526037188796946D+03 0.000000000000000D+00 0.000000000000000D+00 -.526037188796946D+03
 0.220126248326604D+03 0.189501812647032D+03 -.112194531426692D+02 -.640585726738769D+02
 0.169679631740256D+03 -.111089968609158D+03 -.799277371484168D+02 0.100308290466237D+03
 0.318233431304350D+03 -.195292014105404D+03 -.304235373565705D+02 0.249415224878331D+03
 0.344035066222681D+03 0.116880170067529D+03 0.121570727647656D+03 -.285664942670691D+03
 0.000000000000000D+00 0.000000000000000D+00 -.000000000000000D+00 -.000000000000000D+00
 0.526497514887860D+03 0.000000000000000D+00 0.000000000000000D+00 0.526497514887860D+03
 0.561305650300235D+03 0.000000000000000D+00 0.000000000000000D+00 -.561305650300235D+03
 0.218703726822202D+03 0.187849269959747D+03 -.111901664194925D+02 -.640585726738769D+02
 0.170510472661211D+03 -.112371053997923D+03 -.799050334727810D+02 0.100308290466237D+03
 0.319709278566613D+03 -.197694374062120D+03 -.303809622076413D+02 0.249415224878331D+03
 0.343180748681166D+03 0.114292257814905D+03 0.121616591194983D+03 -.285664942670691D+03
 0.356989384569039D+02 0.792390028539118D+01 -.140429095068567D+00 -.348081354123752D+02
0.170835251055D-06 0.000000000000D+00 0.000000000000D+00 0.724229535288D-07 0.129579137578D-11  7 21 -1 23 -13 13 23 -1 2 0.12840668D+00 0.54473016D-01 0.13879980D+06 0.13879980D+06 0.13879980D+06 0.11102214D+01  1  2  1  3  7  1        1 0.312578993020D-05 0.100000000000D+01
  </mgrwgt>
  </event>
  <event>
  8     66 0.56006291E-06 0.20678636E+03 0.75467711E-02 0.98569741E-01
        1 -1    0    0  501    0 0.00000000E+00 0.00000000E+00 0.11170441E+04 0.11170442E+04 0.32000000E+00 0.0000E+00 0.9000E+01
       -1 -1    0    0    0  501 0.00000000E+00 0.00000000E+00 -.34590599E+03 0.34590614E+03 0.32000000E+00 0.0000E+00 0.9000E+01
       25  2    1    2    0    0 -.13623201E+03 0.25177032E+03 -.19014463E+03 0.45585960E+03 0.29950883E+03 0.0000E+00 0.0000E+00
       23  2    1    2    0    0 0.13623201E+03 -.25177032E+03 0.96128277E+03 0.10070907E+04 0.90662609E+02 0.0000E+00 0.0000E+00
       23  1    3    3    0    0 0.41078439E+02 0.17161992E+03 -.77351162E+02 0.21316493E+03 0.91188000E+02 0.0000E+00 0.9000E+01
      -11  1    4    4    0    0 0.67917110E+02 -.62277133E+02 0.40813883E+03 0.41841185E+03 0.51099893E-03 0.0000E+00 0.9000E+01
       11  1    4    4    0    0 0.68314901E+02 -.18949319E+03 0.55314394E+03 0.58867887E+03 0.51099893E-03 0.0000E+00 0.9000E+01
       23  1    3    3    0    0 -.17731045E+03 0.80150403E+02 -.11279347E+03 0.24269467E+03 0.91188000E+02 0.0000E+00 0.9000E+01
#aMCatNLO 1  0  0  1  2 0.10146810D+02 0.00000000D+00  -5  7  0 0.00000000D+00 0.00000000D+00 0.00000000D+00 0.00000000D+00 0.00000000D+00
  <mgrwgt>
 0.3691758718D-03    9    2    0
 0.621604699688411D+03 0.000000000000000D+00 0.000000000000000D+00 0.621604699688411D+03
 0.621604699688411D+03 0.000000000000000D+00 0.000000000000000D+00 -.621604699688411D+03
 0.298821853566288D+03 0.410784393537751D+02 0.171619919834687D+03 -.223245187542724D+03
 0.239206958498640D+03 0.679171101765582D+02 -.622771326017239D+02 0.220745994061824D+03
 0.349625374595904D+03 0.683149005886422D+02 -.189493189962136D+03 0.285767926606301D+03
 0.355555212715989D+03 -.177310450118975D+03 0.801504027291728D+02 -.283268733125401D+03
 0.000000000000000D+00 0.000000000000000D+00 -.000000000000000D+00 0.000000000000000D+00
 0.626956237169477D+03 0.000000000000000D+00 0.000000000000000D+00 0.626956237169477D+03
 0.626453811001908D+03 0.000000000000000D+00 0.000000000000000D+00 -.626453811001908D+03
 0.299769479961104D+03 0.396453977230801D+02 0.173598152209474D+03 -.223245187542724D+03
 0.238478094612123D+03 0.667735210045690D+02 -.606984728649594D+02 0.220745994061824D+03
 0.348057419181850D+03 0.666446316881363D+02 -.187187478848929D+03 0.285767926606301D+03
 0.356945812982379D+03 -.179016194212733D+03 0.825050853267307D+02 -.283268733125401D+03
 0.101592414339283D+02 0.595264379694742D+01 -.821728582231693D+01 0.502426167568341D+00
0.210776727520D-04 0.000000000000D+00 0.000000000000D+00 0.170881311856D-05 0.000000000000D+00  7 1 -1 23 -11 11 23 21 0 0.17185296D+00 0.53216322D-01 0.12499970D+06 0.12499970D+06 0.12499970D+06 0.11138552D+01  1  2  2  1  7  1        1 0.116619611124D-03 0.100000000000D+01
-.717659435083D-06 0.000000000000D+00 -.809438132465D-07 0.170881311856D-05 0.000000000000D+00  7 1 -1 23 -11 11 23 21 2 0.17185296D+00 0.53216322D-01 0.12499970D+06 0.12499970D+06 0.12499970D+06 0.11138552D+01  1  2  3  1  7  1        1 -.492634513632D-05 0.100000000000D+01
0.129907909841D-05 0.000000000000D+00 0.000000000000D+00 0.170881311856D-05 0.000000000000D+00  7 1 -1 23 -11 11 23 21 2 0.17185296D+00 0.53216322D-01 0.12499970D+06 0.12499970D+06 0.12499970D+06 0.11138552D+01  1  2 15  1  7  1        1 0.891747768551D-05 0.100000000000D+01
0.883170233381D-05 0.000000000000D+00 0.000000000000D+00 0.170881311856D-05 0.000000000000D+00  7 1 -1 23 -11 11 23 21 2 0.17399731D+00 0.53216322D-01 0.12828063D+06 0.12828063D+06 0.12828063D+06 0.11129528D+01  1  2 12  1  7  1        1 0.590840890300D-04 0.100000000000D+01
-.692355303320D-05 0.000000000000D+00 0.000000000000D+00 0.170881311856D-05 0.000000000000D+00  7 1 -1 23 -11 11 23 21 2 0.17185296D+00 0.53216322D-01 0.12499970D+06 0.12499970D+06 0.12499970D+06 0.11138552D+01  1  2  4  1  7  1        1 -.475264591307D-04 0.100000000000D+01
-.138604218197D-02 0.000000000000D+00 -.178352841029D-03 0.170881311856D-05 0.000000000000D+00  7 1 -1 23 -11 11 23 21 2 0.17427074D+00 0.53216322D-01 0.12499970D+06 0.12499970D+06 0.12499970D+06 0.11138552D+01  1  2  5  1  7  1        1 -.927030538690D-02 0.100000000000D+01
0.138841582419D-02 0.000000000000D+00 0.178335436608D-03 0.170881311856D-05 0.000000000000D+00  7 1 -1 23 -11 11 23 21 2 0.17185296D+00 0.53216322D-01 0.12499970D+06 0.12499970D+06 0.12499970D+06 0.11138552D+01  1  2  6  1  7  1        1 0.953072614713D-02 0.100000000000D+01
0.558737299174D-06 0.000000000000D+00 0.000000000000D+00 0.170881311856D-05 0.000000000000D+00  7 21 -1 23 -11 11 23 -1 2 0.17399731D+00 0.53216322D-01 0.12828063D+06 0.12828063D+06 0.12828063D+06 0.11129528D+01  1  2 12  3  7  1        1 0.438972812862D-05 0.100000000000D+01
-.354304396606D-05 0.000000000000D+00 -.457561680652D-06 0.170881311856D-05 0.000000000000D+00  7 21 -1 23 -11 11 23 -1 2 0.17427074D+00 0.53216322D-01 0.12499970D+06 0.12499970D+06 0.12499970D+06 0.11138552D+01  1  2  5  3  7  1        1 -.278029900980D-04 0.100000000000D+01
  </mgrwgt>
  </event>
  <event>
  9     66 -.56006291E-06 0.39428448E+03 0.75467711E-02 0.97185197E-01
        1 -1    0    0  502    0 0.00000000E+00 0.00000000E+00 0.14229540E+04 0.14229540E+04 0.32000000E+00 0.0000E+00 0.9000E+01
       -1 -1    0    0    0  501 0.00000000E+00 0.00000000E+00 -.55511714E+03 0.55511723E+03 0.32000000E+00 0.0000E+00 0.9000E+01
       25  2    1    2    0    0 0.30158113E+03 -.18845849E+03 0.12939216E+04 0.13752112E+04 0.30084041E+03 0.0000E+00 0.0000E+00
       23  2    1    2    0    0 -.31548959E+03 0.18901522E+03 -.44274076E+03 0.58114047E+03 0.80277182E+02 0.0000E+00 0.0000E+00
       23  1    3    3    0    0 0.12195602E+03 -.15342295E+03 0.36634208E+03 0.42536296E+03 0.91188000E+02 0.0000E+00 0.9000E+01
      -11  1    4    4    0    0 -.26352779E+03 0.16571727E+03 -.32325924E+03 0.44878240E+03 0.51099893E-03 0.0000E+00 0.9000E+01
       11  1    4    4    0    0 -.51961807E+02 0.23297951E+02 -.11948153E+03 0.13235807E+03 0.51099893E-03 0.0000E+00 0.9000E+01
       23  1    3    3    0    0 0.17962511E+03 -.35035543E+02 0.92757950E+03 0.94984822E+03 0.91188000E+02 0.0000E+00 0.9000E+01
       21  1    1    2  502  501 0.13908461E+02 -.55672726E+00 0.16656047E+02 0.21719614E+02 0.75000000E+00 0.0000E+00 0.9000E+01
#aMCatNLO 2  0  0  1  2 0.13919599D+02 0.00000000D+00  -5  7  0 0.00000000D+00 0.00000000D+00 0.00000000D+00 0.00000000D+00 0.00000000D+00
  <mgrwgt>
 -.2972231945D-03    3    2    0
 0.880711252288784D+03 0.000000000000000D+00 0.000000000000000D+00 0.880711252288784D+03
 0.880711252288784D+03 0.000000000000000D+00 0.000000000000000D+00 -.880711252288784D+03
 0.296418267893380D+03 0.124292521365384D+03 -.153516477355250D+03 0.201327093333168D+03
 0.652524150439701D+03 -.258367096354895D+03 0.165510698555715D+03 -.575882296213205D+03
 0.204325556342976D+03 -.503468224631484D+02 0.232333069397632D+02 -.196657936253215D+03
 0.608154529901510D+03 0.184421397452659D+03 -.352275281402277D+02 0.571213139133253D+03
 0.000000000000000D+00 0.000000000000000D+00 -.000000000000000D+00 0.000000000000000D+00
 0.892768600380011D+03 0.000000000000000D+00 0.000000000000000D+00 0.892768600380011D+03
 0.884765303527420D+03 0.000000000000000D+00 0.000000000000000D+00 -.884765303527420D+03
 0.295397569074246D+03 0.121956023713220D+03 -.153422952132503D+03 0.201327093333168D+03
 0.654636943411074D+03 -.263527787630802D+03 0.165717270473587D+03 -.575882296213205D+03
 0.204736825699296D+03 -.519618067801068D+02 0.232979514592378D+02 -.196657936253215D+03
 0.606706165182968D+03 0.179625109512284D+03 -.350355425426516D+02 0.571213139133253D+03
 0.160564005398478D+02 0.139084611854044D+02 -.556727257670690D+00 0.800329685259088D+01
-.195278398835D-03 0.000000000000D+00 0.000000000000D+00 0.365370960026D-07 0.000000000000D+00  7 1 -1 23 -11 11 23 21 2 0.21940630D+00 0.85010487D-01 0.16112281D+06 0.16112281D+06 0.16112281D+06 0.11051087D+01  1  2 13  1  7  1        1 -.321728353554D-03 0.100000000000D+01
-.395581540593D-02 0.000000000000D+00 0.000000000000D+00 0.365370960026D-07 0.000000000000D+00  7 1 -1 23 -11 11 23 21 2 0.21595729D+00 0.85010487D-01 0.15546025D+06 0.15546025D+06 0.15546025D+06 0.11063286D+01  1  2  8  1  7  1        1 -.677740118578D-02 0.100000000000D+01
0.414750797636D-02 0.000000000000D+00 0.000000000000D+00 0.365370960026D-07 0.122837953009D-08  7 1 -1 23 -11 11 23 21 2 0.21891385D+00 0.85401803D-01 0.16112281D+06 0.16112281D+06 0.16112281D+06 0.11051087D+01  1  2  1  1  7  1        1 0.680190634483D-02 0.100000000000D+01
  </mgrwgt>
  </event>
  <event>
  8     66 0.56006291E-06 0.19810647E+03 0.75467711E-02 0.97536609E-01
        1 -1    0    0  501    0 0.00000000E+00 0.00000000E+00 0.93918982E+03 0.93918987E+03 0.32000000E+00 0.0000E+00 0.9000E+01
       -1 -1    0    0    0  501 0.00000000E+00 0.00000000E+00 -.18122090E+03 0.18122118E+03 0.32000000E+00 0.0000E+00 0.9000E+01
       25  2    1    2    0    0 -.13737795E+03 0.31700083E+03 0.33450386E+03 0.56614171E+03 0.29876643E+03 0.0000E+00 0.0000E+00
       23  2    1    2    0    0 0.13737795E+03 -.31700083E+03 0.42346506E+03 0.55426934E+03 0.92355958E+02 0.0000E+00 0.0000E+00
       23  1    3    3    0    0 -.48609300E+02 0.57654093E+02 0.23050736E+03 0.25910568E+03 0.91188000E+02 0.0000E+00 0.9000E+01
      -11  1    4    4    0    0 0.10590003E+03 -.30025155E+03 0.35348144E+03 0.47572570E+03 0.51099893E-03 0.0000E+00 0.9000E+01
       11  1    4    4    0    0 0.31477917E+02 -.16749278E+02 0.69983615E+02 0.78543644E+02 0.51099893E-03 0.0000E+00 0.9000E+01
       23  1    3    3    0    0 -.88768646E+02 0.25934674E+03 0.10399650E+03 0.30703604E+03 0.91188000E+02 0.0000E+00 0.9000E+01
#aMCatNLO 1  0  0  2  1 0.18222566D+02 0.00000000D+00  -5  7  0 0.00000000D+00 0.00000000D+00 0.00000000D+00 0.00000000D+00 0.00000000D+00
  <mgrwgt>
 0.1609875033D-03    9    2    0
 0.412554254942754D+03 0.000000000000000D+00 0.000000000000000D+00 0.412554254942754D+03
 0.412554254942754D+03 0.000000000000000D+00 0.000000000000000D+00 -.412554254942754D+03
 0.140087577456439D+03 -.486092996062231D+02 0.576540933742294D+02 0.749827948438974D+02
 0.321267304870696D+03 0.105900028958132D+03 -.300251553218071D+03 0.429752235094095D+02
 0.423650479537518D+02 0.314779166650768D+02 -.167492783756393D+02 0.228779309476514D+02
 0.321388579604619D+03 -.887686460169861D+02 0.259346738219481D+03 -.140835949300958D+03
 0.000000000000000D+00 -.000000000000000D+00 -.000000000000000D+00 -.000000000000000D+00
 0.416530016963283D+03 0.000000000000000D+00 0.000000000000000D+00 0.416530016963283D+03
 0.434077302755698D+03 0.000000000000000D+00 0.000000000000000D+00 -.434077302755698D+03
 0.139486762402265D+03 -.456689737180312D+02 0.585937783250549D+02 0.749827948438974D+02
 0.321554835872199D+03 0.112660687260624D+03 -.298090946160861D+03 0.429752235094095D+02
 0.429249686286317D+02 0.323749247520430D+02 -.164626077710386D+02 0.228779309476514D+02
 0.321343141617967D+03 -.820089386703533D+02 0.261507041365171D+03 -.140835949300958D+03
 0.252976111979180D+02 -.173576996242823D+02 -.554726575832634D+01 -.175472857924158D+02
0.561767812974D-05 0.000000000000D+00 0.000000000000D+00 0.947763090665D-07 0.000000000000D+00  7 1 -1 23 -11 11 23 21 0 0.14449077D+00 0.27880164D-01 0.14487707D+06 0.14487707D+06 0.14487707D+06 0.11087448D+01  1  2  2  2  7  2       -1 0.128910490831D-03 0.100000000000D+01
-.309631345521D-06 0.000000000000D+00 -.215733631868D-07 0.947763090665D-07 0.000000000000D+00  7 1 -1 23 -11 11 23 21 2 0.14449077D+00 0.27880164D-01 0.14487707D+06 0.14487707D+06 0.14487707D+06 0.11087448D+01  1  2  3  2  7  2       -1 -.873452977425D-05 0.100000000000D+01
0.352944204559D-06 0.000000000000D+00 0.000000000000D+00 0.947763090665D-07 0.000000000000D+00  7 1 -1 23 -11 11 23 21 2 0.14449077D+00 0.27880164D-01 0.14487707D+06 0.14487707D+06 0.14487707D+06 0.11087448D+01  1  2 15  2  7  2       -1 0.995636167967D-05 0.100000000000D+01
0.280554321727D-04 0.000000000000D+00 0.000000000000D+00 0.947763090665D-07 0.000000000000D+00  7 1 -1 23 -11 11 23 21 2 0.14449077D+00 0.29464658D-01 0.15197061D+06 0.15197061D+06 0.15197061D+06 0.11071049D+01  1  2 12  2  7  2       -1 0.718836406684D-03 0.100000000000D+01
-.284784799512D-04 0.000000000000D+00 0.000000000000D+00 0.947763090665D-07 0.000000000000D+00  7 1 -1 23 -11 11 23 21 2 0.14449077D+00 0.27880164D-01 0.14487707D+06 0.14487707D+06 0.14487707D+06 0.11087448D+01  1  2  4  2  7  2       -1 -.803362239183D-03 0.100000000000D+01
-.981265558340D-04 0.000000000000D+00 -.123305248909D-04 0.947763090665D-07 0.000000000000D+00  7 1 -1 23 -11 11 23 21 2 0.14449077D+00 0.29573267D-01 0.14487707D+06 0.14487707D+06 0.14487707D+06 0.11087448D+01  1  2  5  2  7  2       -1 -.250897465968D-02 0.100000000000D+01
0.987033209170D-04 0.000000000000D+00 0.123091270975D-04 0.947763090665D-07 0.000000000000D+00  7 1 -1 23 -11 11 23 21 2 0.14449077D+00 0.27880164D-01 0.14487707D+06 0.14487707D+06 0.14487707D+06 0.11087448D+01  1  2  6  2  7  2       -1 0.278436633706D-02 0.100000000000D+01
0.401345887680D-06 0.000000000000D+00 0.000000000000D+00 0.947763090665D-07 0.000000000000D+00  7 1 21 23 -11 11 23 1 2 0.14449077D+00 0.29464658D-01 0.15197061D+06 0.15197061D+06 0.15197061D+06 0.11071049D+01  1  2 12  4  7  2       -1 0.111324450904D-03 0.100000000000D+01
-.980062266563D-06 0.000000000000D+00 -.125027951464D-06 0.947763090665D-07 0.000000000000D+00  7 1 21 23 -11 11 23 1 2 0.14449077D+00 0.29573267D-01 0.14487707D+06 0.14487707D+06 0.14487707D+06 0.11087448D+01  1  2  5  4  7  2       -1 -.271335115190D-03 0.100000000000D+01
  </mgrwgt>
  </event>
  <event>
  9     66 0.56006291E-06 0.31622404E+03 0.75467711E-02 0.96868434E-01
        1 -1    0    0  501    0 0.00000000E+00 0.00000000E+00 0.66750747E+03 0.66750755E+03 0.32000000E+00 0.0000E+00 0.9000E+01
       21 -1    0    0  502  501 0.00000000E+00 0.00000000E+00 -.47419359E+03 0.47419419E+03 0.75000000E+00 0.0000E+00 0.9000E+01
       25  2    1    2    0    0 0.67330883E+02 0.18363010E+03 0.20503461E+02 0.35809311E+03 0.29926046E+03 0.0000E+00 0.0000E+00
       23  2    1    2    0    0 -.23368781E+03 -.17842423E+03 -.20559982E+03 0.37021277E+03 0.91329121E+02 0.0000E+00 0.0000E+00
       23  1    3    3    0    0 0.13525799E+03 0.17058044E+03 -.19550995E+02 0.23683307E+03 0.91188000E+02 0.0000E+00 0.9000E+01
      -11  1    4    4    0    0 -.12577189E+02 -.50471050E+02 -.41990111E+02 0.66848201E+02 0.51099893E-03 0.0000E+00 0.9000E+01
       11  1    4    4    0    0 -.22111062E+03 -.12795318E+03 -.16360971E+03 0.30336457E+03 0.51099893E-03 0.0000E+00 0.9000E+01
       23  1    3    3    0    0 -.67927106E+02 0.13049654E+02 0.40054456E+02 0.12126003E+03 0.91188000E+02 0.0000E+00 0.9000E+01
        1  1    1    2  502    0 0.16635692E+03 -.52058651E+01 0.37841024E+03 0.41339586E+03 0.32000000E+00 0.0000E+00 0.9000E+01
#aMCatNLO 2  0  0  2  2 0.16643836D+03 0.00000000D+00  -5  7  0 0.00000000D+00 0.00000000D+00 0.00000000D+00 0.00000000D+00 0.00000000D+00
  <mgrwgt>
 0.2366090598D-04    1    2    0
 0.342223265846970D+03 0.000000000000000D+00 0.000000000000000D+00 0.342223265846970D+03
 0.342223265846970D+03 0.000000000000000D+00 0.000000000000000D+00 -.342223265846970D+03
 0.278299581192187D+03 0.197308933908899D+03 0.168638660287834D+03 0.420189529118093D+02
 0.571033121000244D+02 0.122005907596301D+01 -.509028123759685D+02 -.258496305749407D+02
 0.225790401506447D+03 -.161643831045691D+03 -.129814095779034D+03 -.894476262087839D+02
 0.123253236895281D+03 -.368851619391707D+02 0.120782478671679D+02 0.732783038719154D+02
 0.000000000000000D+00 0.000000000000000D+00 -.000000000000000D+00 0.000000000000000D+00
 0.865572883905496D+03 0.000000000000000D+00 0.000000000000000D+00 0.865572883905496D+03
 0.365686208685809D+03 0.000000000000000D+00 0.000000000000000D+00 -.365686208685809D+03
 0.239735801848431D+03 0.135257989500997D+03 0.170580442068408D+03 0.420189529118093D+02
 0.580836982760640D+02 -.125771891648944D+02 -.504710502889963D+02 -.258496305749407D+02
 0.270671017811649D+03 -.221110618333385D+03 -.127953180925822D+03 -.894476262087839D+02
 0.135901973543387D+03 -.679271063360211D+02 0.130496542275152D+02 0.732783038719154D+02
 0.526866601111773D+03 0.166356924333303D+03 -.520586508110557D+01 0.499886675219687D+03
0.348088281131D-06 0.000000000000D+00 0.000000000000D+00 0.158157032594D-06 0.132891419234D-11  7 1 21 23 -11 11 23 1 2 0.10269350D+00 0.72952903D-01 0.16990694D+06 0.16990694D+06 0.16990694D+06 0.11033062D+01  1  2  1  4  7  2       -1 0.236609059802D-04 0.100000000000D+01
  </mgrwgt>
  </event>
  <event>
  9     66 0.56006291E-06 0.51931167E+03 0.75467711E-02 0.93244680E-01
        1 -1    0    0  502    0 0.00000000E+00 0.00000000E+00 0.14852319E+04 0.14852319E+04 0.32000000E+00 0.0000E+00 0.9000E+01
       -1 -1    0    0    0  501 0.00000000E+00 0.00000000E+00 -.36278564E+03 0.36278578E+03 0.32000000E+00 0.0000E+00 0.9000E+01
       25  2    1    2    0    0 0.30176071E+03 0.35308878E+03 0.34236509E+02 0.55434279E+03 0.30065358E+03 0.0000E+00 0.0000E+00
       23  2    1    2    0    0 -.27833753E+03 -.44060579E+03 0.10805460E+04 0.12027510E+04 0.86168743E+02 0.0000E+00 0.0000E+00
       23  1    3    3    0    0 0.46865173E+02 0.93518906E+02 -.82625659E+02 0.16150660E+03 0.91188000E+02 0.0000E+00 0.9000E+01
      -11  1    4    4    0    0 -.55169150E+02 -.15611707E+03 0.30455951E+03 0.34665930E+03 0.51099893E-03 0.0000E+00 0.9000E+01
       11  1    4    4    0    0 -.22316838E+03 -.28448872E+03 0.77598645E+03 0.85609166E+03 0.51099893E-03 0.0000E+00 0.9000E+01
       23  1    3    3    0    0 0.25489554E+03 0.25956987E+03 0.11686217E+03 0.39283619E+03 0.91188000E+02 0.0000E+00 0.9000E+01
       21  1    1    2  502  501 -.23423178E+02 0.87517013E+02 0.76637952E+01 0.90923974E+02 0.75000000E+00 0.0000E+00 0.9000E+01
#aMCatNLO 2  0  0  1  2 0.90597311D+02 0.00000000D+00  -5  7  0 0.00000000D+00 0.00000000D+00 0.00000000D+00 0.00000000D+00 0.00000000D+00
  <mgrwgt>
 0.7488642009D-04    1    2    0
 0.677574829835025D+03 0.000000000000000D+00 0.000000000000000D+00 0.677574829835025D+03
 0.677574829835025D+03 0.000000000000000D+00 0.000000000000000D+00 -.677574829835025D+03
 0.282609844266916D+03 0.420363075149619D+02 0.111561201860293D+03 -.239457970889601D+03
 0.189812701331464D+03 -.585213018885602D+02 -.143592278274309D+03 0.109477744003104D+03
 0.457150187602189D+03 -.231177454264414D+03 -.254564091586018D+03 0.301231475678632D+03
 0.425576926469481D+03 0.247662448638013D+03 0.286595168000034D+03 -.171251248792135D+03
 0.000000000000000D+00 -.000000000000000D+00 0.000000000000000D+00 -.000000000000000D+00
 0.702398286693719D+03 0.000000000000000D+00 0.000000000000000D+00 0.702398286693719D+03
 0.767113298343778D+03 0.000000000000000D+00 0.000000000000000D+00 -.767113298343778D+03
 0.276762536249300D+03 0.468651732118594D+02 0.935189063473382D+02 -.239457970889601D+03
 0.198498236794083D+03 -.551691496655382D+02 -.156117066663232D+03 0.109477744003104D+03
 0.470614876566713D+03 -.223168383653866D+03 -.284488721470109D+03 0.301231475678632D+03
 0.412299034609405D+03 0.254895538128371D+03 0.259569869255332D+03 -.171251248792135D+03
 0.111336900817996D+03 -.234231780208271D+02 0.875170125306713D+02 -.647150116500592D+02
0.236736198869D-04 0.000000000000D+00 0.000000000000D+00 0.788294255764D-07 0.607444099544D-10  7 1 -1 23 -11 11 23 21 2 0.22849683D+00 0.55813090D-01 0.32011547D+06 0.32011547D+06 0.32011547D+06 0.10824727D+01  1  2  1  1  7  1        1 0.748864200931D-04 0.100000000000D+01
  </mgrwgt>
  </event>
  <event>
  8     66 0.56006291E-06 0.42595683E+03 0.75467711E-02 0.90674641E-01
        1 -1    0    0  501    0 0.00000000E+00 0.00000000E+00 0.14628890E+04 0.14628890E+04 0.32000000E+00 0.0000E+00 0.9000E+01
       -1 -1    0    0    0  501 0.00000000E+00 0.00000000E+00 -.29760574E+03 0.29760592E+03 0.32000000E+00 0.0000E+00 0.9000E+01
       25  2    1    2    0    0 0.36698248E+03 0.91074348E+02 0.12688676E+04 0.13576456E+04 0.30034328E+03 0.0000E+00 0.0000E+00
       23  2    1    2    0    0 -.36698248E+03 -.91074348E+02 -.10358435E+03 0.40284928E+03 0.92666852E+02 0.0000E+00 0.0000E+00
       23  1    3    3    0    0 0.37938224E+02 0.69858315E+02 0.52687330E+03 0.54058322E+03 0.91188000E+02 0.0000E+00 0.9000E+01
      -13  1    4    4    0    0 -.31594532E+03 -.10978514E+03 -.95879431E+02 0.34794698E+03 0.10565837E+00 0.0000E+00 0.9000E+01
       13  1    4    4    0    0 -.51037161E+02 0.18710797E+02 -.77049233E+01 0.54902301E+02 0.10565837E+00 0.0000E+00 0.9000E+01
       23  1    3    3    0    0 0.32904425E+03 0.21216033E+02 0.74199427E+03 0.81706241E+03 0.91188000E+02 0.0000E+00 0.9000E+01
#aMCatNLO 1  0  0  1  2 0.49705680D+03 0.00000000D+00  -5  7  0 0.00000000D+00 0.00000000D+00 0.00000000D+00 0.00000000D+00 0.00000000D+00
  <mgrwgt>
 0.3214236718D-03    3    2    0
 0.659821446555004D+03 0.000000000000000D+00 0.000000000000000D+00 0.659821446555004D+03
 0.659821446555004D+03 0.000000000000000D+00 0.000000000000000D+00 -.659821446555004D+03
 0.255930904118869D+03 0.379382238739276D+02 0.698583152840488D+02 0.225534660959392D+03
 0.548850284188720D+03 -.315945662007884D+03 -.109785311484806D+03 -.435157624883930D+03
 0.800465309082975D+02 -.510368162695102D+02 0.187109635679501D+02 -.587587469053258D+02
 0.434815173894121D+03 0.329044254403467D+03 0.212160326328073D+02 0.268381710829864D+03
 0.000000000000000D+00 -.000000000000000D+00 -.000000000000000D+00 -.000000000000000D+00
 0.757024936903327D+03 0.000000000000000D+00 0.000000000000000D+00 0.757024936903327D+03
 0.189403358315881D+04 0.000000000000000D+00 0.000000000000000D+00 -.189403358315881D+04
 0.303252958137168D+03 0.958677034191906D+02 0.153592335166847D+03 0.225534660959392D+03
 0.484779631117132D+03 -.208865241635048D+03 0.449938116652933D+02 -.435157624883930D+03
 0.803952348998039D+02 -.344156141606220D+02 0.427360381722232D+02 -.587587469053258D+02
 0.541722107257978D+03 0.430210078870313D+03 0.167445918070459D+03 0.268381710829864D+03
 0.124090858865006D+04 -.282796926493833D+03 -.408768103074822D+03 -.113700864625549D+04
0.765217379096D-04 0.000000000000D+00 0.000000000000D+00 0.194790716212D-05 0.000000000000D+00  7 1 -1 23 -13 13 23 21 0 0.22505986D+00 0.45785515D-01 0.18143922D+06 0.18143922D+06 0.18143922D+06 0.11010889D+01  1  2  2  1  7  1        1 0.315192709746D-03 0.100000000000D+01
-.326126401371D-05 0.000000000000D+00 -.293863622209D-06 0.194790716212D-05 0.000000000000D+00  7 1 -1 23 -13 13 23 21 2 0.22505986D+00 0.45785515D-01 0.18143922D+06 0.18143922D+06 0.18143922D+06 0.11010889D+01  1  2  3  1  7  1        1 -.162862861533D-04 0.100000000000D+01
0.450898936931D-05 0.000000000000D+00 0.000000000000D+00 0.194790716212D-05 0.000000000000D+00  7 1 -1 23 -13 13 23 21 2 0.22505986D+00 0.45785515D-01 0.18143922D+06 0.18143922D+06 0.18143922D+06 0.11010889D+01  1  2 15  1  7  1        1 0.225172481657D-04 0.100000000000D+01
  </mgrwgt>
  </event>
  <event>
  8     66 0.56006291E-06 0.35439388E+03 0.75467711E-02 0.80717627E-01
        1 -1    0    0  501    0 0.00000000E+00 0.00000000E+00 0.50680186E+03 0.50680196E+03 0.32000000E+00 0.0000E+00 0.9000E+01
       -1 -1    0    0    0  501 0.00000000E+00 0.00000000E+00 -.31472229E+03 0.31472245E+03 0.32000000E+00 0.0000E+00 0.9000E+01
       25  2    1    2    0    0 -.61936401E+02 0.31553940E+03 0.20866496E+03 0.48646027E+03 0.29950175E+03 0.0000E+00 0.0000E+00
       23  2    1    2    0    0 0.61936401E+02 -.31553940E+03 -.16585396E+02 0.33506414E+03 0.92691268E+02 0.0000E+00 0.0000E+00
       23  1    3    3    0    0 0.20801909E+02 0.18397918E+03 -.56429871E+01 0.20646586E+03 0.91188000E+02 0.0000E+00 0.9000E+01
      -11  1    4    4    0    0 0.26215700E+02 -.18580656E+03 -.54250025E+02 0.19533153E+03 0.51099893E-03 0.0000E+00 0.9000E+01
       11  1    4    4    0    0 0.35720701E+02 -.12973284E+03 0.37664629E+02 0.13973261E+03 0.51099893E-03 0.0000E+00 0.9000E+01
       23  1    3    3    0    0 -.82738309E+02 0.13156022E+03 0.21430795E+03 0.27999441E+03 0.91188000E+02 0.0000E+00 0.9000E+01
#aMCatNLO 1  0  0  1  1 0.20611371D+04 0.00000000D+00  -5  7  0 0.00000000D+00 0.00000000D+00 0.00000000D+00 0.00000000D+00 0.00000000D+00
  <mgrwgt>
 0.2218504480D-03    3    2    0
 0.399376950315425D+03 0.000000000000000D+00 0.000000000000000D+00 0.399376950315425D+03
 0.399376950315425D+03 0.000000000000000D+00 0.000000000000000D+00 -.399376950315425D+03
 0.213708687347437D+03 0.208019086334720D+02 0.183979178486291D+03 -.554535317583909D+02
 0.213945675728943D+03 0.262156999401177D+02 -.185806564754386D+03 -.102768719627802D+03
 0.134658674164478D+03 0.357207005918613D+02 -.129732835382775D+03 0.513629248655722D+01
 0.236440863389992D+03 -.827383091654510D+02 0.131560221650870D+03 0.153085958899636D+03
 0.000000000000000D+00 0.000000000000000D+00 0.000000000000000D+00 -.000000000000000D+00
 0.143448273263667D+04 0.000000000000000D+00 0.000000000000000D+00 0.143448273263667D+04
 0.433112884616668D+04 0.000000000000000D+00 0.000000000000000D+00 -.433112884616668D+04
 0.144416553292340D+03 -.910322141872050D+02 -.343355692618512D+02 -.554535317583909D+02
 0.987968934672506D+03 -.349114075530258D+03 -.918499084599785D+03 -.102768719627802D+03
 0.628583858441806D+03 -.202622061791961D+03 -.595008895453048D+03 0.513629248655722D+01
 0.449526939719005D+03 -.296949983849072D+03 -.286608817849257D+03 0.153085958899636D+03
 0.355511529267769D+04 0.939718335358496D+03 0.183445236716394D+04 -.289664611353001D+04
0.969080404460D-05 0.000000000000D+00 0.000000000000D+00 0.350322517364D-06 0.000000000000D+00  7 1 -1 23 -11 11 23 21 0 0.77969536D-01 0.48418834D-01 0.12559502D+06 0.12559502D+06 0.12559502D+06 0.11136896D+01  1  2  2  1  7  1        1 0.219544561164D-03 0.100000000000D+01
-.529030811455D-06 0.000000000000D+00 -.372152391786D-07 0.350322517364D-06 0.000000000000D+00  7 1 -1 23 -11 11 23 21 2 0.77969536D-01 0.48418834D-01 0.12559502D+06 0.12559502D+06 0.12559502D+06 0.11136896D+01  1  2  3  1  7  1        1 -.148652476047D-04 0.100000000000D+01
0.611093700450D-06 0.000000000000D+00 0.000000000000D+00 0.350322517364D-06 0.000000000000D+00  7 1 -1 23 -11 11 23 21 2 0.77969536D-01 0.48418834D-01 0.12559502D+06 0.12559502D+06 0.12559502D+06 0.11136896D+01  1  2 15  1  7  1        1 0.171711344031D-04 0.100000000000D+01
  </mgrwgt>
  </event>
  <event>
  8     66 0.56006291E-06 0.93829610E+03 0.75467711E-02 0.80207740E-01
        1 -1    0    0  501    0 0.00000000E+00 0.00000000E+00 0.98890541E+03 0.98890546E+03 0.32000000E+00 0.0000E+00 0.9000E+01
       -1 -1    0    0    0  501 0.00000000E+00 0.00000000E+00 -.20478277E+04 0.20478277E+04 0.32000000E+00 0.0000E+00 0.9000E+01
       25  2    1    2    0    0 0.80979971E+03 -.43514651E+03 -.16695042E+04 0.19293269E+04 0.29988330E+03 0.0000E+00 0.0000E+00
       23  2    1    2    0    0 -.80979971E+03 0.43514651E+03 0.61058192E+03 0.11074063E+04 0.91707734E+02 0.0000E+00 0.0000E+00
       23  1    3    3    0    0 0.67784269E+03 -.40249556E+03 -.12696365E+04 0.14972527E+04 0.91188000E+02 0.0000E+00 0.9000E+01
      -13  1    4    4    0    0 -.65239454E+03 0.35158260E+03 0.53394804E+03 0.91341638E+03 0.10565837E+00 0.0000E+00 0.9000E+01
       13  1    4    4    0    0 -.15740517E+03 0.83563917E+02 0.76633878E+02 0.19398989E+03 0.10565837E+00 0.0000E+00 0.9000E+01
       23  1    3    3    0    0 0.13195701E+03 -.32650953E+02 -.39986772E+03 0.43207428E+03 0.91188000E+02 0.0000E+00 0.9000E+01
#aMCatNLO 1  0  0  1  1 0.20496863D+04 0.00000000D+00  -5  7  0 0.00000000D+00 0.00000000D+00 0.00000000D+00 0.00000000D+00 0.00000000D+00
  <mgrwgt>
 0.1167518715D-03    5    2    0
 0.142306290229027D+04 0.000000000000000D+00 0.000000000000000D+00 0.142306290229027D+04
 0.142306290229027D+04 0.000000000000000D+00 0.000000000000000D+00 -.142306290229027D+04
 0.112514717991981D+04 0.677842692348776D+03 -.402495561725439D+03 -.797601111056261D+03
 0.117324922126608D+04 -.652395194393809D+03 0.351582953106571D+03 0.909551357878266D+03
 0.235492514281904D+03 -.157404510862735D+03 0.835635615244036D+02 0.153940493140153D+03
 0.312236889112745D+03 0.131957012907769D+03 -.326509529055360D+02 -.265890739962158D+03
 0.000000000000000D+00 -.000000000000000D+00 0.000000000000000D+00 0.000000000000000D+00
 0.473716697953550D+04 0.000000000000000D+00 0.000000000000000D+00 0.473716697953550D+04
 0.210572463871047D+04 0.000000000000000D+00 0.000000000000000D+00 -.210572463871047D+04
 0.193116563596090D+04 0.134890406086102D+04 -.112488922317121D+04 -.797601111056261D+03
 0.940556733306654D+03 -.188275975551296D+03 -.148038687445185D+03 0.909551357878266D+03
 0.168962869794355D+03 -.685999938217820D+02 -.120339847333449D+02 0.153940493140153D+03
 0.466685013119397D+03 0.302981521577193D+03 -.216757842098957D+03 -.265890739962158D+03
 0.333552136606466D+04 -.139500961306514D+04 0.150171973744870D+04 0.263144234082503D+04
0.452933397806D-02 0.000000000000D+00 0.000000000000D+00 0.197977422560D-04 0.000000000000D+00  7 1 -1 23 -13 13 23 21 0 0.15213930D+00 0.31505042D+00 0.88039957D+06 0.88039957D+06 0.88039957D+06 0.10515664D+01  1  2  2  1  7  1        1 0.114306421694D-03 0.100000000000D+01
-.198556386554D-03 0.000000000000D+00 -.173938350768D-04 0.197977422560D-04 0.000000000000D+00  7 1 -1 23 -13 13 23 21 2 0.15213930D+00 0.31505042D+00 0.88039957D+06 0.88039957D+06 0.88039957D+06 0.10515664D+01  1  2  3  1  7  1        1 -.554106891618D-05 0.100000000000D+01
0.280696400502D-03 0.000000000000D+00 0.000000000000D+00 0.197977422560D-04 0.000000000000D+00  7 1 -1 23 -13 13 23 21 2 0.15213930D+00 0.31505042D+00 0.88039957D+06 0.88039957D+06 0.88039957D+06 0.10515664D+01  1  2 15  1  7  1        1 0.783333201562D-05 0.100000000000D+01
0.431999751493D-03 0.000000000000D+00 -.147292100452D-02 0.197977422560D-04 0.000000000000D+00  7 1 -1 23 -13 13 23 21 2 0.55683697D+00 0.31505042D+00 0.88039957D+06 0.88039957D+06 0.88039957D+06 0.10515664D+01  1  2  5  1  7  1        1 0.149185041495D-06 0.100000000000D+01
0.103712745774D-03 0.000000000000D+00 -.225196406188D-03 0.197977422560D-04 0.000000000000D+00  7 21 -1 23 -13 13 23 -1 2 0.55683697D+00 0.31505042D+00 0.88039957D+06 0.88039957D+06 0.88039957D+06 0.10515664D+01  1  2  5  3  7  1        1 0.400170698179D-08 0.100000000000D+01
  </mgrwgt>
  </event>
  <event>
  9     66 0.56006291E-06 0.31512455E+03 0.75467711E-02 0.99478423E-01
        1 -1    0    0  501    0 0.00000000E+00 0.00000000E+00 0.26466129E+03 0.26466149E+03 0.32000000E+00 0.0000E+00 0.9000E+01
       -1 -1    0    0    0  502 0.00000000E+00 0.00000000E+00 -.52922124E+03 0.52922133E+03 0.32000000E+00 0.0000E+00 0.9000E+01
       25  2    1    2    0    0 0.19556600E+03 -.10752239E+03 -.30594749E+03 0.48377288E+03 0.30104019E+03 0.0000E+00 0.0000E+00
       23  2    1    2    0    0 -.21007291E+03 0.13859456E+03 0.18052143E+02 0.26862460E+03 0.92164065E+02 0.0000E+00 0.0000E+00
       23  1    3    3    0    0 0.12513728E+03 -.17920890E+03 -.21926724E+03 0.32275151E+03 0.91188000E+02 0.0000E+00 0.9000E+01
      -11  1    4    4    0    0 -.12949875E+03 0.48779515E+02 0.43995452E+02 0.14520664E+03 0.51099893E-03 0.0000E+00 0.9000E+01
       11  1    4    4    0    0 -.80574155E+02 0.89815047E+02 -.25943309E+02 0.12341796E+03 0.51099893E-03 0.0000E+00 0.9000E+01
       23  1    3    3    0    0 0.70428727E+02 0.71686504E+02 -.86680260E+02 0.16102136E+03 0.91188000E+02 0.0000E+00 0.9000E+01
       21  1    1    2  501  502 0.14506906E+02 -.31072169E+02 0.23335411E+02 0.41485345E+02 0.75000000E+00 0.0000E+00 0.9000E+01
#aMCatNLO 2  0  0  2  1 0.34291836D+02 0.00000000D+00  -5  7  0 0.00000000D+00 0.00000000D+00 0.00000000D+00 0.00000000D+00 0.00000000D+00
  <mgrwgt>
 0.3251288561D-04    1    2    0
 0.347146328815345D+03 0.000000000000000D+00 0.000000000000000D+00 0.347146328815345D+03
 0.347146328815345D+03 0.000000000000000D+00 0.000000000000000D+00 -.347146328815345D+03
 0.269475942625768D+03 0.130650086160192D+03 -.191016719265619D+03 -.103659057768149D+03
 0.170713145626928D+03 -.125885147492318D+03 0.410395734779467D+02 0.107757418025053D+03
 0.117285947370745D+03 -.780670331917572D+02 0.844450725647176D+02 0.230339206135194D+02
 0.136817622007250D+03 0.733020945238838D+02 0.655320732229546D+02 -.271322808704241D+02
 0.000000000000000D+00 0.000000000000000D+00 -.000000000000000D+00 0.000000000000000D+00
 0.396069587933966D+03 0.000000000000000D+00 0.000000000000000D+00 0.396069587933966D+03
 0.353630981816053D+03 0.000000000000000D+00 0.000000000000000D+00 -.353630981816053D+03
 0.258525856664462D+03 0.125137276323618D+03 -.179208897761859D+03 -.103659057768149D+03
 0.175388225633867D+03 -.129498754579459D+03 0.487795153106218D+02 0.107757418025053D+03
 0.122839320669938D+03 -.805741552156672D+02 0.898150472643843D+02 0.230339206135194D+02
 0.138385593512489D+03 0.704287274338219D+02 0.716865038527104D+02 -.271322808704241D+02
 0.545615732692630D+02 0.145069060376865D+02 -.310721686658580D+02 0.424386061179130D+02
0.128734081880D-05 0.000000000000D+00 0.000000000000D+00 0.811164803113D-07 0.465080660437D-09  7 1 -1 23 -11 11 23 21 2 0.40716852D-01 0.81418088D-01 0.11084484D+06 0.11084484D+06 0.11084484D+06 0.11180710D+01  1  2  1  2  7  2       -1 0.325128856127D-04 0.100000000000D+01
  </mgrwgt>
  </event>
  <event>
  8     66 0.56006291E-06 0.13035425E+03 0.75467711E-02 0.10208663E+00
        1 -1    0    0  501    0 0.00000000E+00 0.00000000E+00 0.16043563E+04 0.16043564E+04 0.32000000E+00 0.0000E+00 0.9000E+01
       -1 -1    0    0    0  501 0.00000000E+00 0.00000000E+00 -.42607077E+02 0.42608278E+02 0.32000000E+00 0.0000E+00 0.9000E+01
       25  2    1    2    0    0 0.34182702E+02 0.11323844E+03 0.67529850E+03 0.74836931E+03 0.30006193E+03 0.0000E+00 0.0000E+00
       23  2    1    2    0    0 -.34182702E+02 -.11323844E+03 0.88645076E+03 0.89859534E+03 0.87676793E+02 0.0000E+00 0.0000E+00
       23  1    3    3    0    0 -.34344500E+01 0.14229848E+03 0.59310192E+03 0.61672181E+03 0.91188000E+02 0.0000E+00 0.9000E+01
      -11  1    4    4    0    0 -.25109431E+02 -.11527469E+02 0.62418037E+02 0.68259633E+02 0.51099893E-03 0.0000E+00 0.9000E+01
       11  1    4    4    0    0 -.90732703E+01 -.10171097E+03 0.82403273E+03 0.83033570E+03 0.51099893E-03 0.0000E+00 0.9000E+01
       23  1    3    3    0    0 0.37617152E+02 -.29060041E+02 0.82196584E+02 0.13164751E+03 0.91188000E+02 0.0000E+00 0.9000E+01
#aMCatNLO 1  0  0  2  1 0.11836353D+03 0.00000000D+00  -5  7  0 0.00000000D+00 0.00000000D+00 0.00000000D+00 0.00000000D+00 0.00000000D+00
  <mgrwgt>
 0.1534090284D-03    9    2    0
 0.261453532021324D+03 0.000000000000000D+00 0.000000000000000D+00 0.261453532021324D+03
 0.261453532021324D+03 0.000000000000000D+00 0.000000000000000D+00 -.261453532021324D+03
 0.171048628826862D+03 -.343445002377630D+01 0.142298484984466D+03 0.261099177269715D+02
 0.285708100422098D+02 -.251094314732177D+02 -.115274686304261D+02 -.727496422907816D+01
 0.154140293621606D+03 -.907327028573159D+01 -.101710974924743D+03 0.115463342511531D+03
 0.169147331551970D+03 0.376171517827256D+02 -.290600414292969D+02 -.134298296009424D+03
 0.000000000000000D+00 -.000000000000000D+00 0.000000000000000D+00 -.000000000000000D+00
 0.302113159073549D+03 0.000000000000000D+00 0.000000000000000D+00 0.302113159073549D+03
 0.370945352137829D+03 0.000000000000000D+00 0.000000000000000D+00 -.370945352137829D+03
 0.167705600594121D+03 0.335445398768329D+02 0.134175084003615D+03 0.261099177269715D+02
 0.243021492554259D+02 -.193377289878361D+02 -.127953738316484D+02 -.727496422907816D+01
 0.160973681814006D+03 0.253251091384651D+02 -.109267477411839D+03 0.115463342511531D+03
 0.183154486920117D+03 0.760750196284299D+02 -.375083165773993D+02 -.134298296009424D+03
 0.136922592627708D+03 -.115606939655892D+03 0.253960838172711D+02 -.688321930642801D+02
0.206573097261D-05 0.000000000000D+00 0.000000000000D+00 0.646528795505D-07 0.000000000000D+00  7 1 -1 23 -11 11 23 21 0 0.24682415D+00 0.65550298D-02 0.40325023D+05 0.40325023D+05 0.40325023D+05 0.11556021D+01  1  2  2  2  7  2       -1 0.160627142009D-03 0.100000000000D+01
-.105045703710D-06 0.000000000000D+00 -.793295085428D-08 0.646528795505D-07 0.000000000000D+00  7 1 -1 23 -11 11 23 21 2 0.24682415D+00 0.65550298D-02 0.40325023D+05 0.40325023D+05 0.40325023D+05 0.11556021D+01  1  2  3  2  7  2       -1 -.109078747844D-04 0.100000000000D+01
0.133872843304D-06 0.000000000000D+00 0.000000000000D+00 0.646528795505D-07 0.000000000000D+00  7 1 -1 23 -11 11 23 21 2 0.24682415D+00 0.65550298D-02 0.40325023D+05 0.40325023D+05 0.40325023D+05 0.11556021D+01  1  2 15  2  7  2       -1 0.139012654513D-04 0.100000000000D+01
0.553929898331D-06 0.000000000000D+00 0.000000000000D+00 0.646528795505D-07 0.000000000000D+00  7 1 -1 23 -11 11 23 21 2 0.24682415D+00 0.96404027D-02 0.73960348D+05 0.73960348D+05 0.73960348D+05 0.11326334D+01  1  2 12  2  7  2       -1 0.305952516830D-04 0.100000000000D+01
-.128670545944D-05 0.000000000000D+00 0.000000000000D+00 0.646528795505D-07 0.000000000000D+00  7 1 -1 23 -11 11 23 21 2 0.24682415D+00 0.65550298D-02 0.40325023D+05 0.40325023D+05 0.40325023D+05 0.11556021D+01  1  2  4  2  7  2       -1 -.133610624141D-03 0.100000000000D+01
-.130260997752D-05 0.000000000000D+00 -.753125468501D-06 0.646528795505D-07 0.000000000000D+00  7 1 -1 23 -11 11 23 21 2 0.24682415D+00 0.10885901D-01 0.40325023D+05 0.40325023D+05 0.40325023D+05 0.11556021D+01  1  2  5  2  7  2       -1 -.629606024612D-04 0.100000000000D+01
0.156625787658D-05 0.000000000000D+00 0.665642666705D-06 0.646528795505D-07 0.000000000000D+00  7 1 -1 23 -11 11 23 21 2 0.24682415D+00 0.65550298D-02 0.40325023D+05 0.40325023D+05 0.40325023D+05 0.11556021D+01  1  2  6  2  7  2       -1 0.162639157952D-03 0.100000000000D+01
0.256755752326D-07 0.000000000000D+00 0.000000000000D+00 0.646528795505D-07 0.000000000000D+00  7 1 21 23 -11 11 23 1 2 0.24682415D+00 0.96404027D-02 0.73960348D+05 0.73960348D+05 0.73960348D+05 0.11326334D+01  1  2 12  4  7  2       -1 0.201182002910D-04 0.100000000000D+01
-.397688308063D-07 0.000000000000D+00 -.429511110914D-07 0.646528795505D-07 0.000000000000D+00  7 1 21 23 -11 11 23 1 2 0.24682415D+00 0.10885901D-01 0.40325023D+05 0.40325023D+05 0.40325023D+05 0.11556021D+01  1  2  5  4  7  2       -1 -.269928876397D-04 0.100000000000D+01
  </mgrwgt>
  </event>
  <event>
  8     66 0.56006291E-06 0.40457953E+03 0.75467711E-02 0.91334964E-01
        1 -1    0    0  501    0 0.00000000E+00 0.00000000E+00 0.23277229E+04 0.23277229E+04 0.32000000E+00 0.0000E+00 0.9000E+01
       -1 -1    0    0    0  501 0.00000000E+00 0.00000000E+00 -.99152219E+02 0.99152736E+02 0.32000000E+00 0.0000E+00 0.9000E+01
       25  2    1    2    0    0 0.95456593E+02 -.34212946E+03 0.18180823E+04 0.18751954E+04 0.29115282E+03 0.0000E+00 0.0000E+00
       23  2    1    2    0    0 -.95456593E+02 0.34212946E+03 0.41048843E+03 0.55168031E+03 0.98416913E+02 0.0000E+00 0.0000E+00
       23  1    3    3    0    0 -.25777907E+02 -.26744370E+03 0.98112745E+03 0.10213310E+04 0.91188000E+02 0.0000E+00 0.9000E+01
      -13  1    4    4    0    0 -.34311147E+02 0.17592157E+03 0.27690147E+03 0.32984859E+03 0.10565837E+00 0.0000E+00 0.9000E+01
       13  1    4    4    0    0 -.61145446E+02 0.16620789E+03 0.13358695E+03 0.22183172E+03 0.10565837E+00 0.0000E+00 0.9000E+01
       23  1    3    3    0    0 0.12123450E+03 -.74685764E+02 0.83695482E+03 0.85386439E+03 0.91188000E+02 0.0000E+00 0.9000E+01
#aMCatNLO 1  0  0  1  2 0.44683999D+03 0.00000000D+00  -5  7  0 0.00000000D+00 0.00000000D+00 0.00000000D+00 0.00000000D+00 0.00000000D+00
  <mgrwgt>
 0.4313195767D-03    3    2    0
 0.480416013934004D+03 0.000000000000000D+00 0.000000000000000D+00 0.480416013934004D+03
 0.480416013934004D+03 0.000000000000000D+00 0.000000000000000D+00 -.480416013934004D+03
 0.304040042582157D+03 -.257779071930385D+02 -.267443700868013D+03 0.109244965632872D+03
 0.190883459984597D+03 -.343111171782320D+02 0.175921581978946D+03 -.656569838455715D+02
 0.250460126953240D+03 -.611454762606697D+02 0.166207883746929D+03 -.177105746114168D+03
 0.215448398348015D+03 0.121234500631940D+03 -.746857648578622D+02 0.133517764326868D+03
 0.000000000000000D+00 -.000000000000000D+00 0.000000000000000D+00 -.000000000000000D+00
 0.692940857279304D+03 0.000000000000000D+00 0.000000000000000D+00 0.692940857279304D+03
 0.835847748569961D+03 0.000000000000000D+00 0.000000000000000D+00 -.835847748569961D+03
 0.386221808897751D+03 0.107020289085913D+03 -.342730549458450D+03 0.109244965632872D+03
 0.156285682674254D+03 0.324801097307455D+02 0.138055849398490D+03 -.656569838455715D+02
 0.213361479282158D+03 0.280883015748130D+02 0.115618868916180D+03 -.177105746114168D+03
 0.303783879506164D+03 0.221128634721797D+03 -.131318420714859D+03 0.133517764326868D+03
 0.469135755488937D+03 -.388717335113269D+03 0.220374251858639D+03 -.142906891290657D+03
0.620008272473D-04 0.000000000000D+00 0.000000000000D+00 0.193896730359D-09 0.000000000000D+00  7 1 -1 23 -13 13 23 21 0 0.35811126D+00 0.15254229D-01 0.16368459D+06 0.16368459D+06 0.16368459D+06 0.11045721D+01  1  2  2  1  7  1        1 0.426131738961D-03 0.100000000000D+01
-.332087473218D-05 0.000000000000D+00 -.238099501822D-06 0.193896730359D-09 0.000000000000D+00  7 1 -1 23 -13 13 23 21 2 0.35811126D+00 0.15254229D-01 0.16368459D+06 0.16368459D+06 0.16368459D+06 0.11045721D+01  1  2  3  1  7  1        1 -.278475534391D-04 0.100000000000D+01
0.393953443900D-05 0.000000000000D+00 0.000000000000D+00 0.193896730359D-09 0.000000000000D+00  7 1 -1 23 -13 13 23 21 2 0.35811126D+00 0.15254229D-01 0.16368459D+06 0.16368459D+06 0.16368459D+06 0.11045721D+01  1  2 15  1  7  1        1 0.330353911733D-04 0.100000000000D+01
  </mgrwgt>
  </event>
  <event>
  9     66 0.56006291E-06 0.31046595E+03 0.75467711E-02 0.96883322E-01
        3 -1    0    0  501    0 0.00000000E+00 0.00000000E+00 0.73781812E+03 0.73781829E+03 0.50000000E+00 0.0000E+00 0.9000E+01
       21 -1    0    0  502  501 0.00000000E+00 0.00000000E+00 -.30159789E+03 0.30159882E+03 0.75000000E+00 0.0000E+00 0.9000E+01
       25  2    1    2    0    0 -.48133007E+02 0.20678122E+03 0.24191437E+03 0.43997573E+03 0.29996803E+03 0.0000E+00 0.0000E+00
       23  2    1    2    0    0 -.96458877E+02 -.31922516E+03 0.22670219E+03 0.41343003E+03 0.91222187E+02 0.0000E+00 0.0000E+00
       23  1    3    3    0    0 0.34145682E+02 0.10971623E+03 0.24251379E+03 0.28342859E+03 0.91188000E+02 0.0000E+00 0.9000E+01
      -13  1    4    4    0    0 -.36693124E+02 -.20275276E+03 0.92190341E+02 0.22573023E+03 0.10565837E+00 0.0000E+00 0.9000E+01
       13  1    4    4    0    0 -.59765753E+02 -.11647240E+03 0.13451185E+03 0.18769980E+03 0.10565837E+00 0.0000E+00 0.9000E+01
       23  1    3    3    0    0 -.82278689E+02 0.97064989E+02 -.59941887E+00 0.15654714E+03 0.91188000E+02 0.0000E+00 0.9000E+01
        3  1    1    2  502    0 0.14459188E+03 0.11244394E+03 -.32396333E+02 0.18601136E+03 0.50000000E+00 0.0000E+00 0.9000E+01
#aMCatNLO 2  0  0  2  1 0.18316783D+03 0.00000000D+00  -5  7  0 0.00000000D+00 0.00000000D+00 0.00000000D+00 0.00000000D+00 0.00000000D+00
  <mgrwgt>
 0.3144883478D-05    2    2    0
 0.344655424485226D+03 0.000000000000000D+00 0.000000000000000D+00 0.344655424485226D+03
 0.344655424485226D+03 0.000000000000000D+00 0.000000000000000D+00 -.344655424485226D+03
 0.211091596536967D+03 0.744429442319983D+02 0.141053966985271D+03 0.103954015008153D+03
 0.176021848036459D+03 0.305362558329463D+01 -.171843269822777D+03 -.380033810809459D+02
 0.109400986112579D+03 -.344450627220928D+02 -.967812640842174D+02 0.376231356845341D+02
 0.192796418284448D+03 -.430515070932002D+02 0.127570566921723D+03 -.103573769611741D+03
 0.000000000000000D+00 0.000000000000000D+00 0.000000000000000D+00 -.000000000000000D+00
 0.398053473864823D+03 0.000000000000000D+00 0.000000000000000D+00 0.398053473864823D+03
 0.559032158325255D+03 0.000000000000000D+00 0.000000000000000D+00 -.559032158325255D+03
 0.179792287245715D+03 0.341456821916768D+02 0.109716226513655D+03 0.103954015008153D+03
 0.209521758529844D+03 -.366930930366283D+02 -.202752872352675D+03 -.380033810809459D+02
 0.136210286648179D+03 -.597657838598304D+02 -.116472283954863D+03 0.376231356845341D+02
 0.187707676857588D+03 -.822786890403556D+02 0.970649894940856D+02 -.103573769611741D+03
 0.243853622908751D+03 0.144591883745137D+03 0.112443940299798D+03 -.160978684460432D+03
-.641713261779D-07 0.000000000000D+00 0.000000000000D+00 0.875560460927D-06 0.000000000000D+00  7 3 21 23 -13 13 23 3 2 0.98283298D-01 0.47478041D-01 0.16948222D+06 0.16948222D+06 0.16948222D+06 0.11033910D+01  1  2 13  4  7  2       -3 -.207378861778D-05 0.100000000000D+01
0.218957508522D-06 0.000000000000D+00 0.000000000000D+00 0.875560460927D-06 0.125100127538D-10  7 3 21 23 -13 13 23 3 2 0.11351050D+00 0.46399732D-01 0.16948222D+06 0.16948222D+06 0.16948222D+06 0.11033910D+01  1  2  1  4  7  2       -3 0.521867209576D-05 0.100000000000D+01
  </mgrwgt>
  </event>
  <event>
  8     66 0.56006291E-06 0.24023800E+03 0.75467711E-02 0.10254173E+00
        1 -1    0    0  501    0 0.00000000E+00 0.00000000E+00 0.23344237E+04 0.23344237E+04 0.32000000E+00 0.0000E+00 0.9000E+01
       -1 -1    0    0    0  501 0.00000000E+00 0.00000000E+00 -.13313659E+03 0.13313698E+03 0.32000000E+00 0.0000E+00 0.9000E+01
       25  2    1    2    0    0 0.10749457E+03 0.11353604E+03 0.22536657E+04 0.22788127E+04 0.29922049E+03 0.0000E+00 0.0000E+00
       23  2    1    2    0    0 -.10749457E+03 -.11353604E+03 -.52378559E+02 0.18874799E+03 0.91851930E+02 0.0000E+00 0.0000E+00
       23  1    3    3    0    0 0.10201270E+03 0.16455717E+03 0.11152332E+04 0.11355818E+04 0.91188000E+02 0.0000E+00 0.9000E+01
      -13  1    4    4    0    0 -.10429652E+03 -.89065903E+02 -.74084987E+02 0.15588167E+03 0.10565837E+00 0.0000E+00 0.9000E+01
       13  1    4    4    0    0 -.31980532E+01 -.24470132E+02 0.21706428E+02 0.32866322E+02 0.10565837E+00 0.0000E+00 0.9000E+01
       23  1    3    3    0    0 0.54818750E+01 -.51021135E+02 0.11384324E+04 0.11432309E+04 0.91188000E+02 0.0000E+00 0.9000E+01
#aMCatNLO 1  0  0  1  2 0.41640763D+02 0.00000000D+00  -5  7  0 0.00000000D+00 0.00000000D+00 0.00000000D+00 0.00000000D+00 0.00000000D+00
  <mgrwgt>
 0.1989745025D-03    4    2    0
 0.557492346901636D+03 0.000000000000000D+00 0.000000000000000D+00 0.557492346901636D+03
 0.557492346901636D+03 0.000000000000000D+00 0.000000000000000D+00 -.557492346901636D+03
 0.311366186722850D+03 0.102012696139982D+03 0.164557170408778D+03 0.226159232364361D+03
 0.491244848962402D+03 -.104296651707787D+03 -.890659883695368D+02 -.471710673814358D+03
 0.298810225026357D+02 -.319791943633572D+01 -.244700469380948D+02 -.168483120795279D+02
 0.282492635615384D+03 0.548187500414044D+01 -.510211351011462D+02 0.262399753529525D+03
 0.000000000000000D+00 -.000000000000000D+00 0.000000000000000D+00 -.000000000000000D+00
 0.562867423524598D+03 0.000000000000000D+00 0.000000000000000D+00 0.562867423524598D+03
 0.644814624212963D+03 0.000000000000000D+00 0.000000000000000D+00 -.644814624212963D+03
 0.309566907637948D+03 0.109770295686869D+03 0.155945191531199D+03 0.226159232364361D+03
 0.491451802083548D+03 -.920193755179435D+02 -.102695416207632D+03 -.471710673814358D+03
 0.305009267736501D+02 -.244354028244624D+01 -.253075092612936D+02 -.168483120795279D+02
 0.284242354498755D+03 0.125623529854926D+02 -.588814179695805D+02 0.262399753529525D+03
 0.919200567436601D+02 -.278697328719721D+02 0.309391519073076D+02 -.819472006883650D+02
0.502746202956D-04 0.000000000000D+00 0.000000000000D+00 0.162104720946D-05 0.000000000000D+00  7 1 -1 23 -13 13 23 21 0 0.35914214D+00 0.20482584D-01 0.57714295D+05 0.57714295D+05 0.57714295D+05 0.11418543D+01  1  2  2  1  7  1        1 0.224727968275D-03 0.100000000000D+01
-.386484277232D-06 0.000000000000D+00 -.193067779547D-06 0.162104720946D-05 0.000000000000D+00  7 1 -1 23 -13 13 23 21 2 0.35914214D+00 0.20482584D-01 0.57714295D+05 0.57714295D+05 0.57714295D+05 0.11418543D+01  1  2  3  1  7  1        1 -.225248324282D-05 0.100000000000D+01
0.299874827502D-05 0.000000000000D+00 0.000000000000D+00 0.162104720946D-05 0.000000000000D+00  7 1 -1 23 -13 13 23 21 2 0.35914214D+00 0.20482584D-01 0.57714295D+05 0.57714295D+05 0.57714295D+05 0.11418543D+01  1  2 15  1  7  1        1 0.174771152071D-04 0.100000000000D+01
-.703108026557D-05 0.000000000000D+00 0.000000000000D+00 0.162104720946D-05 0.000000000000D+00  7 1 -1 23 -13 13 23 21 2 0.35914214D+00 0.20482584D-01 0.57714295D+05 0.57714295D+05 0.57714295D+05 0.11418543D+01  1  2  4  1  7  1        1 -.409780977134D-04 0.100000000000D+01
  </mgrwgt>
  </event>
  <event>
  8     66 0.56006291E-06 0.70051456E+03 0.75467711E-02 0.86312522E-01
        1 -1    0    0  501    0 0.00000000E+00 0.00000000E+00 0.92313921E+03 0.92313927E+03 0.32000000E+00 0.0000E+00 0.9000E+01
       -1 -1    0    0    0  501 0.00000000E+00 0.00000000E+00 -.59021504E+03 0.59021513E+03 0.32000000E+00 0.0000E+00 0.9000E+01
       25  2    1    2    0    0 0.65304826E+03 0.17138916E+03 -.32414809E+02 0.74022218E+03 0.30171488E+03 0.0000E+00 0.0000E+00
       23  2    1    2    0    0 -.65304826E+03 -.17138916E+03 0.36533898E+03 0.77313222E+03 0.91731032E+02 0.0000E+00 0.0000E+00
       23  1    3    3    0    0 0.41711186E+03 0.18278824E+02 -.95492417E+02 0.43789322E+03 0.91188000E+02 0.0000E+00 0.9000E+01
      -13  1    4    4    0    0 -.69509127E+02 -.38730452E+02 0.19374849E+02 0.81896048E+02 0.10565837E+00 0.0000E+00 0.9000E+01
       13  1    4    4    0    0 -.58353914E+03 -.13265871E+03 0.34596413E+03 0.69123617E+03 0.10565837E+00 0.0000E+00 0.9000E+01
       23  1    3    3    0    0 0.23593640E+03 0.15311034E+03 0.63077609E+02 0.30232896E+03 0.91188000E+02 0.0000E+00 0.9000E+01
#aMCatNLO 1  0  0  2  2 0.68048056D+03 0.00000000D+00  -5  7  0 0.00000000D+00 0.00000000D+00 0.00000000D+00 0.00000000D+00 0.00000000D+00
  <mgrwgt>
 0.2885483112D-03    3    2    0
 0.738140065773485D+03 0.000000000000000D+00 0.000000000000000D+00 0.738140065773485D+03
 0.738140065773485D+03 0.000000000000000D+00 0.000000000000000D+00 -.738140065773485D+03
 0.470425191004593D+03 0.417111859644495D+03 0.182788238192180D+02 -.196642289783773D+03
 0.795826662162586D+02 -.695084450356092D+02 -.387303276315631D+02 0.139231906253554D+01
 0.630575823698712D+03 -.583539819084071D+03 -.132658831973608D+03 0.198768164644231D+03
 0.295696450627405D+03 0.235936404475186D+03 0.153110335785953D+03 -.351819392299336D+01
 0.000000000000000D+00 0.000000000000000D+00 0.000000000000000D+00 0.000000000000000D+00
 0.150844186954098D+04 0.000000000000000D+00 0.000000000000000D+00 0.150844186954098D+04
 0.979189827608099D+03 0.000000000000000D+00 0.000000000000000D+00 -.979189827608099D+03
 0.448043542797607D+03 0.352161185299383D+03 -.172458906223363D+03 -.196642289783773D+03
 0.114857501577523D+03 -.832585266150901D+02 -.791095750345253D+02 0.139231906253554D+01
 0.838928976514338D+03 -.687457703509053D+03 -.437829818817103D+03 0.198768164644231D+03
 0.223733516679162D+03 0.199204259536558D+03 0.452406944645715D+02 -.351819392299336D+01
 0.862068159580448D+03 0.219350785288201D+03 0.644157605610419D+03 0.529252041932879D+03
0.112374887612D-03 0.000000000000D+00 0.000000000000D+00 0.447564478293D-06 0.000000000000D+00  7 1 -1 23 -13 13 23 21 0 0.14202143D+00 0.90802325D-01 0.49072065D+06 0.49072065D+06 0.49072065D+06 0.10690859D+01  1  2  2  2  7  2       -1 0.286943811230D-03 0.100000000000D+01
-.622227206820D-05 0.000000000000D+00 -.431549157418D-06 0.447564478293D-06 0.000000000000D+00  7 1 -1 23 -13 13 23 21 2 0.14202143D+00 0.90802325D-01 0.49072065D+06 0.49072065D+06 0.49072065D+06 0.10690859D+01  1  2  3  2  7  2       -1 -.181594109435D-04 0.100000000000D+01
0.677204956786D-05 0.000000000000D+00 0.000000000000D+00 0.447564478293D-06 0.000000000000D+00  7 1 -1 23 -13 13 23 21 2 0.14202143D+00 0.90802325D-01 0.49072065D+06 0.49072065D+06 0.49072065D+06 0.10690859D+01  1  2 15  2  7  2       -1 0.197639109452D-04 0.100000000000D+01
  </mgrwgt>
  </event>
  <event>
  8     66 0.56006291E-06 0.21463321E+03 0.75467711E-02 0.99700263E-01
        1 -1    0    0  501    0 0.00000000E+00 0.00000000E+00 0.18574661E+04 0.18574661E+04 0.32000000E+00 0.0000E+00 0.9000E+01
       -1 -1    0    0    0  501 0.00000000E+00 0.00000000E+00 -.30479280E+02 0.30480960E+02 0.32000000E+00 0.0000E+00 0.9000E+01
       25  2    1    2    0    0 0.44275854E+02 0.10126903E+03 0.10533310E+04 0.11011637E+04 0.30139596E+03 0.0000E+00 0.0000E+00
       23  2    1    2    0    0 -.44275854E+02 -.10126903E+03 0.77365577E+03 0.78678334E+03 0.90934090E+02 0.0000E+00 0.0000E+00
       23  1    3    3    0    0 0.96122614E+02 0.14617450E+03 0.78832230E+03 0.81263389E+03 0.91188000E+02 0.0000E+00 0.9000E+01
      -13  1    4    4    0    0 0.68089419E+01 -.26224130E+02 0.45242853E+02 0.52735126E+02 0.10565837E+00 0.0000E+00 0.9000E+01
       13  1    4    4    0    0 -.51084796E+02 -.75044902E+02 0.72841291E+03 0.73404821E+03 0.10565837E+00 0.0000E+00 0.9000E+01
       23  1    3    3    0    0 -.51846760E+02 -.44905464E+02 0.26500873E+03 0.28852983E+03 0.91188000E+02 0.0000E+00 0.9000E+01
#aMCatNLO 1  0  0  2  2 0.19899873D+03 0.00000000D+00  -5  7  0 0.00000000D+00 0.00000000D+00 0.00000000D+00 0.00000000D+00 0.00000000D+00
  <mgrwgt>
 0.3710371302D-03    3    2    0
 0.237940833526544D+03 0.000000000000000D+00 0.000000000000000D+00 0.237940833526544D+03
 0.237940833526544D+03 0.000000000000000D+00 0.000000000000000D+00 -.237940833526544D+03
 0.197434229479022D+03 0.961226032211500D+02 0.146174492778958D+03 0.764764256348725D+01
 0.355192962355445D+02 0.680901556742725D+01 -.262240726584527D+02 -.229685812638720D+02
 0.115666271414970D+03 -.510848862855679D+02 -.750449972896202D+02 0.716747453293908D+02
 0.127261869923550D+03 -.518467325030094D+02 -.449054228308855D+02 -.563538066290060D+02
 0.000000000000000D+00 -.000000000000000D+00 -.000000000000000D+00 0.000000000000000D+00
 0.489659706919433D+03 0.000000000000000D+00 0.000000000000000D+00 0.489659706919433D+03
 0.300625351357496D+03 0.000000000000000D+00 0.000000000000000D+00 -.300625351357496D+03
 0.277626479321136D+03 0.102361505938500D+03 0.241298251840896D+03 0.764764256348725D+01
 0.277435623268464D+02 0.763983742425710D+01 -.135566370992012D+02 -.229685812638720D+02
 0.926597907946497D+02 -.483489706193425D+02 -.333308378551333D+02 0.716747453293908D+02
 0.117783947820306D+03 -.486285816648592D+02 0.416131515524351D+01 -.563538066290060D+02
 0.274471278013991D+03 -.130237910785558D+02 -.198572092041805D+03 0.189034355561936D+03
0.418836278753D-05 0.000000000000D+00 0.000000000000D+00 0.509787918288D-07 0.000000000000D+00  7 1 -1 23 -13 13 23 21 0 0.28576414D+00 0.46892513D-02 0.46067414D+05 0.46067414D+05 0.46067414D+05 0.11504379D+01  1  2  2  2  7  2       -1 0.366186634802D-03 0.100000000000D+01
-.229680060879D-06 0.000000000000D+00 -.160844159254D-07 0.509787918288D-07 0.000000000000D+00  7 1 -1 23 -13 13 23 21 2 0.28576414D+00 0.46892513D-02 0.46067414D+05 0.46067414D+05 0.46067414D+05 0.11504379D+01  1  2  3  2  7  2       -1 -.265771141527D-04 0.100000000000D+01
0.271598158892D-06 0.000000000000D+00 0.000000000000D+00 0.509787918288D-07 0.000000000000D+00  7 1 -1 23 -13 13 23 21 2 0.28576414D+00 0.46892513D-02 0.46067414D+05 0.46067414D+05 0.46067414D+05 0.11504379D+01  1  2 15  2  7  2       -1 0.314276095405D-04 0.100000000000D+01
  </mgrwgt>
  </event>
  <event>
  9     66 0.56006291E-06 0.49340778E+03 0.75467711E-02 0.94221256E-01
        3 -1    0    0  501    0 0.00000000E+00 0.00000000E+00 0.15571996E+04 0.15571997E+04 0.50000000E+00 0.0000E+00 0.9000E+01
       21 -1    0    0  502  501 0.00000000E+00 0.00000000E+00 -.24250249E+03 0.24250365E+03 0.75000000E+00 0.0000E+00 0.9000E+01
       25  2    1    2    0    0 0.13498983E+03 -.41120540E+03 0.10004300E+04 0.11305082E+04 0.29979404E+03 0.0000E+00 0.0000E+00
       23  2    1    2    0    0 -.18048915E+03 0.42451311E+03 0.14318913E+03 0.49166991E+03 0.91915462E+02 0.0000E+00 0.0000E+00
       23  1    3    3    0    0 -.17354880E+02 -.20444624E+02 0.22424845E+03 0.24356066E+03 0.91188000E+02 0.0000E+00 0.9000E+01
      -11  1    4    4    0    0 -.60052114E+02 0.81313553E+02 0.84124680E+00 0.10108837E+03 0.51099893E-03 0.0000E+00 0.9000E+01
       11  1    4    4    0    0 -.12043703E+03 0.34319956E+03 0.14234788E+03 0.39058154E+03 0.51099893E-03 0.0000E+00 0.9000E+01
       23  1    3    3    0    0 0.15234471E+03 -.39076078E+03 0.77618157E+03 0.88694756E+03 0.91188000E+02 0.0000E+00 0.9000E+01
        3  1    1    2  502    0 0.45499321E+02 -.13307712E+02 0.17107797E+03 0.17752523E+03 0.50000000E+00 0.0000E+00 0.9000E+01
#aMCatNLO 2  0  0  2  2 0.47405521D+02 0.00000000D+00  -5  7  0 0.00000000D+00 0.00000000D+00 0.00000000D+00 0.00000000D+00 0.00000000D+00
  <mgrwgt>
 0.9738003922D-06    1    2    0
 0.574749907423582D+03 0.000000000000000D+00 0.000000000000000D+00 0.574749907423582D+03
 0.574749907423582D+03 0.000000000000000D+00 0.000000000000000D+00 -.574749907423582D+03
 0.120162162249957D+03 -.125937796350038D+02 -.218371579640339D+02 0.740825832375181D+02
 0.138500974822782D+03 -.545090569874977D+02 0.796923110486664D+02 -.992996389364893D+02
 0.400830042037119D+03 -.104412157943832D+03 0.338512580963046D+03 -.187542145670587D+03
 0.490006635737306D+03 0.171514994566333D+03 -.396367734047678D+03 0.212759201369558D+03
 0.000000000000000D+00 0.000000000000000D+00 -.000000000000000D+00 0.000000000000000D+00
 0.647741089626777D+03 0.000000000000000D+00 0.000000000000000D+00 0.647741089626777D+03
 0.582987423648043D+03 0.000000000000000D+00 0.000000000000000D+00 -.582987423648043D+03
 0.120509978765783D+03 -.173548796109926D+02 -.204446240531247D+02 0.740825832375181D+02
 0.141698865994974D+03 -.600521142344194D+02 0.813135530358915D+02 -.992996389364893D+02
 0.409222524650071D+03 -.120437034107425D+03 0.343199561616354D+03 -.187542145670587D+03
 0.479045535088774D+03 0.152344706523106D+03 -.390760778445670D+03 0.212759201369558D+03
 0.802516087752175D+02 0.454993214297308D+02 -.133077121534500D+02 0.647536659787346D+02
0.317296484519D-06 0.000000000000D+00 0.000000000000D+00 0.172589349392D-05 0.141709041791D-10  7 3 21 23 -11 11 23 3 2 0.23956895D+00 0.37308122D-01 0.26856478D+06 0.26856478D+06 0.26856478D+06 0.10881265D+01  1  2  1  4  7  2       -3 0.973800392205D-06 0.100000000000D+01
  </mgrwgt>
  </event>
  <event>
  8     66 0.56006291E-06 0.26499348E+03 0.75467711E-02 0.95707399E-01
        1 -1    0    0  501    0 0.00000000E+00 0.00000000E+00 0.38848304E+04 0.38848304E+04 0.32000000E+00 0.0000E+00 0.9000E+01
       -1 -1    0    0    0  501 0.00000000E+00 0.00000000E+00 -.20599538E+02 0.20602024E+02 0.32000000E+00 0.0000E+00 0.9000E+01
       25  2    1    2    0    0 0.92467241E+02 0.16515095E+03 0.25028150E+04 0.25278618E+04 0.30029551E+03 0.0000E+00 0.0000E+00
       23  2    1    2    0    0 -.92467241E+02 -.16515095E+03 0.13614158E+04 0.13775706E+04 0.91774979E+02 0.0000E+00 0.0000E+00
       23  1    3    3    0    0 0.14530784E+03 0.73886957E+02 0.91089253E+03 0.92984628E+03 0.91188000E+02 0.0000E+00 0.9000E+01
      -11  1    4    4    0    0 -.10357732E+02 0.73769009E+01 0.31037209E+02 0.33541163E+02 0.51099893E-03 0.0000E+00 0.9000E+01
       11  1    4    4    0    0 -.82109509E+02 -.17252785E+03 0.13303786E+04 0.13440294E+04 0.51099893E-03 0.0000E+00 0.9000E+01
       23  1    3    3    0    0 -.52840597E+02 0.91263993E+02 0.15919225E+04 0.15980155E+04 0.91188000E+02 0.0000E+00 0.9000E+01
#aMCatNLO 1  0  0  2  2 0.29642682D+03 0.00000000D+00  -5  7  0 0.00000000D+00 0.00000000D+00 0.00000000D+00 0.00000000D+00 0.00000000D+00
  <mgrwgt>
 0.1240049104D-03    3    2    0
 0.282896784909469D+03 0.000000000000000D+00 0.000000000000000D+00 0.282896784909469D+03
 0.282896784909469D+03 0.000000000000000D+00 0.000000000000000D+00 -.282896784909469D+03
 0.197161648477188D+03 0.145307837989431D+03 0.738869568939593D+02 -.631174627660993D+02
 0.195438857139974D+02 -.103577315461694D+02 0.737690086627114D+01 -.148412330898913D+02
 0.191105039764722D+03 -.821095090856913D+02 -.172527850905374D+03 0.364765721463859D+01
 0.157982995863030D+03 -.528405973575699D+02 0.912639931451439D+02 0.743110386413521D+02
 0.000000000000000D+00 -.000000000000000D+00 -.000000000000000D+00 0.000000000000000D+00
 0.471453146624198D+03 0.000000000000000D+00 0.000000000000000D+00 0.471453146624198D+03
 0.463813998353815D+03 0.000000000000000D+00 0.000000000000000D+00 -.463813998353815D+03
 0.271093004159534D+03 0.160665652762281D+03 0.188092794855840D+03 -.631174627660993D+02
 0.251708523675586D+02 -.889117769303378D+01 0.182826849371706D+02 -.148412330898913D+02
 0.120427846989726D+03 -.718918543470033D+02 -.965459590349311D+02 0.364765721463859D+01
 0.222050203516370D+03 -.403762695591427D+02 0.183952895954895D+03 0.743110386413521D+02
 0.296525237944825D+03 -.395063511631016D+02 -.293782416712975D+03 0.763914827038331D+01
0.244087443096D-04 0.000000000000D+00 0.000000000000D+00 0.320608303981D-06 0.000000000000D+00  7 1 -1 23 -11 11 23 21 0 0.59766640D+00 0.31693519D-02 0.70221542D+05 0.70221542D+05 0.70221542D+05 0.11345430D+01  1  2  2  2  7  2       -1 0.122487631775D-03 0.100000000000D+01
-.134899436861D-05 0.000000000000D+00 -.937360051187D-07 0.320608303981D-06 0.000000000000D+00  7 1 -1 23 -11 11 23 21 2 0.59766640D+00 0.31693519D-02 0.70221542D+05 0.70221542D+05 0.70221542D+05 0.11345430D+01  1  2  3  2  7  2       -1 -.871362449839D-05 0.100000000000D+01
0.158389092449D-05 0.000000000000D+00 0.000000000000D+00 0.320608303981D-06 0.000000000000D+00  7 1 -1 23 -11 11 23 21 2 0.59766640D+00 0.31693519D-02 0.70221542D+05 0.70221542D+05 0.70221542D+05 0.11345430D+01  1  2 15  2  7  2       -1 0.102309031702D-04 0.100000000000D+01
  </mgrwgt>
  </event>
  <event>
  8     66 0.56006291E-06 0.76487153E+03 0.75467711E-02 0.80060044E-01
        1 -1    0    0  501    0 0.00000000E+00 0.00000000E+00 0.57036190E+03 0.57036199E+03 0.32000000E+00 0.0000E+00 0.9000E+01
       -1 -1    0    0    0  501 0.00000000E+00 0.00000000E+00 -.10742268E+04 0.10742269E+04 0.32000000E+00 0.0000E+00 0.9000E+01
       25  2    1    2    0    0 0.74033717E+03 0.11918565E+03 -.21311117E+03 0.83520612E+03 0.29974748E+03 0.0000E+00 0.0000E+00
       23  2    1    2    0    0 -.74033717E+03 -.11918565E+03 -.29075377E+03 0.80938274E+03 0.90875305E+02 0.0000E+00 0.0000E+00
       23  1    3    3    0    0 0.24926610E+03 0.86741058E+02 -.18284365E+03 0.33377336E+03 0.91188000E+02 0.0000E+00 0.9000E+01
      -13  1    4    4    0    0 -.62881567E+02 -.13911132E+02 -.54072206E+02 0.84091769E+02 0.10565837E+00 0.0000E+00 0.9000E+01
       13  1    4    4    0    0 -.67745561E+03 -.10527452E+03 -.23668156E+03 0.72529097E+03 0.10565837E+00 0.0000E+00 0.9000E+01
       23  1    3    3    0    0 0.49107107E+03 0.32444593E+02 -.30267519E+02 0.50143277E+03 0.91188000E+02 0.0000E+00 0.9000E+01
#aMCatNLO 1  0  0  2  2 0.20597430D+04 0.00000000D+00  -5  7  0 0.00000000D+00 0.00000000D+00 0.00000000D+00 0.00000000D+00 0.00000000D+00
  <mgrwgt>
 0.2373531060D-03    5    2    0
 0.782750385202907D+03 0.000000000000000D+00 0.000000000000000D+00 0.782750385202907D+03
 0.782750385202907D+03 0.000000000000000D+00 0.000000000000000D+00 -.782750385202907D+03
 0.291786147708195D+03 0.249266101547212D+03 0.867410579599690D+02 -.846540260934408D+02
 0.709357668533645D+02 -.628807360172800D+02 -.139110087436969D+02 -.297385253960723D+02
 0.685755790311645D+03 -.677456436163541D+03 -.105274642008268D+03 -.151996972526884D+02
 0.517023065532611D+03 0.491071070633609D+03 0.324445927919962D+02 0.129592248742202D+03
 0.000000000000000D+00 0.000000000000000D+00 0.000000000000000D+00 -.000000000000000D+00
 0.174247360102962D+04 0.000000000000000D+00 0.000000000000000D+00 0.174247360102962D+04
 0.365631836994058D+04 0.000000000000000D+00 0.000000000000000D+00 -.365631836994058D+04
 0.141552004618195D+03 0.638283670857897D+02 -.219397832432850D+02 -.846540260934408D+02
 0.197860476756661D+03 -.177906302492766D+03 -.813248787456374D+02 -.297385253960723D+02
 0.197231328223758D+04 -.181491987945677D+04 -.771916111793782D+03 -.151996972526884D+02
 0.275422042662966D+03 0.151961244369934D+03 -.166299968479015D+03 0.129592248742202D+03
 0.281164416469479D+04 0.177703657049382D+04 0.104148074226172D+04 -.191384476891096D+04
0.203285443232D-03 0.000000000000D+00 0.000000000000D+00 0.499456629282D-05 0.000000000000D+00  7 1 -1 23 -13 13 23 21 0 0.87747995D-01 0.16526568D+00 0.58502845D+06 0.58502845D+06 0.58502845D+06 0.10637230D+01  1  2  2  2  7  2       -1 0.235792025404D-03 0.100000000000D+01
-.112863047270D-04 0.000000000000D+00 -.780669628297D-06 0.499456629282D-05 0.000000000000D+00  7 1 -1 23 -13 13 23 21 2 0.87747995D-01 0.16526568D+00 0.58502845D+06 0.58502845D+06 0.58502845D+06 0.10637230D+01  1  2  3  2  7  2       -1 -.148126146036D-04 0.100000000000D+01
0.124634439513D-04 0.000000000000D+00 0.000000000000D+00 0.499456629282D-05 0.000000000000D+00  7 1 -1 23 -13 13 23 21 2 0.87747995D-01 0.16526568D+00 0.58502845D+06 0.58502845D+06 0.58502845D+06 0.10637230D+01  1  2 15  2  7  2       -1 0.163575409622D-04 0.100000000000D+01
0.572350406255D-04 0.000000000000D+00 -.719881104075D-04 0.499456629282D-05 0.000000000000D+00  7 1 -1 23 -13 13 23 21 2 0.87747995D-01 0.84046881D+00 0.58502845D+06 0.58502845D+06 0.58502845D+06 0.10637230D+01  1  2  5  2  7  2       -1 0.160289273735D-07 0.100000000000D+01
0.907767565026D-05 0.000000000000D+00 -.142831422441D-04 0.499456629282D-05 0.000000000000D+00  7 1 21 23 -13 13 23 1 2 0.87747995D-01 0.84046881D+00 0.58502845D+06 0.58502845D+06 0.58502845D+06 0.10637230D+01  1  2  5  4  7  2       -1 0.125295785773D-09 0.100000000000D+01
  </mgrwgt>
  </event>
  <event>
  9     66 0.56006291E-06 0.21611131E+03 0.75467711E-02 0.10442302E+00
        3 -1    0    0  502    0 0.00000000E+00 0.00000000E+00 0.60595727E+03 0.60595748E+03 0.50000000E+00 0.0000E+00 0.9000E+01
       -3 -1    0    0    0  501 0.00000000E+00 0.00000000E+00 -.14784260E+03 0.14784345E+03 0.50000000E+00 0.0000E+00 0.9000E+01
       25  2    1    2    0    0 -.15041341E+03 -.69253998E+02 0.28705873E+03 0.44593083E+03 0.29838110E+03 0.0000E+00 0.0000E+00
       23  2    1    2    0    0 0.14212014E+03 0.93336946E+02 0.19342998E+03 0.27395952E+03 0.93427723E+02 0.0000E+00 0.0000E+00
       23  1    3    3    0    0 -.46198840E+02 -.35624945E+02 0.28341131E+03 0.30338209E+03 0.91188000E+02 0.0000E+00 0.9000E+01
      -13  1    4    4    0    0 0.78802771E+02 0.87775995E+02 0.75680562E+02 0.14015014E+03 0.10565837E+00 0.0000E+00 0.9000E+01
       13  1    4    4    0    0 0.63317369E+02 0.55609512E+01 0.11774942E+03 0.13380938E+03 0.10565837E+00 0.0000E+00 0.9000E+01
       23  1    3    3    0    0 -.10421457E+03 -.33629053E+02 0.36474205E+01 0.14254874E+03 0.91188000E+02 0.0000E+00 0.9000E+01
       21  1    1    2  502  501 0.82932686E+01 -.24082948E+02 -.22374046E+02 0.33910576E+02 0.75000000E+00 0.0000E+00 0.9000E+01
#aMCatNLO 2  0  0  1  2 0.25470899D+02 0.00000000D+00  -5  7  0 0.00000000D+00 0.00000000D+00 0.00000000D+00 0.00000000D+00 0.00000000D+00
  <mgrwgt>
 0.9265858217D-06    1    2    0
 0.267733050985101D+03 0.000000000000000D+00 0.000000000000000D+00 0.267733050985101D+03
 0.267733050985101D+03 0.000000000000000D+00 0.000000000000000D+00 -.267733050985101D+03
 0.154446221754804D+03 -.438163450961942D+02 -.425435169236245D+02 0.108667203610448D+03
 0.117782865973607D+03 0.806460333032445D+02 0.824234904012494D+02 -.239872686957872D+02
 0.749664057175728D+02 0.644714664421791D+02 0.220939493963025D+01 0.381904513590430D+02
 0.188270608524219D+03 -.101301154649229D+03 -.420893684172552D+02 -.122870386273704D+03
 0.000000000000000D+00 0.000000000000000D+00 -.000000000000000D+00 -.000000000000000D+00
 0.270609674408282D+03 0.000000000000000D+00 0.000000000000000D+00 0.270609674408282D+03
 0.331049841883975D+03 0.000000000000000D+00 0.000000000000000D+00 -.331049841883975D+03
 0.153386056559640D+03 -.461988425748661D+02 -.356249464160332D+02 0.108667203610448D+03
 0.120374054353823D+03 0.788027949485299D+02 0.877760981725276D+02 -.239872686957872D+02
 0.741520091823106D+02 0.633173501504509D+02 0.556085071650386D+01 0.381904513590430D+02
 0.188159435819221D+03 -.104214571125420D+03 -.336290541928140D+02 -.122870386273704D+03
 0.655879603772622D+02 0.829326860130522D+01 -.240829482801843D+02 -.604401674756935D+02
0.884803122346D-07 0.000000000000D+00 0.000000000000D+00 0.671497874302D-08 0.732580328421D-10  7 3 -3 23 -13 13 23 21 2 0.93223544D-01 0.22744918D-01 0.52383063D+05 0.52383063D+05 0.52383063D+05 0.11455210D+01  1  2  1  1  7  1        3 0.926585821714D-06 0.100000000000D+01
  </mgrwgt>
  </event>
  <event>
  8     66 0.56006291E-06 0.20110654E+03 0.75467711E-02 0.10308777E+00
        1 -1    0    0  501    0 0.00000000E+00 0.00000000E+00 0.69141583E+03 0.69141591E+03 0.32000000E+00 0.0000E+00 0.9000E+01
       -1 -1    0    0    0  501 0.00000000E+00 0.00000000E+00 -.12987803E+03 0.12987842E+03 0.32000000E+00 0.0000E+00 0.9000E+01
       25  2    1    2    0    0 0.22863318E+02 -.10790312E+03 0.59450212E+03 0.67493625E+03 0.29990059E+03 0.0000E+00 0.0000E+00
       23  2    1    2    0    0 -.22863318E+02 0.10790312E+03 -.32964311E+02 0.14635808E+03 0.90378243E+02 0.0000E+00 0.0000E+00
       23  1    3    3    0    0 -.14214376E+02 -.14692490E+03 0.51230122E+03 0.54088517E+03 0.91188000E+02 0.0000E+00 0.9000E+01
      -11  1    4    4    0    0 0.15317452E+02 0.57970629E+02 -.53369754E+02 0.80271719E+02 0.51099893E-03 0.0000E+00 0.9000E+01
       11  1    4    4    0    0 -.38180770E+02 0.49932491E+02 0.20405443E+02 0.66086360E+02 0.51099893E-03 0.0000E+00 0.9000E+01
       23  1    3    3    0    0 0.37077694E+02 0.39021775E+02 0.82200899E+02 0.13405109E+03 0.91188000E+02 0.0000E+00 0.9000E+01
#aMCatNLO 1  0  0  2  2 0.91710080D+02 0.00000000D+00  -5  7  0 0.00000000D+00 0.00000000D+00 0.00000000D+00 0.00000000D+00 0.00000000D+00
  <mgrwgt>
 0.5365856578D-04    4    2    0
 0.299666342736767D+03 0.000000000000000D+00 0.000000000000000D+00 0.299666342736767D+03
 0.299666342736767D+03 0.000000000000000D+00 0.000000000000000D+00 -.299666342736767D+03
 0.261206206927929D+03 -.142143758248789D+02 -.146924895281380D+03 0.195254853614809D+03
 0.160004358686656D+03 0.153174523421222D+02 0.579706292457542D+02 -.148344789586039D+03
 0.714426659519467D+02 -.381807700838365D+02 0.499324909220334D+02 -.339562904989298D+02
 0.106679453907003D+03 0.370776935665932D+02 0.390217751135923D+02 -.129537735298407D+02
 0.000000000000000D+00 -.000000000000000D+00 0.000000000000000D+00 0.000000000000000D+00
 0.352447717642265D+03 0.000000000000000D+00 0.000000000000000D+00 0.352447717642265D+03
 0.345811022174086D+03 0.000000000000000D+00 0.000000000000000D+00 -.345811022174086D+03
 0.273058966727768D+03 0.215045180490167D+02 -.166310089320449D+03 0.195254853614809D+03
 0.159695560930445D+03 0.366913469236456D+02 0.463706873411635D+02 -.148344789586039D+03
 0.634947271460536D+02 -.291593802172500D+02 0.450364436456737D+02 -.339562904989298D+02
 0.110059582878735D+03 0.515680235282261D+02 0.311576497857452D+02 -.129537735298407D+02
 0.919499021333492D+02 -.806045082836384D+02 0.437453085478662D+02 0.663669546817887D+01
0.190664532589D-05 0.000000000000D+00 0.000000000000D+00 0.557623506155D-06 0.000000000000D+00  7 1 -1 23 -11 11 23 21 0 0.10637170D+00 0.19981271D-01 0.40443839D+05 0.40443839D+05 0.40443839D+05 0.11554872D+01  1  2  2  2  7  2       -1 0.123865423961D-03 0.100000000000D+01
-.854383638127D-07 0.000000000000D+00 -.732202008268D-08 0.557623506155D-06 0.000000000000D+00  7 1 -1 23 -11 11 23 21 2 0.10637170D+00 0.19981271D-01 0.40443839D+05 0.40443839D+05 0.40443839D+05 0.11554872D+01  1  2  3  2  7  2       -1 -.741077138351D-05 0.100000000000D+01
0.115462082792D-06 0.000000000000D+00 0.000000000000D+00 0.557623506155D-06 0.000000000000D+00  7 1 -1 23 -11 11 23 21 2 0.10637170D+00 0.19981271D-01 0.40443839D+05 0.40443839D+05 0.40443839D+05 0.11554872D+01  1  2 15  2  7  2       -1 0.100149752506D-04 0.100000000000D+01
-.839434613027D-06 0.000000000000D+00 0.000000000000D+00 0.557623506155D-06 0.000000000000D+00  7 1 -1 23 -11 11 23 21 2 0.10637170D+00 0.19981271D-01 0.40443839D+05 0.40443839D+05 0.40443839D+05 0.11554872D+01  1  2  4  2  7  2       -1 -.728110620445D-04 0.100000000000D+01
  </mgrwgt>
  </event>
  <event>
  9     66 0.56006291E-06 0.21209730E+03 0.75467711E-02 0.10424991E+00
        1 -1    0    0  502    0 0.00000000E+00 0.00000000E+00 0.39620910E+03 0.39620923E+03 0.32000000E+00 0.0000E+00 0.9000E+01
       -1 -1    0    0    0  501 0.00000000E+00 0.00000000E+00 -.29119409E+03 0.29119427E+03 0.32000000E+00 0.0000E+00 0.9000E+01
       25  2    1    2    0    0 -.13126025E+03 0.43567977E+02 -.10412743E+03 0.34581885E+03 0.29936722E+03 0.0000E+00 0.0000E+00
       23  2    1    2    0    0 0.14230456E+03 -.76585754E+01 0.23777983E+03 0.29433928E+03 0.98929880E+02 0.0000E+00 0.0000E+00
       23  1    3    3    0    0 0.18805585E+02 -.20597794E+02 0.46163659E+02 0.10594458E+03 0.91188000E+02 0.0000E+00 0.9000E+01
      -11  1    4    4    0    0 0.67427899E+02 0.53015383E+01 0.31701242E+02 0.74696697E+02 0.51099893E-03 0.0000E+00 0.9000E+01
       11  1    4    4    0    0 0.74876664E+02 -.12960114E+02 0.20607859E+03 0.21964258E+03 0.51099893E-03 0.0000E+00 0.9000E+01
       23  1    3    3    0    0 -.15006584E+03 0.64165771E+02 -.15029109E+03 0.23987427E+03 0.91188000E+02 0.0000E+00 0.9000E+01
       21  1    1    2  502  501 -.11044311E+02 -.35909402E+02 -.28637396E+02 0.47245369E+02 0.75000000E+00 0.0000E+00 0.9000E+01
#aMCatNLO 2  0  0  1  1 0.37569428D+02 0.00000000D+00  -5  7  0 0.00000000D+00 0.00000000D+00 0.00000000D+00 0.00000000D+00 0.00000000D+00
  <mgrwgt>
 0.3835644054D-04    1    2    0
 0.312461197657920D+03 0.000000000000000D+00 0.000000000000000D+00 0.312461197657920D+03
 0.312461197657920D+03 0.000000000000000D+00 0.000000000000000D+00 -.312461197657920D+03
 0.995057303356342D+02 0.170576825332847D+02 -.262809143639202D+02 0.245863383287938D+02
 0.682415629444753D+02 0.662108465157119D+02 0.134442251943033D+01 0.164689782581336D+02
 0.180344815460989D+03 0.716900596157421D+02 -.233210214044134D+02 0.163831980323148D+03
 0.276830286574741D+03 -.154958588664739D+03 0.482575132489033D+02 -.204887296910075D+03
 0.000000000000000D+00 -.000000000000000D+00 -.000000000000000D+00 -.000000000000000D+00
 0.320550183904099D+03 0.000000000000000D+00 0.000000000000000D+00 0.320550183904099D+03
 0.359918759092792D+03 0.000000000000000D+00 0.000000000000000D+00 -.359918759092792D+03
 0.984766903618991D+02 0.188055853340112D+02 -.205977942620238D+02 0.245863383287938D+02
 0.696121762012794D+02 0.674278986958729D+02 0.530153827395340D+01 0.164689782581336D+02
 0.180597334546197D+03 0.748766647328785D+02 -.129601136980602D+02 0.163831980323148D+03
 0.277364485411154D+03 -.150065838133205D+03 0.641657713555695D+02 -.204887296910075D+03
 0.544182564763613D+02 -.110443106295574D+02 -.359094016694390D+02 -.393685751886931D+02
0.795870565257D-06 0.000000000000D+00 0.000000000000D+00 0.121340036464D-07 0.604602067242D-10  7 1 -1 23 -11 11 23 21 2 0.60954786D-01 0.44798760D-01 0.53710091D+05 0.53710091D+05 0.53710091D+05 0.11445711D+01  1  2  1  1  7  1        1 0.383564405423D-04 0.100000000000D+01
  </mgrwgt>
  </event>
  <event>
  8     66 0.56006291E-06 0.22657901E+03 0.75467711E-02 0.91608562E-01
        1 -1    0    0  501    0 0.00000000E+00 0.00000000E+00 0.15250103E+04 0.15250103E+04 0.32000000E+00 0.0000E+00 0.9000E+01
       -1 -1    0    0    0  501 0.00000000E+00 0.00000000E+00 -.58956390E+02 0.58957259E+02 0.32000000E+00 0.0000E+00 0.9000E+01
       25  2    1    2    0    0 -.16653290E+03 -.49928498E+02 0.12186133E+04 0.12671366E+04 0.30065040E+03 0.0000E+00 0.0000E+00
       23  2    1    2    0    0 0.16653290E+03 0.49928498E+02 0.24744059E+03 0.31683100E+03 0.94493241E+02 0.0000E+00 0.0000E+00
       23  1    3    3    0    0 -.13828956E+03 -.59255995E+02 0.11028781E+04 0.11168216E+04 0.91188000E+02 0.0000E+00 0.9000E+01
      -13  1    4    4    0    0 0.42919547E+02 0.37648872E+02 0.25579691E+02 0.62560825E+02 0.10565837E+00 0.0000E+00 0.9000E+01
       13  1    4    4    0    0 0.12361336E+03 0.12279626E+02 0.22186090E+03 0.25427017E+03 0.10565837E+00 0.0000E+00 0.9000E+01
       23  1    3    3    0    0 -.28243346E+02 0.93274969E+01 0.11573526E+03 0.15031497E+03 0.91188000E+02 0.0000E+00 0.9000E+01
#aMCatNLO 1  0  0  1  1 0.58221268D+03 0.00000000D+00  -5  7  0 0.00000000D+00 0.00000000D+00 0.00000000D+00 0.00000000D+00 0.00000000D+00
  <mgrwgt>
 0.1536154530D-03    5    2    0
 0.299849658428019D+03 0.000000000000000D+00 0.000000000000000D+00 0.299849658428019D+03
 0.299849658428019D+03 0.000000000000000D+00 0.000000000000000D+00 -.299849658428019D+03
 0.253678078204187D+03 -.138289559786049D+03 -.592559951034704D+02 0.182762251889847D+03
 0.102706626297672D+03 0.429194521293351D+02 0.376489020861276D+02 -.853764129375123D+02
 0.129224251851130D+03 0.123613455442591D+03 0.122795968814509D+02 -.356066342197040D+02
 0.114090360503048D+03 -.282433477858778D+02 0.932749613589188D+01 -.617792047326312D+02
 0.000000000000000D+00 0.000000000000000D+00 -.000000000000000D+00 0.000000000000000D+00
 0.961235754958310D+03 0.000000000000000D+00 0.000000000000000D+00 0.961235754958310D+03
 0.573886788470370D+03 0.000000000000000D+00 0.000000000000000D+00 -.573886788470370D+03
 0.481686276754707D+03 -.435160039513843D+03 -.306613301126282D+02 0.182762251889847D+03
 0.105175495496913D+03 -.410036600093271D+02 0.457324046249934D+02 -.853764129375123D+02
 0.617928254735417D+02 0.464988509622774D+02 0.197073016604432D+02 -.356066342197040D+02
 0.187174855475909D+03 -.149865708986632D+03 0.210422030920014D+02 -.617792047326312D+02
 0.699293090227609D+03 0.579530557547524D+03 -.558205792648098D+02 0.387348966487940D+03
0.281869716585D-05 0.000000000000D+00 0.000000000000D+00 0.305202847864D-07 0.000000000000D+00  7 1 -1 23 -13 13 23 21 0 0.23461704D+00 0.90702833D-02 0.51338046D+05 0.51338046D+05 0.51338046D+05 0.11462879D+01  1  2  2  1  7  1        1 0.150978304964D-03 0.100000000000D+01
-.141647255062D-06 0.000000000000D+00 -.108245392969D-07 0.305202847864D-07 0.000000000000D+00  7 1 -1 23 -13 13 23 21 2 0.23461704D+00 0.90702833D-02 0.51338046D+05 0.51338046D+05 0.51338046D+05 0.11462879D+01  1  2  3  1  7  1        1 -.996923233980D-05 0.100000000000D+01
0.178842342992D-06 0.000000000000D+00 0.000000000000D+00 0.305202847864D-07 0.000000000000D+00  7 1 -1 23 -13 13 23 21 2 0.23461704D+00 0.90702833D-02 0.51338046D+05 0.51338046D+05 0.51338046D+05 0.11462879D+01  1  2 15  1  7  1        1 0.125870485009D-04 0.100000000000D+01
0.598610176468D-06 0.000000000000D+00 -.806668052107D-06 0.305202847864D-07 0.000000000000D+00  7 1 -1 23 -13 13 23 21 2 0.81279311D+00 0.90702833D-02 0.51338046D+05 0.51338046D+05 0.51338046D+05 0.11462879D+01  1  2  5  1  7  1        1 0.192207891928D-07 0.100000000000D+01
0.113761324695D-06 0.000000000000D+00 -.117060288221D-06 0.305202847864D-07 0.000000000000D+00  7 21 -1 23 -13 13 23 -1 2 0.81279311D+00 0.90702833D-02 0.51338046D+05 0.51338046D+05 0.51338046D+05 0.11462879D+01  1  2  5  3  7  1        1 0.111068732639D-09 0.100000000000D+01
  </mgrwgt>
  </event>
  <event>
  8     66 0.56006291E-06 0.37950418E+03 0.75467711E-02 0.97551108E-01
        1 -1    0    0  501    0 0.00000000E+00 0.00000000E+00 0.71127102E+03 0.71127109E+03 0.32000000E+00 0.0000E+00 0.9000E+01
       -1 -1    0    0    0  501 0.00000000E+00 0.00000000E+00 -.24135309E+03 0.24135330E+03 0.32000000E+00 0.0000E+00 0.9000E+01
       25  2    1    2    0    0 -.25627037E+03 -.23912251E+03 0.21055257E+03 0.50716429E+03 0.30004859E+03 0.0000E+00 0.0000E+00
       23  2    1    2    0    0 0.25627037E+03 0.23912251E+03 0.25936536E+03 0.44546010E+03 0.91160485E+02 0.0000E+00 0.0000E+00
       23  1    3    3    0    0 -.16458394E+03 -.82659240E+02 0.22367914E+03 0.30375654E+03 0.91188000E+02 0.0000E+00 0.9000E+01
      -13  1    4    4    0    0 0.12010380E+03 0.11067627E+03 0.65484415E+02 0.17596130E+03 0.10565837E+00 0.0000E+00 0.9000E+01
       13  1    4    4    0    0 0.13616657E+03 0.12844624E+03 0.19388094E+03 0.26949880E+03 0.10565837E+00 0.0000E+00 0.9000E+01
       23  1    3    3    0    0 -.91686428E+02 -.15646327E+03 -.13126574E+02 0.20340776E+03 0.91188000E+02 0.0000E+00 0.9000E+01
#aMCatNLO 1  0  0  2  1 0.19808240D+02 0.00000000D+00  -5  7  0 0.00000000D+00 0.00000000D+00 0.00000000D+00 0.00000000D+00 0.00000000D+00
  <mgrwgt>
 0.1897197538D-03    4    2    0
 0.414327883189185D+03 0.000000000000000D+00 0.000000000000000D+00 0.414327883189185D+03
 0.414327883189185D+03 0.000000000000000D+00 0.000000000000000D+00 -.414327883189185D+03
 0.222354149806177D+03 -.164583941171802D+03 -.826592397080942D+02 0.848863533865392D+02
 0.165150229539373D+03 0.120103779738233D+03 0.110676247821014D+03 -.245040522722033D+02
 0.199869528672966D+03 0.136166589333197D+03 0.128446265905365D+03 0.700574422619470D+02
 0.241281858359855D+03 -.916864278996282D+02 -.156463274018285D+03 -.130439743376283D+03
 0.000000000000000D+00 -.000000000000000D+00 0.000000000000000D+00 0.000000000000000D+00
 0.505294836303436D+03 0.000000000000000D+00 0.000000000000000D+00 0.505294836303436D+03
 0.415525966682107D+03 0.000000000000000D+00 0.000000000000000D+00 -.415525966682107D+03
 0.219005895589543D+03 -.159435200123177D+03 -.838036689494914D+02 0.848863533865392D+02
 0.167425937971148D+03 0.123983488795089D+03 0.109813890897089D+03 -.245040522722033D+02
 0.202437806961163D+03 0.140859756090703D+03 0.127403098804647D+03 0.700574422619470D+02
 0.240022840762553D+03 -.860717074755219D+02 -.157711278175987D+03 -.130439743376283D+03
 0.919283217011368D+02 -.193363372870934D+02 0.429795742374249D+01 0.897688696213289D+02
0.894523287458D-05 0.000000000000D+00 0.000000000000D+00 0.176921339244D-05 0.000000000000D+00  7 1 -1 23 -13 13 23 21 0 0.10942633D+00 0.37131267D-01 0.14402342D+06 0.14402342D+06 0.14402342D+06 0.11089481D+01  1  2  2  2  7  2       -1 0.197210352221D-03 0.100000000000D+01
-.492300331093D-06 0.000000000000D+00 -.343520495723D-07 0.176921339244D-05 0.000000000000D+00  7 1 -1 23 -13 13 23 21 2 0.10942633D+00 0.37131267D-01 0.14402342D+06 0.14402342D+06 0.14402342D+06 0.11089481D+01  1  2  3  2  7  2       -1 -.133472135338D-04 0.100000000000D+01
0.566765357892D-06 0.000000000000D+00 0.000000000000D+00 0.176921339244D-05 0.000000000000D+00  7 1 -1 23 -13 13 23 21 2 0.10942633D+00 0.37131267D-01 0.14402342D+06 0.14402342D+06 0.14402342D+06 0.11089481D+01  1  2 15  2  7  2       -1 0.153661043423D-04 0.100000000000D+01
-.350749217563D-06 0.000000000000D+00 0.000000000000D+00 0.176921339244D-05 0.000000000000D+00  7 1 -1 23 -13 13 23 21 2 0.10942633D+00 0.37131267D-01 0.14402342D+06 0.14402342D+06 0.14402342D+06 0.11089481D+01  1  2  4  2  7  2       -1 -.950948924455D-05 0.100000000000D+01
  </mgrwgt>
  </event>
  <event>
  8     66 0.56006291E-06 0.23047669E+03 0.75467711E-02 0.10270603E+00
        1 -1    0    0  501    0 0.00000000E+00 0.00000000E+00 0.21496626E+03 0.21496649E+03 0.32000000E+00 0.0000E+00 0.9000E+01
       -1 -1    0    0    0  501 0.00000000E+00 0.00000000E+00 -.89016647E+03 0.89016653E+03 0.32000000E+00 0.0000E+00 0.9000E+01
       25  2    1    2    0    0 0.13079569E+03 -.13629716E+03 0.42282300E+02 0.35742042E+03 0.30046153E+03 0.0000E+00 0.0000E+00
       23  2    1    2    0    0 -.13079569E+03 0.13629716E+03 -.71748251E+03 0.74771260E+03 0.92782298E+02 0.0000E+00 0.0000E+00
       23  1    3    3    0    0 0.10226832E+03 -.78045320E+02 -.92047549E+02 0.18258665E+03 0.91188000E+02 0.0000E+00 0.9000E+01
      -11  1    4    4    0    0 -.11302807E+03 0.13056904E+03 -.49143153E+03 0.52089209E+03 0.51099893E-03 0.0000E+00 0.9000E+01
       11  1    4    4    0    0 -.17767616E+02 0.57281190E+01 -.22605098E+03 0.22682051E+03 0.51099893E-03 0.0000E+00 0.9000E+01
       23  1    3    3    0    0 0.28527371E+02 -.58251840E+02 0.13432985E+03 0.17483377E+03 0.91188000E+02 0.0000E+00 0.9000E+01
#aMCatNLO 1  0  0  1  1 0.52300057D+02 0.00000000D+00  -5  7  0 0.00000000D+00 0.00000000D+00 0.00000000D+00 0.00000000D+00 0.00000000D+00
  <mgrwgt>
 0.2336018428D-03    4    2    0
 0.437442473013584D+03 0.000000000000000D+00 0.000000000000000D+00 0.437442473013584D+03
 0.437442473013584D+03 0.000000000000000D+00 0.000000000000000D+00 -.437442473013584D+03
 0.159600423023129D+03 0.102268317620774D+03 -.780453201245192D+02 0.246406757788730D+02
 0.278711363568970D+03 -.113028072894603D+03 0.130569041346023D+03 -.218761066833629D+03
 0.112057212874436D+03 -.177676159395945D+02 0.572811898145041D+01 -.110491264061663D+03
 0.324515946560632D+03 0.285273712134230D+02 -.582518402029547D+02 0.304611655116419D+03
 0.000000000000000D+00 0.000000000000000D+00 0.000000000000000D+00 -.000000000000000D+00
 0.442052249758732D+03 0.000000000000000D+00 0.000000000000000D+00 0.442052249758732D+03
 0.616820774008184D+03 0.000000000000000D+00 0.000000000000000D+00 -.616820774008184D+03
 0.161951035873419D+03 0.987073328232421D+02 -.869631313865574D+02 0.246406757788730D+02
 0.274465794988578D+03 -.119154169970091D+03 0.115227392729607D+03 -.218761066833629D+03
 0.112333131198900D+03 -.202526011009125D+02 -.495055201421565D+00 -.110491264061663D+03
 0.327696821697423D+03 0.213045156229268D+02 -.763401125745879D+02 0.304611655116419D+03
 0.182426240008596D+03 0.193949226248350D+02 0.485709064329595D+02 -.174768524249452D+03
0.285750947467D-04 0.000000000000D+00 0.000000000000D+00 0.461444379145D-06 0.000000000000D+00  7 1 -1 23 -11 11 23 21 0 0.33071755D-01 0.13694871D+00 0.53119505D+05 0.53119505D+05 0.53119505D+05 0.11449906D+01  1  2  2  1  7  1        1 0.235543276163D-03 0.100000000000D+01
-.794939062494D-06 0.000000000000D+00 -.109735887823D-06 0.461444379145D-06 0.000000000000D+00  7 1 -1 23 -11 11 23 21 2 0.33071755D-01 0.13694871D+00 0.53119505D+05 0.53119505D+05 0.53119505D+05 0.11449906D+01  1  2  3  1  7  1        1 -.859054508933D-05 0.100000000000D+01
0.170224358837D-05 0.000000000000D+00 0.000000000000D+00 0.461444379145D-06 0.000000000000D+00  7 1 -1 23 -11 11 23 21 2 0.33071755D-01 0.13694871D+00 0.53119505D+05 0.53119505D+05 0.53119505D+05 0.11449906D+01  1  2 15  1  7  1        1 0.183953726630D-04 0.100000000000D+01
-.108695799117D-05 0.000000000000D+00 0.000000000000D+00 0.461444379145D-06 0.000000000000D+00  7 1 -1 23 -11 11 23 21 2 0.33071755D-01 0.13694871D+00 0.53119505D+05 0.53119505D+05 0.53119505D+05 0.11449906D+01  1  2  4  1  7  1        1 -.117462609072D-04 0.100000000000D+01
  </mgrwgt>
  </event>
  <event>
  8     66 0.56006291E-06 0.23386999E+03 0.75467711E-02 0.10251884E+00
        1 -1    0    0  501    0 0.00000000E+00 0.00000000E+00 0.41613212E+03 0.41613225E+03 0.32000000E+00 0.0000E+00 0.9000E+01
       -1 -1    0    0    0  501 0.00000000E+00 0.00000000E+00 -.21552496E+03 0.21552520E+03 0.32000000E+00 0.0000E+00 0.9000E+01
       25  2    1    2    0    0 0.11800042E+02 -.18970566E+03 0.22417868E+02 0.35582313E+03 0.29996677E+03 0.0000E+00 0.0000E+00
       23  2    1    2    0    0 -.11800042E+02 0.18970566E+03 0.17818929E+03 0.27583431E+03 0.90585132E+02 0.0000E+00 0.0000E+00
       23  1    3    3    0    0 0.46416753E+02 -.94305550E+02 -.10092498E+03 0.17189868E+03 0.91188000E+02 0.0000E+00 0.9000E+01
      -11  1    4    4    0    0 0.46028512E+01 0.13406378E+03 0.17106692E+03 0.21738946E+03 0.51099893E-03 0.0000E+00 0.9000E+01
       11  1    4    4    0    0 -.16402894E+02 0.55641870E+02 0.71223715E+01 0.58444853E+02 0.51099893E-03 0.0000E+00 0.9000E+01
       23  1    3    3    0    0 -.34616711E+02 -.95400105E+02 0.12334285E+03 0.18392446E+03 0.91188000E+02 0.0000E+00 0.9000E+01
#aMCatNLO 1  0  0  2  1 0.57360527D+02 0.00000000D+00  -5  7  0 0.00000000D+00 0.00000000D+00 0.00000000D+00 0.00000000D+00 0.00000000D+00
  <mgrwgt>
 0.1260535715D-03    4    2    0
 0.299477834804697D+03 0.000000000000000D+00 0.000000000000000D+00 0.299477834804697D+03
 0.299477834804697D+03 0.000000000000000D+00 0.000000000000000D+00 -.299477834804697D+03
 0.215086622864062D+03 0.464167534143554D+02 -.943055504725414D+02 -.164009000190871D+03
 0.171963343737276D+03 0.460285122516644D+01 0.134063784614542D+03 0.107596965592573D+03
 0.592503412099840D+02 -.164028936217716D+02 0.556418704966028D+02 -.120635924156798D+02
 0.152655361798072D+03 -.346167110177502D+02 -.954001046386033D+02 0.684756270139773D+02
 0.000000000000000D+00 -.000000000000000D+00 -.000000000000000D+00 0.000000000000000D+00
 0.358536860761917D+03 0.000000000000000D+00 0.000000000000000D+00 0.358536860761917D+03
 0.315106540149632D+03 0.000000000000000D+00 0.000000000000000D+00 -.315106540149632D+03
 0.208864633847833D+03 0.527021229452047D+02 -.750514358413547D+02 -.164009000190871D+03
 0.185092015045748D+03 0.989644297042317D+01 0.150279763925484D+03 0.107596965592573D+03
 0.640995546548689D+02 -.145741464136244D+02 0.612439131775160D+02 -.120635924156798D+02
 0.143639836154068D+03 -.302239305273955D+02 -.819436008171803D+02 0.684756270139773D+02
 0.719473612090305D+02 -.178004889746080D+02 -.545286404444646D+02 0.434303206122849D+02
0.307551443914D-05 0.000000000000D+00 0.000000000000D+00 0.484396593141D-06 0.000000000000D+00  7 1 -1 23 -11 11 23 21 0 0.64020354D-01 0.33157714D-01 0.54695173D+05 0.54695173D+05 0.54695173D+05 0.11438825D+01  1  2  2  2  7  2       -1 0.177281254349D-03 0.100000000000D+01
-.158159468732D-06 0.000000000000D+00 -.118107852479D-07 0.484396593141D-06 0.000000000000D+00  7 1 -1 23 -11 11 23 21 2 0.64020354D-01 0.33157714D-01 0.54695173D+05 0.54695173D+05 0.54695173D+05 0.11438825D+01  1  2  3  2  7  2       -1 -.119289738763D-04 0.100000000000D+01
0.197998045502D-06 0.000000000000D+00 0.000000000000D+00 0.484396593141D-06 0.000000000000D+00  7 1 -1 23 -11 11 23 21 2 0.64020354D-01 0.33157714D-01 0.54695173D+05 0.54695173D+05 0.54695173D+05 0.11438825D+01  1  2 15  2  7  2       -1 0.149337471306D-04 0.100000000000D+01
-.719037239103D-06 0.000000000000D+00 0.000000000000D+00 0.484396593141D-06 0.000000000000D+00  7 1 -1 23 -11 11 23 21 2 0.64020354D-01 0.33157714D-01 0.54695173D+05 0.54695173D+05 0.54695173D+05 0.11438825D+01  1  2  4  2  7  2       -1 -.542324560782D-04 0.100000000000D+01
  </mgrwgt>
  </event>
  <event>
  8     66 0.56006291E-06 0.36888136E+03 0.75467711E-02 0.96472385E-01
        1 -1    0    0  501    0 0.00000000E+00 0.00000000E+00 0.45030470E+03 0.45030481E+03 0.32000000E+00 0.0000E+00 0.9000E+01
       -1 -1    0    0    0  501 0.00000000E+00 0.00000000E+00 -.35095288E+03 0.35095303E+03 0.32000000E+00 0.0000E+00 0.9000E+01
       25  2    1    2    0    0 -.32981058E+03 0.51481132E+02 0.61344310E+02 0.45289676E+03 0.29987835E+03 0.0000E+00 0.0000E+00
       23  2    1    2    0    0 0.32981058E+03 -.51481132E+02 0.38007507E+02 0.34836108E+03 0.92117027E+02 0.0000E+00 0.0000E+00
       23  1    3    3    0    0 -.91599320E+02 -.17397575E+02 -.80262983E+02 0.15313559E+03 0.91188000E+02 0.0000E+00 0.9000E+01
      -11  1    4    4    0    0 0.30163747E+03 -.22115502E+02 0.48559409E+02 0.30632054E+03 0.51099893E-03 0.0000E+00 0.9000E+01
       11  1    4    4    0    0 0.28173113E+02 -.29365629E+02 -.10551902E+02 0.42040541E+02 0.51099893E-03 0.0000E+00 0.9000E+01
       23  1    3    3    0    0 -.23821126E+03 0.68878706E+02 0.14160729E+03 0.29976117E+03 0.91188000E+02 0.0000E+00 0.9000E+01
#aMCatNLO 1  0  0  1  1 0.11041256D+03 0.00000000D+00  -5  7  0 0.00000000D+00 0.00000000D+00 0.00000000D+00 0.00000000D+00 0.00000000D+00
  <mgrwgt>
 0.1608643618D-03    4    2    0
 0.397537213691188D+03 0.000000000000000D+00 0.000000000000000D+00 0.397537213691188D+03
 0.397537213691188D+03 0.000000000000000D+00 0.000000000000000D+00 -.397537213691188D+03
 0.164356141877957D+03 -.915993200481327D+02 -.173975746495967D+02 -.100022892339896D+03
 0.302634900690321D+03 0.301637468634813D+03 -.221155024635509D+02 0.106595113493703D+02
 0.436860536718380D+02 0.281731133331842D+02 -.293656290937597D+02 -.158873156468299D+02
 0.284397331142260D+03 -.238211261919864D+03 0.688787062069073D+02 0.105250696637356D+03
 0.000000000000000D+00 -.000000000000000D+00 0.000000000000000D+00 -.000000000000000D+00
 0.436715970205604D+03 0.000000000000000D+00 0.000000000000000D+00 0.436715970205604D+03
 0.487534476734644D+03 0.000000000000000D+00 0.000000000000000D+00 -.487534476734644D+03
 0.158940073008199D+03 -.762362207081471D+02 -.336177798783913D+02 -.100022892339896D+03
 0.336574208680909D+03 0.332012810485790D+03 -.541854818221627D+02 0.106595113493703D+02
 0.497564826600998D+02 0.326135209289035D+02 -.340537666178468D+02 -.158873156468299D+02
 0.257433588163128D+03 -.212463350699513D+03 0.416943214050790D+02 0.105250696637356D+03
 0.121546094427912D+03 -.759267600070337D+02 0.801627069133218D+02 -.508185065290398D+02
0.115005673920D-04 0.000000000000D+00 0.000000000000D+00 0.601076207240D-06 0.000000000000D+00  7 1 -1 23 -11 11 23 21 0 0.69277666D-01 0.53992771D-01 0.13607346D+06 0.13607346D+06 0.13607346D+06 0.11109069D+01  1  2  2  1  7  1        1 0.251249382791D-03 0.100000000000D+01
-.634572426652D-06 0.000000000000D+00 -.441652069541D-07 0.601076207240D-06 0.000000000000D+00  7 1 -1 23 -11 11 23 21 2 0.69277666D-01 0.53992771D-01 0.13607346D+06 0.13607346D+06 0.13607346D+06 0.11109069D+01  1  2  3  1  7  1        1 -.171089079886D-04 0.100000000000D+01
0.733652127920D-06 0.000000000000D+00 0.000000000000D+00 0.601076207240D-06 0.000000000000D+00  7 1 -1 23 -11 11 23 21 2 0.69277666D-01 0.53992771D-01 0.13607346D+06 0.13607346D+06 0.13607346D+06 0.11109069D+01  1  2 15  1  7  1        1 0.197802271657D-04 0.100000000000D+01
-.345147613296D-05 0.000000000000D+00 0.000000000000D+00 0.601076207240D-06 0.000000000000D+00  7 1 -1 23 -11 11 23 21 2 0.69277666D-01 0.53992771D-01 0.13607346D+06 0.13607346D+06 0.13607346D+06 0.11109069D+01  1  2  4  1  7  1        1 -.930563401491D-04 0.100000000000D+01
  </mgrwgt>
  </event>
  <event>
  8     66 0.56006291E-06 0.15371325E+03 0.75467711E-02 0.10136049E+00
        1 -1    0    0  501    0 0.00000000E+00 0.00000000E+00 0.78129134E+03 0.78129141E+03 0.32000000E+00 0.0000E+00 0.9000E+01
       -1 -1    0    0    0  501 0.00000000E+00 0.00000000E+00 -.63327813E+02 0.63328621E+02 0.32000000E+00 0.0000E+00 0.9000E+01
       25  2    1    2    0    0 0.34516178E+02 -.65008423E+00 0.34358635E+03 0.45762797E+03 0.30029984E+03 0.0000E+00 0.0000E+00
       23  2    1    2    0    0 -.34516178E+02 0.65008423E+00 0.37437718E+03 0.38699205E+03 0.91721263E+02 0.0000E+00 0.0000E+00
       23  1    3    3    0    0 0.97249438E+01 0.63426591E+02 0.32288114E+03 0.34159185E+03 0.91188000E+02 0.0000E+00 0.9000E+01
      -13  1    4    4    0    0 -.58131745E+02 0.55598234E+00 0.34206389E+03 0.34696877E+03 0.10565837E+00 0.0000E+00 0.9000E+01
       13  1    4    4    0    0 0.23615567E+02 0.94101892E-01 0.32313287E+02 0.40023288E+02 0.10565837E+00 0.0000E+00 0.9000E+01
       23  1    3    3    0    0 0.24791234E+02 -.64076675E+02 0.20705209E+02 0.11603613E+03 0.91188000E+02 0.0000E+00 0.9000E+01
#aMCatNLO 1  0  0  2  1 0.19808132D+03 0.00000000D+00  -5  7  0 0.00000000D+00 0.00000000D+00 0.00000000D+00 0.00000000D+00 0.00000000D+00
  <mgrwgt>
 0.2193158376D-03    3    2    0
 0.222436149777999D+03 0.000000000000000D+00 0.000000000000000D+00 0.222436149777999D+03
 0.222436149777999D+03 0.000000000000000D+00 0.000000000000000D+00 -.222436149777999D+03
 0.127448770198769D+03 0.972495199728320D+01 0.634265904066301D+02 0.617286855458523D+02
 0.106698995898287D+03 -.581318444731538D+02 0.555983239685543D+00 0.894709744357850D+02
 0.238375045579995D+02 0.236156466178945D+02 0.941013691698752D-01 -.324330129708838D+01
 0.186887028900942D+03 0.247912458579760D+02 -.640766750154855D+02 -.147956358684549D+03
 0.000000000000000D+00 0.000000000000000D+00 0.000000000000000D+00 0.000000000000000D+00
 0.352841667212471D+03 0.000000000000000D+00 0.000000000000000D+00 0.352841667212471D+03
 0.333190082271132D+03 0.000000000000000D+00 0.000000000000000D+00 -.333190082271132D+03
 0.113663140674454D+03 -.188860829947818D+02 0.209031924326471D+02 0.617286855458523D+02
 0.131041380552723D+03 -.863428034632430D+02 -.413727983194571D+02 0.894709744357850D+02
 0.201890530358441D+02 0.183913282698891D+02 -.767058691689277D+01 -.324330129708838D+01
 0.222084426335359D+03 -.237384869708347D+02 -.136204409759193D+03 -.147956358684549D+03
 0.199053748885223D+03 0.110576045158970D+03 0.164344602562896D+03 0.196515849413382D+02
0.130901320899D-05 0.000000000000D+00 0.000000000000D+00 0.166643966843D-06 0.000000000000D+00  7 1 -1 23 -13 13 23 21 0 0.12019874D+00 0.97428076D-02 0.23627765D+05 0.23627765D+05 0.23627765D+05 0.11770813D+01  1  2  2  2  7  2       -1 0.214423773975D-03 0.100000000000D+01
-.606475349380D-07 0.000000000000D+00 -.502695539362D-08 0.166643966843D-06 0.000000000000D+00  7 1 -1 23 -13 13 23 21 2 0.12019874D+00 0.97428076D-02 0.23627765D+05 0.23627765D+05 0.23627765D+05 0.11770813D+01  1  2  3  2  7  2       -1 -.137643262441D-04 0.100000000000D+01
0.822026472979D-07 0.000000000000D+00 0.000000000000D+00 0.166643966843D-06 0.000000000000D+00  7 1 -1 23 -13 13 23 21 2 0.12019874D+00 0.97428076D-02 0.23627765D+05 0.23627765D+05 0.23627765D+05 0.11770813D+01  1  2 15  2  7  2       -1 0.186563898548D-04 0.100000000000D+01
  </mgrwgt>
  </event>
  <event>
  8     66 0.56006291E-06 0.25408475E+03 0.75467711E-02 0.95712725E-01
        1 -1    0    0  501    0 0.00000000E+00 0.00000000E+00 0.21367687E+03 0.21367711E+03 0.32000000E+00 0.0000E+00 0.9000E+01
       -1 -1    0    0    0  501 0.00000000E+00 0.00000000E+00 -.64072470E+03 0.64072478E+03 0.32000000E+00 0.0000E+00 0.9000E+01
       25  2    1    2    0    0 0.13939402E+03 -.96645376E+02 -.53291629E+03 0.63455883E+03 0.29982347E+03 0.0000E+00 0.0000E+00
       23  2    1    2    0    0 -.13939402E+03 0.96645376E+02 0.10586846E+03 0.21984307E+03 0.91388303E+02 0.0000E+00 0.0000E+00
       23  1    3    3    0    0 0.17282380E+03 -.97500563E+02 -.47157121E+03 0.51968171E+03 0.91188000E+02 0.0000E+00 0.9000E+01
      -11  1    4    4    0    0 0.74568459E+01 -.90531647E+01 0.69696644E+01 0.13643334E+02 0.51099893E-03 0.0000E+00 0.9000E+01
       11  1    4    4    0    0 -.14685087E+03 0.10569854E+03 0.98898794E+02 0.20619973E+03 0.51099893E-03 0.0000E+00 0.9000E+01
       23  1    3    3    0    0 -.33429777E+02 0.85518716E+00 -.61345079E+02 0.11487711E+03 0.91188000E+02 0.0000E+00 0.9000E+01
#aMCatNLO 1  0  0  2  1 0.32014616D+03 0.00000000D+00  -5  7  0 0.00000000D+00 0.00000000D+00 0.00000000D+00 0.00000000D+00 0.00000000D+00
  <mgrwgt>
 0.3963929869D-03    3    2    0
 0.370011062545329D+03 0.000000000000000D+00 0.000000000000000D+00 0.370011062545329D+03
 0.370011062545329D+03 0.000000000000000D+00 0.000000000000000D+00 -.370011062545329D+03
 0.327873408768499D+03 0.172823796263865D+03 -.975005627548997D+02 -.244563481617553D+03
 0.197740986586622D+02 0.745684587600739D+01 -.905316465358668D+01 0.159201330741621D+02
 0.295142469345860D+03 -.146850865298473D+03 0.105698540249473D+03 0.233177441365566D+03
 0.972321483176361D+02 -.334297768413990D+02 0.855187159012850D+00 -.453409282217520D+01
 0.000000000000000D+00 0.000000000000000D+00 0.000000000000000D+00 0.000000000000000D+00
 0.108298749217541D+04 0.000000000000000D+00 0.000000000000000D+00 0.108298749217541D+04
 0.440842631789574D+03 0.000000000000000D+00 0.000000000000000D+00 -.440842631789574D+03
 0.397348773571085D+03 0.168695076512571D+03 -.247591338972032D+03 -.244563481617553D+03
 0.253715820293255D+02 0.719982965659061D+01 -.183964396144428D+02 0.159201330741621D+02
 0.277614903073430D+03 -.150111596607847D+03 -.128383725807013D+02 0.233177441365566D+03
 0.105968847000656D+03 -.345866084762874D+02 -.411989527419857D+02 -.453409282217520D+01
 0.717526018290489D+03 0.880329891497249D+01 0.320025103909162D+03 0.642144860385838D+03
0.215590710551D-04 0.000000000000D+00 0.000000000000D+00 0.180452132752D-05 0.000000000000D+00  7 1 -1 23 -11 11 23 21 0 0.32873389D-01 0.98573056D-01 0.64559059D+05 0.64559059D+05 0.64559059D+05 0.11376591D+01  1  2  2  2  7  2       -1 0.389203953705D-03 0.100000000000D+01
-.991993669181D-06 0.000000000000D+00 -.827925094855D-07 0.180452132752D-05 0.000000000000D+00  7 1 -1 23 -11 11 23 21 2 0.32873389D-01 0.98573056D-01 0.64559059D+05 0.64559059D+05 0.64559059D+05 0.11376591D+01  1  2  3  2  7  2       -1 -.231782367283D-04 0.100000000000D+01
0.129967347522D-05 0.000000000000D+00 0.000000000000D+00 0.180452132752D-05 0.000000000000D+00  7 1 -1 23 -11 11 23 21 2 0.32873389D-01 0.98573056D-01 0.64559059D+05 0.64559059D+05 0.64559059D+05 0.11376591D+01  1  2 15  2  7  2       -1 0.303672698868D-04 0.100000000000D+01
  </mgrwgt>
  </event>
  <event>
  8     66 0.56006291E-06 0.40946523E+03 0.75467711E-02 0.86380473E-01
        1 -1    0    0  501    0 0.00000000E+00 0.00000000E+00 0.93583756E+03 0.93583761E+03 0.32000000E+00 0.0000E+00 0.9000E+01
       -1 -1    0    0    0  501 0.00000000E+00 0.00000000E+00 -.10179207E+04 0.10179208E+04 0.32000000E+00 0.0000E+00 0.9000E+01
       25  2    1    2    0    0 0.54441839E+03 -.74688874E+03 0.18067809E+03 0.98864174E+03 0.30088828E+03 0.0000E+00 0.0000E+00
       23  2    1    2    0    0 -.54441839E+03 0.74688874E+03 -.26276123E+03 0.96511662E+03 0.90401664E+02 0.0000E+00 0.0000E+00
       23  1    3    3    0    0 0.95404436E+02 -.16608258E+03 0.12627079E+03 0.24687040E+03 0.91188000E+02 0.0000E+00 0.9000E+01
      -13  1    4    4    0    0 -.47154529E+03 0.68459798E+03 -.21846209E+03 0.85950860E+03 0.10565837E+00 0.0000E+00 0.9000E+01
       13  1    4    4    0    0 -.72873100E+02 0.62290762E+02 -.44299149E+02 0.10560802E+03 0.10565837E+00 0.0000E+00 0.9000E+01
       23  1    3    3    0    0 0.44901395E+03 -.58080616E+03 0.54407295E+02 0.74177134E+03 0.91188000E+02 0.0000E+00 0.9000E+01
#aMCatNLO 1  0  0  2  1 0.31520406D+03 0.00000000D+00  -5  7  0 0.00000000D+00 0.00000000D+00 0.00000000D+00 0.00000000D+00 0.00000000D+00
  <mgrwgt>
 0.3649209709D-03    9    2    0
 0.976016663663825D+03 0.000000000000000D+00 0.000000000000000D+00 0.976016663663825D+03
 0.976016663663825D+03 0.000000000000000D+00 0.000000000000000D+00 -.976016663663825D+03
 0.252398259351860D+03 0.954044356968027D+02 -.166082580537699D+03 0.136763299430666D+03
 0.851082837503601D+03 -.471545831313200D+03 0.684598826039203D+03 -.182512938308683D+03
 0.103837542370934D+03 -.728725553478260D+02 0.622899123419441D+02 -.398972768888605D+02
 0.744714688101255D+03 0.449013950964223D+03 -.580806157843448D+03 0.856469157668773D+02
 0.000000000000000D+00 -.000000000000000D+00 -.000000000000000D+00 -.000000000000000D+00
 0.111964689007658D+04 0.000000000000000D+00 0.000000000000000D+00 0.111964689007658D+04
 0.117828301099738D+04 0.000000000000000D+00 0.000000000000000D+00 -.117828301099738D+04
 0.269439124249575D+03 0.137189947455246D+03 -.163575391115053D+03 0.136763299430666D+03
 0.792721973838377D+03 -.339920103775485D+03 0.692496554652373D+03 -.182512938308683D+03
 0.940390398457603D+02 -.570278218872361D+02 0.632406186146512D+02 -.398972768888605D+02
 0.821118174153153D+03 0.574396166829889D+03 -.573283048704005D+03 0.856469157668773D+02
 0.320611588987099D+03 -.314638188622415D+03 -.188787334479650D+02 -.586361209208036D+02
0.366544743764D-03 0.000000000000D+00 0.000000000000D+00 0.168478230673D-05 0.000000000000D+00  7 1 -1 23 -13 13 23 21 0 0.14397502D+00 0.15660319D+00 0.88271335D+06 0.88271335D+06 0.88271335D+06 0.10514897D+01  1  2  2  2  7  2       -1 0.224569262534D-03 0.100000000000D+01
-.203276528999D-04 0.000000000000D+00 -.140762832950D-05 0.168478230673D-05 0.000000000000D+00  7 1 -1 23 -13 13 23 21 2 0.14397502D+00 0.15660319D+00 0.88271335D+06 0.88271335D+06 0.88271335D+06 0.10514897D+01  1  2  3  2  7  2       -1 -.137695772930D-04 0.100000000000D+01
0.231425929078D-04 0.000000000000D+00 0.000000000000D+00 0.168478230673D-05 0.000000000000D+00  7 1 -1 23 -13 13 23 21 2 0.14397502D+00 0.15660319D+00 0.88271335D+06 0.88271335D+06 0.88271335D+06 0.10514897D+01  1  2 15  2  7  2       -1 0.156763657553D-04 0.100000000000D+01
0.208251844974D-03 0.000000000000D+00 0.000000000000D+00 0.168478230673D-05 0.000000000000D+00  7 1 -1 23 -13 13 23 21 2 0.14397502D+00 0.19856401D+00 0.12327371D+07 0.12327371D+07 0.12327371D+07 0.10418681D+01  1  2 12  2  7  2       -1 0.609676756553D-04 0.100000000000D+01
-.208403281820D-03 0.000000000000D+00 0.000000000000D+00 0.168478230673D-05 0.000000000000D+00  7 1 -1 23 -13 13 23 21 2 0.14397502D+00 0.15660319D+00 0.88271335D+06 0.88271335D+06 0.88271335D+06 0.10514897D+01  1  2  4  2  7  2       -1 -.141168540769D-03 0.100000000000D+01
-.502209789229D-03 0.000000000000D+00 -.170949850855D-03 0.168478230673D-05 0.000000000000D+00  7 1 -1 23 -13 13 23 21 2 0.14397502D+00 0.20671213D+00 0.88271335D+06 0.88271335D+06 0.88271335D+06 0.10514897D+01  1  2  5  2  7  2       -1 -.131527389717D-03 0.100000000000D+01
0.535290037071D-03 0.000000000000D+00 0.164567538679D-03 0.168478230673D-05 0.000000000000D+00  7 1 -1 23 -13 13 23 21 2 0.14397502D+00 0.15660319D+00 0.88271335D+06 0.88271335D+06 0.88271335D+06 0.10514897D+01  1  2  6  2  7  2       -1 0.362595601958D-03 0.100000000000D+01
0.678297668935D-05 0.000000000000D+00 0.000000000000D+00 0.168478230673D-05 0.000000000000D+00  7 1 21 23 -13 13 23 1 2 0.14397502D+00 0.19856401D+00 0.12327371D+07 0.12327371D+07 0.12327371D+07 0.10418681D+01  1  2 12  4  7  2       -1 0.122289322709D-04 0.100000000000D+01
-.149586273389D-04 0.000000000000D+00 -.624686292682D-05 0.168478230673D-05 0.000000000000D+00  7 1 21 23 -13 13 23 1 2 0.14397502D+00 0.20671213D+00 0.88271335D+06 0.88271335D+06 0.88271335D+06 0.10514897D+01  1  2  5  4  7  2       -1 -.246513594959D-04 0.100000000000D+01
  </mgrwgt>
  </event>
  <event>
  8     66 0.56006291E-06 0.52758045E+03 0.75467711E-02 0.88809273E-01
        1 -1    0    0  501    0 0.00000000E+00 0.00000000E+00 0.22151745E+04 0.22151746E+04 0.32000000E+00 0.0000E+00 0.9000E+01
       -1 -1    0    0    0  501 0.00000000E+00 0.00000000E+00 -.38084070E+03 0.38084083E+03 0.32000000E+00 0.0000E+00 0.9000E+01
       25  2    1    2    0    0 0.28884554E+02 0.83105211E+03 0.13940532E+04 0.16505831E+04 0.29926305E+03 0.0000E+00 0.0000E+00
       23  2    1    2    0    0 -.28884554E+02 -.83105211E+03 0.44028062E+03 0.94543225E+03 0.92266950E+02 0.0000E+00 0.0000E+00
       23  1    3    3    0    0 0.35996953E+02 0.10650128E+03 0.32632931E+03 0.35699352E+03 0.91188000E+02 0.0000E+00 0.9000E+01
      -11  1    4    4    0    0 -.12691502E+02 -.38153218E+03 0.15038491E+03 0.41029685E+03 0.51099893E-03 0.0000E+00 0.9000E+01
       11  1    4    4    0    0 -.16193051E+02 -.44951993E+03 0.28989570E+03 0.53513540E+03 0.51099893E-03 0.0000E+00 0.9000E+01
       23  1    3    3    0    0 -.71123990E+01 0.72455083E+03 0.10677239E+04 0.12935896E+04 0.91188000E+02 0.0000E+00 0.9000E+01
#aMCatNLO 1  0  0  1  2 0.21423633D+02 0.00000000D+00  -5  7  0 0.00000000D+00 0.00000000D+00 0.00000000D+00 0.00000000D+00 0.00000000D+00
  <mgrwgt>
 0.3977222778D-03    9    2    0
 0.918492686153884D+03 0.000000000000000D+00 0.000000000000000D+00 0.918492686153884D+03
 0.918492686153884D+03 0.000000000000000D+00 0.000000000000000D+00 -.918492686153884D+03
 0.178642563472748D+03 0.359969525532407D+02 0.106501283849542D+03 0.104688156375943D+03
 0.429660903764760D+03 -.126915020325492D+02 -.381532183846539D+03 -.197181669252998D+03
 0.466772493417760D+03 -.161930514856230D+02 -.449519928784607D+03 -.124684318663169D+03
 0.761909411652500D+03 -.711239903506845D+01 0.724550828781605D+03 0.217177831540225D+03
 0.000000000000000D+00 0.000000000000000D+00 0.000000000000000D+00 0.000000000000000D+00
 0.930244652305607D+03 0.000000000000000D+00 0.000000000000000D+00 0.930244652305607D+03
 0.928371045854037D+03 0.000000000000000D+00 0.000000000000000D+00 -.928371045854037D+03
 0.177368835053673D+03 0.357288397774713D+02 0.104442770104296D+03 0.104688156375943D+03
 0.434121546640019D+03 -.133420180311872D+02 -.386526709455607D+03 -.197181669252998D+03
 0.472027192571630D+03 -.169000630890265D+02 -.454948215815979D+03 -.124684318663169D+03
 0.753592719131777D+03 -.825372620788052D+01 0.715787957760954D+03 0.217177831540225D+03
 0.215054047625460D+02 0.276696755062293D+01 0.212441974063360D+02 0.187360645156972D+01
0.126609508022D-03 0.000000000000D+00 0.000000000000D+00 0.184463877867D-05 0.000000000000D+00  7 1 -1 23 -11 11 23 21 0 0.34079609D+00 0.58590888D-01 0.72812880D+06 0.72812880D+06 0.72812880D+06 0.10571613D+01  1  2  2  1  7  1        1 0.962460704441D-04 0.100000000000D+01
-.698751308930D-05 0.000000000000D+00 -.486213847855D-06 0.184463877867D-05 0.000000000000D+00  7 1 -1 23 -11 11 23 21 2 0.34079609D+00 0.58590888D-01 0.72812880D+06 0.72812880D+06 0.72812880D+06 0.10571613D+01  1  2  3  1  7  1        1 -.593638229928D-05 0.100000000000D+01
0.781601726617D-05 0.000000000000D+00 0.000000000000D+00 0.184463877867D-05 0.000000000000D+00  7 1 -1 23 -11 11 23 21 2 0.34079609D+00 0.58590888D-01 0.72812880D+06 0.72812880D+06 0.72812880D+06 0.10571613D+01  1  2 15  1  7  1        1 0.664025468816D-05 0.100000000000D+01
0.787606450007D-04 0.000000000000D+00 0.000000000000D+00 0.184463877867D-05 0.000000000000D+00  7 1 -1 23 -11 11 23 21 2 0.34696764D+00 0.58590888D-01 0.74670452D+06 0.74670452D+06 0.74670452D+06 0.10564139D+01  1  2 12  1  7  1        1 0.626304719037D-04 0.100000000000D+01
-.635798163068D-04 0.000000000000D+00 0.000000000000D+00 0.184463877867D-05 0.000000000000D+00  7 1 -1 23 -11 11 23 21 2 0.34079609D+00 0.58590888D-01 0.72812880D+06 0.72812880D+06 0.72812880D+06 0.10571613D+01  1  2  4  1  7  1        1 -.540155118554D-04 0.100000000000D+01
-.559656032114D-02 0.000000000000D+00 -.672868784228D-03 0.184463877867D-05 0.000000000000D+00  7 1 -1 23 -11 11 23 21 2 0.34689600D+00 0.58590888D-01 0.72812880D+06 0.72812880D+06 0.72812880D+06 0.10571613D+01  1  2  5  1  7  1        1 -.446727765467D-02 0.100000000000D+01
0.560772086147D-02 0.000000000000D+00 0.672762911437D-03 0.184463877867D-05 0.000000000000D+00  7 1 -1 23 -11 11 23 21 2 0.34079609D+00 0.58590888D-01 0.72812880D+06 0.72812880D+06 0.72812880D+06 0.10571613D+01  1  2  6  1  7  1        1 0.476415205752D-02 0.100000000000D+01
0.310513714304D-05 0.000000000000D+00 0.000000000000D+00 0.184463877867D-05 0.000000000000D+00  7 21 -1 23 -11 11 23 -1 2 0.34696764D+00 0.58590888D-01 0.74670452D+06 0.74670452D+06 0.74670452D+06 0.10564139D+01  1  2 12  3  7  1        1 0.973624446437D-06 0.100000000000D+01
-.180529427877D-04 0.000000000000D+00 -.217982466857D-05 0.184463877867D-05 0.000000000000D+00  7 21 -1 23 -11 11 23 -1 2 0.34689600D+00 0.58590888D-01 0.72812880D+06 0.72812880D+06 0.72812880D+06 0.10571613D+01  1  2  5  3  7  1        1 -.569065236703D-05 0.100000000000D+01
  </mgrwgt>
  </event>
  <event>
  8     66 0.56006291E-06 0.21157897E+03 0.75467711E-02 0.10152048E+00
        1 -1    0    0  501    0 0.00000000E+00 0.00000000E+00 0.26826918E+03 0.26826938E+03 0.32000000E+00 0.0000E+00 0.9000E+01
       -1 -1    0    0    0  501 0.00000000E+00 0.00000000E+00 -.24044331E+03 0.24044352E+03 0.32000000E+00 0.0000E+00 0.9000E+01
       25  2    1    2    0    0 -.60511388E+02 0.11615026E+03 0.84102196E+02 0.33791797E+03 0.29993810E+03 0.0000E+00 0.0000E+00
       23  2    1    2    0    0 0.60511388E+02 -.11615026E+03 -.56276322E+02 0.17079493E+03 0.94081731E+02 0.0000E+00 0.0000E+00
       23  1    3    3    0    0 -.54325797E+02 0.15594831E+03 -.24814746E+02 0.19026873E+03 0.91188000E+02 0.0000E+00 0.9000E+01
      -11  1    4    4    0    0 0.48303664E+02 -.58335154E+02 0.16029213E+02 0.77415566E+02 0.51099893E-03 0.0000E+00 0.9000E+01
       11  1    4    4    0    0 0.12207724E+02 -.57815110E+02 -.72305535E+02 0.93379365E+02 0.51099893E-03 0.0000E+00 0.9000E+01
       23  1    3    3    0    0 -.61855911E+01 -.39798044E+02 0.10891694E+03 0.14764924E+03 0.91188000E+02 0.0000E+00 0.9000E+01
#aMCatNLO 1  0  0  2  2 0.13229269D+03 0.00000000D+00  -5  7  0 0.00000000D+00 0.00000000D+00 0.00000000D+00 0.00000000D+00 0.00000000D+00
  <mgrwgt>
 0.1481084029D-03    3    2    0
 0.253975655449975D+03 0.000000000000000D+00 0.000000000000000D+00 0.253975655449975D+03
 0.253975655449975D+03 0.000000000000000D+00 0.000000000000000D+00 -.253975655449975D+03
 0.191913373483923D+03 -.543257973664250D+02 0.155948308006458D+03 -.352749847399646D+02
 0.766535476206168D+02 0.483036639940251D+02 -.583351541098601D+02 0.118123749753115D+02
 0.974803116943696D+02 0.122077245108965D+02 -.578151098715364D+02 -.775293215553940D+02
 0.141904078101041D+03 -.618559113849662D+01 -.397980440250610D+02 0.100991931320047D+03
 0.000000000000000D+00 -.000000000000000D+00 -.000000000000000D+00 0.000000000000000D+00
 0.667519768705826D+03 0.000000000000000D+00 0.000000000000000D+00 0.667519768705826D+03
 0.273249430496411D+03 0.000000000000000D+00 0.000000000000000D+00 -.273249430496411D+03
 0.215624478944968D+03 -.161104948190935D+02 0.191506636920416D+03 -.352749847399646D+02
 0.780712549233192D+02 0.628123902523408D+02 -.448351678209435D+02 0.118123749753115D+02
 0.928026132791588D+02 0.300507776263697D+02 -.412126205749148D+02 -.775293215553940D+02
 0.138397728137712D+03 0.200986380837362D+02 -.153412634781464D+02 0.100991931320047D+03
 0.415873123917080D+03 -.968513111433533D+02 -.901175850464113D+02 0.394270338209415D+03
0.171686223309D-05 0.000000000000D+00 0.000000000000D+00 0.529658750680D-07 0.000000000000D+00  7 1 -1 23 -11 11 23 21 0 0.41272213D-01 0.36991310D-01 0.44765662D+05 0.44765662D+05 0.44765662D+05 0.11515438D+01  1  2  2  2  7  2       -1 0.146260809904D-03 0.100000000000D+01
-.915127878860D-07 0.000000000000D+00 -.659320303527D-08 0.529658750680D-07 0.000000000000D+00  7 1 -1 23 -11 11 23 21 2 0.41272213D-01 0.36991310D-01 0.44765662D+05 0.44765662D+05 0.44765662D+05 0.11515438D+01  1  2  3  2  7  2       -1 -.103379683948D-04 0.100000000000D+01
0.107867875955D-06 0.000000000000D+00 0.000000000000D+00 0.529658750680D-07 0.000000000000D+00  7 1 -1 23 -11 11 23 21 2 0.41272213D-01 0.36991310D-01 0.44765662D+05 0.44765662D+05 0.44765662D+05 0.11515438D+01  1  2 15  2  7  2       -1 0.121855613646D-04 0.100000000000D+01
  </mgrwgt>
  </event>
  <event>
  6     66 0.56006291E-06 0.15694420E+03 0.75467711E-02 0.10050497E+00
        1 -1    0    0  501    0 0.00000000E+00 0.00000000E+00 0.49904867E+03 0.49904878E+03 0.32000000E+00 0.0000E+00 0.9000E+01
       -1 -1    0    0    0  501 0.00000000E+00 0.00000000E+00 -.14364439E+03 0.14364475E+03 0.32000000E+00 0.0000E+00 0.9000E+01
       23  1    1    2    0    0 0.10013842E+03 -.11885380E+03 0.21482136E+03 0.28038794E+03 0.91188000E+02 0.0000E+00 0.9000E+01
      -11  1    1    2    0    0 -.90394228E+02 0.43394034E+02 -.68247075E+00 0.10027275E+03 0.51099893E-03 0.0000E+00 0.9000E+01
       11  1    1    2    0    0 0.77827244E+02 0.13294502E+02 0.61936751E+02 0.10034931E+03 0.51099893E-03 0.0000E+00 0.9000E+01
       23  1    1    2    0    0 -.87571437E+02 0.62165263E+02 0.79328643E+02 0.16168352E+03 0.91188000E+02 0.0000E+00 0.9000E+01
#aMCatNLO 1  0  0  2  1 0.10201822D+03 0.00000000D+00  -5  7  0 0.00000000D+00 0.00000000D+00 0.00000000D+00 0.00000000D+00 0.00000000D+00
  <mgrwgt>
 0.1134689232D-03    9    2    0
 0.267741836780753D+03 0.000000000000000D+00 0.000000000000000D+00 0.267741836780753D+03
 0.267741836780753D+03 0.000000000000000D+00 0.000000000000000D+00 -.267741836780753D+03
 0.193946388038740D+03 0.100138373950547D+03 -.118853884216032D+03 0.717356979374721D+02
 0.120801591735747D+03 -.903942252937906D+02 0.433942002869177D+02 -.673710025224826D+02
 0.793324593575545D+02 0.778271780906720D+02 0.132946180814229D+02 0.773450633395242D+01
 0.141403234429465D+03 -.875713267474282D+02 0.621650658476912D+02 -.120992017489419D+02
 0.000000000000000D+00 0.000000000000000D+00 0.000000000000000D+00 -.000000000000000D+00
 0.289152106012100D+03 0.000000000000000D+00 0.000000000000000D+00 0.289152106012100D+03
 0.429351762603325D+03 0.000000000000000D+00 0.000000000000000D+00 -.429351762603325D+03
 0.189959649925215D+03 0.674227593948583D+02 -.134452885475608D+03 0.717356979374721D+02
 0.134961191177280D+03 -.112189758044068D+03 0.330019595345393D+02 -.673710025224826D+02
 0.662854605539102D+02 0.654179444003390D+02 0.737782102305227D+01 0.773450633395242D+01
 0.153908807930594D+03 -.112737158998318D+03 0.501658460772139D+02 -.120992017489419D+02
 0.173388759028426D+03 0.920862132471895D+02 0.439072588408029D+02 -.140199656591225D+03
0.121853018450D-05 0.000000000000D+00 0.000000000000D+00 0.776272355467D-12 0.000000000000D+00  7 1 -1 23 -11 11 23 21 0 0.76776754D-01 0.22099173D-01 0.62575463D+05 0.62575463D+05 0.62575463D+05 0.11388225D+01  1  2  2  2  7  2       -1 0.106804356341D-03 0.100000000000D+01
-.673159855792D-07 0.000000000000D+00 -.467947675485D-08 0.776272355467D-12 0.000000000000D+00  7 1 -1 23 -11 11 23 21 2 0.76776754D-01 0.22099173D-01 0.62575463D+05 0.62575463D+05 0.62575463D+05 0.11388225D+01  1  2  3  2  7  2       -1 -.765214081615D-05 0.100000000000D+01
0.798217925006D-07 0.000000000000D+00 0.000000000000D+00 0.776272355467D-12 0.000000000000D+00  7 1 -1 23 -11 11 23 21 2 0.76776754D-01 0.22099173D-01 0.62575463D+05 0.62575463D+05 0.62575463D+05 0.11388225D+01  1  2 15  2  7  2       -1 0.907373770370D-05 0.100000000000D+01
0.124833034692D-05 0.000000000000D+00 0.000000000000D+00 0.776272355467D-12 0.000000000000D+00  7 1 -1 23 -11 11 23 21 2 0.76776754D-01 0.35877775D-01 0.94285933D+05 0.94285933D+05 0.94285933D+05 0.11238250D+01  1  2 12  2  7  2       -1 0.618682469704D-04 0.100000000000D+01
-.148771197058D-05 0.000000000000D+00 0.000000000000D+00 0.776272355467D-12 0.000000000000D+00  7 1 -1 23 -11 11 23 21 2 0.76776754D-01 0.22099173D-01 0.62575463D+05 0.62575463D+05 0.62575463D+05 0.11388225D+01  1  2  4  2  7  2       -1 -.169115573289D-03 0.100000000000D+01
-.168059911950D-05 0.000000000000D+00 -.425398484037D-06 0.776272355467D-12 0.000000000000D+00  7 1 -1 23 -11 11 23 21 2 0.76776754D-01 0.37744373D-01 0.62575463D+05 0.62575463D+05 0.62575463D+05 0.11388225D+01  1  2  5  2  7  2       -1 -.788604783197D-04 0.100000000000D+01
0.171160798810D-05 0.000000000000D+00 0.370968186482D-06 0.776272355467D-12 0.000000000000D+00  7 1 -1 23 -11 11 23 21 2 0.76776754D-01 0.22099173D-01 0.62575463D+05 0.62575463D+05 0.62575463D+05 0.11388225D+01  1  2  6  2  7  2       -1 0.194566940293D-03 0.100000000000D+01
0.686706128236D-07 0.000000000000D+00 0.000000000000D+00 0.776272355467D-12 0.000000000000D+00  7 1 21 23 -11 11 23 1 2 0.76776754D-01 0.35877775D-01 0.94285933D+05 0.94285933D+05 0.94285933D+05 0.11238250D+01  1  2 12  4  7  2       -1 0.352213938561D-04 0.100000000000D+01
-.794554529737D-07 0.000000000000D+00 -.253413025748D-07 0.776272355467D-12 0.000000000000D+00  7 1 21 23 -11 11 23 1 2 0.76776754D-01 0.37744373D-01 0.62575463D+05 0.62575463D+05 0.62575463D+05 0.11388225D+01  1  2  5  4  7  2       -1 -.384375595804D-04 0.100000000000D+01
  </mgrwgt>
  </event>
  <event>
  8     66 0.56006291E-06 0.14542270E+03 0.75467711E-02 0.99784810E-01
        1 -1    0    0  501    0 0.00000000E+00 0.00000000E+00 0.54740971E+03 0.54740980E+03 0.32000000E+00 0.0000E+00 0.9000E+01
       -1 -1    0    0    0  501 0.00000000E+00 0.00000000E+00 -.24292287E+03 0.24292308E+03 0.32000000E+00 0.0000E+00 0.9000E+01
       25  2    1    2    0    0 0.30841120E+02 -.21862659E+03 -.33247351E+02 0.37648494E+03 0.30312830E+03 0.0000E+00 0.0000E+00
       23  2    1    2    0    0 -.30841120E+02 0.21862659E+03 0.33773419E+03 0.41384794E+03 0.91961801E+02 0.0000E+00 0.0000E+00
       23  1    3    3    0    0 0.10464664E+03 -.83297644E+02 -.94207367E+02 0.18729574E+03 0.91188000E+02 0.0000E+00 0.9000E+01
      -11  1    4    4    0    0 -.17759037E+02 0.16565050E+03 0.31160841E+03 0.35334865E+03 0.51099893E-03 0.0000E+00 0.9000E+01
       11  1    4    4    0    0 -.13082084E+02 0.52976093E+02 0.26125786E+02 0.60499289E+02 0.51099893E-03 0.0000E+00 0.9000E+01
       23  1    3    3    0    0 -.73805519E+02 -.13532895E+03 0.60960016E+02 0.18918920E+03 0.91188000E+02 0.0000E+00 0.9000E+01
#aMCatNLO 1  0  0  2  1 0.78962172D+02 0.00000000D+00  -5  7  0 0.00000000D+00 0.00000000D+00 0.00000000D+00 0.00000000D+00 0.00000000D+00
  <mgrwgt>
 0.1791236789D-03    9    2    0
 0.364662114365788D+03 0.000000000000000D+00 0.000000000000000D+00 0.364662114365788D+03
 0.364662114365788D+03 0.000000000000000D+00 0.000000000000000D+00 -.364662114365788D+03
 0.242294006333919D+03 0.104646639354977D+03 -.832976436223359D+02 -.180282327475592D+03
 0.252812660883863D+03 -.177590366050903D+02 0.165650496572239D+03 0.190154597912879D+03
 0.546528117818446D+02 -.130820838261834D+02 0.529760927798465D+02 0.305327892724242D+01
 0.179564749731949D+03 -.738055189237031D+02 -.135328945729750D+03 -.129255493645292D+02
 0.000000000000000D+00 -.000000000000000D+00 0.000000000000000D+00 -.000000000000000D+00
 0.377038780000080D+03 0.000000000000000D+00 0.000000000000000D+00 0.377038780000080D+03
 0.518931762402130D+03 0.000000000000000D+00 0.000000000000000D+00 -.518931762402130D+03
 0.256386978404325D+03 0.131185340127525D+03 -.877936232701945D+02 -.180282327475592D+03
 0.249398693906017D+03 0.896754266550359D+01 0.161122688014943D+03 0.190154597912879D+03
 0.526176985977212D+02 -.737338414882137D+01 0.520089694159287D+02 0.305327892724242D+01
 0.175182926186042D+03 -.549266309992197D+02 -.138527259641578D+03 -.129255493645292D+02
 0.162384245308104D+03 -.778528676449872D+02 0.131892254809009D+02 -.141892982402051D+03
0.503784151041D-05 0.000000000000D+00 0.000000000000D+00 0.257187148463D-07 0.000000000000D+00  7 1 -1 23 -11 11 23 21 0 0.84216902D-01 0.37372773D-01 0.79001662D+05 0.79001662D+05 0.79001662D+05 0.11302202D+01  1  2  2  2  7  2       -1 0.162544077768D-03 0.100000000000D+01
-.256812659044D-06 0.000000000000D+00 -.193466378941D-07 0.257187148463D-07 0.000000000000D+00  7 1 -1 23 -11 11 23 21 2 0.84216902D-01 0.37372773D-01 0.79001662D+05 0.79001662D+05 0.79001662D+05 0.11302202D+01  1  2  3  2  7  2       -1 -.105844728608D-04 0.100000000000D+01
0.331061043350D-06 0.000000000000D+00 0.000000000000D+00 0.257187148463D-07 0.000000000000D+00  7 1 -1 23 -11 11 23 21 2 0.84216902D-01 0.37372773D-01 0.79001662D+05 0.79001662D+05 0.79001662D+05 0.11302202D+01  1  2 15  2  7  2       -1 0.136446024182D-04 0.100000000000D+01
0.121741315804D-04 0.000000000000D+00 0.000000000000D+00 0.257187148463D-07 0.000000000000D+00  7 1 -1 23 -11 11 23 21 2 0.84216902D-01 0.53611122D-01 0.10558168D+06 0.10558168D+06 0.10558168D+06 0.11197915D+01  1  2 12  2  7  2       -1 0.259287877106D-03 0.100000000000D+01
-.125439266988D-04 0.000000000000D+00 0.000000000000D+00 0.257187148463D-07 0.000000000000D+00  7 1 -1 23 -11 11 23 21 2 0.84216902D-01 0.37372773D-01 0.79001662D+05 0.79001662D+05 0.79001662D+05 0.11302202D+01  1  2  4  2  7  2       -1 -.516994965146D-03 0.100000000000D+01
-.140821684092D-04 0.000000000000D+00 -.214476610362D-05 0.257187148463D-07 0.000000000000D+00  7 1 -1 23 -11 11 23 21 2 0.84216902D-01 0.54360794D-01 0.79001662D+05 0.79001662D+05 0.79001662D+05 0.11302202D+01  1  2  5  2  7  2       -1 -.299961873638D-03 0.100000000000D+01
0.140314535665D-04 0.000000000000D+00 0.200253499179D-05 0.257187148463D-07 0.000000000000D+00  7 1 -1 23 -11 11 23 21 2 0.84216902D-01 0.37372773D-01 0.79001662D+05 0.79001662D+05 0.79001662D+05 0.11302202D+01  1  2  6  2  7  2       -1 0.578303032354D-03 0.100000000000D+01
0.537593592781D-06 0.000000000000D+00 0.000000000000D+00 0.257187148463D-07 0.000000000000D+00  7 1 21 23 -11 11 23 1 2 0.84216902D-01 0.53611122D-01 0.10558168D+06 0.10558168D+06 0.10558168D+06 0.11197915D+01  1  2 12  4  7  2       -1 0.103522083231D-03 0.100000000000D+01
-.572217084886D-06 0.000000000000D+00 -.973372080910D-07 0.257187148463D-07 0.000000000000D+00  7 1 21 23 -11 11 23 1 2 0.84216902D-01 0.54360794D-01 0.79001662D+05 0.79001662D+05 0.79001662D+05 0.11302202D+01  1  2  5  4  7  2       -1 -.110636682297D-03 0.100000000000D+01
  </mgrwgt>
  </event>
  <event>
  8     66 0.56006291E-06 0.14784733E+03 0.75467711E-02 0.10041044E+00
        1 -1    0    0  501    0 0.00000000E+00 0.00000000E+00 0.40318623E+03 0.40318635E+03 0.32000000E+00 0.0000E+00 0.9000E+01
       -1 -1    0    0    0  501 0.00000000E+00 0.00000000E+00 -.12985313E+03 0.12985353E+03 0.32000000E+00 0.0000E+00 0.9000E+01
       25  2    1    2    0    0 0.16296742E+02 0.11620014E+02 0.31029900E+03 0.43027527E+03 0.29740668E+03 0.0000E+00 0.0000E+00
       23  2    1    2    0    0 -.16296742E+02 -.11620014E+02 -.36965908E+02 0.10276460E+03 0.93773540E+02 0.0000E+00 0.0000E+00
       23  1    3    3    0    0 0.54449071E+02 0.63063324E+01 0.31367477E+03 0.33122739E+03 0.91188000E+02 0.0000E+00 0.9000E+01
      -11  1    4    4    0    0 0.34793462E+02 0.77938481E+01 0.18900004E+01 0.35705758E+02 0.51099893E-03 0.0000E+00 0.9000E+01
       11  1    4    4    0    0 -.51090205E+02 -.19413863E+02 -.38855909E+02 0.67058845E+02 0.51099893E-03 0.0000E+00 0.9000E+01
       23  1    3    3    0    0 -.38152329E+02 0.53136821E+01 -.33757719E+01 0.99047880E+02 0.91188000E+02 0.0000E+00 0.9000E+01
#aMCatNLO 1  0  0  2  1 0.24836347D+03 0.00000000D+00  -5  7  0 0.00000000D+00 0.00000000D+00 0.00000000D+00 0.00000000D+00 0.00000000D+00
  <mgrwgt>
 0.1764553024D-03    5    2    0
 0.228812440169773D+03 0.000000000000000D+00 0.000000000000000D+00 0.228812440169773D+03
 0.228812440169773D+03 0.000000000000000D+00 0.000000000000000D+00 -.228812440169773D+03
 0.198458862301556D+03 0.544490712250209D+02 0.630633237498627D+01 0.167529691388532D+03
 0.404610724073919D+02 0.347934621255159D+02 0.779384807650022D+01 -.191250962307890D+02
 0.101318014806350D+03 -.510902044848688D+02 -.194138625415577D+02 -.853125610400459D+02
 0.117386930824249D+03 -.381523288656680D+02 0.531368209007116D+01 -.630920341176967D+02
 0.000000000000000D+00 -.000000000000000D+00 -.000000000000000D+00 -.000000000000000D+00
 0.368768132325465D+03 0.000000000000000D+00 0.000000000000000D+00 0.368768132325465D+03
 0.402561179414935D+03 0.000000000000000D+00 0.000000000000000D+00 -.402561179414935D+03
 0.248580264066536D+03 0.132369327226733D+03 0.888203808379265D+02 0.167529691388532D+03
 0.620760587114449D+02 0.526659905804013D+02 0.267200523108562D+02 -.191250962307890D+02
 0.885799869480985D+02 -.179904151417401D+02 0.156373264831811D+02 -.853125610400459D+02
 0.121441081887458D+03 0.347610764741063D+01 0.493963250911561D+02 -.630920341176967D+02
 0.250651920126863D+03 -.170521010312805D+03 -.180574084723120D+03 -.337930470894694D+02
0.105815693182D-05 0.000000000000D+00 0.000000000000D+00 0.167178805237D-08 0.000000000000D+00  7 1 -1 23 -11 11 23 21 0 0.62028690D-01 0.19977445D-01 0.21858832D+05 0.21858832D+05 0.21858832D+05 0.11803119D+01  1  2  2  2  7  2       -1 0.144418178366D-03 0.100000000000D+01
-.451541652380D-07 0.000000000000D+00 -.406360123729D-08 0.167178805237D-08 0.000000000000D+00  7 1 -1 23 -11 11 23 21 2 0.62028690D-01 0.19977445D-01 0.21858832D+05 0.21858832D+05 0.21858832D+05 0.11803119D+01  1  2  3  2  7  2       -1 -.858545279574D-05 0.100000000000D+01
0.639373787766D-07 0.000000000000D+00 0.000000000000D+00 0.167178805237D-08 0.000000000000D+00  7 1 -1 23 -11 11 23 21 2 0.62028690D-01 0.19977445D-01 0.21858832D+05 0.21858832D+05 0.21858832D+05 0.11803119D+01  1  2 15  2  7  2       -1 0.121568263853D-04 0.100000000000D+01
0.305006334992D-06 0.000000000000D+00 -.327393138641D-06 0.167178805237D-08 0.000000000000D+00  7 1 -1 23 -11 11 23 21 2 0.62028690D-01 0.54948608D-01 0.21858832D+05 0.21858832D+05 0.21858832D+05 0.11803119D+01  1  2  5  2  7  2       -1 0.107796805089D-04 0.100000000000D+01
0.532145462510D-07 0.000000000000D+00 -.370764108596D-07 0.167178805237D-08 0.000000000000D+00  7 1 21 23 -11 11 23 1 2 0.62028690D-01 0.54948608D-01 0.21858832D+05 0.21858832D+05 0.21858832D+05 0.11803119D+01  1  2  5  4  7  2       -1 0.176860699475D-04 0.100000000000D+01
  </mgrwgt>
  </event>
  <event>
  8     66 0.56006291E-06 0.35600019E+03 0.75467711E-02 0.84902751E-01
        1 -1    0    0  501    0 0.00000000E+00 0.00000000E+00 0.63263143E+03 0.63263151E+03 0.32000000E+00 0.0000E+00 0.9000E+01
       -1 -1    0    0    0  501 0.00000000E+00 0.00000000E+00 -.22872485E+03 0.22872507E+03 0.32000000E+00 0.0000E+00 0.9000E+01
       25  2    1    2    0    0 0.13513368E+03 -.26474558E+03 0.34360008E+03 0.54436660E+03 0.29987105E+03 0.0000E+00 0.0000E+00
       23  2    1    2    0    0 -.13513368E+03 0.26474558E+03 0.60306494E+02 0.31698998E+03 0.92165302E+02 0.0000E+00 0.0000E+00
       23  1    3    3    0    0 -.37032336E+02 -.16470225E+03 0.98505106E+02 0.21567738E+03 0.91188000E+02 0.0000E+00 0.9000E+01
      -11  1    4    4    0    0 -.10488091E+03 0.15402138E+03 0.75798280E+02 0.20116652E+03 0.51099893E-03 0.0000E+00 0.9000E+01
       11  1    4    4    0    0 -.30252772E+02 0.11072420E+03 -.15491786E+02 0.11582346E+03 0.51099893E-03 0.0000E+00 0.9000E+01
       23  1    3    3    0    0 0.17216602E+03 -.10004333E+03 0.24509498E+03 0.32868922E+03 0.91188000E+02 0.0000E+00 0.9000E+01
#aMCatNLO 1  0  0  2  2 0.12021816D+04 0.00000000D+00  -5  7  0 0.00000000D+00 0.00000000D+00 0.00000000D+00 0.00000000D+00 0.00000000D+00
  <mgrwgt>
 0.1864900730D-03    5    2    0
 0.380392770739693D+03 0.000000000000000D+00 0.000000000000000D+00 0.380392770739693D+03
 0.380392770739693D+03 0.000000000000000D+00 0.000000000000000D+00 -.380392770739693D+03
 0.191891487725218D+03 -.370323364328411D+02 -.164702247416277D+03 -.297783004044817D+01
 0.187517607035918D+03 -.104880912426598D+03 0.154021376862227D+03 -.209824361432440D+02
 0.139359290875637D+03 -.302527723142099D+02 0.110724198152409D+03 -.790312195538644D+02
 0.242017155842612D+03 0.172166021173649D+03 -.100043327598359D+03 0.102991485737557D+03
 0.000000000000000D+00 -.000000000000000D+00 -.000000000000000D+00 -.000000000000000D+00
 0.814649844157405D+03 0.000000000000000D+00 0.000000000000000D+00 0.814649844157405D+03
 0.420878737045475D+04 0.000000000000000D+00 0.000000000000000D+00 -.420878737045475D+04
 0.117511199225147D+03 0.675927482555413D+02 -.302652194911177D+02 -.297783004044817D+01
 0.440945515636452D+03 0.107635042367518D+03 0.427091773261830D+03 -.209824361432440D+02
 0.369321970387318D+03 0.141758726886402D+03 0.331748771660343D+03 -.790312195538644D+02
 0.494907210005982D+03 0.421358343793039D+03 0.220154025976049D+03 0.102991485737557D+03
 0.360075131935726D+04 -.738344861302500D+03 -.948729351407104D+03 -.339413752629735D+04
0.638306250721D-05 0.000000000000D+00 0.000000000000D+00 0.541792456729D-06 0.000000000000D+00  7 1 -1 23 -11 11 23 21 0 0.97327936D-01 0.35188462D-01 0.12673613D+06 0.12673613D+06 0.12673613D+06 0.11133744D+01  1  2  2  2  7  2       -1 0.184163471263D-03 0.100000000000D+01
-.352720878998D-06 0.000000000000D+00 -.245126407266D-07 0.541792456729D-06 0.000000000000D+00  7 1 -1 23 -11 11 23 21 2 0.97327936D-01 0.35188462D-01 0.12673613D+06 0.12673613D+06 0.12673613D+06 0.11133744D+01  1  2  3  2  7  2       -1 -.126150229034D-04 0.100000000000D+01
0.418130718892D-06 0.000000000000D+00 0.000000000000D+00 0.541792456729D-06 0.000000000000D+00  7 1 -1 23 -11 11 23 21 2 0.97327936D-01 0.35188462D-01 0.12673613D+06 0.12673613D+06 0.12673613D+06 0.11133744D+01  1  2 15  2  7  2       -1 0.149543985330D-04 0.100000000000D+01
0.279549215974D-05 0.000000000000D+00 -.623942943492D-05 0.541792456729D-06 0.000000000000D+00  7 1 -1 23 -11 11 23 21 2 0.97327936D-01 0.51216640D+00 0.12673613D+06 0.12673613D+06 0.12673613D+06 0.11133744D+01  1  2  5  2  7  2       -1 0.315833170710D-08 0.100000000000D+01
-.507706998131D-06 0.000000000000D+00 -.189125382572D-05 0.541792456729D-06 0.000000000000D+00  7 1 21 23 -11 11 23 1 2 0.97327936D-01 0.51216640D+00 0.12673613D+06 0.12673613D+06 0.12673613D+06 0.11133744D+01  1  2  5  4  7  2       -1 -.159322500943D-07 0.100000000000D+01
  </mgrwgt>
  </event>
  <event>
  8     66 0.56006291E-06 0.26764171E+03 0.75467711E-02 0.92230877E-01
        1 -1    0    0  501    0 0.00000000E+00 0.00000000E+00 0.83782218E+02 0.83782829E+02 0.32000000E+00 0.0000E+00 0.9000E+01
       -1 -1    0    0    0  501 0.00000000E+00 0.00000000E+00 -.11890766E+04 0.11890766E+04 0.32000000E+00 0.0000E+00 0.9000E+01
       25  2    1    2    0    0 -.13527565E+03 0.10603186E+03 -.34824423E+03 0.49095336E+03 0.30036461E+03 0.0000E+00 0.0000E+00
       23  2    1    2    0    0 0.13527565E+03 -.10603186E+03 -.75705012E+03 0.78190608E+03 0.93327279E+02 0.0000E+00 0.0000E+00
       23  1    3    3    0    0 0.44953093E+02 -.25437603E+02 -.96846105E+02 0.14269643E+03 0.91188000E+02 0.0000E+00 0.9000E+01
      -13  1    4    4    0    0 0.68539673E+02 -.54270608E+01 -.37447401E+03 0.38073342E+03 0.10565837E+00 0.0000E+00 0.9000E+01
       13  1    4    4    0    0 0.66735976E+02 -.10060480E+03 -.38257611E+03 0.40117266E+03 0.10565837E+00 0.0000E+00 0.9000E+01
       23  1    3    3    0    0 -.18022874E+03 0.13146946E+03 -.25139813E+03 0.34825693E+03 0.91188000E+02 0.0000E+00 0.9000E+01
#aMCatNLO 1  0  0  2  2 0.50301433D+03 0.00000000D+00  -5  7  0 0.00000000D+00 0.00000000D+00 0.00000000D+00 0.00000000D+00 0.00000000D+00
  <mgrwgt>
 0.1200834987D-03    5    2    0
 0.315632522093372D+03 0.000000000000000D+00 0.000000000000000D+00 0.315632522093372D+03
 0.315632522093372D+03 0.000000000000000D+00 0.000000000000000D+00 -.315632522093372D+03
 0.118158051296086D+03 0.449530920710161D+02 -.254376025540390D+02 0.545730852311472D+02
 0.112022827957019D+03 0.685396748480905D+02 -.542694123904256D+01 -.884419315935252D+02
 0.139049711992677D+03 0.667359748859459D+02 -.100604918701870D+03 -.689911762057953D+02
 0.262034452940961D+03 -.180228741805052D+03 0.131469462494951D+03 0.102860022568173D+03
 0.000000000000000D+00 -.000000000000000D+00 -.000000000000000D+00 -.000000000000000D+00
 0.534756018217562D+03 0.000000000000000D+00 0.000000000000000D+00 0.534756018217562D+03
 0.885818129197909D+03 0.000000000000000D+00 0.000000000000000D+00 -.885818129197909D+03
 0.155672087655161D+03 0.101111057116672D+03 0.521236992933071D+02 0.545730852311472D+02
 0.171764852015265D+03 0.126739764412040D+03 0.749547946472588D+02 -.884419315935252D+02
 0.144050249579107D+03 0.124795024949844D+03 -.204179763275294D+02 -.689911762057953D+02
 0.335680061655181D+03 -.576475279674206D+02 0.300769730400761D+03 0.102860022568173D+03
 0.613406896510758D+03 -.294998318511135D+03 -.407430248013798D+03 -.351062110980347D+03
0.100270809765D-04 0.000000000000D+00 0.000000000000D+00 0.899299055604D-07 0.000000000000D+00  7 1 -1 23 -13 13 23 21 0 0.12889622D-01 0.18293491D+00 0.71632087D+05 0.71632087D+05 0.71632087D+05 0.11338097D+01  1  2  2  2  7  2       -1 0.118239204794D-03 0.100000000000D+01
-.538636227409D-06 0.000000000000D+00 -.385066311408D-07 0.899299055604D-07 0.000000000000D+00  7 1 -1 23 -13 13 23 21 2 0.12889622D-01 0.18293491D+00 0.71632087D+05 0.71632087D+05 0.71632087D+05 0.11338097D+01  1  2  3  2  7  2       -1 -.816512552225D-05 0.100000000000D+01
0.658460942964D-06 0.000000000000D+00 0.000000000000D+00 0.899299055604D-07 0.000000000000D+00  7 1 -1 23 -13 13 23 21 2 0.12889622D-01 0.18293491D+00 0.71632087D+05 0.71632087D+05 0.71632087D+05 0.11338097D+01  1  2 15  2  7  2       -1 0.998153480442D-05 0.100000000000D+01
0.777706480529D-06 0.000000000000D+00 -.271308062347D-05 0.899299055604D-07 0.000000000000D+00  7 1 -1 23 -13 13 23 21 2 0.12889622D-01 0.59259354D+00 0.71632087D+05 0.71632087D+05 0.71632087D+05 0.11338097D+01  1  2  5  2  7  2       -1 0.412668666110D-08 0.100000000000D+01
0.218984674667D-06 0.000000000000D+00 -.368065959233D-06 0.899299055604D-07 0.000000000000D+00  7 1 21 23 -13 13 23 1 2 0.12889622D-01 0.59259354D+00 0.71632087D+05 0.71632087D+05 0.71632087D+05 0.11338097D+01  1  2  5  4  7  2       -1 0.237579389045D-07 0.100000000000D+01
  </mgrwgt>
  </event>
  <event>
  8     66 0.56006291E-06 0.22808962E+03 0.75467711E-02 0.90480510E-01
        1 -1    0    0  501    0 0.00000000E+00 0.00000000E+00 0.71857227E+03 0.71857234E+03 0.32000000E+00 0.0000E+00 0.9000E+01
       -1 -1    0    0    0  501 0.00000000E+00 0.00000000E+00 -.10354358E+03 0.10354408E+03 0.32000000E+00 0.0000E+00 0.9000E+01
       25  2    1    2    0    0 0.40223070E+02 -.12185774E+03 0.20804335E+03 0.38705923E+03 0.30010933E+03 0.0000E+00 0.0000E+00
       23  2    1    2    0    0 -.40223070E+02 0.12185774E+03 0.40698533E+03 0.43505718E+03 0.84678720E+02 0.0000E+00 0.0000E+00
       23  1    3    3    0    0 -.68586051E+01 -.18466783E+03 0.13043579E+03 0.24388110E+03 0.91188000E+02 0.0000E+00 0.9000E+01
      -13  1    4    4    0    0 0.18988514E+01 0.11700417E+02 0.56088558E+00 0.11867230E+02 0.10565837E+00 0.0000E+00 0.9000E+01
       13  1    4    4    0    0 -.42121922E+02 0.11015732E+03 0.40642445E+03 0.42318995E+03 0.10565837E+00 0.0000E+00 0.9000E+01
       23  1    3    3    0    0 0.47081675E+02 0.62810090E+02 0.77607560E+02 0.14317813E+03 0.91188000E+02 0.0000E+00 0.9000E+01
#aMCatNLO 1  0  0  2  2 0.69283358D+03 0.00000000D+00  -5  7  0 0.00000000D+00 0.00000000D+00 0.00000000D+00 0.00000000D+00 0.00000000D+00
  <mgrwgt>
 0.4381224428D-03    5    2    0
 0.272770564014739D+03 0.000000000000000D+00 0.000000000000000D+00 0.272770564014739D+03
 0.272770564014739D+03 0.000000000000000D+00 0.000000000000000D+00 -.272770564014739D+03
 0.220472674472149D+03 -.685860447404507D+01 -.184667831251707D+03 -.783817612098726D+02
 0.172510264795605D+02 0.189891889415651D+01 0.117002639196458D+02 -.125337881680898D+02
 0.179544396269537D+03 -.421219902107578D+02 0.110157478584060D+03 0.135378203875217D+03
 0.128273030808232D+03 0.470816757906464D+02 0.628100887480013D+02 -.444626544972546D+02
 0.000000000000000D+00 -.000000000000000D+00 0.000000000000000D+00 -.000000000000000D+00
 0.552829597398393D+03 0.000000000000000D+00 0.000000000000000D+00 0.552829597398393D+03
 0.151323022692629D+04 0.000000000000000D+00 0.000000000000000D+00 -.151323022692629D+04
 0.540741238084553D+03 0.210847299938409D+03 -.483203425939362D+03 -.783817612098726D+02
 0.173002937174412D+02 0.117805386176692D+02 -.185019640708546D+01 -.125337881680898D+02
 0.145667826320979D+03 0.508881609138500D+02 -.173854139842908D+02 0.135378203875217D+03
 0.178125937245027D+03 0.134711267618566D+03 -.573545543708273D+02 -.444626544972546D+02
 0.118422452895668D+04 -.408227267088495D+03 0.559793590701565D+03 -.960400629527895D+03
0.472388501118D-05 0.000000000000D+00 0.000000000000D+00 0.252690416408D-07 0.000000000000D+00  7 1 -1 23 -13 13 23 21 0 0.11054962D+00 0.15929826D-01 0.52024874D+05 0.52024874D+05 0.52024874D+05 0.11457820D+01  1  2  2  2  7  2       -1 0.413649508362D-03 0.100000000000D+01
-.252226496360D-06 0.000000000000D+00 -.181409622704D-07 0.252690416408D-07 0.000000000000D+00  7 1 -1 23 -13 13 23 21 2 0.11054962D+00 0.15929826D-01 0.52024874D+05 0.52024874D+05 0.52024874D+05 0.11457820D+01  1  2  3  2  7  2       -1 -.289953168999D-04 0.100000000000D+01
0.313036305934D-06 0.000000000000D+00 0.000000000000D+00 0.252690416408D-07 0.000000000000D+00  7 1 -1 23 -13 13 23 21 2 0.11054962D+00 0.15929826D-01 0.52024874D+05 0.52024874D+05 0.52024874D+05 0.11457820D+01  1  2 15  2  7  2       -1 0.359858580392D-04 0.100000000000D+01
0.567687993933D-05 0.000000000000D+00 -.335789132292D-05 0.252690416408D-07 0.000000000000D+00  7 1 -1 23 -13 13 23 21 2 0.11054962D+00 0.15885893D+00 0.52024874D+05 0.52024874D+05 0.52024874D+05 0.11457820D+01  1  2  5  2  7  2       -1 0.801993689675D-05 0.100000000000D+01
0.101977460697D-05 0.000000000000D+00 -.919266165655D-06 0.252690416408D-07 0.000000000000D+00  7 1 21 23 -13 13 23 1 2 0.11054962D+00 0.15885893D+00 0.52024874D+05 0.52024874D+05 0.52024874D+05 0.11457820D+01  1  2  5  4  7  2       -1 0.946245638691D-05 0.100000000000D+01
  </mgrwgt>
  </event>
  <event>
  8     66 0.56006291E-06 0.28365664E+03 0.75467711E-02 0.10125047E+00
        1 -1    0    0  501    0 0.00000000E+00 0.00000000E+00 0.18182318E+04 0.18182318E+04 0.32000000E+00 0.0000E+00 0.9000E+01
       -1 -1    0    0    0  501 0.00000000E+00 0.00000000E+00 -.50721964E+02 0.50722974E+02 0.32000000E+00 0.0000E+00 0.9000E+01
       25  2    1    2    0    0 -.20549567E+03 -.58502626E+02 0.11764660E+04 0.12344891E+04 0.30698532E+03 0.0000E+00 0.0000E+00
       23  2    1    2    0    0 0.20549567E+03 0.58502626E+02 0.59104379E+03 0.63446569E+03 0.86965053E+02 0.0000E+00 0.0000E+00
       23  1    3    3    0    0 -.13100764E+03 0.60678720E+02 0.32958702E+03 0.37119774E+03 0.91188000E+02 0.0000E+00 0.9000E+01
      -13  1    4    4    0    0 0.16935667E+03 0.79640715E+02 0.50985958E+03 0.54312165E+03 0.10565837E+00 0.0000E+00 0.9000E+01
       13  1    4    4    0    0 0.36138995E+02 -.21138090E+02 0.81184213E+02 0.91344039E+02 0.10565837E+00 0.0000E+00 0.9000E+01
       23  1    3    3    0    0 -.74488031E+02 -.11918135E+03 0.84687900E+03 0.86329135E+03 0.91188000E+02 0.0000E+00 0.9000E+01
#aMCatNLO 1  0  0  2  2 0.12572748D+02 0.00000000D+00  -5  7  0 0.00000000D+00 0.00000000D+00 0.00000000D+00 0.00000000D+00 0.00000000D+00
  <mgrwgt>
 0.3535187354D-03    4    2    0
 0.303686116004638D+03 0.000000000000000D+00 0.000000000000000D+00 0.303686116004638D+03
 0.303686116004638D+03 0.000000000000000D+00 0.000000000000000D+00 -.303686116004638D+03
 0.183089535414535D+03 -.131007636557715D+03 0.606787198231096D+02 -.660425526346492D+02
 0.187509599270782D+03 0.169356870004342D+03 0.796408623712059D+02 -.116375874558346D+02
 0.448223585412723D+02 0.361387986730468D+02 -.211382364413293D+02 -.160064366997098D+02
 0.191950738782687D+03 -.744880321196738D+02 -.119181345752986D+03 0.936865767901935D+02
 0.000000000000000D+00 -.000000000000000D+00 -.000000000000000D+00 0.000000000000000D+00
 0.472336755855862D+03 0.000000000000000D+00 0.000000000000000D+00 0.472336755855862D+03
 0.303985585854423D+03 0.000000000000000D+00 0.000000000000000D+00 -.303985585854423D+03
 0.184096735703359D+03 -.130613452873059D+03 0.644582339403540D+02 -.660425526346492D+02
 0.189553116496136D+03 0.169761656300396D+03 0.835220365038575D+02 -.116375874558346D+02
 0.444743548990031D+02 0.362346609377890D+02 -.202190893609019D+02 -.160064366997098D+02
 0.189378140402935D+03 -.740786659900370D+02 -.115256259235434D+03 0.936865767901935D+02
 0.168819994208852D+03 -.130419837508896D+01 -.125049218478755D+02 0.168351170001440D+03
0.818243348198D-05 0.000000000000D+00 0.000000000000D+00 0.176340114901D-09 0.000000000000D+00  7 1 -1 23 -13 13 23 21 0 0.27972805D+00 0.78034589D-02 0.80461091D+05 0.80461091D+05 0.80461091D+05 0.11295531D+01  1  2  2  2  7  2       -1 0.351867744572D-03 0.100000000000D+01
-.452006612008D-06 0.000000000000D+00 -.314226990550D-07 0.176340114901D-09 0.000000000000D+00  7 1 -1 23 -13 13 23 21 2 0.27972805D+00 0.78034589D-02 0.80461091D+05 0.80461091D+05 0.80461091D+05 0.11295531D+01  1  2  3  2  7  2       -1 -.248001952253D-04 0.100000000000D+01
0.531789461956D-06 0.000000000000D+00 0.000000000000D+00 0.176340114901D-09 0.000000000000D+00  7 1 -1 23 -13 13 23 21 2 0.27972805D+00 0.78034589D-02 0.80461091D+05 0.80461091D+05 0.80461091D+05 0.11295531D+01  1  2 15  2  7  2       -1 0.291776317533D-04 0.100000000000D+01
-.496920076464D-07 0.000000000000D+00 0.000000000000D+00 0.176340114901D-09 0.000000000000D+00  7 1 -1 23 -13 13 23 21 2 0.27972805D+00 0.78034589D-02 0.80461091D+05 0.80461091D+05 0.80461091D+05 0.11295531D+01  1  2  4  2  7  2       -1 -.272644571567D-05 0.100000000000D+01
  </mgrwgt>
  </event>
  <event>
  9     66 -.56006291E-06 0.20919144E+03 0.75467711E-02 0.10482677E+00
        1 -1    0    0  501    0 0.00000000E+00 0.00000000E+00 0.59199393E+03 0.59199402E+03 0.32000000E+00 0.0000E+00 0.9000E+01
       -1 -1    0    0    0  502 0.00000000E+00 0.00000000E+00 -.16109107E+03 0.16109139E+03 0.32000000E+00 0.0000E+00 0.9000E+01
       25  2    1    2    0    0 -.62072916E+02 -.57198444E+02 0.43747279E+03 0.53739722E+03 0.30048065E+03 0.0000E+00 0.0000E+00
       23  2    1    2    0    0 0.63595350E+02 0.80859356E+02 0.57691134E+02 0.14718852E+03 0.88054461E+02 0.0000E+00 0.0000E+00
       23  1    3    3    0    0 -.15113143E+03 -.53987565E+02 0.25532927E+03 0.31506135E+03 0.91188000E+02 0.0000E+00 0.9000E+01
      -13  1    4    4    0    0 0.36513327E+02 0.18619307E+02 0.67135194E+02 0.78657785E+02 0.10565837E+00 0.0000E+00 0.9000E+01
       13  1    4    4    0    0 0.27082023E+02 0.62240049E+02 -.94440599E+01 0.68530731E+02 0.10565837E+00 0.0000E+00 0.9000E+01
       23  1    3    3    0    0 0.89058510E+02 -.32108791E+01 0.18214352E+03 0.22233587E+03 0.91188000E+02 0.0000E+00 0.9000E+01
       21  1    1    2  501  502 -.15224341E+01 -.23660911E+02 -.64261071E+02 0.68499666E+02 0.75000000E+00 0.0000E+00 0.9000E+01
#aMCatNLO 2  0  0  2  1 0.23709840D+02 0.00000000D+00  -5  7  0 0.00000000D+00 0.00000000D+00 0.00000000D+00 0.00000000D+00 0.00000000D+00
  <mgrwgt>
 -.1617938515D-04    2    2    0
 0.236065755379434D+03 0.000000000000000D+00 0.000000000000000D+00 0.236065755379434D+03
 0.236065755379434D+03 0.000000000000000D+00 0.000000000000000D+00 -.236065755379434D+03
 0.192243350890060D+03 -.151745411169229D+03 -.635298787492887D+02 0.397434184818183D+02
 0.425917118264539D+02 0.363744815701833D+02 0.164611636950987D+02 0.148317597273974D+02
 0.106067222564995D+03 0.267352612286679D+02 0.568510432047133D+02 -.854601684776187D+02
 0.131229225477359D+03 0.886356683703777D+02 -.978232815052330D+01 0.308849902684030D+02
 0.000000000000000D+00 -.000000000000000D+00 -.000000000000000D+00 -.000000000000000D+00
 0.237211599803891D+03 0.000000000000000D+00 0.000000000000000D+00 0.237211599803891D+03
 0.402022550341802D+03 0.000000000000000D+00 0.000000000000000D+00 -.402022550341802D+03
 0.188812486175706D+03 -.151131422160353D+03 -.539875681524858D+02 0.397434184818183D+02
 0.435876301536074D+02 0.365133409278444D+02 0.186192464961238D+02 0.148317597273974D+02
 0.109136190251143D+03 0.270820149515847D+02 0.622401164239990D+02 -.854601684776187D+02
 0.131190168224575D+03 0.890585004274578D+02 -.321088344937210D+01 0.308849902684030D+02
 0.166507675340661D+03 -.152243414653417D+01 -.236609113182648D+02 -.164810950537911D+03
-.162746558807D-04 0.000000000000D+00 0.000000000000D+00 0.198516299765D-07 0.000000000000D+00  7 1 -1 23 -13 13 23 21 2 0.90635758D-01 0.24796446D-01 0.49430276D+05 0.49430276D+05 0.49430276D+05 0.11477334D+01  1  2 13  2  7  2       -1 -.123995348875D-02 0.100000000000D+01
0.161587292410D-04 0.000000000000D+00 0.000000000000D+00 0.198516299765D-07 0.280581526458D-09  7 1 -1 23 -13 13 23 21 2 0.91075697D-01 0.24783185D-01 0.49430276D+05 0.49430276D+05 0.49430276D+05 0.11477334D+01  1  2  1  2  7  2       -1 0.122377410360D-02 0.100000000000D+01
  </mgrwgt>
  </event>
  <event>
  9     66 0.56006291E-06 0.24233185E+03 0.75467711E-02 0.98911781E-01
        1 -1    0    0  502    0 0.00000000E+00 0.00000000E+00 0.41619138E+03 0.41619150E+03 0.32000000E+00 0.0000E+00 0.9000E+01
       -1 -1    0    0    0  501 0.00000000E+00 0.00000000E+00 -.47523084E+03 0.47523095E+03 0.32000000E+00 0.0000E+00 0.9000E+01
       25  2    1    2    0    0 -.63069751E+02 0.32898949E+02 0.14924707E+03 0.34358238E+03 0.30118770E+03 0.0000E+00 0.0000E+00
       23  2    1    2    0    0 0.18904554E+03 0.84136057E+02 -.28115927E+03 0.36108330E+03 0.92268751E+02 0.0000E+00 0.0000E+00
       23  1    3    3    0    0 -.82431629E+02 0.11988586E+03 0.12835927E+03 0.21438038E+03 0.91188000E+02 0.0000E+00 0.9000E+01
      -11  1    4    4    0    0 0.16945471E+03 0.35415417E+02 -.20123589E+03 0.26545251E+03 0.51099893E-03 0.0000E+00 0.9000E+01
       11  1    4    4    0    0 0.19590825E+02 0.48720640E+02 -.79923382E+02 0.95630791E+02 0.51099893E-03 0.0000E+00 0.9000E+01
       23  1    3    3    0    0 0.19361878E+02 -.86986913E+02 0.20887803E+02 0.12920200E+03 0.91188000E+02 0.0000E+00 0.9000E+01
       21  1    1    2  502  501 -.12597579E+03 -.11703501E+03 0.72872739E+02 0.18675677E+03 0.75000000E+00 0.0000E+00 0.9000E+01
#aMCatNLO 2  0  0  1  2 0.17195084D+03 0.00000000D+00  -5  7  0 0.00000000D+00 0.00000000D+00 0.00000000D+00 0.00000000D+00 0.00000000D+00
  <mgrwgt>
 0.4456800459D-04    2    2    0
 0.335255798666084D+03 0.000000000000000D+00 0.000000000000000D+00 0.335255798666084D+03
 0.335255798666084D+03 0.000000000000000D+00 0.000000000000000D+00 -.335255798666084D+03
 0.245114621311111D+03 -.127527279209634D+03 0.779907503159919D+02 0.171523065967892D+03
 0.201365302685918D+03 0.129403575832999D+03 -.179320325534671D+01 -.154270814185670D+03
 0.725936398162788D+02 0.528833148919484D+01 0.354332262453536D+02 -.631376002844707D+02
 0.151438033518860D+03 -.716462811255979D+01 -.111630773305999D+03 0.458853485022493D+02
 0.000000000000000D+00 -.000000000000000D+00 -.000000000000000D+00 0.000000000000000D+00
 0.502992842048787D+03 0.000000000000000D+00 0.000000000000000D+00 0.502992842048787D+03
 0.393219173986206D+03 0.000000000000000D+00 0.000000000000000D+00 -.393219173986206D+03
 0.242699416604020D+03 -.824316291536589D+02 0.119885861685103D+03 0.171523065967892D+03
 0.231880651052650D+03 0.169454714995503D+03 0.354154173896621D+02 -.154270814185670D+03
 0.821209944045910D+02 0.195908247777878D+02 0.487206397417284D+02 -.631376002844707D+02
 0.135507644943000D+03 0.193618776770127D+02 -.869869126917697D+02 0.458853485022493D+02
 0.204003309030733D+03 -.125975788296645D+03 -.117035006124724D+03 0.109773668062581D+03
-.589365186382D-06 0.000000000000D+00 0.000000000000D+00 0.957003527277D-07 0.000000000000D+00  7 1 -1 23 -11 11 23 21 2 0.66235347D-01 0.62335042D-01 0.12137797D+06 0.12137797D+06 0.12137797D+06 0.11148821D+01  1  2 13  1  7  1        1 -.130592612070D-04 0.100000000000D+01
0.337648604551D-05 0.000000000000D+00 0.000000000000D+00 0.957003527277D-07 0.238733212522D-10  7 1 -1 23 -11 11 23 21 2 0.64029355D-01 0.73112334D-01 0.12137797D+06 0.12137797D+06 0.12137797D+06 0.11148821D+01  1  2  1  1  7  1        1 0.576272658013D-04 0.100000000000D+01
  </mgrwgt>
  </event>
  <event>
  8     66 0.56006291E-06 0.61987751E+03 0.75467711E-02 0.85919559E-01
        1 -1    0    0  501    0 0.00000000E+00 0.00000000E+00 0.14683092E+04 0.14683092E+04 0.32000000E+00 0.0000E+00 0.9000E+01
       -1 -1    0    0    0  501 0.00000000E+00 0.00000000E+00 -.32238244E+03 0.32238260E+03 0.32000000E+00 0.0000E+00 0.9000E+01
       25  2    1    2    0    0 -.50364195E+03 -.29851944E+03 0.22588808E+03 0.69631231E+03 0.30175544E+03 0.0000E+00 0.0000E+00
       23  2    1    2    0    0 0.50364195E+03 0.29851944E+03 0.92003866E+03 0.10943795E+04 0.91794766E+02 0.0000E+00 0.0000E+00
       23  1    3    3    0    0 -.43751326E+03 -.17313808E+03 0.22077710E+03 0.52768592E+03 0.91188000E+02 0.0000E+00 0.9000E+01
      -13  1    4    4    0    0 0.38066162E+03 0.17978933E+03 0.62992284E+03 0.75764786E+03 0.10565837E+00 0.0000E+00 0.9000E+01
       13  1    4    4    0    0 0.12298032E+03 0.11873011E+03 0.29011582E+03 0.33673164E+03 0.10565837E+00 0.0000E+00 0.9000E+01
       23  1    3    3    0    0 -.66128685E+02 -.12538136E+03 0.51109835E+01 0.16862640E+03 0.91188000E+02 0.0000E+00 0.9000E+01
#aMCatNLO 1  0  0  2  2 0.83398198D+03 0.00000000D+00  -5  7  0 0.00000000D+00 0.00000000D+00 0.00000000D+00 0.00000000D+00 0.00000000D+00
  <mgrwgt>
 0.1729259866D-03    3    2    0
 0.688009640964346D+03 0.000000000000000D+00 0.000000000000000D+00 0.688009640964346D+03
 0.688009640964346D+03 0.000000000000000D+00 0.000000000000000D+00 -.688009640964346D+03
 0.502847946810452D+03 -.437513262641225D+03 -.173138078092494D+03 -.152138611782004D+03
 0.461380790647278D+03 0.380661965986199D+03 0.179789411666836D+03 0.188797428696268D+03
 0.196603809929341D+03 0.122979981284623D+03 0.118730026315500D+03 0.971193242001147D+02
 0.215186734541619D+03 -.661286846295966D+02 -.125381359889842D+03 -.133778141114379D+03
 0.000000000000000D+00 -.000000000000000D+00 0.000000000000000D+00 0.000000000000000D+00
 0.171674589184302D+04 0.000000000000000D+00 0.000000000000000D+00 0.171674589184302D+04
 0.995122033364146D+03 0.000000000000000D+00 0.000000000000000D+00 -.995122033364146D+03
 0.540268214507472D+03 -.286435350736377D+03 -.422354264707561D+03 -.152138611782004D+03
 0.565925555154551D+03 0.529450090804674D+03 -.656495715262933D+02 0.188797428696268D+03
 0.206998202714539D+03 0.181434975629444D+03 0.223034170544651D+02 0.971193242001147D+02
 0.295831024975781D+03 0.788368227366358D+01 -.247471211473195D+03 -.133778141114379D+03
 0.110284492785482D+04 -.432333397971405D+03 0.713171630652584D+03 0.721623858478869D+03
0.501558505427D-04 0.000000000000D+00 0.000000000000D+00 0.132103266645D-06 0.000000000000D+00  7 1 -1 23 -13 13 23 21 0 0.22589373D+00 0.49597313D-01 0.38424812D+06 0.38424812D+06 0.38424812D+06 0.10766877D+01  1  2  2  2  7  2       -1 0.171306083324D-03 0.100000000000D+01
-.274959435803D-05 0.000000000000D+00 -.192611672423D-06 0.132103266645D-06 0.000000000000D+00  7 1 -1 23 -13 13 23 21 2 0.22589373D+00 0.49597313D-01 0.38424812D+06 0.38424812D+06 0.38424812D+06 0.10766877D+01  1  2  3  2  7  2       -1 -.108867769965D-04 0.100000000000D+01
0.315872159401D-05 0.000000000000D+00 0.000000000000D+00 0.132103266645D-06 0.000000000000D+00  7 1 -1 23 -13 13 23 21 2 0.22589373D+00 0.49597313D-01 0.38424812D+06 0.38424812D+06 0.38424812D+06 0.10766877D+01  1  2 15  2  7  2       -1 0.125066802990D-04 0.100000000000D+01
  </mgrwgt>
  </event>
  <event>
  9     66 0.56006291E-06 0.23347688E+03 0.75467711E-02 0.99923155E-01
        1 -1    0    0  502    0 0.00000000E+00 0.00000000E+00 0.16482784E+04 0.16482784E+04 0.32000000E+00 0.0000E+00 0.9000E+01
       -1 -1    0    0    0  501 0.00000000E+00 0.00000000E+00 -.28275501E+03 0.28275519E+03 0.32000000E+00 0.0000E+00 0.9000E+01
       25  2    1    2    0    0 0.27613821E+02 0.55563898E+02 0.14679794E+04 0.14999464E+04 0.30170469E+03 0.0000E+00 0.0000E+00
       23  2    1    2    0    0 -.12977652E+03 -.14148641E+03 -.18056988E+03 0.27641910E+03 0.83316808E+02 0.0000E+00 0.0000E+00
       23  1    3    3    0    0 0.12555830E+03 -.10521583E+02 0.64042918E+03 0.65904505E+03 0.91188000E+02 0.0000E+00 0.9000E+01
      -13  1    4    4    0    0 -.27039822E+02 -.80796838E+02 -.46969932E+02 0.97290630E+02 0.10565837E+00 0.0000E+00 0.9000E+01
       13  1    4    4    0    0 -.10273670E+03 -.60689570E+02 -.13359995E+03 0.17912847E+03 0.10565837E+00 0.0000E+00 0.9000E+01
       23  1    3    3    0    0 -.97944476E+02 0.66085481E+02 0.82755023E+03 0.84090133E+03 0.91188000E+02 0.0000E+00 0.9000E+01
       21  1    1    2  502  501 0.10216270E+03 0.85922511E+02 0.78113857E+02 0.15466813E+03 0.75000000E+00 0.0000E+00 0.9000E+01
#aMCatNLO 2  0  0  1  2 0.13349118D+03 0.00000000D+00  -5  7  0 0.00000000D+00 0.00000000D+00 0.00000000D+00 0.00000000D+00 0.00000000D+00
  <mgrwgt>
 0.1347975411D-03    1    2    0
 0.608323744752832D+03 0.000000000000000D+00 0.000000000000000D+00 0.608323744752832D+03
 0.608323744752832D+03 0.000000000000000D+00 0.000000000000000D+00 -.608323744752832D+03
 0.294361002475245D+03 0.149720748428478D+03 0.979990927755710D+01 0.236264275129354D+03
 0.183773956383986D+03 -.113682294817252D+02 -.676165985159364D+02 -.170504035168112D+03
 0.389994164090114D+03 -.696468011496522D+02 -.328596408989619D+02 -.382315334657085D+03
 0.348518366556320D+03 -.687057177971008D+02 0.906763301373412D+02 0.316555094695843D+03
 0.000000000000000D+00 0.000000000000000D+00 0.000000000000000D+00 -.000000000000000D+00
 0.658470599810950D+03 0.000000000000000D+00 0.000000000000000D+00 0.658470599810950D+03
 0.707788329166932D+03 0.000000000000000D+00 0.000000000000000D+00 -.707788329166932D+03
 0.282863304050279D+03 0.125558297306500D+03 -.105215830241485D+02 0.236264275129354D+03
 0.190606677804368D+03 -.270397001255058D+02 -.807968701877252D+02 -.170504035168112D+03
 0.400503544295463D+03 -.102736818366482D+03 -.606895380704233D+02 -.382315334657085D+03
 0.349975414042887D+03 -.979444758361092D+02 0.660854807486930D+02 0.316555094695843D+03
 0.142309988784885D+03 0.102162697021598D+03 0.859225105336041D+02 -.493177293559826D+02
0.307597092729D-04 0.000000000000D+00 0.000000000000D+00 0.699977483749D-08 0.263684723099D-11  7 1 -1 23 -13 13 23 21 2 0.25358094D+00 0.43500723D-01 0.10329808D+06 0.10329808D+06 0.10329808D+06 0.11205674D+01  1  2  1  1  7  1        1 0.134797541104D-03 0.100000000000D+01
  </mgrwgt>
  </event>
  <event>
  8     66 -.56006291E-06 0.21264291E+03 0.75467711E-02 0.10545263E+00
        1 -1    0    0  501    0 0.00000000E+00 0.00000000E+00 0.10685321E+04 0.10685321E+04 0.32000000E+00 0.0000E+00 0.9000E+01
       -1 -1    0    0    0  501 0.00000000E+00 0.00000000E+00 -.10899324E+03 0.10899371E+03 0.32000000E+00 0.0000E+00 0.9000E+01
       25  2    1    2    0    0 0.98134872E+01 0.87756729E+02 0.13107972E+03 0.33960108E+03 0.30058185E+03 0.0000E+00 0.0000E+00
       23  2    1    2    0    0 -.98134872E+01 -.87756729E+02 0.82845913E+03 0.83792477E+03 0.89307555E+02 0.0000E+00 0.0000E+00
       23  1    3    3    0    0 0.86332270E+02 -.36519544E+02 0.14137022E+02 0.13153724E+03 0.91188000E+02 0.0000E+00 0.9000E+01
      -13  1    4    4    0    0 -.28383356E+02 -.97431231E+02 0.60137873E+03 0.60988101E+03 0.10565837E+00 0.0000E+00 0.9000E+01
       13  1    4    4    0    0 0.18569869E+02 0.96745020E+01 0.22708040E+03 0.22804376E+03 0.10565837E+00 0.0000E+00 0.9000E+01
       23  1    3    3    0    0 -.76518783E+02 0.12427627E+03 0.11694269E+03 0.20806384E+03 0.91188000E+02 0.0000E+00 0.9000E+01
#aMCatNLO 1  0  0  2  1 0.10361544D-01 0.00000000D+00  -5  7  0 0.00000000D+00 0.00000000D+00 0.00000000D+00 0.00000000D+00 0.00000000D+00
  <mgrwgt>
 -.2152502054D-04    9    2    0
 0.341266873199420D+03 0.000000000000000D+00 0.000000000000000D+00 0.341266873199420D+03
 0.341266873199420D+03 0.000000000000000D+00 0.000000000000000D+00 -.341266873199420D+03
 0.207057122891802D+03 0.863322699041881D+02 -.365195434624649D+02 -.160531812780876D+03
 0.206736335443349D+03 -.283834213914411D+02 -.974313800465481D+02 0.180115018709951D+03
 0.741865535355323D+02 0.185699341896211D+02 0.967465142691988D+01 0.711702423028132D+02
 0.194553734528157D+03 -.765187827023682D+02 0.124276272082093D+03 -.907534482318886D+02
 0.000000000000000D+00 0.000000000000000D+00 0.000000000000000D+00 -.000000000000000D+00
 0.341267999688426D+03 0.000000000000000D+00 0.000000000000000D+00 0.341267999688426D+03
 0.341290700664595D+03 0.000000000000000D+00 0.000000000000000D+00 -.341290700664595D+03
 0.207055938446776D+03 0.863291815437083D+02 -.365201287149207D+02 -.160531812780876D+03
 0.206737034214470D+03 -.283865049812467D+02 -.974319643949486D+02 0.180115018709951D+03
 0.741862492177012D+02 0.185688276591996D+02 0.967444173648676D+01 0.711702423028132D+02
 0.194554524598543D+03 -.765216845827531D+02 0.124275722168107D+03 -.907534482318886D+02
 0.249538755307555D-01 0.101803610918838D-01 0.192920527557147D-02 -.227009761694955D-01
0.343229176934D-06 0.000000000000D+00 0.000000000000D+00 0.119142792966D-06 0.000000000000D+00  7 1 -1 23 -13 13 23 21 0 0.16438959D+00 0.16768231D-01 0.45217006D+05 0.45217006D+05 0.45217006D+05 0.11511563D+01  1  2  2  2  7  2       -1 0.145992952602D-04 0.100000000000D+01
-.138801887086D-07 0.000000000000D+00 -.131809041374D-08 0.119142792966D-06 0.000000000000D+00  7 1 -1 23 -13 13 23 21 2 0.16438959D+00 0.16768231D-01 0.45217006D+05 0.45217006D+05 0.45217006D+05 0.11511563D+01  1  2  3  2  7  2       -1 -.782369093619D-06 0.100000000000D+01
0.212347134831D-07 0.000000000000D+00 0.000000000000D+00 0.119142792966D-06 0.000000000000D+00  7 1 -1 23 -13 13 23 21 2 0.16438959D+00 0.16768231D-01 0.45217006D+05 0.45217006D+05 0.45217006D+05 0.11511563D+01  1  2 15  2  7  2       -1 0.119691337703D-05 0.100000000000D+01
-.691776073376D-02 0.000000000000D+00 0.000000000000D+00 0.119142792966D-06 0.000000000000D+00  7 1 -1 23 -13 13 23 21 2 0.16438959D+00 0.16768231D-01 0.45217006D+05 0.45217006D+05 0.45217006D+05 0.11511563D+01  1  2  4  2  7  2       -1 -.389925692566D+00 0.100000000000D+01
-.171758349751D-01 0.000000000000D+00 -.602526989932D-03 0.119142792966D-06 0.000000000000D+00  7 1 -1 23 -13 13 23 21 2 0.16438959D+00 0.16769443D-01 0.45217006D+05 0.45217006D+05 0.45217006D+05 0.11511563D+01  1  2  5  2  7  2       -1 -.968021421579D+00 0.100000000000D+01
0.171758784820D-01 0.000000000000D+00 0.602526988358D-03 0.119142792966D-06 0.000000000000D+00  7 1 -1 23 -13 13 23 21 2 0.16438959D+00 0.16768231D-01 0.45217006D+05 0.45217006D+05 0.45217006D+05 0.11511563D+01  1  2  6  2  7  2       -1 0.968133557992D+00 0.100000000000D+01
0.691776074980D-02 0.000000000000D+00 0.000000000000D+00 0.119142792966D-06 0.784304815889D-02  7 1 -1 23 -13 13 23 21 2 0.16439013D+00 0.16769401D-01 0.45219074D+05 0.45219074D+05 0.45219074D+05 0.11511546D+01  1  2 11  2  7  2       -1 0.389879289219D+00 0.100000000000D+01
-.232746744400D-06 0.000000000000D+00 -.816477956919D-08 0.119142792966D-06 0.000000000000D+00  7 1 21 23 -13 13 23 1 2 0.16438959D+00 0.16769443D-01 0.45217006D+05 0.45217006D+05 0.45217006D+05 0.11511563D+01  1  2  5  4  7  2       -1 -.168501068210D-03 0.100000000000D+01
0.914814010079D-07 0.000000000000D+00 0.000000000000D+00 0.119142792966D-06 0.102662154136D-06  7 1 21 23 -13 13 23 1 2 0.16439013D+00 0.16769401D-01 0.45219074D+05 0.45219074D+05 0.45219074D+05 0.11511546D+01  1  2 11  4  7  2       -1 0.662291423959D-04 0.100000000000D+01
  </mgrwgt>
  </event>
  <event>
  9     66 -.56006291E-06 0.20780974E+03 0.75467711E-02 0.10377991E+00
        1 -1    0    0  501    0 0.00000000E+00 0.00000000E+00 0.19646080E+04 0.19646081E+04 0.32000000E+00 0.0000E+00 0.9000E+01
       -1 -1    0    0    0  502 0.00000000E+00 0.00000000E+00 -.35248969E+02 0.35250421E+02 0.32000000E+00 0.0000E+00 0.9000E+01
       25  2    1    2    0    0 0.96251309E+02 -.23592583E+02 0.95396829E+03 0.10040692E+04 0.29711720E+03 0.0000E+00 0.0000E+00
       23  2    1    2    0    0 -.72302663E+02 0.77004578E+02 0.75208295E+03 0.76493576E+03 0.91326731E+02 0.0000E+00 0.0000E+00
       23  1    3    3    0    0 -.72703434E+02 0.13369526E+02 0.33671776E+03 0.35659309E+03 0.91188000E+02 0.0000E+00 0.9000E+01
      -13  1    4    4    0    0 -.66109931E+02 0.57159836E+02 0.72754602E+03 0.73277622E+03 0.10565837E+00 0.0000E+00 0.9000E+01
       13  1    4    4    0    0 -.61927321E+01 0.19844742E+02 0.24536932E+02 0.32159539E+02 0.10565837E+00 0.0000E+00 0.9000E+01
       23  1    3    3    0    0 0.16895474E+03 -.36962110E+02 0.61725053E+03 0.64747616E+03 0.91188000E+02 0.0000E+00 0.9000E+01
       21  1    1    2  501  502 -.23948646E+02 -.53411995E+02 0.22330783E+03 0.23085347E+03 0.75000000E+00 0.0000E+00 0.9000E+01
#aMCatNLO 2  0  0  2  1 0.58535279D+02 0.00000000D+00  -5  7  0 0.00000000D+00 0.00000000D+00 0.00000000D+00 0.00000000D+00 0.00000000D+00
  <mgrwgt>
 -.8219668062D-04    2    2    0
 0.232024516760305D+03 0.000000000000000D+00 0.000000000000000D+00 0.232024516760305D+03
 0.232024516760305D+03 0.000000000000000D+00 0.000000000000000D+00 -.232024516760305D+03
 0.123659924678688D+03 -.789786481598292D+02 -.625951279129048D+00 -.271754843081217D+02
 0.115471199512887D+03 -.721031733108340D+02 0.437935324844853D+02 0.788470470466912D+02
 0.304222779085116D+02 -.780044009633400D+01 0.162588954211453D+02 -.245013560263606D+02
 0.194495631420523D+03 0.158882261566997D+03 -.594264766265015D+02 -.271702067122089D+02
 0.000000000000000D+00 -.000000000000000D+00 -.000000000000000D+00 0.000000000000000D+00
 0.264424725764662D+03 0.000000000000000D+00 0.000000000000000D+00 0.264424725764662D+03
 0.261891629087933D+03 0.000000000000000D+00 0.000000000000000D+00 -.261891629087933D+03
 0.120491864120159D+03 -.727034179429818D+02 0.133695193323440D+02 -.271754843081217D+02
 0.117705756621685D+03 -.661100200834633D+02 0.571598946680645D+02 0.788470470466912D+02
 0.321321848284814D+02 -.619265480548265D+01 0.198446940309329D+02 -.245013560263606D+02
 0.197396486590834D+03 0.168954738499432D+03 -.369621127671213D+02 -.271702067122089D+02
 0.585900626914362D+02 -.239486456675046D+02 -.534119952642202D+02 0.253309667672914D+01
-.214876445225D-05 0.000000000000D+00 0.000000000000D+00 0.888168846480D-08 0.000000000000D+00  7 1 -1 23 -13 13 23 21 2 0.26521041D+00 0.57164952D-02 0.57509596D+05 0.57509596D+05 0.57509596D+05 0.11419881D+01  1  2 13  2  7  2       -1 -.222567447074D-03 0.100000000000D+01
0.179513963021D-05 0.000000000000D+00 0.000000000000D+00 0.888168846479D-08 0.181878094917D-10  7 1 -1 23 -13 13 23 21 2 0.30224475D+00 0.54229825D-02 0.57509596D+05 0.57509596D+05 0.57509596D+05 0.11419881D+01  1  2  1  2  7  2       -1 0.140370766449D-03 0.100000000000D+01
  </mgrwgt>
  </event>
  <event>
  7     66 0.56006291E-06 0.26950006E+03 0.75467711E-02 0.98592830E-01
        1 -1    0    0  501    0 0.00000000E+00 0.00000000E+00 0.25225801E+04 0.25225801E+04 0.32000000E+00 0.0000E+00 0.9000E+01
       -1 -1    0    0    0  501 0.00000000E+00 0.00000000E+00 -.90885136E+02 0.90885699E+02 0.32000000E+00 0.0000E+00 0.9000E+01
       23  2    1    2    0    0 -.17178275E+03 0.10102718E+03 0.21073801E+04 0.21185940E+04 0.87600856E+02 0.0000E+00 0.0000E+00
       23  1    1    2    0    0 0.10643043E+03 0.48031512E+02 0.25679689E+03 0.29646982E+03 0.91188000E+02 0.0000E+00 0.9000E+01
      -13  1    3    3    0    0 -.31485619E+01 -.43978343E+01 0.71354076E+01 0.89543059E+01 0.10565837E+00 0.0000E+00 0.9000E+01
       13  1    3    3    0    0 -.16863419E+03 0.10542502E+03 0.21002447E+04 0.21096397E+04 0.10565837E+00 0.0000E+00 0.9000E+01
       23  1    1    2    0    0 0.65352319E+02 -.14905870E+03 0.67517987E+02 0.19840199E+03 0.91188000E+02 0.0000E+00 0.9000E+01
#aMCatNLO 1  0  0  2  2 0.14944524D+03 0.00000000D+00  -5  7  0 0.00000000D+00 0.00000000D+00 0.00000000D+00 0.00000000D+00 0.00000000D+00
  <mgrwgt>
 0.3107387202D-03    4    2    0
 0.478817080667681D+03 0.000000000000000D+00 0.000000000000000D+00 0.478817080667681D+03
 0.478817080667681D+03 0.000000000000000D+00 0.000000000000000D+00 -.478817080667681D+03
 0.157014080553834D+03 0.106430429790995D+03 0.480315122963737D+02 -.519971882816110D+02
 0.631771034980629D+01 -.314832113868158D+01 -.439799402214328D+01 -.326484098433166D+01
 0.424292933864066D+03 -.168634427623127D+03 0.105425178478103D+03 0.374796551865219D+03
 0.370009436567656D+03 0.653523189708135D+02 -.149058696752334D+03 -.319534522599276D+03
 0.000000000000000D+00 0.000000000000000D+00 -.000000000000000D+00 0.000000000000000D+00
 0.887373466123723D+03 0.000000000000000D+00 0.000000000000000D+00 0.887373466123723D+03
 0.498475478228816D+03 0.000000000000000D+00 0.000000000000000D+00 -.498475478228816D+03
 0.147323912564701D+03 0.852534552842395D+02 0.584570324450057D+02 -.519971882816110D+02
 0.653183055122688D+01 -.404244019787740D+01 -.395781517299047D+01 -.326484098433166D+01
 0.460305542713549D+03 -.230188094305493D+03 0.135728326456795D+03 0.374796551865219D+03
 0.355063696979128D+03 0.148990216111477D+02 -.124220310701468D+03 -.319534522599276D+03
 0.416623961543935D+03 0.134078057607983D+03 -.660072330273421D+02 0.388897987894906D+03
0.512524855402D-04 0.000000000000D+00 0.000000000000D+00 0.638049874955D-09 0.000000000000D+00  7 1 -1 23 -13 13 23 21 0 0.38808929D+00 0.13982373D-01 0.72630284D+05 0.72630284D+05 0.72630284D+05 0.11333003D+01  1  2  2  2  7  2       -1 0.308827458446D-03 0.100000000000D+01
-.170373983864D-05 0.000000000000D+00 -.196823039564D-06 0.638049874955D-09 0.000000000000D+00  7 1 -1 23 -13 13 23 21 2 0.38808929D+00 0.13982373D-01 0.72630284D+05 0.72630284D+05 0.72630284D+05 0.11333003D+01  1  2  3  2  7  2       -1 -.131854288564D-04 0.100000000000D+01
0.315181920153D-05 0.000000000000D+00 0.000000000000D+00 0.638049874955D-09 0.000000000000D+00  7 1 -1 23 -13 13 23 21 2 0.38808929D+00 0.13982373D-01 0.72630284D+05 0.72630284D+05 0.72630284D+05 0.11333003D+01  1  2 15  2  7  2       -1 0.243922733434D-04 0.100000000000D+01
-.120111790591D-05 0.000000000000D+00 0.000000000000D+00 0.638049874955D-09 0.000000000000D+00  7 1 -1 23 -13 13 23 21 2 0.38808929D+00 0.13982373D-01 0.72630284D+05 0.72630284D+05 0.72630284D+05 0.11333003D+01  1  2  4  2  7  2       -1 -.929558277465D-05 0.100000000000D+01
  </mgrwgt>
  </event>
  <event>
  8     66 0.56006291E-06 0.26251034E+03 0.75467711E-02 0.93782356E-01
        1 -1    0    0  501    0 0.00000000E+00 0.00000000E+00 0.50617814E+03 0.50617824E+03 0.32000000E+00 0.0000E+00 0.9000E+01
       -1 -1    0    0    0  501 0.00000000E+00 0.00000000E+00 -.21172007E+03 0.21172031E+03 0.32000000E+00 0.0000E+00 0.9000E+01
       25  2    1    2    0    0 -.53998407E+02 -.21884752E+03 0.60956716E+02 0.38004693E+03 0.29984977E+03 0.0000E+00 0.0000E+00
       23  2    1    2    0    0 0.53998407E+02 0.21884752E+03 0.23350136E+03 0.33785162E+03 0.93865709E+02 0.0000E+00 0.0000E+00
       23  1    3    3    0    0 -.65343205E+02 -.12783176E+03 0.14692109E+03 0.22474819E+03 0.91188000E+02 0.0000E+00 0.9000E+01
      -11  1    4    4    0    0 0.22117585E+01 0.20227147E+02 -.71365933E+01 0.21562939E+02 0.51099893E-03 0.0000E+00 0.9000E+01
       11  1    4    4    0    0 0.51786649E+02 0.19862037E+03 0.24063795E+03 0.31628869E+03 0.51099893E-03 0.0000E+00 0.9000E+01
       23  1    3    3    0    0 0.11344798E+02 -.91015757E+02 -.85964371E+02 0.15529873E+03 0.91188000E+02 0.0000E+00 0.9000E+01
#aMCatNLO 1  0  0  1  2 0.42416539D+03 0.00000000D+00  -5  7  0 0.00000000D+00 0.00000000D+00 0.00000000D+00 0.00000000D+00 0.00000000D+00
  <mgrwgt>
 0.2149156698D-03    5    2    0
 0.327365534992237D+03 0.000000000000000D+00 0.000000000000000D+00 0.327365534992237D+03
 0.327365534992237D+03 0.000000000000000D+00 0.000000000000000D+00 -.327365534992237D+03
 0.180355428188930D+03 -.653432054572514D+02 -.127831759968218D+03 0.600177955044298D+02
 0.268529031081386D+02 0.221175850082390D+01 0.202271472221041D+02 -.175228149828856D+02
 0.238579484730196D+03 0.517866489978789D+02 0.198620370209395D+03 0.121606998390631D+03
 0.208943253957210D+03 0.113447979585486D+02 -.910157574632810D+02 -.164101978912175D+03
 0.000000000000000D+00 -.000000000000000D+00 -.000000000000000D+00 0.000000000000000D+00
 0.900906114606727D+03 0.000000000000000D+00 0.000000000000000D+00 0.900906114606727D+03
 0.478108869647936D+03 0.000000000000000D+00 0.000000000000000D+00 -.478108869647936D+03
 0.122704198312865D+03 -.354669805489426D+02 -.433708018502341D+02 0.600177955044298D+02
 0.448274214005992D+02 0.927814844277456D+01 0.402040374337739D+02 -.175228149828856D+02
 0.416768775976779D+03 0.116392192983246D+03 0.381262125032312D+03 0.121606998390631D+03
 0.195820783203279D+03 0.512472473497418D+02 0.217896293343424D+02 -.164101978912175D+03
 0.598893805361141D+03 -.141450608226819D+03 -.399884989950194D+03 0.422797244958791D+03
0.463209696513D-05 0.000000000000D+00 0.000000000000D+00 0.198502005729D-06 0.000000000000D+00  7 1 -1 23 -11 11 23 21 0 0.77873587D-01 0.32572344D-01 0.68911678D+05 0.68911678D+05 0.68911678D+05 0.11352386D+01  1  2  2  1  7  1        1 0.210634742178D-03 0.100000000000D+01
-.242086490805D-06 0.000000000000D+00 -.177884720052D-07 0.198502005729D-06 0.000000000000D+00  7 1 -1 23 -11 11 23 21 2 0.77873587D-01 0.32572344D-01 0.68911678D+05 0.68911678D+05 0.68911678D+05 0.11352386D+01  1  2  3  1  7  1        1 -.141872168358D-04 0.100000000000D+01
0.295318149531D-06 0.000000000000D+00 0.000000000000D+00 0.198502005729D-06 0.000000000000D+00  7 1 -1 23 -11 11 23 21 2 0.77873587D-01 0.32572344D-01 0.68911678D+05 0.68911678D+05 0.68911678D+05 0.11352386D+01  1  2 15  1  7  1        1 0.173068005943D-04 0.100000000000D+01
0.120393648593D-06 0.000000000000D+00 -.158279047444D-05 0.198502005729D-06 0.000000000000D+00  7 1 -1 23 -11 11 23 21 2 0.26420481D+00 0.32572344D-01 0.68911678D+05 0.68911678D+05 0.68911678D+05 0.11352386D+01  1  2  5  1  7  1        1 0.816803291869D-06 0.100000000000D+01
0.742600086423D-07 0.000000000000D+00 -.225021500766D-06 0.198502005729D-06 0.000000000000D+00  7 21 -1 23 -11 11 23 -1 2 0.26420481D+00 0.32572344D-01 0.68911678D+05 0.68911678D+05 0.68911678D+05 0.11352386D+01  1  2  5  3  7  1        1 0.344540581804D-06 0.100000000000D+01
  </mgrwgt>
  </event>
  <event>
  8     66 0.56006291E-06 0.63287915E+02 0.75467711E-02 0.10596848E+00
        1 -1    0    0  501    0 0.00000000E+00 0.00000000E+00 0.63160410E+03 0.63160418E+03 0.32000000E+00 0.0000E+00 0.9000E+01
       -1 -1    0    0    0  501 0.00000000E+00 0.00000000E+00 -.63902803E+02 0.63903604E+02 0.32000000E+00 0.0000E+00 0.9000E+01
       25  2    1    2    0    0 0.30773212E+02 -.19019562E+02 0.46102807E+03 0.55132720E+03 0.30017673E+03 0.0000E+00 0.0000E+00
       23  2    1    2    0    0 -.30773212E+02 0.19019562E+02 0.10667323E+03 0.14418059E+03 0.90000717E+02 0.0000E+00 0.0000E+00
       23  1    3    3    0    0 0.11740761E+03 0.46432173E+02 0.28993102E+03 0.32911357E+03 0.91188000E+02 0.0000E+00 0.9000E+01
      -13  1    4    4    0    0 -.13033774E+02 0.47549442E+02 0.23781070E+02 0.54739192E+02 0.10565837E+00 0.0000E+00 0.9000E+01
       13  1    4    4    0    0 -.17739438E+02 -.28529880E+02 0.82892160E+02 0.89441395E+02 0.10565837E+00 0.0000E+00 0.9000E+01
       23  1    3    3    0    0 -.86634394E+02 -.65451734E+02 0.17109705E+03 0.22221364E+03 0.91188000E+02 0.0000E+00 0.9000E+01
#aMCatNLO 1  0  0  1  2 0.28819543D+02 0.00000000D+00  -5  7  0 0.00000000D+00 0.00000000D+00 0.00000000D+00 0.00000000D+00 0.00000000D+00
  <mgrwgt>
 0.4704654423D-03    9    2    0
 0.200901914927260D+03 0.000000000000000D+00 0.000000000000000D+00 0.200901914927260D+03
 0.200901914927260D+03 0.000000000000000D+00 0.000000000000000D+00 -.200901914927260D+03
 0.160045344619658D+03 0.117407662220285D+03 0.464319600102770D+02 0.368615644268741D+02
 0.611519933304755D+02 -.130340116626693D+02 0.475496940566907D+02 -.361760614686430D+02
 0.377028968883063D+02 -.177395942883180D+02 -.285298888320362D+02 0.171131724553861D+02
 0.142903595016080D+03 -.866340562692977D+02 -.654517652349315D+02 -.177986754136173D+02
 0.000000000000000D+00 0.000000000000000D+00 0.000000000000000D+00 0.000000000000000D+00
 0.219440572572139D+03 0.000000000000000D+00 0.000000000000000D+00 0.219440572572139D+03
 0.212939233239517D+03 0.000000000000000D+00 0.000000000000000D+00 -.212939233239517D+03
 0.151566362759367D+03 0.108000086661274D+03 0.404266907533222D+02 0.368615644268741D+02
 0.602620213549608D+02 -.166995078235268D+02 0.452098466360447D+02 -.361760614686430D+02
 0.399732970614691D+02 -.200846430987918D+02 -.300268366311009D+02 0.171131724553861D+02
 0.151034369518613D+03 -.955080605045057D+02 -.711164324475950D+02 -.177986754136173D+02
 0.295437551172457D+02 0.242921247655497D+02 0.155067316893290D+02 0.650133933262282D+01
0.105986033019D-05 0.000000000000D+00 0.000000000000D+00 0.727787626968D-07 0.000000000000D+00  7 1 -1 23 -13 13 23 21 0 0.97169930D-01 0.98312684D-02 0.36182218D+05 0.36182218D+05 0.36182218D+05 0.11598604D+01  1  2  2  1  7  1        1 0.235268435717D-03 0.100000000000D+01
-.586672732487D-07 0.000000000000D+00 -.407014273556D-08 0.727787626968D-07 0.000000000000D+00  7 1 -1 23 -13 13 23 21 2 0.97169930D-01 0.98312684D-02 0.36182218D+05 0.36182218D+05 0.36182218D+05 0.11598604D+01  1  2  3  1  7  1        1 -.175195259131D-04 0.100000000000D+01
0.690317691479D-07 0.000000000000D+00 0.000000000000D+00 0.727787626968D-07 0.000000000000D+00  7 1 -1 23 -13 13 23 21 2 0.97169930D-01 0.98312684D-02 0.36182218D+05 0.36182218D+05 0.36182218D+05 0.11598604D+01  1  2 15  1  7  1        1 0.206146255219D-04 0.100000000000D+01
0.165321755109D-05 0.000000000000D+00 0.000000000000D+00 0.727787626968D-07 0.000000000000D+00  7 1 -1 23 -13 13 23 21 2 0.10882507D+00 0.98312684D-02 0.42053175D+05 0.42053175D+05 0.42053175D+05 0.11539667D+01  1  2 12  1  7  1        1 0.414757447012D-03 0.100000000000D+01
-.147926697754D-05 0.000000000000D+00 0.000000000000D+00 0.727787626968D-07 0.000000000000D+00  7 1 -1 23 -13 13 23 21 2 0.97169930D-01 0.98312684D-02 0.36182218D+05 0.36182218D+05 0.36182218D+05 0.11598604D+01  1  2  4  1  7  1        1 -.441746389600D-03 0.100000000000D+01
-.491028714510D-05 0.000000000000D+00 -.109675561453D-05 0.727787626968D-07 0.000000000000D+00  7 1 -1 23 -13 13 23 21 2 0.11102141D+00 0.98312684D-02 0.36182218D+05 0.36182218D+05 0.36182218D+05 0.11598604D+01  1  2  5  1  7  1        1 -.120672032437D-02 0.100000000000D+01
0.502145638048D-05 0.000000000000D+00 0.108708868131D-05 0.727787626968D-07 0.000000000000D+00  7 1 -1 23 -13 13 23 21 2 0.97169930D-01 0.98312684D-02 0.36182218D+05 0.36182218D+05 0.36182218D+05 0.11598604D+01  1  2  6  1  7  1        1 0.149953339072D-02 0.100000000000D+01
0.298776046576D-07 0.000000000000D+00 0.000000000000D+00 0.727787626968D-07 0.000000000000D+00  7 21 -1 23 -13 13 23 -1 2 0.10882507D+00 0.98312684D-02 0.42053175D+05 0.42053175D+05 0.42053175D+05 0.11539667D+01  1  2 12  3  7  1        1 0.161987220485D-04 0.100000000000D+01
-.955295754535D-07 0.000000000000D+00 -.227100106994D-07 0.727787626968D-07 0.000000000000D+00  7 21 -1 23 -13 13 23 -1 2 0.11102141D+00 0.98312684D-02 0.36182218D+05 0.36182218D+05 0.36182218D+05 0.11598604D+01  1  2  5  3  7  1        1 -.499209388199D-04 0.100000000000D+01
  </mgrwgt>
  </event>
  <event>
  8     66 0.56006291E-06 0.35861901E+03 0.75467711E-02 0.95178638E-01
        1 -1    0    0  501    0 0.00000000E+00 0.00000000E+00 0.39285977E+03 0.39285990E+03 0.32000000E+00 0.0000E+00 0.9000E+01
       -1 -1    0    0    0  501 0.00000000E+00 0.00000000E+00 -.34146637E+03 0.34146652E+03 0.32000000E+00 0.0000E+00 0.9000E+01
       25  2    1    2    0    0 -.25208786E+03 -.15640301E+03 0.21649811E+02 0.42221543E+03 0.29964472E+03 0.0000E+00 0.0000E+00
       23  2    1    2    0    0 0.25208786E+03 0.15640301E+03 0.29743589E+02 0.31211099E+03 0.92295158E+02 0.0000E+00 0.0000E+00
       23  1    3    3    0    0 -.11013863E+03 -.19683033E+03 0.44188825E+02 0.24726626E+03 0.91188000E+02 0.0000E+00 0.9000E+01
      -11  1    4    4    0    0 0.10562269E+03 0.38443710E+02 0.49888673E+02 0.12297541E+03 0.51099893E-03 0.0000E+00 0.9000E+01
       11  1    4    4    0    0 0.14646517E+03 0.11795930E+03 -.20145084E+02 0.18913558E+03 0.51099893E-03 0.0000E+00 0.9000E+01
       23  1    3    3    0    0 -.14194923E+03 0.40427324E+02 -.22539014E+02 0.17494917E+03 0.91188000E+02 0.0000E+00 0.9000E+01
#aMCatNLO 1  0  0  2  2 0.20867122D+03 0.00000000D+00  -5  7  0 0.00000000D+00 0.00000000D+00 0.00000000D+00 0.00000000D+00 0.00000000D+00
  <mgrwgt>
 0.1161422369D-03    4    2    0
 0.366262884711199D+03 0.000000000000000D+00 0.000000000000000D+00 0.366262884711199D+03
 0.366262884711199D+03 0.000000000000000D+00 0.000000000000000D+00 -.366262884711199D+03
 0.244773821378471D+03 -.110138634007430D+03 -.196830334632281D+03 0.269494518634615D+02
 0.119777552689152D+03 0.105622692071404D+03 0.384437103918670D+02 0.413834529624846D+02
 0.191013862059238D+03 0.146465171468499D+03 0.117959300105297D+03 -.334641982446494D+02
 0.176960533295538D+03 -.141949229532473D+03 0.404273241351172D+02 -.348687065812968D+02
 0.000000000000000D+00 0.000000000000000D+00 0.000000000000000D+00 0.000000000000000D+00
 0.487962237161671D+03 0.000000000000000D+00 0.000000000000000D+00 0.487962237161671D+03
 0.482449485780966D+03 0.000000000000000D+00 0.000000000000000D+00 -.482449485780966D+03
 0.308421388306498D+03 -.178471974227036D+03 -.232873319383460D+03 0.269494518634615D+02
 0.928203593410672D+02 0.793615726719582D+02 0.245920660404969D+02 0.413834529624846D+02
 0.146032168949882D+03 0.104831620231261D+03 0.959993396005318D+02 -.334641982446494D+02
 0.214393780481668D+03 -.190291201772213D+03 0.149289515591637D+02 -.348687065812968D+02
 0.208744025863522D+03 0.184569983096029D+03 0.973529621832680D+02 0.551275138070460D+01
0.645103909777D-05 0.000000000000D+00 0.000000000000D+00 0.314435683598D-06 0.000000000000D+00  7 1 -1 23 -11 11 23 21 0 0.60439986D-01 0.52533309D-01 0.12860760D+06 0.12860760D+06 0.12860760D+06 0.11128642D+01  1  2  2  2  7  2       -1 0.178363993013D-03 0.100000000000D+01
-.358197230042D-06 0.000000000000D+00 -.247736887331D-07 0.314435683598D-06 0.000000000000D+00  7 1 -1 23 -11 11 23 21 2 0.60439986D-01 0.52533309D-01 0.12860760D+06 0.12860760D+06 0.12860760D+06 0.11128642D+01  1  2  3  2  7  2       -1 -.122654674840D-04 0.100000000000D+01
0.409794391015D-06 0.000000000000D+00 0.000000000000D+00 0.314435683598D-06 0.000000000000D+00  7 1 -1 23 -11 11 23 21 2 0.60439986D-01 0.52533309D-01 0.12860760D+06 0.12860760D+06 0.12860760D+06 0.11128642D+01  1  2 15  2  7  2       -1 0.140322686960D-04 0.100000000000D+01
-.186870365933D-05 0.000000000000D+00 0.000000000000D+00 0.314435683598D-06 0.000000000000D+00  7 1 -1 23 -11 11 23 21 2 0.60439986D-01 0.52533309D-01 0.12860760D+06 0.12860760D+06 0.12860760D+06 0.11128642D+01  1  2  4  2  7  2       -1 -.639885572762D-04 0.100000000000D+01
  </mgrwgt>
  </event>
  <event>
  8     66 0.56006291E-06 0.24662659E+03 0.75467711E-02 0.90327486E-01
        1 -1    0    0  501    0 0.00000000E+00 0.00000000E+00 0.82202813E+03 0.82202819E+03 0.32000000E+00 0.0000E+00 0.9000E+01
       -1 -1    0    0    0  501 0.00000000E+00 0.00000000E+00 -.37160271E+03 0.37160285E+03 0.32000000E+00 0.0000E+00 0.9000E+01
       25  2    1    2    0    0 -.70948056E+02 0.14400063E+03 -.27990324E+03 0.44044416E+03 0.29979231E+03 0.0000E+00 0.0000E+00
       23  2    1    2    0    0 0.70948056E+02 -.14400063E+03 0.73032865E+03 0.75318687E+03 0.90225955E+02 0.0000E+00 0.0000E+00
       23  1    3    3    0    0 0.76507636E+01 0.17501939E+03 -.98946901E+02 0.22089830E+03 0.91188000E+02 0.0000E+00 0.9000E+01
      -11  1    4    4    0    0 -.93562377E+01 -.33857447E+02 0.29324881E+03 0.29534510E+03 0.51099893E-03 0.0000E+00 0.9000E+01
       11  1    4    4    0    0 0.80304294E+02 -.11014318E+03 0.43707984E+03 0.45784177E+03 0.51099893E-03 0.0000E+00 0.9000E+01
       23  1    3    3    0    0 -.78598820E+02 -.31018756E+02 -.18095634E+03 0.21954586E+03 0.91188000E+02 0.0000E+00 0.9000E+01
#aMCatNLO 1  0  0  2  2 0.70189542D+03 0.00000000D+00  -5  7  0 0.00000000D+00 0.00000000D+00 0.00000000D+00 0.00000000D+00 0.00000000D+00
  <mgrwgt>
 0.2756461201D-03    5    2    0
 0.552691597188940D+03 0.000000000000000D+00 0.000000000000000D+00 0.552691597188940D+03
 0.552691597188940D+03 0.000000000000000D+00 0.000000000000000D+00 -.552691597188940D+03
 0.278852864249142D+03 0.765076362752270D+01 0.175019386502610D+03 -.196858702424139D+03
 0.199429815100165D+03 -.935623766301646D+01 -.338574471239915D+02 0.196311958988558D+03
 0.316290572383436D+03 0.803042941318103D+02 -.110143183703102D+03 0.285410976674650D+03
 0.310809942645137D+03 -.785988200963165D+02 -.310187556755170D+02 -.284864233239069D+03
 0.000000000000000D+00 0.000000000000000D+00 -.000000000000000D+00 -.000000000000000D+00
 0.797654935545161D+03 0.000000000000000D+00 0.000000000000000D+00 0.797654935545161D+03
 0.151626137900687D+04 0.000000000000000D+00 0.000000000000000D+00 -.151626137900687D+04
 0.398481538627885D+03 -.142521249346405D+03 0.302335294082366D+03 -.196858702424139D+03
 0.226866863700413D+03 -.103870601775724D+03 0.462718779615156D+02 0.196311958988558D+03
 0.290545182191696D+03 -.542374424491452D+02 0.392136774653909D+01 0.285410976674650D+03
 0.393506729240176D+03 -.234753079999334D+03 0.101368903837640D+03 -.284864233239069D+03
 0.100451600079186D+04 0.535382373570608D+03 -.453897443628061D+03 -.718606443461708D+03
0.292836437402D-04 0.000000000000D+00 0.000000000000D+00 0.174245233763D-05 0.000000000000D+00  7 1 -1 23 -11 11 23 21 0 0.12646588D+00 0.57169664D-01 0.60824676D+05 0.60824676D+05 0.60824676D+05 0.11398836D+01  1  2  2  2  7  2       -1 0.245997167568D-03 0.100000000000D+01
-.338915655463D-06 0.000000000000D+00 -.112456902523D-06 0.174245233763D-05 0.000000000000D+00  7 1 -1 23 -11 11 23 21 2 0.12646588D+00 0.57169664D-01 0.60824676D+05 0.60824676D+05 0.60824676D+05 0.11398836D+01  1  2  3  2  7  2       -1 -.369928349068D-05 0.100000000000D+01
0.179058222375D-05 0.000000000000D+00 0.000000000000D+00 0.174245233763D-05 0.000000000000D+00  7 1 -1 23 -11 11 23 21 2 0.12646588D+00 0.57169664D-01 0.60824676D+05 0.60824676D+05 0.60824676D+05 0.11398836D+01  1  2 15  2  7  2       -1 0.195443059423D-04 0.100000000000D+01
0.117982365581D-04 0.000000000000D+00 -.940616137820D-05 0.174245233763D-05 0.000000000000D+00  7 1 -1 23 -11 11 23 21 2 0.12646588D+00 0.19841871D+00 0.60824676D+05 0.60824676D+05 0.60824676D+05 0.11398836D+01  1  2  5  2  7  2       -1 0.642070424155D-05 0.100000000000D+01
0.202642890595D-05 0.000000000000D+00 -.136742047933D-05 0.174245233763D-05 0.000000000000D+00  7 1 21 23 -11 11 23 1 2 0.12646588D+00 0.19841871D+00 0.60824676D+05 0.60824676D+05 0.60824676D+05 0.11398836D+01  1  2  5  4  7  2       -1 0.738322588738D-05 0.100000000000D+01
  </mgrwgt>
  </event>
  <event>
  9     66 0.56006291E-06 0.14185506E+03 0.75467711E-02 0.10895213E+00
        1 -1    0    0  502    0 0.00000000E+00 0.00000000E+00 0.25487359E+03 0.25487379E+03 0.32000000E+00 0.0000E+00 0.9000E+01
       -1 -1    0    0    0  501 0.00000000E+00 0.00000000E+00 -.23845017E+03 0.23845039E+03 0.32000000E+00 0.0000E+00 0.9000E+01
       25  2    1    2    0    0 -.61565864E+02 -.39851217E+02 -.37553605E+02 0.31028302E+03 0.29914346E+03 0.0000E+00 0.0000E+00
       23  2    1    2    0    0 0.28000734E+02 0.92047866E+01 -.21159822E+02 0.95223562E+02 0.88039875E+02 0.0000E+00 0.0000E+00
       23  1    3    3    0    0 -.89443904E+02 -.59796783E+01 -.12330956E+03 0.17764140E+03 0.91188000E+02 0.0000E+00 0.9000E+01
      -11  1    4    4    0    0 0.34045960E+02 0.25722331E+02 0.22438810E+02 0.48210641E+02 0.51099893E-03 0.0000E+00 0.9000E+01
       11  1    4    4    0    0 -.60452260E+01 -.16517545E+02 -.43598632E+02 0.47012921E+02 0.51099893E-03 0.0000E+00 0.9000E+01
       23  1    3    3    0    0 0.27878040E+02 -.33871538E+02 0.85755952E+02 0.13264163E+03 0.91188000E+02 0.0000E+00 0.9000E+01
       21  1    1    2  502  501 0.33565130E+02 0.30646430E+02 0.75136840E+02 0.87817589E+02 0.75000000E+00 0.0000E+00 0.9000E+01
#aMCatNLO 2  0  0  1  2 0.45451310D+02 0.00000000D+00  -5  7  0 0.00000000D+00 0.00000000D+00 0.00000000D+00 0.00000000D+00 0.00000000D+00
  <mgrwgt>
 0.6051836870D-04    2    2    0
 0.199325427192635D+03 0.000000000000000D+00 0.000000000000000D+00 0.199325427192635D+03
 0.199325427192635D+03 0.000000000000000D+00 0.000000000000000D+00 -.199325427192635D+03
 0.154544709488016D+03 -.761823572000818D+02 0.612869968646794D+01 -.986281064318258D+02
 0.571885102294017D+02 0.386281117201348D+02 0.299060278837843D+02 0.297325441798963D+02
 0.396214078710178D+02 -.265652555728133D+01 -.134235174645175D+02 -.371834373414408D+02
 0.147296226796834D+03 0.402107710372284D+02 -.226112101057347D+02 0.106078999593370D+03
 0.000000000000000D+00 0.000000000000000D+00 0.000000000000000D+00 0.000000000000000D+00
 0.294882466610441D+03 0.000000000000000D+00 0.000000000000000D+00 0.294882466610441D+03
 0.206095471822706D+03 0.000000000000000D+00 0.000000000000000D+00 -.206095471822706D+03
 0.161489089161785D+03 -.894439185232707D+02 -.597968520724621D+01 -.986281064318258D+02
 0.520076041134162D+02 0.340459721743077D+02 0.257223342819933D+02 0.297325441798963D+02
 0.411337030273792D+02 -.604521012176590D+01 -.165175345255721D+02 -.371834373414408D+02
 0.146603108422940D+03 0.278780266487702D+02 -.338715445574656D+02 0.106078999593370D+03
 0.997444337076273D+02 0.335651298219587D+02 0.306464300082905D+02 0.887869947877349D+02
-.421517264397D-05 0.000000000000D+00 0.000000000000D+00 0.441079537720D-08 0.000000000000D+00  7 1 -1 23 -11 11 23 21 2 0.39490327D-01 0.35479379D-01 0.28018434D+05 0.28018434D+05 0.28018434D+05 0.11700995D+01  1  2 13  1  7  1        1 -.557741324604D-03 0.100000000000D+01
0.489714213131D-05 0.000000000000D+00 0.000000000000D+00 0.441079537720D-08 0.171607859169D-10  7 1 -1 23 -11 11 23 21 2 0.39211091D-01 0.36684429D-01 0.28018434D+05 0.28018434D+05 0.28018434D+05 0.11700995D+01  1  2  1  1  7  1        1 0.618259693305D-03 0.100000000000D+01
  </mgrwgt>
  </event>
  <event>
  8     66 0.56006291E-06 0.59154576E+03 0.75467711E-02 0.84562068E-01
        1 -1    0    0  501    0 0.00000000E+00 0.00000000E+00 0.63392831E+03 0.63392839E+03 0.32000000E+00 0.0000E+00 0.9000E+01
       -1 -1    0    0    0  501 0.00000000E+00 0.00000000E+00 -.69967684E+03 0.69967692E+03 0.32000000E+00 0.0000E+00 0.9000E+01
       25  2    1    2    0    0 -.38359363E+03 0.39878180E+03 0.26363704E+03 0.68327080E+03 0.30196604E+03 0.0000E+00 0.0000E+00
       23  2    1    2    0    0 0.38359363E+03 -.39878180E+03 -.32938558E+03 0.65033451E+03 0.90934714E+02 0.0000E+00 0.0000E+00
       23  1    3    3    0    0 -.93736533E+02 0.30240189E+01 0.66965542E+02 0.14695345E+03 0.91188000E+02 0.0000E+00 0.9000E+01
      -13  1    4    4    0    0 0.14065860E+03 -.14614977E+03 -.17277373E+03 0.26644956E+03 0.10565837E+00 0.0000E+00 0.9000E+01
       13  1    4    4    0    0 0.24293504E+03 -.25263204E+03 -.15661185E+03 0.38388496E+03 0.10565837E+00 0.0000E+00 0.9000E+01
       23  1    3    3    0    0 -.28985710E+03 0.39575778E+03 0.19667150E+03 0.53631734E+03 0.91188000E+02 0.0000E+00 0.9000E+01
#aMCatNLO 1  0  0  2  1 0.11179626D+04 0.00000000D+00  -5  7  0 0.00000000D+00 0.00000000D+00 0.00000000D+00 0.00000000D+00 0.00000000D+00
  <mgrwgt>
 0.1733433654D-03    3    2    0
 0.665991789665657D+03 0.000000000000000D+00 0.000000000000000D+00 0.665991789665657D+03
 0.665991789665657D+03 0.000000000000000D+00 0.000000000000000D+00 -.665991789665657D+03
 0.150437884585214D+03 -.937365327421924D+02 0.302401885327075D+01 0.743008984731757D+02
 0.258245461494815D+03 0.140658458809694D+03 -.146149622307125D+03 -.159831799862969D+03
 0.376621932832774D+03 0.242935175136340D+03 -.252632179097738D+03 -.137853411479362D+03
 0.546678300418511D+03 -.289857101203842D+03 0.395757782551592D+03 0.223384312869156D+03
 0.000000000000000D+00 0.000000000000000D+00 -.000000000000000D+00 0.000000000000000D+00
 0.143786828030081D+04 0.000000000000000D+00 0.000000000000000D+00 0.143786828030081D+04
 0.141922097738873D+04 0.000000000000000D+00 0.000000000000000D+00 -.141922097738873D+04
 0.274719511748908D+03 -.247141677709106D+03 0.235780918813453D+02 0.743008984731757D+02
 0.203850335995369D+03 -.260747873099956D+02 -.123809776288980D+03 -.159831799862969D+03
 0.261445343402918D+03 0.127079608068585D+02 -.221785058700316D+03 -.137853411479362D+03
 0.998955954637551D+03 -.847552319509218D+03 0.470480884224153D+03 0.223384312869156D+03
 0.111811811190480D+04 0.110806082372146D+04 -.148464141116202D+03 0.186473029120805D+02
0.534357731240D-04 0.000000000000D+00 0.000000000000D+00 0.312722309299D-06 0.000000000000D+00  7 1 -1 23 -13 13 23 21 0 0.97527445D-01 0.10764260D+00 0.34992638D+06 0.34992638D+06 0.34992638D+06 0.10796400D+01  1  2  2  2  7  2       -1 0.171665679042D-03 0.100000000000D+01
-.291793648074D-05 0.000000000000D+00 -.205207438758D-06 0.312722309299D-06 0.000000000000D+00  7 1 -1 23 -13 13 23 21 2 0.97527445D-01 0.10764260D+00 0.34992638D+06 0.34992638D+06 0.34992638D+06 0.10796400D+01  1  2  3  2  7  2       -1 -.109266023945D-04 0.100000000000D+01
0.336596067920D-05 0.000000000000D+00 0.000000000000D+00 0.312722309299D-06 0.000000000000D+00  7 1 -1 23 -13 13 23 21 2 0.97527445D-01 0.10764260D+00 0.34992638D+06 0.34992638D+06 0.34992638D+06 0.10796400D+01  1  2 15  2  7  2       -1 0.126042887705D-04 0.100000000000D+01
  </mgrwgt>
  </event>
  <event>
  8     66 0.56006291E-06 0.37322032E+03 0.75467711E-02 0.96550782E-01
        1 -1    0    0  501    0 0.00000000E+00 0.00000000E+00 0.47277189E+03 0.47277200E+03 0.32000000E+00 0.0000E+00 0.9000E+01
       -1 -1    0    0    0  501 0.00000000E+00 0.00000000E+00 -.35605661E+03 0.35605676E+03 0.32000000E+00 0.0000E+00 0.9000E+01
       25  2    1    2    0    0 0.30530878E+03 -.28178208E+01 -.10490250E+03 0.44060215E+03 0.29984050E+03 0.0000E+00 0.0000E+00
       23  2    1    2    0    0 -.30530878E+03 0.28178208E+01 0.22161777E+03 0.38822660E+03 0.91564525E+02 0.0000E+00 0.0000E+00
       23  1    3    3    0    0 0.27322184E+02 -.80857045E+02 -.37414632E+02 0.13038201E+03 0.91188000E+02 0.0000E+00 0.9000E+01
      -11  1    4    4    0    0 -.27218644E+03 0.32698149E+02 0.18991735E+03 0.33350147E+03 0.51099893E-03 0.0000E+00 0.9000E+01
       11  1    4    4    0    0 -.33122344E+02 -.29880328E+02 0.31700420E+02 0.54725135E+02 0.51099893E-03 0.0000E+00 0.9000E+01
       23  1    3    3    0    0 0.27798660E+03 0.78039224E+02 -.67487865E+02 0.31022014E+03 0.91188000E+02 0.0000E+00 0.9000E+01
#aMCatNLO 1  0  0  2  2 0.96602615D+02 0.00000000D+00  -5  7  0 0.00000000D+00 0.00000000D+00 0.00000000D+00 0.00000000D+00 0.00000000D+00
  <mgrwgt>
 0.2710282532D-03    3    2    0
 0.410284853808336D+03 0.000000000000000D+00 0.000000000000000D+00 0.410284853808336D+03
 0.410284853808336D+03 0.000000000000000D+00 0.000000000000000D+00 -.410284853808336D+03
 0.137016050688186D+03 0.273221838359527D+02 -.808570445653556D+02 -.563363418831765D+02
 0.309844911006767D+03 -.272186440384285D+03 0.326981490007237D+02 0.144392664632419D+03
 0.507669749207116D+02 -.331223443543578D+02 -.298803281516397D+02 0.242355531527925D+02
 0.322941771001008D+03 0.277986600902690D+03 0.780392237162716D+02 -.112291875902035D+03
 0.000000000000000D+00 -.000000000000000D+00 -.000000000000000D+00 0.000000000000000D+00
 0.101072039806000D+04 0.000000000000000D+00 0.000000000000000D+00 0.101072039806000D+04
 0.417022199038950D+03 0.000000000000000D+00 0.000000000000000D+00 -.417022199038950D+03
 0.134623084792073D+03 0.398648994261442D+02 -.710290784953522D+02 -.563363418831765D+02
 0.289136122373170D+03 -.244528979568409D+03 0.543694198293020D+02 0.144392664632419D+03
 0.458785898175014D+02 -.286598142059619D+02 -.263836695078690D+02 0.242355531527925D+02
 0.356598676560189D+03 0.309363826981407D+03 0.102625152581119D+03 -.112291875902035D+03
 0.601506123556020D+03 -.760399326331806D+02 -.595818244072000D+02 0.593698199021052D+03
0.134718360661D-04 0.000000000000D+00 0.000000000000D+00 0.838344145124D-06 0.000000000000D+00  7 1 -1 23 -11 11 23 21 0 0.72734156D-01 0.54777960D-01 0.13929341D+06 0.13929341D+06 0.13929341D+06 0.11100988D+01  1  2  2  2  7  2       -1 0.268006832623D-03 0.100000000000D+01
-.740277452249D-06 0.000000000000D+00 -.517353977098D-07 0.838344145124D-06 0.000000000000D+00  7 1 -1 23 -11 11 23 21 2 0.72734156D-01 0.54777960D-01 0.13929341D+06 0.13929341D+06 0.13929341D+06 0.11100988D+01  1  2  3  2  7  2       -1 -.181483384839D-04 0.100000000000D+01
0.863522318408D-06 0.000000000000D+00 0.000000000000D+00 0.838344145124D-06 0.000000000000D+00  7 1 -1 23 -11 11 23 21 2 0.72734156D-01 0.54777960D-01 0.13929341D+06 0.13929341D+06 0.13929341D+06 0.11100988D+01  1  2 15  2  7  2       -1 0.211697590887D-04 0.100000000000D+01
  </mgrwgt>
  </event>
  <event>
  9     66 -.56006291E-06 0.49529782E+03 0.75467711E-02 0.94661165E-01
        1 -1    0    0  501    0 0.00000000E+00 0.00000000E+00 0.30359004E+04 0.30359004E+04 0.32000000E+00 0.0000E+00 0.9000E+01
       -1 -1    0    0    0  502 0.00000000E+00 0.00000000E+00 -.20697140E+03 0.20697165E+03 0.32000000E+00 0.0000E+00 0.9000E+01
       25  2    1    2    0    0 0.42818505E+03 0.20635705E+03 0.26680166E+04 0.27265769E+04 0.29997195E+03 0.0000E+00 0.0000E+00
       23  2    1    2    0    0 -.42363561E+03 -.21060713E+03 0.16592995E+03 0.50826414E+03 0.83529588E+02 0.0000E+00 0.0000E+00
       23  1    3    3    0    0 0.27648481E+03 0.15824284E+03 0.11276254E+04 0.11753038E+04 0.91188000E+02 0.0000E+00 0.9000E+01
      -11  1    4    4    0    0 -.18318051E+03 -.11959501E+03 0.11118302E+03 0.24539708E+03 0.51099893E-03 0.0000E+00 0.9000E+01
       11  1    4    4    0    0 -.24045510E+03 -.91012124E+02 0.54746932E+02 0.26286706E+03 0.51099893E-03 0.0000E+00 0.9000E+01
       23  1    3    3    0    0 0.15170024E+03 0.48114210E+02 0.15403912E+04 0.15512731E+04 0.91188000E+02 0.0000E+00 0.9000E+01
       21  1    1    2  501  502 -.45494363E+01 0.42500816E+01 -.50175136E+01 0.80310963E+01 0.75000000E+00 0.0000E+00 0.9000E+01
#aMCatNLO 2  0  0  2  1 0.62257983D+01 0.00000000D+00  -5  7  0 0.00000000D+00 0.00000000D+00 0.00000000D+00 0.00000000D+00 0.00000000D+00
  <mgrwgt>
 -.2004757746D-03    5    2    0
 0.779888542527835D+03 0.000000000000000D+00 0.000000000000000D+00 0.779888542527835D+03
 0.779888542527835D+03 0.000000000000000D+00 0.000000000000000D+00 -.779888542527835D+03
 0.388328189284290D+03 0.275351629946014D+03 0.159301461333606D+03 0.203194624810467D+03
 0.307132928194665D+03 -.184076020871336D+03 -.118758424359553D+03 -.215274454511540D+03
 0.446147331575425D+03 -.241755720180983D+03 -.897970882860656D+02 -.364057819812994D+03
 0.418168636001290D+03 0.150480111106305D+03 0.492540513120126D+02 0.376137649514067D+03
 0.000000000000000D+00 -.000000000000000D+00 0.000000000000000D+00 -.000000000000000D+00
 0.780276572883813D+03 0.000000000000000D+00 0.000000000000000D+00 0.780276572883813D+03
 0.805273717244853D+03 0.000000000000000D+00 0.000000000000000D+00 -.805273717244853D+03
 0.388700342114663D+03 0.276484813579317D+03 0.158242841620719D+03 0.203194624810467D+03
 0.306922069210713D+03 -.183180510545924D+03 -.119595009759936D+03 -.215274454511540D+03
 0.445690430440614D+03 -.240455103904180D+03 -.910121235098907D+02 -.364057819812994D+03
 0.418476668273539D+03 0.151700237172947D+03 0.481142100114561D+02 0.376137649514067D+03
 0.257607800891360D+02 -.454943630216101D+01 0.425008163765182D+01 -.249971443610405D+02
-.464717081892D-02 0.000000000000D+00 0.000000000000D+00 0.118978596355D-06 0.000000000000D+00  7 1 -1 23 -11 11 23 21 2 0.46682609D+00 0.31849091D-01 0.24843993D+06 0.24843993D+06 0.24843993D+06 0.10906637D+01  1  2 13  2  7  2       -1 -.352548464353D-02 0.100000000000D+01
-.210909369026D-01 0.000000000000D+00 0.000000000000D+00 0.118978596355D-06 0.000000000000D+00  7 1 -1 23 -11 11 23 21 2 0.46682609D+00 0.30837790D-01 0.24531993D+06 0.24531993D+06 0.24531993D+06 0.10910771D+01  1  2  8  2  7  2       -1 -.169270782352D-01 0.100000000000D+01
-.174364987238D-01 0.000000000000D+00 0.000000000000D+00 0.118978596355D-06 0.000000000000D+00  7 1 -1 23 -11 11 23 21 2 0.46682609D+00 0.31850062D-01 0.24531993D+06 0.24531993D+06 0.24531993D+06 0.10910771D+01  1  2  9  2  7  2       -1 -.132489359755D-01 0.100000000000D+01
0.174274078831D-01 0.000000000000D+00 0.000000000000D+00 0.118978596355D-06 0.000000000000D+00  7 1 -1 23 -11 11 23 21 2 0.46682609D+00 0.30837790D-01 0.24531993D+06 0.24531993D+06 0.24531993D+06 0.10910771D+01  1  2 10  2  7  2       -1 0.139868180365D-01 0.100000000000D+01
0.257795094805D-01 0.000000000000D+00 0.000000000000D+00 0.118978596355D-06 0.194860075844D-07  7 1 -1 23 -11 11 23 21 2 0.46705836D+00 0.31841552D-01 0.24843993D+06 0.24843993D+06 0.24843993D+06 0.10906637D+01  1  2  1  2  7  2       -1 0.195142050432D-01 0.100000000000D+01
  </mgrwgt>
  </event>
  <event>
  8     66 0.56006291E-06 0.13908145E+03 0.75467711E-02 0.96258751E-01
        1 -1    0    0  501    0 0.00000000E+00 0.00000000E+00 0.13430715E+03 0.13430753E+03 0.32000000E+00 0.0000E+00 0.9000E+01
       -1 -1    0    0    0  501 0.00000000E+00 0.00000000E+00 -.89450857E+03 0.89450863E+03 0.32000000E+00 0.0000E+00 0.9000E+01
       25  2    1    2    0    0 0.10423071E+03 0.24464923E+03 -.50095183E+03 0.64296776E+03 0.30288202E+03 0.0000E+00 0.0000E+00
       23  2    1    2    0    0 -.10423071E+03 -.24464923E+03 -.25924959E+03 0.38584840E+03 0.10464869E+03 0.0000E+00 0.0000E+00
       23  1    3    3    0    0 -.32198234E+02 0.22252146E+02 -.25260493E+03 0.27139710E+03 0.91188000E+02 0.0000E+00 0.9000E+01
      -11  1    4    4    0    0 -.38594519E+02 -.96034025E+01 -.53415553E+02 0.66595672E+02 0.51099893E-03 0.0000E+00 0.9000E+01
       11  1    4    4    0    0 -.65636190E+02 -.23504583E+03 -.20583404E+03 0.31925273E+03 0.51099893E-03 0.0000E+00 0.9000E+01
       23  1    3    3    0    0 0.13642894E+03 0.22239709E+03 -.24834690E+03 0.37157066E+03 0.91188000E+02 0.0000E+00 0.9000E+01
#aMCatNLO 1  0  0  2  1 0.18405932D+03 0.00000000D+00  -5  7  0 0.00000000D+00 0.00000000D+00 0.00000000D+00 0.00000000D+00 0.00000000D+00
  <mgrwgt>
 0.1605594257D-03    9    2    0
 0.346610909954765D+03 0.000000000000000D+00 0.000000000000000D+00 0.346610909954765D+03
 0.346610909954765D+03 0.000000000000000D+00 0.000000000000000D+00 -.346610909954765D+03
 0.125770848428894D+03 -.321982343990906D+02 0.222521460673107D+02 -.772733503059381D+02
 0.402585769901610D+02 -.385945184409187D+02 -.960340280457612D+01 -.624426313982415D+01
 0.248083704263645D+03 -.656361906559486D+02 -.235045832195137D+03 0.446191838231406D+02
 0.279108690226830D+03 0.136428943495958D+03 0.222397088932402D+03 0.388984296226217D+02
 0.000000000000000D+00 0.000000000000000D+00 0.000000000000000D+00 -.000000000000000D+00
 0.394730050067942D+03 0.000000000000000D+00 0.000000000000000D+00 0.394730050067942D+03
 0.593168634257794D+03 0.000000000000000D+00 0.000000000000000D+00 -.593168634257794D+03
 0.126667502038887D+03 -.408319993654678D+02 -.953844269709300D+01 -.772733503059381D+02
 0.467998772372157D+02 -.415720463432460D+02 -.205670282270946D+02 -.624426313982415D+01
 0.321473026381400D+03 -.851158732726956D+02 -.306772429078624D+03 0.446191838231406D+02
 0.222300366539268D+03 0.119280012122775D+03 0.159252605945326D+03 0.388984296226217D+02
 0.270657912128966D+03 0.482399068586339D+02 0.177625294057485D+03 -.198438584189853D+03
0.993549793249D-05 0.000000000000D+00 0.000000000000D+00 0.273900124631D-09 0.000000000000D+00  7 1 -1 23 -11 11 23 21 0 0.20662672D-01 0.13761674D+00 0.10871104D+06 0.10871104D+06 0.10871104D+06 0.11187575D+01  1  2  2  2  7  2       -1 0.145524103994D-03 0.100000000000D+01
-.550295754550D-06 0.000000000000D+00 -.381549281375D-07 0.273900124631D-09 0.000000000000D+00  7 1 -1 23 -11 11 23 21 2 0.20662672D-01 0.13761674D+00 0.10871104D+06 0.10871104D+06 0.10871104D+06 0.11187575D+01  1  2  3  2  7  2       -1 -.100881923755D-04 0.100000000000D+01
0.628005466418D-06 0.000000000000D+00 0.000000000000D+00 0.273900124631D-09 0.000000000000D+00  7 1 -1 23 -11 11 23 21 2 0.20662672D-01 0.13761674D+00 0.10871104D+06 0.10871104D+06 0.10871104D+06 0.11187575D+01  1  2 15  2  7  2       -1 0.115127909051D-04 0.100000000000D+01
0.379563040299D-05 0.000000000000D+00 0.000000000000D+00 0.273900124631D-09 0.000000000000D+00  7 1 -1 23 -11 11 23 21 2 0.20662672D-01 0.23929144D+00 0.18837321D+06 0.18837321D+06 0.18837321D+06 0.10998287D+01  1  2 12  2  7  2       -1 0.985656283219D-05 0.100000000000D+01
-.726094736304D-05 0.000000000000D+00 0.000000000000D+00 0.273900124631D-09 0.000000000000D+00  7 1 -1 23 -11 11 23 21 2 0.20662672D-01 0.13761674D+00 0.10871104D+06 0.10871104D+06 0.10871104D+06 0.11187575D+01  1  2  4  2  7  2       -1 -.133109938103D-03 0.100000000000D+01
-.791939255083D-05 0.000000000000D+00 -.291290498458D-05 0.273900124631D-09 0.000000000000D+00  7 1 -1 23 -11 11 23 21 2 0.20662672D-01 0.24977048D+00 0.10871104D+06 0.10871104D+06 0.10871104D+06 0.11187575D+01  1  2  5  2  7  2       -1 -.179495977393D-04 0.100000000000D+01
0.854308400409D-05 0.000000000000D+00 0.246236123883D-05 0.273900124631D-09 0.000000000000D+00  7 1 -1 23 -11 11 23 21 2 0.20662672D-01 0.13761674D+00 0.10871104D+06 0.10871104D+06 0.10871104D+06 0.11187575D+01  1  2  6  2  7  2       -1 0.156614464496D-03 0.100000000000D+01
0.232362710083D-06 0.000000000000D+00 0.000000000000D+00 0.273900124631D-09 0.000000000000D+00  7 1 21 23 -11 11 23 1 2 0.20662672D-01 0.23929144D+00 0.18837321D+06 0.18837321D+06 0.18837321D+06 0.10998287D+01  1  2 12  4  7  2       -1 0.427854976722D-05 0.100000000000D+01
-.360021983632D-06 0.000000000000D+00 -.190088504008D-06 0.273900124631D-09 0.000000000000D+00  7 1 21 23 -11 11 23 1 2 0.20662672D-01 0.24977048D+00 0.10871104D+06 0.10871104D+06 0.10871104D+06 0.11187575D+01  1  2  5  4  7  2       -1 -.607931805847D-05 0.100000000000D+01
  </mgrwgt>
  </event>
  <event>
  8     66 0.56006291E-06 0.33943104E+03 0.75467711E-02 0.79647348E-01
        1 -1    0    0  501    0 0.00000000E+00 0.00000000E+00 0.82124555E+03 0.82124561E+03 0.32000000E+00 0.0000E+00 0.9000E+01
       -1 -1    0    0    0  501 0.00000000E+00 0.00000000E+00 -.20068483E+03 0.20068509E+03 0.32000000E+00 0.0000E+00 0.9000E+01
       25  2    1    2    0    0 -.16448992E+03 -.22328980E+03 0.99262255E+02 0.42115981E+03 0.30101050E+03 0.0000E+00 0.0000E+00
       23  2    1    2    0    0 0.16448992E+03 0.22328980E+03 0.52129846E+03 0.60077089E+03 0.11071725E+03 0.0000E+00 0.0000E+00
       23  1    3    3    0    0 -.19666687E+03 -.89950034E+02 0.10323152E+03 0.25639981E+03 0.91188000E+02 0.0000E+00 0.9000E+01
      -11  1    4    4    0    0 0.32812660E+02 0.70406474E+02 0.62971792E+02 0.99995944E+02 0.51099893E-03 0.0000E+00 0.9000E+01
       11  1    4    4    0    0 0.13167726E+03 0.15288333E+03 0.45832667E+03 0.50077494E+03 0.51099893E-03 0.0000E+00 0.9000E+01
       23  1    3    3    0    0 0.32176951E+02 -.13333977E+03 -.39692617E+01 0.16476000E+03 0.91188000E+02 0.0000E+00 0.9000E+01
#aMCatNLO 1  0  0  1  1 0.23912365D+04 0.00000000D+00  -5  7  0 0.00000000D+00 0.00000000D+00 0.00000000D+00 0.00000000D+00 0.00000000D+00
  <mgrwgt>
 0.2224664741D-03    3    2    0
 0.405970057793239D+03 0.000000000000000D+00 0.000000000000000D+00 0.405970057793239D+03
 0.405970057793239D+03 0.000000000000000D+00 0.000000000000000D+00 -.405970057793239D+03
 0.243812826656673D+03 -.196666869251808D+03 -.899500338719919D+02 -.660346654677439D+02
 0.777287679632658D+02 0.328126603195028D+02 0.704064740847676D+02 0.283180133397064D+01
 0.279993267000778D+03 0.131677258115491D+03 0.152883328587418D+03 0.194123715967388D+03
 0.210405253965760D+03 0.321769508168142D+02 -.133339768800194D+03 -.130920851833615D+03
 0.000000000000000D+00 0.000000000000000D+00 0.000000000000000D+00 -.000000000000000D+00
 0.229718825582928D+04 0.000000000000000D+00 0.000000000000000D+00 0.229718825582928D+04
 0.264445616117518D+04 0.000000000000000D+00 0.000000000000000D+00 -.264445616117518D+04
 0.135374024038701D+04 -.100082306772576D+04 -.904593829938958D+03 -.660346654677439D+02
 0.262988326411571D+02 -.195514467415692D+02 0.173594478542405D+02 0.283180133397064D+01
 0.277975416047334D+03 -.149186009768191D+03 -.131642885547021D+03 0.194123715967388D+03
 0.867308985377975D+03 -.510309307467969D+03 -.682900992853353D+03 -.130920851833615D+03
 0.241632094255099D+04 0.167986983170349D+04 0.170177826048509D+04 -.347267905345905D+03
0.907240653643D-05 0.000000000000D+00 0.000000000000D+00 0.220134669178D-08 0.000000000000D+00  7 1 -1 23 -11 11 23 21 0 0.12634549D+00 0.30874614D-01 0.11521343D+06 0.11521343D+06 0.11521343D+06 0.11167097D+01  1  2  2  1  7  1        1 0.219882441842D-03 0.100000000000D+01
-.484385396345D-06 0.000000000000D+00 -.348404299194D-07 0.220134669178D-08 0.000000000000D+00  7 1 -1 23 -11 11 23 21 2 0.12634549D+00 0.30874614D-01 0.11521343D+06 0.11521343D+06 0.11521343D+06 0.11167097D+01  1  2  3  1  7  1        1 -.146399518215D-04 0.100000000000D+01
0.569882090788D-06 0.000000000000D+00 0.000000000000D+00 0.220134669178D-08 0.000000000000D+00  7 1 -1 23 -11 11 23 21 2 0.12634549D+00 0.30874614D-01 0.11521343D+06 0.11521343D+06 0.11521343D+06 0.11167097D+01  1  2 15  1  7  1        1 0.172239840755D-04 0.100000000000D+01
  </mgrwgt>
  </event>
  <event>
  8     66 0.56006291E-06 0.98237983E+02 0.75467711E-02 0.10412825E+00
        3 -1    0    0  501    0 0.00000000E+00 0.00000000E+00 0.12421972E+04 0.12421973E+04 0.50000000E+00 0.0000E+00 0.9000E+01
       -3 -1    0    0    0  501 0.00000000E+00 0.00000000E+00 -.12381674E+03 0.12381775E+03 0.50000000E+00 0.0000E+00 0.9000E+01
       25  2    1    2    0    0 -.11956968E+03 0.47223341E+02 0.10821692E+03 0.34365101E+03 0.29976352E+03 0.0000E+00 0.0000E+00
       23  2    1    2    0    0 0.11956968E+03 -.47223341E+02 0.10101636E+04 0.10223641E+04 0.90944427E+02 0.0000E+00 0.0000E+00
       23  1    3    3    0    0 0.24345169E+02 0.10134931E+03 0.87199635E+02 0.16365634E+03 0.91188000E+02 0.0000E+00 0.9000E+01
      -13  1    4    4    0    0 0.26560244E+02 -.40825807E+02 0.16398534E+03 0.17106548E+03 0.10565837E+00 0.0000E+00 0.9000E+01
       13  1    4    4    0    0 0.93009433E+02 -.63975345E+01 0.84617822E+03 0.85129858E+03 0.10565837E+00 0.0000E+00 0.9000E+01
       23  1    3    3    0    0 -.14391485E+03 -.54125972E+02 0.21017281E+02 0.17999467E+03 0.91188000E+02 0.0000E+00 0.9000E+01
#aMCatNLO 1  0  0  1  2 0.82412599D+01 0.00000000D+00  -5  7  0 0.00000000D+00 0.00000000D+00 0.00000000D+00 0.00000000D+00 0.00000000D+00
  <mgrwgt>
 0.2542732427D-04   11    2    0
 0.392180529099626D+03 0.000000000000000D+00 0.000000000000000D+00 0.392180529099626D+03
 0.392180529099626D+03 0.000000000000000D+00 0.000000000000000D+00 -.392180529099626D+03
 0.160684493493135D+03 0.243451687706476D+02 0.101349313470517D+03 -.814854865711006D+02
 0.641028595657164D+02 0.265601545450027D+02 -.408258532131840D+02 0.416771460690759D+02
 0.276068919358095D+03 0.930095227498094D+02 -.639748817218155D+01 0.259850628358844D+03
 0.283504785782305D+03 -.143914846065460D+03 -.541259720851513D+02 -.220042287856819D+03
 0.000000000000000D+00 -.000000000000000D+00 -.000000000000000D+00 0.000000000000000D+00
 0.399530825865862D+03 0.000000000000000D+00 0.000000000000000D+00 0.399530825865862D+03
 0.394519054721818D+03 0.000000000000000D+00 0.000000000000000D+00 -.394519054721818D+03
 0.161764431443360D+03 0.250757231570868D+02 0.102877614292972D+03 -.814854865711006D+02
 0.638397401961991D+02 0.268500268945133D+02 -.402194477786435D+02 0.416771460690759D+02
 0.276444976358068D+03 0.942613223957955D+02 -.377875579027811D+01 0.259850628358844D+03
 0.282355204351625D+03 -.142632808924278D+03 -.514439836477989D+02 -.220042287856819D+03
 0.964552823842757D+01 -.355426352311811D+01 -.743542707625197D+01 0.501177114404427D+01
0.519124092344D-05 0.000000000000D+00 0.000000000000D+00 0.172310503997D-05 0.000000000000D+00  7 3 -3 23 -13 13 23 21 0 0.19110735D+00 0.19048815D-01 0.52713486D+05 0.52713486D+05 0.52713486D+05 0.11452820D+01  1  2  2  1  7  1        3 0.787795856645D-05 0.100000000000D+01
-.187882511078D-06 0.000000000000D+00 -.199357320311D-07 0.172310503997D-05 0.000000000000D+00  7 3 -3 23 -13 13 23 21 2 0.19110735D+00 0.19048815D-01 0.52713486D+05 0.52713486D+05 0.52713486D+05 0.11452820D+01  1  2  3  1  7  1        3 -.373984626155D-06 0.100000000000D+01
0.329970848987D-06 0.000000000000D+00 0.000000000000D+00 0.172310503997D-05 0.000000000000D+00  7 3 -3 23 -13 13 23 21 2 0.19110735D+00 0.19048815D-01 0.52713486D+05 0.52713486D+05 0.52713486D+05 0.11452820D+01  1  2 15  1  7  1        3 0.656814856756D-06 0.100000000000D+01
0.596687294524D-05 0.000000000000D+00 0.000000000000D+00 0.172310503997D-05 0.000000000000D+00  7 3 -3 23 -13 13 23 21 2 0.19525175D+00 0.19048815D-01 0.54665548D+05 0.54665548D+05 0.54665548D+05 0.11439030D+01  1  2 12  1  7  1        3 0.109800102427D-04 0.100000000000D+01
-.604781094248D-05 0.000000000000D+00 0.000000000000D+00 0.172310503997D-05 0.000000000000D+00  7 3 -3 23 -13 13 23 21 2 0.19110735D+00 0.19048815D-01 0.52713486D+05 0.52713486D+05 0.52713486D+05 0.11452820D+01  1  2  4  1  7  1        3 -.120383121420D-04 0.100000000000D+01
-.219548648390D-03 0.000000000000D+00 -.276167573009D-04 0.172310503997D-05 0.000000000000D+00  7 3 -3 23 -13 13 23 21 2 0.19531785D+00 0.19048815D-01 0.52713486D+05 0.52713486D+05 0.52713486D+05 0.11452820D+01  1  2  5  1  7  1        3 -.404744789976D-03 0.100000000000D+01
0.220104786140D-03 0.000000000000D+00 0.276102005501D-04 0.172310503997D-05 0.000000000000D+00  7 3 -3 23 -13 13 23 21 2 0.19110735D+00 0.19048815D-01 0.52713486D+05 0.52713486D+05 0.52713486D+05 0.11452820D+01  1  2  6  1  7  1        3 0.438123834343D-03 0.100000000000D+01
0.169072201954D-06 0.000000000000D+00 0.000000000000D+00 0.172310503997D-05 0.177070641427D-06  7 3 -3 23 -13 13 23 21 2 0.19468911D+00 0.19162400D-01 0.54665548D+05 0.54665548D+05 0.54665548D+05 0.11439030D+01  1  2 11  1  7  1        3 0.311084365591D-06 0.100000000000D+01
0.250948014095D-06 0.000000000000D+00 0.000000000000D+00 0.172310503997D-05 0.000000000000D+00  7 21 -3 23 -13 13 23 -3 2 0.19525175D+00 0.19048815D-01 0.54665548D+05 0.54665548D+05 0.54665548D+05 0.11439030D+01  1  2 12  3  7  1        3 0.626961047960D-05 0.100000000000D+01
-.863709543921D-06 0.000000000000D+00 -.109246949367D-06 0.172310503997D-05 0.000000000000D+00  7 21 -3 23 -13 13 23 -3 2 0.19531785D+00 0.19048815D-01 0.52713486D+05 0.52713486D+05 0.52713486D+05 0.11452820D+01  1  2  5  3  7  1        3 -.216518911788D-04 0.100000000000D+01
0.680582010932D-09 0.000000000000D+00 0.000000000000D+00 0.172310503997D-05 0.603460900932D-09  7 21 -3 23 -13 13 23 -3 2 0.19468911D+00 0.19162400D-01 0.54665548D+05 0.54665548D+05 0.54665548D+05 0.11439030D+01  1  2 11  3  7  1        3 0.169893378051D-07 0.100000000000D+01
  </mgrwgt>
  </event>
  <event>
  8     66 0.56006291E-06 0.28298590E+03 0.75467711E-02 0.93754367E-01
        1 -1    0    0  501    0 0.00000000E+00 0.00000000E+00 0.38691865E+03 0.38691878E+03 0.32000000E+00 0.0000E+00 0.9000E+01
       -1 -1    0    0    0  501 0.00000000E+00 0.00000000E+00 -.63820704E+03 0.63820712E+03 0.32000000E+00 0.0000E+00 0.9000E+01
       25  2    1    2    0    0 0.21431932E+03 0.10019903E+03 -.52292948E+03 0.64760573E+03 0.29994221E+03 0.0000E+00 0.0000E+00
       23  2    1    2    0    0 -.21431932E+03 -.10019903E+03 0.27164109E+03 0.37752017E+03 0.11296008E+03 0.0000E+00 0.0000E+00
       23  1    3    3    0    0 0.20149284E+03 0.77698665E+02 -.49671715E+03 0.54925370E+03 0.91188000E+02 0.0000E+00 0.9000E+01
      -11  1    4    4    0    0 -.16333761E+03 -.72050689E+02 0.26412837E+03 0.31880130E+03 0.51099893E-03 0.0000E+00 0.9000E+01
       11  1    4    4    0    0 -.50981713E+02 -.28148343E+02 0.75127208E+01 0.58718866E+02 0.51099893E-03 0.0000E+00 0.9000E+01
       23  1    3    3    0    0 0.12826483E+02 0.22500368E+02 -.26212329E+02 0.98352035E+02 0.91188000E+02 0.0000E+00 0.9000E+01
#aMCatNLO 1  0  0  1  1 0.39021256D+03 0.00000000D+00  -5  7  0 0.00000000D+00 0.00000000D+00 0.00000000D+00 0.00000000D+00 0.00000000D+00
  <mgrwgt>
 0.1905498478D-03    5    2    0
 0.496924857187334D+03 0.000000000000000D+00 0.000000000000000D+00 0.496924857187334D+03
 0.496924857187334D+03 0.000000000000000D+00 0.000000000000000D+00 -.496924857187334D+03
 0.440946886792149D+03 0.201492836654013D+03 0.776986646350078D+02 -.373473506314363D+03
 0.395617020918662D+03 -.163337606468223D+03 -.720506893504066D+02 0.353047237233093D+03
 0.624662753544975D+02 -.509817128462082D+02 -.281483429230785D+02 0.225958248934498D+02
 0.948195313093605D+02 0.128264826604179D+02 0.225003676384772D+02 -.216955581218041D+01
 0.000000000000000D+00 0.000000000000000D+00 -.000000000000000D+00 0.000000000000000D+00
 0.734687498171534D+03 0.000000000000000D+00 0.000000000000000D+00 0.734687498171534D+03
 0.723397625948770D+03 0.000000000000000D+00 0.000000000000000D+00 -.723397625948770D+03
 0.468047859594198D+03 0.128994883733647D+03 0.233733625262837D+03 -.373473506314363D+03
 0.426385348378803D+03 -.228897379290527D+03 0.690514543519706D+02 0.353047237233093D+03
 0.655201663335838D+02 -.611894231336821D+02 -.617862366002813D+01 0.225958248934498D+02
 0.107755901106003D+03 -.333016095106198D+01 0.572737805176559D+02 -.216955581218041D+01
 0.390375848707716D+03 0.164422079641623D+03 -.353880236472436D+03 0.112898722227640D+02
0.204843812511D-04 0.000000000000D+00 0.000000000000D+00 0.112149172969D-07 0.000000000000D+00  7 1 -1 23 -11 11 23 21 0 0.59525962D-01 0.98185715D-01 0.80081022D+05 0.80081022D+05 0.80081022D+05 0.11297256D+01  1  2  2  1  7  1        1 0.170792117483D-03 0.100000000000D+01
-.699376348162D-06 0.000000000000D+00 -.786654176656D-07 0.112149172969D-07 0.000000000000D+00  7 1 -1 23 -11 11 23 21 2 0.59525962D-01 0.98185715D-01 0.80081022D+05 0.80081022D+05 0.80081022D+05 0.11297256D+01  1  2  3  1  7  1        1 -.744220861403D-05 0.100000000000D+01
0.124911088358D-05 0.000000000000D+00 0.000000000000D+00 0.112149172969D-07 0.000000000000D+00  7 1 -1 23 -11 11 23 21 2 0.59525962D-01 0.98185715D-01 0.80081022D+05 0.80081022D+05 0.80081022D+05 0.11297256D+01  1  2 15  1  7  1        1 0.132920476966D-04 0.100000000000D+01
0.245262102231D-05 0.000000000000D+00 -.678405321970D-05 0.112149172969D-07 0.000000000000D+00  7 1 -1 23 -11 11 23 21 2 0.12103862D+00 0.98185715D-01 0.80081022D+05 0.80081022D+05 0.80081022D+05 0.11297256D+01  1  2  5  1  7  1        1 0.954630924087D-05 0.100000000000D+01
0.600357902169D-06 0.000000000000D+00 -.520685216773D-06 0.112149172969D-07 0.000000000000D+00  7 21 -1 23 -11 11 23 -1 2 0.12103862D+00 0.98185715D-01 0.80081022D+05 0.80081022D+05 0.80081022D+05 0.11297256D+01  1  2  5  3  7  1        1 0.436158200288D-05 0.100000000000D+01
  </mgrwgt>
  </event>
  <event>
  7     66 0.56006291E-06 0.42070264E+03 0.75467711E-02 0.96626124E-01
        1 -1    0    0  501    0 0.00000000E+00 0.00000000E+00 0.77623497E+03 0.77623504E+03 0.32000000E+00 0.0000E+00 0.9000E+01
       -1 -1    0    0    0  501 0.00000000E+00 0.00000000E+00 -.27477555E+03 0.27477574E+03 0.32000000E+00 0.0000E+00 0.9000E+01
       23  2    1    2    0    0 0.22285864E+03 -.29114845E+03 0.40484496E+03 0.55377698E+03 0.91302263E+02 0.0000E+00 0.0000E+00
       23  1    1    2    0    0 -.43505365E+02 -.10133178E+02 -.41249472E+02 0.10960004E+03 0.91188000E+02 0.0000E+00 0.9000E+01
      -13  1    3    3    0    0 0.44891038E+02 -.11907887E+02 0.43089686E+02 0.63354047E+02 0.10565837E+00 0.0000E+00 0.9000E+01
       13  1    3    3    0    0 0.17796760E+03 -.27924056E+03 0.36175528E+03 0.49042293E+03 0.10565837E+00 0.0000E+00 0.9000E+01
       23  1    1    2    0    0 -.17935328E+03 0.30128162E+03 0.13786393E+03 0.38763376E+03 0.91188000E+02 0.0000E+00 0.9000E+01
#aMCatNLO 1  0  0  2  1 0.22313622D+02 0.00000000D+00  -5  7  0 0.00000000D+00 0.00000000D+00 0.00000000D+00 0.00000000D+00 0.00000000D+00
  <mgrwgt>
 0.3373057231D-05    1    2    0
 0.461833870039293D+03 0.000000000000000D+00 0.000000000000000D+00 0.461833870039293D+03
 0.461833870039293D+03 0.000000000000000D+00 0.000000000000000D+00 -.461833870039293D+03
 0.147104582262014D+03 -.435053645995461D+02 -.101331780612378D+02 -.106438286024915D+03
 0.486946415808586D+02 0.448908594927635D+02 -.119075291197182D+02 0.146352178990377D+02
 0.361639325183523D+03 0.177967783037768D+03 -.279240917821888D+03 0.145378745123920D+03
 0.366229191052190D+03 -.179353277930985D+03 0.301281625002843D+03 -.535756769980426D+02
 0.000000000000000D+00 0.000000000000000D+00 0.000000000000000D+00 0.000000000000000D+00
 0.184537708806331D+04 0.000000000000000D+00 0.000000000000000D+00 0.184537708806331D+04
 0.596378312071460D+03 0.000000000000000D+00 0.000000000000000D+00 -.596378312071460D+03
 0.198090253807733D+03 -.136568459869940D+03 -.307318132631808D+02 -.106438286024915D+03
 0.320685744855873D+02 0.231174316028503D+02 -.167268712756718D+02 0.146352178990377D+02
 0.353533286254089D+03 -.148397850903573D+02 -.321917047908746D+03 0.145378745123920D+03
 0.492446303213435D+03 -.410848627742789D+03 0.250042320659218D+03 -.535756769980426D+02
 0.136561698237393D+04 0.539139441100236D+03 0.119333411788381D+03 0.124899877599185D+04
0.181559458648D-06 0.000000000000D+00 0.000000000000D+00 0.169343857656D-08 0.000000000000D+00  7 1 -1 23 -13 13 23 21 2 0.11942078D+00 0.42273181D-01 0.17699071D+06 0.17699071D+06 0.17699071D+06 0.11019254D+01  1  2 14  2  7  2       -1 0.337305723123D-05 0.100000000000D+01
  </mgrwgt>
  </event>
  <event>
  8     66 0.56006291E-06 0.19821162E+03 0.75467711E-02 0.99589279E-01
        1 -1    0    0  501    0 0.00000000E+00 0.00000000E+00 0.23484804E+03 0.23484826E+03 0.32000000E+00 0.0000E+00 0.9000E+01
       -1 -1    0    0    0  501 0.00000000E+00 0.00000000E+00 -.20519198E+03 0.20519223E+03 0.32000000E+00 0.0000E+00 0.9000E+01
       25  2    1    2    0    0 0.83133182E+02 -.11184666E+02 0.43883604E+02 0.31437917E+03 0.29978704E+03 0.0000E+00 0.0000E+00
       23  2    1    2    0    0 -.83133182E+02 0.11184666E+02 -.14227543E+02 0.12566132E+03 0.92477682E+02 0.0000E+00 0.0000E+00
       23  1    3    3    0    0 -.54489453E+02 -.78487776E+02 0.30763617E+02 0.13561373E+03 0.91188000E+02 0.0000E+00 0.9000E+01
      -11  1    4    4    0    0 -.70020673E+02 0.16457303E+02 -.49732135E+02 0.87447257E+02 0.51099893E-03 0.0000E+00 0.9000E+01
       11  1    4    4    0    0 -.13112509E+02 -.52726365E+01 0.35504592E+02 0.38214063E+02 0.51099893E-03 0.0000E+00 0.9000E+01
       23  1    3    3    0    0 0.13762264E+03 0.67303109E+02 0.13119987E+02 0.17876544E+03 0.91188000E+02 0.0000E+00 0.9000E+01
#aMCatNLO 1  0  0  1  2 0.21970544D+03 0.00000000D+00  -5  7  0 0.00000000D+00 0.00000000D+00 0.00000000D+00 0.00000000D+00 0.00000000D+00
  <mgrwgt>
 0.2746093172D-03    3    2    0
 0.219520016718360D+03 0.000000000000000D+00 0.000000000000000D+00 0.219520016718360D+03
 0.219520016718360D+03 0.000000000000000D+00 0.000000000000000D+00 -.219520016718360D+03
 0.133844749117971D+03 -.544894532622971D+02 -.784877755832242D+02 0.216733497555421D+02
 0.910058078430316D+02 -.700206730897165D+02 0.164573027713792D+02 -.557523056627885D+02
 0.359028962084275D+02 -.131125091476012D+02 -.527263653073015D+01 0.330042325167849D+02
 0.178286580267289D+03 0.137622635499615D+03 0.673031093425752D+02 0.107472339046148D+01
 0.000000000000000D+00 -.000000000000000D+00 -.000000000000000D+00 -.000000000000000D+00
 0.273070696205709D+03 0.000000000000000D+00 0.000000000000000D+00 0.273070696205709D+03
 0.682730581556673D+03 0.000000000000000D+00 0.000000000000000D+00 -.682730581556673D+03
 0.102470978464959D+03 -.157179972808889D+02 -.383178881909992D+02 0.216733497555421D+02
 0.833562424489652D+02 -.414137300526651D+02 0.460960576580976D+02 -.557523056627885D+02
 0.336919770902984D+02 -.169433315808170D+01 0.655737686736213D+01 0.330042325167849D+02
 0.271425433323142D+03 0.211405238619473D+03 0.143746946278984D+03 0.107472339046148D+01
 0.464856646435017D+03 -.152579178127837D+03 -.158082492613445D+03 -.409659885350964D+03
0.205368630733D-05 0.000000000000D+00 0.000000000000D+00 0.134914856049D-06 0.000000000000D+00  7 1 -1 23 -11 11 23 21 0 0.36130504D-01 0.31568033D-01 0.39287848D+05 0.39287848D+05 0.39287848D+05 0.11566213D+01  1  2  2  1  7  1        1 0.270654763079D-03 0.100000000000D+01
-.112647365326D-06 0.000000000000D+00 -.788669616817D-08 0.134914856049D-06 0.000000000000D+00  7 1 -1 23 -11 11 23 21 2 0.36130504D-01 0.31568033D-01 0.39287848D+05 0.39287848D+05 0.39287848D+05 0.11566213D+01  1  2  3  1  7  1        1 -.198602616537D-04 0.100000000000D+01
0.135077588564D-06 0.000000000000D+00 0.000000000000D+00 0.134914856049D-06 0.000000000000D+00  7 1 -1 23 -11 11 23 21 2 0.36130504D-01 0.31568033D-01 0.39287848D+05 0.39287848D+05 0.39287848D+05 0.11566213D+01  1  2 15  1  7  1        1 0.238148157720D-04 0.100000000000D+01
  </mgrwgt>
  </event>
  <event>
  8     66 0.56006291E-06 0.30311959E+03 0.75467711E-02 0.89383040E-01
        3 -1    0    0  501    0 0.00000000E+00 0.00000000E+00 0.13031877E+04 0.13031878E+04 0.50000000E+00 0.0000E+00 0.9000E+01
       -3 -1    0    0    0  501 0.00000000E+00 0.00000000E+00 -.11483603E+03 0.11483712E+03 0.50000000E+00 0.0000E+00 0.9000E+01
       25  2    1    2    0    0 -.15572661E+02 0.23624939E+03 0.27736648E+03 0.47256083E+03 0.30054166E+03 0.0000E+00 0.0000E+00
       23  2    1    2    0    0 0.15572661E+02 -.23624939E+03 0.91098520E+03 0.94546409E+03 0.89174209E+02 0.0000E+00 0.0000E+00
       23  1    3    3    0    0 0.94704684E+02 0.67110663E+02 0.17373030E+03 0.22796993E+03 0.91188000E+02 0.0000E+00 0.9000E+01
      -11  1    4    4    0    0 0.17698791E+02 -.20712862E+03 0.64012245E+03 0.67303214E+03 0.51099893E-03 0.0000E+00 0.9000E+01
       11  1    4    4    0    0 -.21261305E+01 -.29120762E+02 0.27086275E+03 0.27243195E+03 0.51099893E-03 0.0000E+00 0.9000E+01
       23  1    3    3    0    0 -.11027734E+03 0.16913872E+03 0.10363618E+03 0.24459090E+03 0.91188000E+02 0.0000E+00 0.9000E+01
#aMCatNLO 1  0  0  2  2 0.71678456D+03 0.00000000D+00  -5  7  0 0.00000000D+00 0.00000000D+00 0.00000000D+00 0.00000000D+00 0.00000000D+00
  <mgrwgt>
 0.1327095979D-04    3    2    0
 0.386851057948357D+03 0.000000000000000D+00 0.000000000000000D+00 0.386851057948357D+03
 0.386851057948357D+03 0.000000000000000D+00 0.000000000000000D+00 -.386851057948357D+03
 0.150981028525400D+03 0.947046841850624D+02 0.671106625500178D+02 -.317364364113704D+02
 0.250336349137489D+03 0.176987910974056D+02 -.207128623561962D+03 0.139473200990384D+03
 0.832815262164030D+02 -.212613050733127D+01 -.291207619428348D+02 0.779953421805941D+02
 0.289103212017422D+03 -.110277344775137D+03 0.169138722954779D+03 -.185732106759608D+03
 0.000000000000000D+00 -.000000000000000D+00 0.000000000000000D+00 0.000000000000000D+00
 0.961570425181128D+03 0.000000000000000D+00 0.000000000000000D+00 0.961570425181128D+03
 0.823157230383421D+03 0.000000000000000D+00 0.000000000000000D+00 -.823157230383421D+03
 0.267593238628085D+03 0.249276870423460D+03 0.120303986326280D+02 -.317364364113704D+02
 0.421112224005106D+03 0.265653054036475D+03 -.295484663380549D+03 0.139473200990384D+03
 0.120728685034861D+03 0.732112871091751D+02 -.559665027333016D+02 0.779953421805941D+02
 0.245267264182658D+03 0.870563645549024D+02 0.988208148355760D+02 -.185732106759608D+03
 0.730026243713839D+03 -.675197576124013D+03 0.240599952645646D+03 0.138413194797707D+03
0.904321290639D-05 0.000000000000D+00 0.000000000000D+00 0.158899422079D-06 0.000000000000D+00  7 3 -3 23 -11 11 23 21 0 0.20049051D+00 0.17667172D-01 0.91881483D+05 0.91881483D+05 0.91881483D+05 0.11247522D+01  1  2  2  2  7  2       -3 0.130501239739D-04 0.100000000000D+01
-.466059509623D-06 0.000000000000D+00 -.347283186932D-07 0.158899422079D-06 0.000000000000D+00  7 3 -3 23 -11 11 23 21 2 0.20049051D+00 0.17667172D-01 0.91881483D+05 0.91881483D+05 0.91881483D+05 0.11247522D+01  1  2  3  2  7  2       -3 -.850838095367D-06 0.100000000000D+01
0.587025689727D-06 0.000000000000D+00 0.000000000000D+00 0.158899422079D-06 0.000000000000D+00  7 3 -3 23 -11 11 23 21 2 0.20049051D+00 0.17667172D-01 0.91881483D+05 0.91881483D+05 0.91881483D+05 0.11247522D+01  1  2 15  2  7  2       -3 0.107167391603D-05 0.100000000000D+01
  </mgrwgt>
  </event>
  <event>
  8     66 0.56006291E-06 0.11863692E+03 0.75467711E-02 0.10281448E+00
        1 -1    0    0  501    0 0.00000000E+00 0.00000000E+00 0.60795707E+03 0.60795715E+03 0.32000000E+00 0.0000E+00 0.9000E+01
       -1 -1    0    0    0  501 0.00000000E+00 0.00000000E+00 -.40840889E+03 0.40840901E+03 0.32000000E+00 0.0000E+00 0.9000E+01
       25  2    1    2    0    0 -.14100570E+03 0.13806297E+03 -.30247252E+03 0.46944784E+03 0.29991275E+03 0.0000E+00 0.0000E+00
       23  2    1    2    0    0 0.14100570E+03 -.13806297E+03 0.50202070E+03 0.54691833E+03 0.90282261E+02 0.0000E+00 0.0000E+00
       23  1    3    3    0    0 0.80410809E+01 0.81692183E+02 -.25002452E+03 0.27850635E+03 0.91188000E+02 0.0000E+00 0.9000E+01
      -13  1    4    4    0    0 0.77769163E+02 -.45387256E+02 0.32578969E+03 0.33800441E+03 0.10565837E+00 0.0000E+00 0.9000E+01
       13  1    4    4    0    0 0.63236539E+02 -.92675715E+02 0.17623101E+03 0.20891392E+03 0.10565837E+00 0.0000E+00 0.9000E+01
       23  1    3    3    0    0 -.14904678E+03 0.56370788E+02 -.52447996E+02 0.19094149E+03 0.91188000E+02 0.0000E+00 0.9000E+01
#aMCatNLO 1  0  0  2  1 0.55619419D+01 0.00000000D+00  -5  7  0 0.00000000D+00 0.00000000D+00 0.00000000D+00 0.00000000D+00 0.00000000D+00
  <mgrwgt>
 0.4250339005D-04   11    2    0
 0.498292259849851D+03 0.000000000000000D+00 0.000000000000000D+00 0.498292259849851D+03
 0.498292259849851D+03 0.000000000000000D+00 0.000000000000000D+00 -.498292259849851D+03
 0.334097467378360D+03 0.804108082799858D+01 0.816921827433224D+02 -.310753269753327D+03
 0.279480201342671D+03 0.777691830869285D+02 -.453871912646883D+02 0.264577285445358D+03
 0.177773507937381D+03 0.632365190741985D+02 -.926757793054382D+02 0.137897653025244D+03
 0.205233343041289D+03 -.149046782989126D+03 0.563707878268040D+02 -.917216687172746D+02
 0.000000000000000D+00 -.000000000000000D+00 0.000000000000000D+00 -.000000000000000D+00
 0.498462766845715D+03 0.000000000000000D+00 0.000000000000000D+00 0.498462766845715D+03
 0.545820474337339D+03 0.000000000000000D+00 0.000000000000000D+00 -.545820474337339D+03
 0.333877954031908D+03 0.956803688970758D+01 0.806231657293761D+02 -.310753269753327D+03
 0.279985384005369D+03 0.790480914711041D+02 -.462825508996159D+02 0.264577285445358D+03
 0.178362025305890D+03 0.640506258419710D+02 -.932457328278360D+02 0.137897653025244D+03
 0.204374676845137D+03 -.148110440978862D+03 0.557152578053805D+02 -.917216687172746D+02
 0.476832009947494D+02 -.455631322392094D+01 0.318986019269519D+01 -.473577074916243D+02
0.645623426845D-05 0.000000000000D+00 0.000000000000D+00 0.137550839715D-05 0.000000000000D+00  7 1 -1 23 -13 13 23 21 0 0.93531873D-01 0.62832153D-01 0.64650489D+05 0.64650489D+05 0.64650489D+05 0.11376064D+01  1  2  2  2  7  2       -1 0.714171218393D-04 0.100000000000D+01
-.161267098728D-06 0.000000000000D+00 -.247936395564D-07 0.137550839715D-05 0.000000000000D+00  7 1 -1 23 -13 13 23 21 2 0.93531873D-01 0.62832153D-01 0.64650489D+05 0.64650489D+05 0.64650489D+05 0.11376064D+01  1  2  3  2  7  2       -1 -.230862245316D-05 0.100000000000D+01
0.408799865153D-06 0.000000000000D+00 0.000000000000D+00 0.137550839715D-05 0.000000000000D+00  7 1 -1 23 -13 13 23 21 2 0.93531873D-01 0.62832153D-01 0.64650489D+05 0.64650489D+05 0.64650489D+05 0.11376064D+01  1  2 15  2  7  2       -1 0.585218283817D-05 0.100000000000D+01
0.742043964856D-03 0.000000000000D+00 0.000000000000D+00 0.137550839715D-05 0.000000000000D+00  7 1 -1 23 -13 13 23 21 2 0.93531873D-01 0.68835388D-01 0.66310868D+05 0.66310868D+05 0.66310868D+05 0.11366639D+01  1  2 12  2  7  2       -1 0.891485027055D-02 0.100000000000D+01
-.118684531387D-02 0.000000000000D+00 0.000000000000D+00 0.137550839715D-05 0.000000000000D+00  7 1 -1 23 -13 13 23 21 2 0.93531873D-01 0.62832153D-01 0.64650489D+05 0.64650489D+05 0.64650489D+05 0.11376064D+01  1  2  4  2  7  2       -1 -.169903083868D-01 0.100000000000D+01
-.121228242354D-02 0.000000000000D+00 -.898943625387D-05 0.137550839715D-05 0.000000000000D+00  7 1 -1 23 -13 13 23 21 2 0.93531873D-01 0.68835857D-01 0.64650489D+05 0.64650489D+05 0.64650489D+05 0.11376064D+01  1  2  5  2  7  2       -1 -.146000916696D-01 0.100000000000D+01
0.120810603884D-02 0.000000000000D+00 0.895213370490D-05 0.137550839715D-05 0.000000000000D+00  7 1 -1 23 -13 13 23 21 2 0.93531873D-01 0.62832153D-01 0.64650489D+05 0.64650489D+05 0.64650489D+05 0.11376064D+01  1  2  6  2  7  2       -1 0.172946667303D-01 0.100000000000D+01
0.448451482052D-03 0.000000000000D+00 0.000000000000D+00 0.137550839715D-05 0.307698283092D-06  7 1 -1 23 -13 13 23 21 2 0.93563878D-01 0.68825222D-01 0.66310868D+05 0.66310868D+05 0.66310868D+05 0.11366639D+01  1  2 11  2  7  2       -1 0.538654219237D-02 0.100000000000D+01
0.113623199479D-04 0.000000000000D+00 0.000000000000D+00 0.137550839715D-05 0.000000000000D+00  7 1 21 23 -13 13 23 1 2 0.93531873D-01 0.68835388D-01 0.66310868D+05 0.66310868D+05 0.66310868D+05 0.11366639D+01  1  2 12  4  7  2       -1 0.114301305330D-02 0.100000000000D+01
-.183916415830D-04 0.000000000000D+00 -.134848704852D-06 0.137550839715D-05 0.000000000000D+00  7 1 21 23 -13 13 23 1 2 0.93531873D-01 0.68835857D-01 0.64650489D+05 0.64650489D+05 0.64650489D+05 0.11376064D+01  1  2  5  4  7  2       -1 -.185621011538D-02 0.100000000000D+01
0.671177250857D-05 0.000000000000D+00 0.000000000000D+00 0.137550839715D-05 0.460412505721D-08  7 1 21 23 -13 13 23 1 2 0.93563878D-01 0.68825222D-01 0.66310868D+05 0.66310868D+05 0.66310868D+05 0.11366639D+01  1  2 11  4  7  2       -1 0.675080633134D-03 0.100000000000D+01
  </mgrwgt>
  </event>
  <event>
  8     66 0.56006291E-06 0.25763296E+03 0.75467711E-02 0.97387370E-01
        1 -1    0    0  501    0 0.00000000E+00 0.00000000E+00 0.45144914E+03 0.45144926E+03 0.32000000E+00 0.0000E+00 0.9000E+01
       -1 -1    0    0    0  501 0.00000000E+00 0.00000000E+00 -.90978632E+03 0.90978637E+03 0.32000000E+00 0.0000E+00 0.9000E+01
       25  2    1    2    0    0 -.13923923E+03 0.99053604E+02 -.85381271E+03 0.92082113E+03 0.29952668E+03 0.0000E+00 0.0000E+00
       23  2    1    2    0    0 0.13923923E+03 -.99053604E+02 0.39547554E+03 0.44041449E+03 0.91459532E+02 0.0000E+00 0.0000E+00
       23  1    3    3    0    0 -.49381486E+01 -.64822311E+02 -.32950042E+03 0.34801163E+03 0.91188000E+02 0.0000E+00 0.9000E+01
      -13  1    4    4    0    0 0.90048879E+02 -.77882956E+02 0.16299908E+03 0.20184961E+03 0.10565837E+00 0.0000E+00 0.9000E+01
       13  1    4    4    0    0 0.49190347E+02 -.21170648E+02 0.23247646E+03 0.23856488E+03 0.10565837E+00 0.0000E+00 0.9000E+01
       23  1    3    3    0    0 -.13430108E+03 0.16387591E+03 -.52431230E+03 0.57280951E+03 0.91188000E+02 0.0000E+00 0.9000E+01
#aMCatNLO 1  0  0  2  1 0.23583857D+03 0.00000000D+00  -5  7  0 0.00000000D+00 0.00000000D+00 0.00000000D+00 0.00000000D+00 0.00000000D+00
  <mgrwgt>
 0.2204099104D-03    4    2    0
 0.640876250642358D+03 0.000000000000000D+00 0.000000000000000D+00 0.640876250642358D+03
 0.640876250642358D+03 0.000000000000000D+00 0.000000000000000D+00 -.640876250642358D+03
 0.251767434299111D+03 -.493814864587128D+01 -.648223106551473D+02 -.225488962831524D+03
 0.272652725942100D+03 0.900489336730461D+02 -.778830319964758D+02 0.245285408932209D+03
 0.336489087849939D+03 0.491902922886807D+02 -.211705723140859D+02 0.332200283345051D+03
 0.420843253193565D+03 -.134301077315856D+03 0.163875914965709D+03 -.351996729445737D+03
 0.000000000000000D+00 -.000000000000000D+00 -.000000000000000D+00 0.000000000000000D+00
 0.907330669689661D+03 0.000000000000000D+00 0.000000000000000D+00 0.907330669689661D+03
 0.706015098671254D+03 0.000000000000000D+00 0.000000000000000D+00 -.706015098671254D+03
 0.244084222039622D+03 0.269051856863629D+01 -.202322726277353D+02 -.225488962831524D+03
 0.265898668548758D+03 0.983345354532550D+02 -.294531702564187D+02 0.245285408932209D+03
 0.339824330032609D+03 0.595953598764909D+02 0.396476999177823D+02 0.332200283345051D+03
 0.453461479174086D+03 -.120849917554587D+03 0.242498786878005D+03 -.351996729445737D+03
 0.310077068565841D+03 -.397704963437952D+02 -.232461043911633D+03 0.201315571018407D+03
0.829489468864D-04 0.000000000000D+00 0.000000000000D+00 0.242658895123D-05 0.000000000000D+00  7 1 -1 23 -13 13 23 21 0 0.69453727D-01 0.13996714D+00 0.66374744D+05 0.66374744D+05 0.66374744D+05 0.11366282D+01  1  2  2  2  7  2       -1 0.242104537413D-03 0.100000000000D+01
0.448320161624D-07 0.000000000000D+00 -.318545797003D-06 0.242658895123D-05 0.000000000000D+00  7 1 -1 23 -13 13 23 21 2 0.69453727D-01 0.13996714D+00 0.66374744D+05 0.66374744D+05 0.66374744D+05 0.11366282D+01  1  2  3  2  7  2       -1 0.169050774697D-06 0.100000000000D+01
0.507874535935D-05 0.000000000000D+00 0.000000000000D+00 0.242658895123D-05 0.000000000000D+00  7 1 -1 23 -13 13 23 21 2 0.69453727D-01 0.13996714D+00 0.66374744D+05 0.66374744D+05 0.66374744D+05 0.11366282D+01  1  2 15  2  7  2       -1 0.191507300135D-04 0.100000000000D+01
-.108769604803D-04 0.000000000000D+00 0.000000000000D+00 0.242658895123D-05 0.000000000000D+00  7 1 -1 23 -13 13 23 21 2 0.69453727D-01 0.13996714D+00 0.66374744D+05 0.66374744D+05 0.66374744D+05 0.11366282D+01  1  2  4  2  7  2       -1 -.410144078481D-04 0.100000000000D+01
  </mgrwgt>
  </event>
  <event>
  8     66 0.56006291E-06 0.50590022E+03 0.75467711E-02 0.88616725E-01
        1 -1    0    0  501    0 0.00000000E+00 0.00000000E+00 0.56145136E+03 0.56145145E+03 0.32000000E+00 0.0000E+00 0.9000E+01
       -1 -1    0    0    0  501 0.00000000E+00 0.00000000E+00 -.66405690E+03 0.66405698E+03 0.32000000E+00 0.0000E+00 0.9000E+01
       25  2    1    2    0    0 -.46609110E+02 -.45802146E+03 -.39199125E+03 0.67500083E+03 0.30002152E+03 0.0000E+00 0.0000E+00
       23  2    1    2    0    0 0.46609110E+02 0.45802146E+03 0.28938571E+03 0.55050760E+03 0.85781521E+02 0.0000E+00 0.0000E+00
       23  1    3    3    0    0 0.28727365E+02 -.30597133E+02 -.11256937E+03 0.15082626E+03 0.91188000E+02 0.0000E+00 0.9000E+01
      -11  1    4    4    0    0 0.60841957E+02 0.18944030E+03 0.11210321E+03 0.22837798E+03 0.51099893E-03 0.0000E+00 0.9000E+01
       11  1    4    4    0    0 -.14232846E+02 0.26858116E+03 0.17728250E+03 0.32212962E+03 0.51099893E-03 0.0000E+00 0.9000E+01
       23  1    3    3    0    0 -.75336476E+02 -.42742433E+03 -.27942188E+03 0.52417457E+03 0.91188000E+02 0.0000E+00 0.9000E+01
#aMCatNLO 1  0  0  1  1 0.59240871D+03 0.00000000D+00  -5  7  0 0.00000000D+00 0.00000000D+00 0.00000000D+00 0.00000000D+00 0.00000000D+00
  <mgrwgt>
 0.2528749130D-03    3    2    0
 0.610602779632103D+03 0.000000000000000D+00 0.000000000000000D+00 0.610602779632103D+03
 0.610602779632103D+03 0.000000000000000D+00 0.000000000000000D+00 -.610602779632103D+03
 0.141899624902600D+03 0.287273651597806D+02 -.305971329325742D+02 -.100293599749842D+03
 0.238601559098400D+03 0.608419567521305D+02 0.189440304332196D+03 0.131686489046083D+03
 0.338159890423048D+03 -.142328463270710D+02 0.268581155511765D+03 0.204972438343118D+03
 0.502544484840157D+03 -.753364755848402D+02 -.427424326911386D+03 -.236365327639359D+03
 0.000000000000000D+00 -.000000000000000D+00 -.000000000000000D+00 -.000000000000000D+00
 0.815623170356774D+03 0.000000000000000D+00 0.000000000000000D+00 0.815623170356774D+03
 0.131922072782333D+04 0.000000000000000D+00 0.000000000000000D+00 -.131922072782333D+04
 0.159569987823658D+03 0.833320476208826D+02 0.120122170548108D+02 -.100293599749842D+03
 0.344997235846725D+03 0.166548222118241D+03 0.271925451280033D+03 0.131686489046083D+03
 0.450557574730656D+03 0.128626217798075D+03 0.380057526911138D+03 0.204972438343118D+03
 0.402185446303191D+03 0.885357308255481D+02 -.299550894058458D+03 -.236365327639359D+03
 0.777533653475871D+03 -.467042218362746D+03 -.364444301187524D+03 -.503597557466553D+03
0.570455378276D-04 0.000000000000D+00 0.000000000000D+00 0.825740044073D-07 0.000000000000D+00  7 1 -1 23 -11 11 23 21 0 0.86377145D-01 0.10216261D+00 0.25593503D+06 0.25593503D+06 0.25593503D+06 0.10896934D+01  1  2  2  1  7  1        1 0.249923529023D-03 0.100000000000D+01
-.303285084859D-05 0.000000000000D+00 -.219069885693D-06 0.825740044073D-07 0.000000000000D+00  7 1 -1 23 -11 11 23 21 2 0.86377145D-01 0.10216261D+00 0.25593503D+06 0.25593503D+06 0.25593503D+06 0.10896934D+01  1  2  3  1  7  1        1 -.157777522482D-04 0.100000000000D+01
0.360017547168D-05 0.000000000000D+00 0.000000000000D+00 0.825740044073D-07 0.000000000000D+00  7 1 -1 23 -11 11 23 21 2 0.86377145D-01 0.10216261D+00 0.25593503D+06 0.25593503D+06 0.25593503D+06 0.10896934D+01  1  2 15  1  7  1        1 0.187291362081D-04 0.100000000000D+01
  </mgrwgt>
  </event>
  <event>
  8     66 0.56006291E-06 0.14206208E+03 0.75467711E-02 0.10227601E+00
        1 -1    0    0  501    0 0.00000000E+00 0.00000000E+00 0.17214518E+04 0.17214519E+04 0.32000000E+00 0.0000E+00 0.9000E+01
       -1 -1    0    0    0  501 0.00000000E+00 0.00000000E+00 -.43460725E+02 0.43461903E+02 0.32000000E+00 0.0000E+00 0.9000E+01
       25  2    1    2    0    0 -.64508027E+02 -.98046698E+02 0.63952507E+03 0.71566279E+03 0.29900917E+03 0.0000E+00 0.0000E+00
       23  2    1    2    0    0 0.64508027E+02 0.98046698E+02 0.10384661E+04 0.10492510E+04 0.93495669E+02 0.0000E+00 0.0000E+00
       23  1    3    3    0    0 -.69626761E+02 0.20504878E+02 0.49164876E+03 0.50527427E+03 0.91188000E+02 0.0000E+00 0.9000E+01
      -13  1    4    4    0    0 0.18788157E+01 -.18034909E+02 0.11989287E+03 0.12125634E+03 0.10565837E+00 0.0000E+00 0.9000E+01
       13  1    4    4    0    0 0.62629212E+02 0.11608161E+03 0.91857318E+03 0.92799464E+03 0.10565837E+00 0.0000E+00 0.9000E+01
       23  1    3    3    0    0 0.51187334E+01 -.11855158E+03 0.14787631E+03 0.21038853E+03 0.91188000E+02 0.0000E+00 0.9000E+01
#aMCatNLO 1  0  0  2  1 0.10962049D+03 0.00000000D+00  -5  7  0 0.00000000D+00 0.00000000D+00 0.00000000D+00 0.00000000D+00 0.00000000D+00
  <mgrwgt>
 0.2103863920D-03    9    2    0
 0.273526253594069D+03 0.000000000000000D+00 0.000000000000000D+00 0.273526253594069D+03
 0.273526253594069D+03 0.000000000000000D+00 0.000000000000000D+00 -.273526253594069D+03
 0.122078357085032D+03 -.696267623140425D+02 0.205048757903688D+02 0.363254451186208D+02
 0.234487501077389D+02 0.187874106206065D+01 -.180350672424446D+02 0.148677692744209D+02
 0.176350529061909D+03 0.626292909375009D+02 0.116081772196971D+03 0.117055983105057D+03
 0.225174870933459D+03 0.511873031448093D+01 -.118551580744895D+03 -.168249197498099D+03
 0.000000000000000D+00 0.000000000000000D+00 0.000000000000000D+00 -.000000000000000D+00
 0.316900341432788D+03 0.000000000000000D+00 0.000000000000000D+00 0.316900341432788D+03
 0.358152804016597D+03 0.000000000000000D+00 0.000000000000000D+00 -.358152804016597D+03
 0.137701633944549D+03 -.951184506761202D+02 0.167161905022380D+02 0.363254451186208D+02
 0.240737977487396D+02 -.278455103879759D+01 -.187281459403256D+02 0.148677692744209D+02
 0.164023124839154D+03 0.292291084310678D+02 0.111117692208011D+03 0.117055983105057D+03
 0.232128944591384D+03 -.397555739225261D+02 -.125220994471558D+03 -.168249197498099D+03
 0.117125644325559D+03 0.108429467206376D+03 0.161152577016352D+02 -.412524625838089D+02
0.303028574640D-05 0.000000000000D+00 0.000000000000D+00 0.339898014240D-07 0.000000000000D+00  7 1 -1 23 -13 13 23 21 0 0.26483884D+00 0.66863583D-02 0.43312526D+05 0.43312526D+05 0.43312526D+05 0.11528210D+01  1  2  2  2  7  2       -1 0.192001730554D-03 0.100000000000D+01
-.153060571035D-06 0.000000000000D+00 -.116370951587D-07 0.339898014240D-07 0.000000000000D+00  7 1 -1 23 -13 13 23 21 2 0.26483884D+00 0.66863583D-02 0.43312526D+05 0.43312526D+05 0.43312526D+05 0.11528210D+01  1  2  3  2  7  2       -1 -.128886852408D-04 0.100000000000D+01
0.190688915887D-06 0.000000000000D+00 0.000000000000D+00 0.339898014240D-07 0.000000000000D+00  7 1 -1 23 -13 13 23 21 2 0.26483884D+00 0.66863583D-02 0.43312526D+05 0.43312526D+05 0.43312526D+05 0.11528210D+01  1  2 15  2  7  2       -1 0.160572340685D-04 0.100000000000D+01
0.101352017728D-05 0.000000000000D+00 0.000000000000D+00 0.339898014240D-07 0.000000000000D+00  7 1 -1 23 -13 13 23 21 2 0.26483884D+00 0.91537801D-02 0.71877963D+05 0.71877963D+05 0.71877963D+05 0.11336835D+01  1  2 12  2  7  2       -1 0.509327443778D-04 0.100000000000D+01
-.172845347110D-05 0.000000000000D+00 0.000000000000D+00 0.339898014240D-07 0.000000000000D+00  7 1 -1 23 -13 13 23 21 2 0.26483884D+00 0.66863583D-02 0.43312526D+05 0.43312526D+05 0.43312526D+05 0.11528210D+01  1  2  4  2  7  2       -1 -.145546907291D-03 0.100000000000D+01
-.210815025308D-05 0.000000000000D+00 -.120734360866D-05 0.339898014240D-07 0.000000000000D+00  7 1 -1 23 -13 13 23 21 2 0.26483884D+00 0.10328180D-01 0.43312526D+05 0.43312526D+05 0.43312526D+05 0.11528210D+01  1  2  5  2  7  2       -1 -.921556212785D-04 0.100000000000D+01
0.249892659876D-05 0.000000000000D+00 0.110156362629D-05 0.339898014240D-07 0.000000000000D+00  7 1 -1 23 -13 13 23 21 2 0.26483884D+00 0.66863583D-02 0.43312526D+05 0.43312526D+05 0.43312526D+05 0.11528210D+01  1  2  6  2  7  2       -1 0.210425703716D-03 0.100000000000D+01
0.404978819710D-07 0.000000000000D+00 0.000000000000D+00 0.339898014240D-07 0.000000000000D+00  7 1 21 23 -13 13 23 1 2 0.26483884D+00 0.91537801D-02 0.71877963D+05 0.71877963D+05 0.71877963D+05 0.11336835D+01  1  2 12  4  7  2       -1 0.291548311178D-04 0.100000000000D+01
-.607457698806D-07 0.000000000000D+00 -.611360650071D-07 0.339898014240D-07 0.000000000000D+00  7 1 21 23 -13 13 23 1 2 0.26483884D+00 0.10328180D-01 0.43312526D+05 0.43312526D+05 0.43312526D+05 0.11528210D+01  1  2  5  4  7  2       -1 -.375946380613D-04 0.100000000000D+01
  </mgrwgt>
  </event>
  <event>
  9     66 0.56006291E-06 0.18689733E+03 0.75467711E-02 0.10668972E+00
        1 -1    0    0  501    0 0.00000000E+00 0.00000000E+00 0.16885938E+04 0.16885938E+04 0.32000000E+00 0.0000E+00 0.9000E+01
       -1 -1    0    0    0  502 0.00000000E+00 0.00000000E+00 -.38427660E+02 0.38428992E+02 0.32000000E+00 0.0000E+00 0.9000E+01
       25  2    1    2    0    0 -.64774649E+02 -.93373282E+01 0.64915505E+03 0.71815273E+03 0.30009686E+03 0.0000E+00 0.0000E+00
       23  2    1    2    0    0 0.54878845E+02 -.46758912E+01 0.89864508E+03 0.90507385E+03 0.92531846E+02 0.0000E+00 0.0000E+00
       23  1    3    3    0    0 -.13241888E+03 0.25310611E+02 0.22498328E+03 0.27768348E+03 0.91188000E+02 0.0000E+00 0.9000E+01
      -13  1    4    4    0    0 -.79157300E+00 0.27263534E+02 0.54294684E+03 0.54363150E+03 0.10565837E+00 0.0000E+00 0.9000E+01
       13  1    4    4    0    0 0.55670418E+02 -.31939425E+02 0.35569824E+03 0.36144234E+03 0.10565837E+00 0.0000E+00 0.9000E+01
       23  1    3    3    0    0 0.67644228E+02 -.34647939E+02 0.42417177E+03 0.44046925E+03 0.91188000E+02 0.0000E+00 0.9000E+01
       21  1    1    2  501  502 0.98958039E+01 0.14013219E+02 0.10236599E+03 0.10379622E+03 0.75000000E+00 0.0000E+00 0.9000E+01
#aMCatNLO 2  0  0  2  1 0.17155094D+02 0.00000000D+00  -5  7  0 0.00000000D+00 0.00000000D+00 0.00000000D+00 0.00000000D+00 0.00000000D+00
  <mgrwgt>
 0.1014331031D-03    2    2    0
 0.244379311479562D+03 0.000000000000000D+00 0.000000000000000D+00 0.244379311479562D+03
 0.244379311479562D+03 0.000000000000000D+00 0.000000000000000D+00 -.244379311479562D+03
 0.207788341463007D+03 -.128194637405836D+03 0.312924581964877D+02 -.132089592717801D+03
 0.868284189272986D+02 0.957530521909668D+00 0.297405722362917D+02 0.815705573829920D+02
 0.741805156886607D+02 0.571693466431847D+02 -.298170040379128D+02 0.366791627825678D+02
 0.119961346880157D+03 0.700677602407414D+02 -.312160263948666D+02 0.138398725522414D+02
 0.000000000000000D+00 0.000000000000000D+00 0.000000000000000D+00 0.000000000000000D+00
 0.260420653597675D+03 0.000000000000000D+00 0.000000000000000D+00 0.260420653597675D+03
 0.249159776313730D+03 0.000000000000000D+00 0.000000000000000D+00 -.249159776313730D+03
 0.209614641037354D+03 -.132418876604252D+03 0.253106105760387D+02 -.132089592717801D+03
 0.860098069625728D+02 -.791642434199182D+00 0.272636087894360D+02 0.815705573829920D+02
 0.739235830127240D+02 0.556704902252624D+02 -.319395000131179D+02 0.366791627825678D+02
 0.119511565325304D+03 0.676442249400648D+02 -.346479387915083D+02 0.138398725522414D+02
 0.205208335734500D+02 0.989580387312453D+01 0.140132194391514D+02 0.112608772839453D+02
-.627965413465D-07 0.000000000000D+00 0.000000000000D+00 0.123143074925D-06 0.000000000000D+00  7 1 -1 23 -13 13 23 21 2 0.24377502D+00 0.57984640D-02 0.34930612D+05 0.34930612D+05 0.34930612D+05 0.11612537D+01  1  2  8  2  7  2       -1 -.814664773532D-05 0.100000000000D+01
0.102128444070D-05 0.000000000000D+00 0.000000000000D+00 0.123143074925D-06 0.299817492477D-08  7 1 -1 23 -13 13 23 21 2 0.25977669D+00 0.59118916D-02 0.38040444D+05 0.38040444D+05 0.38040444D+05 0.11578871D+01  1  2  1  2  7  2       -1 0.109579750804D-03 0.100000000000D+01
  </mgrwgt>
  </event>
  <event>
  8     66 0.56006291E-06 0.13833884E+03 0.75467711E-02 0.99036378E-01
        1 -1    0    0  501    0 0.00000000E+00 0.00000000E+00 0.75140465E+03 0.75140471E+03 0.32000000E+00 0.0000E+00 0.9000E+01
       -1 -1    0    0    0  501 0.00000000E+00 0.00000000E+00 -.30505493E+03 0.30505510E+03 0.32000000E+00 0.0000E+00 0.9000E+01
       25  2    1    2    0    0 -.18743780E+03 0.96803020E+02 0.65033836E+03 0.74663564E+03 0.30003505E+03 0.0000E+00 0.0000E+00
       23  2    1    2    0    0 0.18743780E+03 -.96803020E+02 -.20398865E+03 0.30982418E+03 0.99377548E+02 0.0000E+00 0.0000E+00
       23  1    3    3    0    0 -.69201736E+02 0.15299049E+03 0.24270409E+03 0.30889399E+03 0.91188000E+02 0.0000E+00 0.9000E+01
      -11  1    4    4    0    0 -.58995877E+01 0.52033261E+01 -.28309269E+02 0.29381873E+02 0.51099893E-03 0.0000E+00 0.9000E+01
       11  1    4    4    0    0 0.19333739E+03 -.10200635E+03 -.17567938E+03 0.28044230E+03 0.51099893E-03 0.0000E+00 0.9000E+01
       23  1    3    3    0    0 -.11823607E+03 -.56187465E+02 0.40763427E+03 0.43774165E+03 0.91188000E+02 0.0000E+00 0.9000E+01
#aMCatNLO 1  0  0  1  2 0.11223877D+03 0.00000000D+00  -5  7  0 0.00000000D+00 0.00000000D+00 0.00000000D+00 0.00000000D+00 0.00000000D+00
  <mgrwgt>
 0.2364983658D-03    9    2    0
 0.478769064956714D+03 0.000000000000000D+00 0.000000000000000D+00 0.478769064956714D+03
 0.478769064956714D+03 0.000000000000000D+00 0.000000000000000D+00 -.478769064956714D+03
 0.227670499487973D+03 -.692017355962468D+02 0.152990485278076D+03 0.123788675564241D+03
 0.456134340165211D+02 -.589958770432616D+01 0.520332607520432D+01 -.449300080731529D+02
 0.391306052662070D+03 0.193337391636278D+03 -.102006346371669D+03 -.324554749071947D+03
 0.292948143746864D+03 -.118236068335705D+03 -.561874649816112D+02 0.245696081580859D+03
 0.000000000000000D+00 0.000000000000000D+00 -.000000000000000D+00 0.000000000000000D+00
 0.552002989246134D+03 0.000000000000000D+00 0.000000000000000D+00 0.552002989246134D+03
 0.527066342170963D+03 0.000000000000000D+00 0.000000000000000D+00 -.527066342170963D+03
 0.248508132831045D+03 -.753260525999494D+02 0.180120488398553D+03 0.123788675564241D+03
 0.466729357370545D+02 -.708651829115088D+01 0.104612888006602D+02 -.449300080731529D+02
 0.377331581022799D+03 0.183451646644453D+03 -.582136602134718D+02 -.324554749071947D+03
 0.291581127934622D+03 -.125753924692020D+03 -.228842466337028D+02 0.245696081580859D+03
 0.114975553891576D+03 0.247148489386674D+02 -.109483870352038D+03 0.249366470751708D+02
0.123171289836D-04 0.000000000000D+00 0.000000000000D+00 0.601159107104D-07 0.000000000000D+00  7 1 -1 23 -11 11 23 21 0 0.11560073D+00 0.46931546D-01 0.83254413D+05 0.83254413D+05 0.83254413D+05 0.11283127D+01  1  2  2  1  7  1        1 0.168144802695D-03 0.100000000000D+01
-.470936740402D-06 0.000000000000D+00 -.473010184716D-07 0.601159107104D-07 0.000000000000D+00  7 1 -1 23 -11 11 23 21 2 0.11560073D+00 0.46931546D-01 0.83254413D+05 0.83254413D+05 0.83254413D+05 0.11283127D+01  1  2  3  1  7  1        1 -.818456219291D-05 0.100000000000D+01
0.740288753648D-06 0.000000000000D+00 0.000000000000D+00 0.601159107104D-07 0.000000000000D+00  7 1 -1 23 -11 11 23 21 2 0.11560073D+00 0.46931546D-01 0.83254413D+05 0.83254413D+05 0.83254413D+05 0.11283127D+01  1  2 15  1  7  1        1 0.128657181000D-04 0.100000000000D+01
0.983626773079D-05 0.000000000000D+00 0.000000000000D+00 0.601159107104D-07 0.000000000000D+00  7 1 -1 23 -11 11 23 21 2 0.13837200D+00 0.46931546D-01 0.11896838D+06 0.11896838D+06 0.11896838D+06 0.11155841D+01  1  2 12  1  7  1        1 0.124242960937D-03 0.100000000000D+01
-.107987294190D-04 0.000000000000D+00 0.000000000000D+00 0.601159107104D-07 0.000000000000D+00  7 1 -1 23 -11 11 23 21 2 0.11560073D+00 0.46931546D-01 0.83254413D+05 0.83254413D+05 0.83254413D+05 0.11283127D+01  1  2  4  1  7  1        1 -.187674617314D-03 0.100000000000D+01
-.215249731078D-04 0.000000000000D+00 -.825152446122D-05 0.601159107104D-07 0.000000000000D+00  7 1 -1 23 -11 11 23 21 2 0.14295665D+00 0.46931546D-01 0.83254413D+05 0.83254413D+05 0.83254413D+05 0.11283127D+01  1  2  5  1  7  1        1 -.266510776033D-03 0.100000000000D+01
0.229408628455D-04 0.000000000000D+00 0.806883297429D-05 0.601159107104D-07 0.000000000000D+00  7 1 -1 23 -11 11 23 21 2 0.11560073D+00 0.46931546D-01 0.83254413D+05 0.83254413D+05 0.83254413D+05 0.11283127D+01  1  2  6  1  7  1        1 0.398696688132D-03 0.100000000000D+01
0.259198783061D-06 0.000000000000D+00 0.000000000000D+00 0.601159107104D-07 0.000000000000D+00  7 21 -1 23 -11 11 23 -1 2 0.13837200D+00 0.46931546D-01 0.11896838D+06 0.11896838D+06 0.11896838D+06 0.11155841D+01  1  2 12  3  7  1        1 0.513392664208D-05 0.100000000000D+01
-.539566674875D-06 0.000000000000D+00 -.247217206144D-06 0.601159107104D-07 0.000000000000D+00  7 21 -1 23 -11 11 23 -1 2 0.14295665D+00 0.46931546D-01 0.83254413D+05 0.83254413D+05 0.83254413D+05 0.11283127D+01  1  2  5  3  7  1        1 -.102157752128D-04 0.100000000000D+01
  </mgrwgt>
  </event>
  <event>
  8     66 0.56006291E-06 0.12979078E+03 0.75467711E-02 0.92431561E-01
        1 -1    0    0  501    0 0.00000000E+00 0.00000000E+00 0.80027385E+03 0.80027391E+03 0.32000000E+00 0.0000E+00 0.9000E+01
       -1 -1    0    0    0  501 0.00000000E+00 0.00000000E+00 -.80927976E+03 0.80927982E+03 0.32000000E+00 0.0000E+00 0.9000E+01
       25  2    1    2    0    0 -.32552289E+03 -.44363798E+03 0.53993885E+03 0.82707759E+03 0.29957231E+03 0.0000E+00 0.0000E+00
       23  2    1    2    0    0 0.32552289E+03 0.44363798E+03 -.54894477E+03 0.78247615E+03 0.90270464E+02 0.0000E+00 0.0000E+00
       23  1    3    3    0    0 -.77293320E+02 -.86525292E+02 0.29812817E+02 0.15054879E+03 0.91188000E+02 0.0000E+00 0.9000E+01
      -13  1    4    4    0    0 0.31855995E+03 0.41244893E+03 -.53714246E+03 0.74840937E+03 0.10565837E+00 0.0000E+00 0.9000E+01
       13  1    4    4    0    0 0.69629415E+01 0.31189049E+02 -.11802307E+02 0.34066772E+02 0.10565837E+00 0.0000E+00 0.9000E+01
       23  1    3    3    0    0 -.24822957E+03 -.35711268E+03 0.51012604E+03 0.67652880E+03 0.91188000E+02 0.0000E+00 0.9000E+01
#aMCatNLO 1  0  0  1  2 0.73074629D+02 0.00000000D+00  -5  7  0 0.00000000D+00 0.00000000D+00 0.00000000D+00 0.00000000D+00 0.00000000D+00
  <mgrwgt>
 0.2511284252D-03    9    2    0
 0.804764270470281D+03 0.000000000000000D+00 0.000000000000000D+00 0.804764270470281D+03
 0.804764270470281D+03 0.000000000000000D+00 0.000000000000000D+00 -.804764270470281D+03
 0.150717962780653D+03 -.772933198407696D+02 -.865252919619289D+02 0.306556604829489D+02
 0.745416552017258D+03 0.318560377355731D+03 0.412449448688576D+03 -.532963952136317D+03
 0.340002926798745D+02 0.696251459282300D+01 0.311885270859365D+02 -.116111614867616D+02
 0.679393733462776D+03 -.248229572107784D+03 -.357112683812583D+03 0.513919453140130D+03
 0.000000000000000D+00 -.000000000000000D+00 -.000000000000000D+00 0.000000000000000D+00
 0.880914228572496D+03 0.000000000000000D+00 0.000000000000000D+00 0.880914228572496D+03
 0.823317085140827D+03 0.000000000000000D+00 0.000000000000000D+00 -.823317085140827D+03
 0.145616659141799D+03 -.725003709778227D+02 -.818100651756923D+02 0.306556604829489D+02
 0.769626992853782D+03 0.343064858771355D+03 0.436556567386843D+03 -.532963952136317D+03
 0.352537020012360D+02 0.808263634204008D+01 0.322904850301544D+02 -.116111614867616D+02
 0.660689173214121D+03 -.226554923353807D+03 -.335789509435091D+03 0.513919453140130D+03
 0.930447865023844D+02 -.520922007817644D+02 -.512474778062138D+02 0.575971434316690D+02
0.957556507495D-04 0.000000000000D+00 0.000000000000D+00 0.444563601363D-05 0.000000000000D+00  7 1 -1 23 -13 13 23 21 0 0.12311906D+00 0.12450459D+00 0.32777877D+06 0.32777877D+06 0.32777877D+06 0.10817179D+01  1  2  2  1  7  1        1 0.151625462253D-03 0.100000000000D+01
-.456984077199D-05 0.000000000000D+00 -.367726911920D-06 0.444563601363D-05 0.000000000000D+00  7 1 -1 23 -13 13 23 21 2 0.12311906D+00 0.12450459D+00 0.32777877D+06 0.32777877D+06 0.32777877D+06 0.10817179D+01  1  2  3  1  7  1        1 -.846714130751D-05 0.100000000000D+01
0.597167215287D-05 0.000000000000D+00 0.000000000000D+00 0.444563601363D-05 0.000000000000D+00  7 1 -1 23 -13 13 23 21 2 0.12311906D+00 0.12450459D+00 0.32777877D+06 0.32777877D+06 0.32777877D+06 0.10817179D+01  1  2 15  1  7  1        1 0.110644975358D-04 0.100000000000D+01
0.329993598801D-03 0.000000000000D+00 0.000000000000D+00 0.444563601363D-05 0.000000000000D+00  7 1 -1 23 -13 13 23 21 2 0.13609843D+00 0.12450459D+00 0.37157986D+06 0.37157986D+06 0.37157986D+06 0.10777427D+01  1  2 12  1  7  1        1 0.511753973775D-03 0.100000000000D+01
-.332571448176D-03 0.000000000000D+00 0.000000000000D+00 0.444563601363D-05 0.000000000000D+00  7 1 -1 23 -13 13 23 21 2 0.12311906D+00 0.12450459D+00 0.32777877D+06 0.32777877D+06 0.32777877D+06 0.10817179D+01  1  2  4  1  7  1        1 -.616198591384D-03 0.100000000000D+01
-.681409888634D-03 0.000000000000D+00 -.121028527055D-03 0.444563601363D-05 0.000000000000D+00  7 1 -1 23 -13 13 23 21 2 0.13662748D+00 0.12450459D+00 0.32777877D+06 0.32777877D+06 0.32777877D+06 0.10817179D+01  1  2  5  1  7  1        1 -.106515740673D-02 0.100000000000D+01
0.690915132197D-03 0.000000000000D+00 0.120375616275D-03 0.444563601363D-05 0.000000000000D+00  7 1 -1 23 -13 13 23 21 2 0.12311906D+00 0.12450459D+00 0.32777877D+06 0.32777877D+06 0.32777877D+06 0.10817179D+01  1  2  6  1  7  1        1 0.128014877273D-02 0.100000000000D+01
0.537033933898D-05 0.000000000000D+00 0.000000000000D+00 0.444563601363D-05 0.000000000000D+00  7 21 -1 23 -13 13 23 -1 2 0.13609843D+00 0.12450459D+00 0.37157986D+06 0.37157986D+06 0.37157986D+06 0.10777427D+01  1  2 12  3  7  1        1 0.127507810244D-04 0.100000000000D+01
-.110277654085D-04 0.000000000000D+00 -.203512083063D-05 0.444563601363D-05 0.000000000000D+00  7 21 -1 23 -13 13 23 -1 2 0.13662748D+00 0.12450459D+00 0.32777877D+06 0.32777877D+06 0.32777877D+06 0.10817179D+01  1  2  5  3  7  1        1 -.263919226545D-04 0.100000000000D+01
  </mgrwgt>
  </event>
  <event>
  9     66 0.56006291E-06 0.52777363E+03 0.75467711E-02 0.92404094E-01
        1 -1    0    0  501    0 0.00000000E+00 0.00000000E+00 0.13745726E+04 0.13745726E+04 0.32000000E+00 0.0000E+00 0.9000E+01
       21 -1    0    0  502  501 0.00000000E+00 0.00000000E+00 -.33987991E+03 0.33988074E+03 0.75000000E+00 0.0000E+00 0.9000E+01
       25  2    1    2    0    0 -.41923020E+03 0.19158675E+02 0.82737705E+03 0.97498624E+03 0.29987391E+03 0.0000E+00 0.0000E+00
       23  2    1    2    0    0 0.54233278E+03 0.73863799E+02 0.17035261E+03 0.58080461E+03 0.93451969E+02 0.0000E+00 0.0000E+00
       23  1    3    3    0    0 -.29549037E+03 -.95925525E+02 0.51890657E+03 0.61163351E+03 0.91188000E+02 0.0000E+00 0.9000E+01
      -13  1    4    4    0    0 0.14086501E+03 -.12787986E+02 0.70915101E+02 0.15822594E+03 0.10565837E+00 0.0000E+00 0.9000E+01
       13  1    4    4    0    0 0.40146777E+03 0.86651785E+02 0.99437511E+02 0.42257867E+03 0.10565837E+00 0.0000E+00 0.9000E+01
       23  1    3    3    0    0 -.12373983E+03 0.11508420E+03 0.30847048E+03 0.36335273E+03 0.91188000E+02 0.0000E+00 0.9000E+01
        1  1    1    2  502    0 -.12310258E+03 -.93022474E+02 0.36963004E+02 0.15866251E+03 0.32000000E+00 0.0000E+00 0.9000E+01
#aMCatNLO 2  0  0  2  1 0.15429655D+03 0.00000000D+00  -5  7  0 0.00000000D+00 0.00000000D+00 0.00000000D+00 0.00000000D+00 0.00000000D+00
  <mgrwgt>
 0.9391049804D-05    2    2    0
 0.591864267394526D+03 0.000000000000000D+00 0.000000000000000D+00 0.591864267394526D+03
 0.591864267394526D+03 0.000000000000000D+00 0.000000000000000D+00 -.591864267394526D+03
 0.404775400466824D+03 -.335267281248046D+03 -.125982947778874D+03 0.165081859913702D+03
 0.134541532281619D+03 0.126289757655207D+03 -.238016535827811D+02 -.398221333783144D+02
 0.423028092841451D+03 0.355350765863474D+03 0.518033424214579D+02 -.223595648990053D+03
 0.221383509199159D+03 -.146373242270634D+03 0.979812589401976D+02 0.983359224546662D+02
 0.000000000000000D+00 -.000000000000000D+00 -.000000000000000D+00 -.000000000000000D+00
 0.642597377811829D+03 0.000000000000000D+00 0.000000000000000D+00 0.642597377811829D+03
 0.727033999105612D+03 0.000000000000000D+00 0.000000000000000D+00 -.727033999105612D+03
 0.363432992282024D+03 -.295490374904929D+03 -.959255252841653D+02 0.165081859913702D+03
 0.146942832561335D+03 0.140864679412239D+03 -.127881127784885D+02 -.398221333783144D+02
 0.467632553871894D+03 0.401468102594263D+03 0.866519116513258D+02 -.223595648990053D+03
 0.215733917498293D+03 -.123739827813298D+03 0.115084200405120D+03 0.983359224546662D+02
 0.175889080703895D+03 -.123102579288274D+03 -.930224739937916D+02 -.844366212937840D+02
-.639153796508D-06 0.000000000000D+00 0.000000000000D+00 0.502357882264D-06 0.000000000000D+00  7 1 21 23 -13 13 23 1 2 0.19477694D+00 0.53797428D-01 0.37347326D+06 0.37347326D+06 0.37347326D+06 0.10775825D+01  1  2 13  4  7  2       -1 -.262339523722D-04 0.100000000000D+01
0.969572511288D-06 0.000000000000D+00 0.000000000000D+00 0.502357882264D-06 0.487801122456D-11  7 1 21 23 -13 13 23 1 2 0.21147272D+00 0.52289272D-01 0.37347326D+06 0.37347326D+06 0.37347326D+06 0.10775825D+01  1  2  1  4  7  2       -1 0.356250021759D-04 0.100000000000D+01
  </mgrwgt>
  </event>
  <event>
  8     66 0.56006291E-06 0.30683536E+03 0.75467711E-02 0.94746456E-01
        1 -1    0    0  501    0 0.00000000E+00 0.00000000E+00 0.24865880E+03 0.24865901E+03 0.32000000E+00 0.0000E+00 0.9000E+01
       -1 -1    0    0    0  501 0.00000000E+00 0.00000000E+00 -.65359666E+03 0.65359674E+03 0.32000000E+00 0.0000E+00 0.9000E+01
       25  2    1    2    0    0 -.33444605E+02 -.22566068E+03 0.52781465E+02 0.38289709E+03 0.30295711E+03 0.0000E+00 0.0000E+00
       23  2    1    2    0    0 0.33444605E+02 0.22566068E+03 -.45771932E+03 0.51935866E+03 0.90471824E+02 0.0000E+00 0.0000E+00
       23  1    3    3    0    0 0.16810557E+02 -.25417736E+03 0.26991165E+02 0.27190532E+03 0.91188000E+02 0.0000E+00 0.9000E+01
      -11  1    4    4    0    0 -.14778649E+02 0.27598865E+02 -.12750653E+03 0.13129364E+03 0.51099893E-03 0.0000E+00 0.9000E+01
       11  1    4    4    0    0 0.48223254E+02 0.19806182E+03 -.33021279E+03 0.38806501E+03 0.51099893E-03 0.0000E+00 0.9000E+01
       23  1    3    3    0    0 -.50255162E+02 0.28516680E+02 0.25790301E+02 0.11099177E+03 0.91188000E+02 0.0000E+00 0.9000E+01
#aMCatNLO 1  0  0  1  1 0.30147390D+03 0.00000000D+00  -5  7  0 0.00000000D+00 0.00000000D+00 0.00000000D+00 0.00000000D+00 0.00000000D+00
  <mgrwgt>
 0.2328893026D-03    3    2    0
 0.403141030094621D+03 0.000000000000000D+00 0.000000000000000D+00 0.403141030094621D+03
 0.403141030094621D+03 0.000000000000000D+00 0.000000000000000D+00 -.403141030094621D+03
 0.317826590126638D+03 0.168105566314209D+02 -.254177362569915D+03 0.166762596496546D+03
 0.828844230361917D+02 -.147786489412632D+02 0.275988651678904D+02 -.767445226642129D+02
 0.268415034699902D+03 0.482232538450453D+02 0.198061817912482D+03 -.174621490449340D+03
 0.137156012326509D+03 -.502551615352030D+02 0.285166794895431D+02 0.846034166170071D+02
 0.000000000000000D+00 0.000000000000000D+00 0.000000000000000D+00 -.000000000000000D+00
 0.446650903923315D+03 0.000000000000000D+00 0.000000000000000D+00 0.446650903923315D+03
 0.182859222301492D+04 0.000000000000000D+00 0.000000000000000D+00 -.182859222301492D+04
 0.335870245852872D+03 -.101350831164096D+03 -.257704901267604D+03 0.166762596496546D+03
 0.937042472167166D+02 -.466985867435974D+02 0.266459412227146D+02 -.767445226642129D+02
 0.266331617949106D+03 -.484368538963892D+02 0.195176169081319D+03 -.174621490449340D+03
 0.164894256087826D+03 -.104853374247013D+03 0.268867281851555D+02 0.846034166170071D+02
 0.141444275983171D+04 0.301339646051096D+03 0.899606277841495D+01 -.138194131909160D+04
0.162935870702D-04 0.000000000000D+00 0.000000000000D+00 0.309575859612D-07 0.000000000000D+00  7 1 -1 23 -11 11 23 21 0 0.38255222D-01 0.10055335D+00 0.94147940D+05 0.94147940D+05 0.94147940D+05 0.11238775D+01  1  2  2  1  7  1        1 0.229243433751D-03 0.100000000000D+01
-.823188331472D-06 0.000000000000D+00 -.625716645495D-07 0.309575859612D-07 0.000000000000D+00  7 1 -1 23 -11 11 23 21 2 0.38255222D-01 0.10055335D+00 0.94147940D+05 0.94147940D+05 0.94147940D+05 0.11238775D+01  1  2  3  1  7  1        1 -.146290922075D-04 0.100000000000D+01
0.102834369182D-05 0.000000000000D+00 0.000000000000D+00 0.309575859612D-07 0.000000000000D+00  7 1 -1 23 -11 11 23 21 2 0.38255222D-01 0.10055335D+00 0.94147940D+05 0.94147940D+05 0.94147940D+05 0.11238775D+01  1  2 15  1  7  1        1 0.182749610429D-04 0.100000000000D+01
  </mgrwgt>
  </event>
  <event>
  8     66 0.56006291E-06 0.50670702E+03 0.75467711E-02 0.94348100E-01
        1 -1    0    0  501    0 0.00000000E+00 0.00000000E+00 0.34704334E+03 0.34704349E+03 0.32000000E+00 0.0000E+00 0.9000E+01
       -1 -1    0    0    0  501 0.00000000E+00 0.00000000E+00 -.86904072E+03 0.86904077E+03 0.32000000E+00 0.0000E+00 0.9000E+01
       25  2    1    2    0    0 -.43591606E+03 0.20690799E+03 -.11916425E+03 0.58104224E+03 0.30095886E+03 0.0000E+00 0.0000E+00
       23  2    1    2    0    0 0.43591606E+03 -.20690799E+03 -.40283312E+03 0.63504203E+03 0.90388712E+02 0.0000E+00 0.0000E+00
       23  1    3    3    0    0 -.30279445E+03 0.18758185E+03 -.17762530E+03 0.40833494E+03 0.91188000E+02 0.0000E+00 0.9000E+01
      -11  1    4    4    0    0 0.13896539E+03 -.52716879E+02 -.17814435E+03 0.23200400E+03 0.51099893E-03 0.0000E+00 0.9000E+01
       11  1    4    4    0    0 0.29695068E+03 -.15419111E+03 -.22468877E+03 0.40303802E+03 0.51099893E-03 0.0000E+00 0.9000E+01
       23  1    3    3    0    0 -.13312162E+03 0.19326141E+02 0.58461049E+02 0.17270730E+03 0.91188000E+02 0.0000E+00 0.9000E+01
#aMCatNLO 1  0  0  2  1 0.11591820D+02 0.00000000D+00  -5  7  0 0.00000000D+00 0.00000000D+00 0.00000000D+00 0.00000000D+00 0.00000000D+00
  <mgrwgt>
 0.1502568261D-03    4    2    0
 0.549176584149927D+03 0.000000000000000D+00 0.000000000000000D+00 0.549176584149927D+03
 0.549176584149927D+03 0.000000000000000D+00 0.000000000000000D+00 -.549176584149927D+03
 0.367686614630913D+03 -.302794447089383D+03 0.187581846927049D+03 -.260168215077992D+01
 0.172208302299321D+03 0.138965385977853D+03 -.527168793583359D+02 -.869784542950681D+02
 0.339454794754939D+03 0.296950678980220D+03 -.154191108867924D+03 -.572272127696591D+02
 0.219003456614681D+03 -.133121617868690D+03 0.193261412992109D+02 0.146807349215507D+03
 0.000000000000000D+00 -.000000000000000D+00 -.000000000000000D+00 0.000000000000000D+00
 0.631566369339871D+03 0.000000000000000D+00 0.000000000000000D+00 0.631566369339871D+03
 0.549615046602287D+03 0.000000000000000D+00 0.000000000000000D+00 -.549615046602287D+03
 0.364860891191854D+03 -.298976657020215D+03 0.188187163176229D+03 -.260168215077992D+01
 0.173579290077607D+03 0.140767514066100D+03 -.524311492906381D+02 -.869784542950681D+02
 0.342314169895048D+03 0.300503828451099D+03 -.153627751776119D+03 -.572272127696591D+02
 0.217659984415453D+03 -.130845875564632D+03 0.196869635997136D+02 0.146807349215507D+03
 0.827670803621952D+02 -.114488099323518D+02 -.181522570918570D+01 0.819513227375841D+02
0.351270912568D-04 0.000000000000D+00 0.000000000000D+00 0.477913587324D-06 0.000000000000D+00  7 1 -1 23 -11 11 23 21 0 0.53391299D-01 0.13369859D+00 0.25675201D+06 0.25675201D+06 0.25675201D+06 0.10895895D+01  1  2  2  2  7  2       -1 0.155144580427D-03 0.100000000000D+01
-.193613402487D-05 0.000000000000D+00 -.134897279602D-06 0.477913587324D-06 0.000000000000D+00  7 1 -1 23 -11 11 23 21 2 0.53391299D-01 0.13369859D+00 0.25675201D+06 0.25675201D+06 0.25675201D+06 0.10895895D+01  1  2  3  2  7  2       -1 -.101520942206D-04 0.100000000000D+01
0.225526452487D-05 0.000000000000D+00 0.000000000000D+00 0.477913587324D-06 0.000000000000D+00  7 1 -1 23 -11 11 23 21 2 0.53391299D-01 0.13369859D+00 0.25675201D+06 0.25675201D+06 0.25675201D+06 0.10895895D+01  1  2 15  2  7  2       -1 0.118254509526D-04 0.100000000000D+01
-.125128767415D-05 0.000000000000D+00 0.000000000000D+00 0.477913587324D-06 0.000000000000D+00  7 1 -1 23 -11 11 23 21 2 0.53391299D-01 0.13369859D+00 0.25675201D+06 0.25675201D+06 0.25675201D+06 0.10895895D+01  1  2  4  2  7  2       -1 -.656111106041D-05 0.100000000000D+01
  </mgrwgt>
  </event>
  <event>
  8     66 0.56006291E-06 0.43168545E+03 0.75467711E-02 0.92935622E-01
        1 -1    0    0  501    0 0.00000000E+00 0.00000000E+00 0.11138292E+04 0.11138293E+04 0.32000000E+00 0.0000E+00 0.9000E+01
       -1 -1    0    0    0  501 0.00000000E+00 0.00000000E+00 -.17314284E+03 0.17314314E+03 0.32000000E+00 0.0000E+00 0.9000E+01
       25  2    1    2    0    0 0.35149928E+03 0.13887702E+03 0.59926424E+03 0.76931906E+03 0.29982597E+03 0.0000E+00 0.0000E+00
       23  2    1    2    0    0 -.35149928E+03 -.13887702E+03 0.34142215E+03 0.51765336E+03 0.92505913E+02 0.0000E+00 0.0000E+00
       23  1    3    3    0    0 0.20140651E+03 -.47475132E+02 0.29292079E+03 0.37004907E+03 0.91188000E+02 0.0000E+00 0.9000E+01
      -13  1    4    4    0    0 -.16364840E+03 -.38199926E+02 0.20294066E+03 0.26348615E+03 0.10565837E+00 0.0000E+00 0.9000E+01
       13  1    4    4    0    0 -.18785089E+03 -.10067710E+03 0.13848149E+03 0.25416720E+03 0.10565837E+00 0.0000E+00 0.9000E+01
       23  1    3    3    0    0 0.15009277E+03 0.18635216E+03 0.30634345E+03 0.39926999E+03 0.91188000E+02 0.0000E+00 0.9000E+01
#aMCatNLO 1  0  0  1  1 0.26463205D+03 0.00000000D+00  -5  7  0 0.00000000D+00 0.00000000D+00 0.00000000D+00 0.00000000D+00 0.00000000D+00
  <mgrwgt>
 0.1523782674D-03    4    2    0
 0.439148927198529D+03 0.000000000000000D+00 0.000000000000000D+00 0.439148927198529D+03
 0.439148927198529D+03 0.000000000000000D+00 0.000000000000000D+00 -.439148927198529D+03
 0.228506013536868D+03 0.201406511096831D+03 -.474751320659414D+02 0.328827614660760D+02
 0.168730726041203D+03 -.163648363635745D+03 -.381998446868556D+02 0.151671637307233D+02
 0.224113711798213D+03 -.187850917988081D+03 -.100677178799603D+03 -.693043584196560D+02
 0.256947403020774D+03 0.150092770526996D+03 0.186352155552400D+03 0.212544332228567D+02
 0.000000000000000D+00 -.000000000000000D+00 -.000000000000000D+00 -.000000000000000D+00
 0.550267154135550D+03 0.000000000000000D+00 0.000000000000000D+00 0.550267154135550D+03
 0.649742742550469D+03 0.000000000000000D+00 0.000000000000000D+00 -.649742742550469D+03
 0.294702642615711D+03 0.276626615618183D+03 -.305096009590162D+02 0.328827614660760D+02
 0.125591741114325D+03 -.121334524821953D+03 -.286561628053044D+02 0.151671637307233D+02
 0.172178726328627D+03 -.130877169051807D+03 -.878270250274542D+02 -.693043584196560D+02
 0.324825774963949D+03 0.233732516813932D+03 0.205216696175360D+03 0.212544332228567D+02
 0.282711011663407D+03 -.258147438558356D+03 -.582239073835852D+02 -.994755884149182D+02
0.108313890519D-04 0.000000000000D+00 0.000000000000D+00 0.527849599855D-06 0.000000000000D+00  7 1 -1 23 -13 13 23 21 0 0.17135837D+00 0.26637387D-01 0.18635232D+06 0.18635232D+06 0.18635232D+06 0.11001907D+01  1  2  2  1  7  1        1 0.196975044693D-03 0.100000000000D+01
-.601528862068D-06 0.000000000000D+00 -.415953859295D-07 0.527849599855D-06 0.000000000000D+00  7 1 -1 23 -13 13 23 21 2 0.17135837D+00 0.26637387D-01 0.18635232D+06 0.18635232D+06 0.18635232D+06 0.11001907D+01  1  2  3  1  7  1        1 -.132409587208D-04 0.100000000000D+01
0.695802082903D-06 0.000000000000D+00 0.000000000000D+00 0.527849599855D-06 0.000000000000D+00  7 1 -1 23 -13 13 23 21 2 0.17135837D+00 0.26637387D-01 0.18635232D+06 0.18635232D+06 0.18635232D+06 0.11001907D+01  1  2 15  1  7  1        1 0.153161173778D-04 0.100000000000D+01
-.212027822894D-05 0.000000000000D+00 0.000000000000D+00 0.527849599855D-06 0.000000000000D+00  7 1 -1 23 -13 13 23 21 2 0.17135837D+00 0.26637387D-01 0.18635232D+06 0.18635232D+06 0.18635232D+06 0.11001907D+01  1  2  4  1  7  1        1 -.466719359226D-04 0.100000000000D+01
  </mgrwgt>
  </event>
  <event>
  8     66 0.56006291E-06 0.33770141E+03 0.75467711E-02 0.97969848E-01
        1 -1    0    0  501    0 0.00000000E+00 0.00000000E+00 0.11239002E+03 0.11239047E+03 0.32000000E+00 0.0000E+00 0.9000E+01
       -1 -1    0    0    0  501 0.00000000E+00 0.00000000E+00 -.11324955E+04 0.11324955E+04 0.32000000E+00 0.0000E+00 0.9000E+01
       25  2    1    2    0    0 -.90046621E+02 0.27114812E+03 -.61041932E+03 0.73757338E+03 0.29962151E+03 0.0000E+00 0.0000E+00
       23  2    1    2    0    0 0.90046621E+02 -.27114812E+03 -.40968615E+03 0.50731263E+03 0.88846293E+02 0.0000E+00 0.0000E+00
       23  1    3    3    0    0 0.15848687E+02 0.18155226E+02 -.49379303E+02 0.10646295E+03 0.91188000E+02 0.0000E+00 0.9000E+01
      -13  1    4    4    0    0 0.98770006E+02 -.23576858E+03 -.31381237E+03 0.40474752E+03 0.10565837E+00 0.0000E+00 0.9000E+01
       13  1    4    4    0    0 -.87233847E+01 -.35379542E+02 -.95873779E+02 0.10256511E+03 0.10565837E+00 0.0000E+00 0.9000E+01
       23  1    3    3    0    0 -.10589531E+03 0.25299289E+03 -.56104002E+03 0.63111043E+03 0.91188000E+02 0.0000E+00 0.9000E+01
#aMCatNLO 1  0  0  2  2 0.73431708D+02 0.00000000D+00  -5  7  0 0.00000000D+00 0.00000000D+00 0.00000000D+00 0.00000000D+00 0.00000000D+00
  <mgrwgt>
 0.2437838375D-03    3    2    0
 0.356765329466062D+03 0.000000000000000D+00 0.000000000000000D+00 0.356765329466062D+03
 0.356765329466062D+03 0.000000000000000D+00 0.000000000000000D+00 -.356765329466062D+03
 0.115148719045784D+03 0.158486871771454D+02 0.181552261974486D+02 0.660543944818611D+02
 0.257512439768506D+03 0.987701576016525D+02 -.235768861678556D+03 0.311473348084680D+02
 0.418766700768564D+02 -.872353659069604D+01 -.353792583468074D+02 -.206364600866169D+02
 0.298992830040977D+03 -.105895308188102D+03 0.252992893827915D+03 -.765652692037121D+02
 0.000000000000000D+00 0.000000000000000D+00 0.000000000000000D+00 0.000000000000000D+00
 0.290893540031358D+04 0.000000000000000D+00 0.000000000000000D+00 0.290893540031358D+04
 0.359178215378949D+03 0.000000000000000D+00 0.000000000000000D+00 -.359178215378949D+03
 0.113301645478815D+03 0.946499039636261D+01 0.832120487900971D+01 0.660543944818611D+02
 0.273689700652573D+03 0.839265244964585D+02 -.258635330656061D+03 0.311473348084680D+02
 0.456406260640952D+02 -.111690738644072D+02 -.391465841629567D+02 -.206364600866169D+02
 0.284667279836752D+03 -.122204799189578D+03 0.227868285359007D+03 -.765652692037121D+02
 0.255081436366030D+04 0.399823581611637D+02 0.615924245810010D+02 0.254975718493463D+04
0.260932467164D-04 0.000000000000D+00 0.000000000000D+00 0.124092196111D-06 0.000000000000D+00  7 1 -1 23 -13 13 23 21 0 0.17290811D-01 0.17423011D+00 0.11404224D+06 0.11404224D+06 0.11404224D+06 0.11170690D+01  1  2  2  2  7  2       -1 0.241987538352D-03 0.100000000000D+01
-.144430940761D-05 0.000000000000D+00 -.100204937900D-06 0.124092196111D-06 0.000000000000D+00  7 1 -1 23 -13 13 23 21 2 0.17290811D-01 0.17423011D+00 0.11404224D+06 0.11404224D+06 0.11404224D+06 0.11170690D+01  1  2  3  2  7  2       -1 -.167141819360D-04 0.100000000000D+01
0.159953158416D-05 0.000000000000D+00 0.000000000000D+00 0.124092196111D-06 0.000000000000D+00  7 1 -1 23 -13 13 23 21 2 0.17290811D-01 0.17423011D+00 0.11404224D+06 0.11404224D+06 0.11404224D+06 0.11170690D+01  1  2 15  2  7  2       -1 0.185104810432D-04 0.100000000000D+01
  </mgrwgt>
  </event>
  <event>
  9     66 0.56006291E-06 0.52717118E+03 0.75467711E-02 0.93014064E-01
        1 -1    0    0  502    0 0.00000000E+00 0.00000000E+00 0.63607211E+03 0.63607219E+03 0.32000000E+00 0.0000E+00 0.9000E+01
       -1 -1    0    0    0  501 0.00000000E+00 0.00000000E+00 -.91866440E+03 0.91866446E+03 0.32000000E+00 0.0000E+00 0.9000E+01
       25  2    1    2    0    0 0.48149850E+03 0.12759847E+03 -.57864936E+03 0.82052154E+03 0.30049683E+03 0.0000E+00 0.0000E+00
       23  2    1    2    0    0 -.44358608E+03 -.21910421E+03 0.35825097E+03 0.61725658E+03 0.88806905E+02 0.0000E+00 0.0000E+00
       23  1    3    3    0    0 0.26179393E+03 -.15043656E+02 -.16648559E+03 0.32372068E+03 0.91188000E+02 0.0000E+00 0.9000E+01
      -11  1    4    4    0    0 -.34544824E+03 -.13031564E+03 0.24533642E+03 0.44329066E+03 0.51099893E-03 0.0000E+00 0.9000E+01
       11  1    4    4    0    0 -.98137840E+02 -.88788570E+02 0.11291455E+03 0.17396592E+03 0.51099893E-03 0.0000E+00 0.9000E+01
       23  1    3    3    0    0 0.21970457E+03 0.14264213E+03 -.41216377E+03 0.49680086E+03 0.91188000E+02 0.0000E+00 0.9000E+01
       21  1    1    2  502  501 -.37912422E+02 0.91505736E+02 -.62193902E+02 0.11695852E+03 0.75000000E+00 0.0000E+00 0.9000E+01
#aMCatNLO 2  0  0  1  1 0.99048733D+02 0.00000000D+00  -5  7  0 0.00000000D+00 0.00000000D+00 0.00000000D+00 0.00000000D+00 0.00000000D+00
  <mgrwgt>
 0.7185272910D-04    1    2    0
 0.708664206822316D+03 0.000000000000000D+00 0.000000000000000D+00 0.708664206822316D+03
 0.708664206822316D+03 0.000000000000000D+00 0.000000000000000D+00 -.708664206822316D+03
 0.294528443725731D+03 0.253828437329997D+03 0.418193369544392D+01 -.118259835331698D+03
 0.488664106159188D+03 -.358476798555511D+03 -.988698000200992D+02 0.317035891011941D+03
 0.190927206218367D+03 -.103273973609934D+03 -.763919541245204D+02 0.141251385105431D+03
 0.443208657541345D+03 0.207922334835448D+03 0.171079820449176D+03 -.340027440785674D+03
 0.000000000000000D+00 -.000000000000000D+00 0.000000000000000D+00 -.000000000000000D+00
 0.742348782880632D+03 0.000000000000000D+00 0.000000000000000D+00 0.742348782880632D+03
 0.787143347941722D+03 0.000000000000000D+00 0.000000000000000D+00 -.787143347941722D+03
 0.301766491863032D+03 0.261793934287895D+03 -.150436559621065D+02 -.118259835331698D+03
 0.486650190648845D+03 -.345448240705110D+03 -.130315635526080D+03 0.317035891011941D+03
 0.193562391755773D+03 -.981378395591173D+02 -.887885699551558D+02 0.141251385105431D+03
 0.438806090209177D+03 0.219704567704978D+03 0.142642125275031D+03 -.340027440785674D+03
 0.108706966345527D+03 -.379124217286464D+02 0.915057361683111D+02 -.447945650610906D+02
0.381025201010D-04 0.000000000000D+00 0.000000000000D+00 0.368139902299D-06 0.236434037816D-09  7 1 -1 23 -11 11 23 21 2 0.97857090D-01 0.14133275D+00 0.33385095D+06 0.33385095D+06 0.33385095D+06 0.10811333D+01  1  2  1  1  7  1        1 0.718527291041D-04 0.100000000000D+01
  </mgrwgt>
  </event>
  <event>
  8     66 0.56006291E-06 0.41654676E+03 0.75467711E-02 0.91838427E-01
        1 -1    0    0  501    0 0.00000000E+00 0.00000000E+00 0.22352588E+04 0.22352588E+04 0.32000000E+00 0.0000E+00 0.9000E+01
       -1 -1    0    0    0  501 0.00000000E+00 0.00000000E+00 -.18265813E+03 0.18265841E+03 0.32000000E+00 0.0000E+00 0.9000E+01
       25  2    1    2    0    0 -.50434794E+03 -.28105300E+03 0.76770896E+03 0.10062940E+04 0.29982155E+03 0.0000E+00 0.0000E+00
       23  2    1    2    0    0 0.50434794E+03 0.28105300E+03 0.12848917E+04 0.14116232E+04 0.91519204E+02 0.0000E+00 0.0000E+00
       23  1    3    3    0    0 -.37801763E+03 -.82077537E+02 0.45131003E+03 0.60135684E+03 0.91188000E+02 0.0000E+00 0.9000E+01
      -13  1    4    4    0    0 0.23530146E+03 0.18170467E+03 0.68264599E+03 0.74457298E+03 0.10565837E+00 0.0000E+00 0.9000E+01
       13  1    4    4    0    0 0.26904648E+03 0.99348335E+02 0.60224569E+03 0.66705021E+03 0.10565837E+00 0.0000E+00 0.9000E+01
       23  1    3    3    0    0 -.12633030E+03 -.19897546E+03 0.31639893E+03 0.40493717E+03 0.91188000E+02 0.0000E+00 0.9000E+01
#aMCatNLO 1  0  0  2  1 0.53081638D+02 0.00000000D+00  -5  7  0 0.00000000D+00 0.00000000D+00 0.00000000D+00 0.00000000D+00 0.00000000D+00
  <mgrwgt>
 0.3220340676D-04    9    2    0
 0.638974606257534D+03 0.000000000000000D+00 0.000000000000000D+00 0.638974606257534D+03
 0.638974606257534D+03 0.000000000000000D+00 0.000000000000000D+00 -.638974606257534D+03
 0.412905127557790D+03 -.378017631065077D+03 -.820775373351444D+02 -.111988131016014D+03
 0.312309941685560D+03 0.235301413146261D+03 0.181704774919885D+03 0.956771624700730D+02
 0.294770910156343D+03 0.269046522399781D+03 0.993482250792644D+02 0.680719357193734D+02
 0.257963233115375D+03 -.126330304480966D+03 -.198975462664004D+03 -.517609671734321D+02
 0.000000000000000D+00 0.000000000000000D+00 -.000000000000000D+00 -.000000000000000D+00
 0.649759617100968D+03 0.000000000000000D+00 0.000000000000000D+00 0.649759617100968D+03
 0.708356166367484D+03 0.000000000000000D+00 0.000000000000000D+00 -.708356166367484D+03
 0.428260274876444D+03 -.395275937182308D+03 -.794179053452988D+02 -.111988131016014D+03
 0.304069191072344D+03 0.222655077804097D+03 0.183653668270244D+03 0.956771624700730D+02
 0.284608711737744D+03 0.257159311104835D+03 0.101180131826968D+03 0.680719357193734D+02
 0.262112974570682D+03 -.137000779479772D+03 -.197331063934436D+03 -.517609671734321D+02
 0.790646312112385D+02 0.524623277531481D+02 -.808483081747642D+01 -.585965492665157D+02
0.997285748596D-05 0.000000000000D+00 0.000000000000D+00 0.489954610646D-06 0.000000000000D+00  7 1 -1 23 -13 13 23 21 0 0.34388599D+00 0.28101274D-01 0.38083829D+06 0.38083829D+06 0.38083829D+06 0.10769679D+01  1  2  2  2  7  2       -1 0.281398736841D-04 0.100000000000D+01
-.553231847941D-06 0.000000000000D+00 -.382983986598D-07 0.489954610646D-06 0.000000000000D+00  7 1 -1 23 -13 13 23 21 2 0.34388599D+00 0.28101274D-01 0.38083829D+06 0.38083829D+06 0.38083829D+06 0.10769679D+01  1  2  3  2  7  2       -1 -.181056957896D-05 0.100000000000D+01
0.628848719682D-06 0.000000000000D+00 0.000000000000D+00 0.489954610646D-06 0.000000000000D+00  7 1 -1 23 -13 13 23 21 2 0.34388599D+00 0.28101274D-01 0.38083829D+06 0.38083829D+06 0.38083829D+06 0.10769679D+01  1  2 15  2  7  2       -1 0.205804196895D-05 0.100000000000D+01
0.428566785663D-04 0.000000000000D+00 0.000000000000D+00 0.489954610646D-06 0.000000000000D+00  7 1 -1 23 -13 13 23 21 2 0.34388599D+00 0.31373253D-01 0.41497064D+06 0.41497064D+06 0.41497064D+06 0.10742792D+01  1  2 12  2  7  2       -1 0.115294729543D-03 0.100000000000D+01
-.436021310519D-04 0.000000000000D+00 0.000000000000D+00 0.489954610646D-06 0.000000000000D+00  7 1 -1 23 -13 13 23 21 2 0.34388599D+00 0.28101274D-01 0.38083829D+06 0.38083829D+06 0.38083829D+06 0.10769679D+01  1  2  4  2  7  2       -1 -.142697301961D-03 0.100000000000D+01
-.794034936861D-04 0.000000000000D+00 -.112290473176D-04 0.489954610646D-06 0.000000000000D+00  7 1 -1 23 -13 13 23 21 2 0.34388599D+00 0.31651843D-01 0.38083829D+06 0.38083829D+06 0.38083829D+06 0.10769679D+01  1  2  5  2  7  2       -1 -.212459258650D-03 0.100000000000D+01
0.802498560577D-04 0.000000000000D+00 0.111500309348D-04 0.489954610646D-06 0.000000000000D+00  7 1 -1 23 -13 13 23 21 2 0.34388599D+00 0.28101274D-01 0.38083829D+06 0.38083829D+06 0.38083829D+06 0.10769679D+01  1  2  6  2  7  2       -1 0.262634822334D-03 0.100000000000D+01
0.756234658618D-06 0.000000000000D+00 0.000000000000D+00 0.489954610646D-06 0.000000000000D+00  7 1 21 23 -13 13 23 1 2 0.34388599D+00 0.31373253D-01 0.41497064D+06 0.41497064D+06 0.41497064D+06 0.10742792D+01  1  2 12  4  7  2       -1 0.210839329351D-04 0.100000000000D+01
-.144469090801D-05 0.000000000000D+00 -.211534754035D-06 0.489954610646D-06 0.000000000000D+00  7 1 21 23 -13 13 23 1 2 0.34388599D+00 0.31651843D-01 0.38083829D+06 0.38083829D+06 0.38083829D+06 0.10769679D+01  1  2  5  4  7  2       -1 -.400408635146D-04 0.100000000000D+01
  </mgrwgt>
  </event>
  <event>
  8     66 0.56006291E-06 0.29968118E+03 0.75467711E-02 0.10067609E+00
        1 -1    0    0  501    0 0.00000000E+00 0.00000000E+00 0.10327989E+04 0.10327989E+04 0.32000000E+00 0.0000E+00 0.9000E+01
       -1 -1    0    0    0  501 0.00000000E+00 0.00000000E+00 -.29113320E+03 0.29113338E+03 0.32000000E+00 0.0000E+00 0.9000E+01
       25  2    1    2    0    0 0.13566129E+03 -.20110727E+03 -.13567525E+03 0.40915326E+03 0.30025072E+03 0.0000E+00 0.0000E+00
       23  2    1    2    0    0 -.13566129E+03 0.20110727E+03 0.87734092E+03 0.91477905E+03 0.90804686E+02 0.0000E+00 0.0000E+00
       23  1    3    3    0    0 0.23355869E+02 -.17453813E+03 -.16642987E+03 0.25888841E+03 0.91188000E+02 0.0000E+00 0.9000E+01
      -11  1    4    4    0    0 -.14535446E+03 0.18671875E+03 0.75494734E+03 0.79116200E+03 0.51099893E-03 0.0000E+00 0.9000E+01
       11  1    4    4    0    0 0.96931747E+01 0.14388518E+02 0.12239358E+03 0.12361705E+03 0.51099893E-03 0.0000E+00 0.9000E+01
       23  1    3    3    0    0 0.11230542E+03 -.26569143E+02 0.30754619E+02 0.15026485E+03 0.91188000E+02 0.0000E+00 0.9000E+01
#aMCatNLO 1  0  0  2  2 0.63684593D+01 0.00000000D+00  -5  7  0 0.00000000D+00 0.00000000D+00 0.00000000D+00 0.00000000D+00 0.00000000D+00
  <mgrwgt>
 0.1972119216D-03    6    2    0
 0.548344958299963D+03 0.000000000000000D+00 0.000000000000000D+00 0.548344958299963D+03
 0.548344958299963D+03 0.000000000000000D+00 0.000000000000000D+00 -.548344958299963D+03
 0.425084647072743D+03 0.233558694290655D+02 -.174538129554802D+03 -.375995545888089D+03
 0.444543518264936D+03 -.145354463507717D+03 0.186718754428552D+03 0.376333796402079D+03
 0.664595257753374D+02 0.969317472254115D+01 0.143885183641888D+02 0.641551359546874D+02
 0.160602225486909D+03 0.112305419356110D+03 -.265691432379379D+02 -.644933864686771D+02
 0.000000000000000D+00 0.000000000000000D+00 -.000000000000000D+00 0.000000000000000D+00
 0.558277556295445D+03 0.000000000000000D+00 0.000000000000000D+00 0.558277556295445D+03
 0.549375966989731D+03 0.000000000000000D+00 0.000000000000000D+00 -.549375966989731D+03
 0.424217690820923D+03 0.218079913947401D+02 -.172618535635895D+03 -.375995545888089D+03
 0.445924894232083D+03 -.146977367901673D+03 0.188731391946833D+03 0.376333796402079D+03
 0.664903562617760D+02 0.945086972361490D+01 0.146890118088564D+02 0.641551359546874D+02
 0.160075465895484D+03 0.111720975004032D+03 -.258443472273280D+02 -.644933864686771D+02
 0.109451160749102D+02 0.399753177928603D+01 -.495752089246650D+01 0.890158930571469D+01
0.229023804798D-04 0.000000000000D+00 0.000000000000D+00 0.246445534505D-05 0.000000000000D+00  7 1 -1 23 -11 11 23 21 0 0.15889215D+00 0.44789741D-01 0.89808809D+05 0.89808809D+05 0.89808809D+05 0.11255730D+01  1  2  2  2  7  2       -1 0.201306425407D-03 0.100000000000D+01
-.707638496428D-06 0.000000000000D+00 -.879511713776D-07 0.246445534505D-05 0.000000000000D+00  7 1 -1 23 -11 11 23 21 2 0.15889215D+00 0.44789741D-01 0.89808809D+05 0.89808809D+05 0.89808809D+05 0.11255730D+01  1  2  3  2  7  2       -1 -.788017396482D-05 0.100000000000D+01
0.138019462406D-05 0.000000000000D+00 0.000000000000D+00 0.246445534505D-05 0.000000000000D+00  7 1 -1 23 -11 11 23 21 2 0.15889215D+00 0.44789741D-01 0.89808809D+05 0.89808809D+05 0.89808809D+05 0.11255730D+01  1  2 15  2  7  2       -1 0.153696750500D-04 0.100000000000D+01
-.449676496761D-05 0.000000000000D+00 0.000000000000D+00 0.246445534505D-05 0.000000000000D+00  7 1 -1 23 -11 11 23 21 2 0.15889215D+00 0.44789741D-01 0.89808809D+05 0.89808809D+05 0.89808809D+05 0.11255730D+01  1  2  4  2  7  2       -1 -.500754133679D-04 0.100000000000D+01
0.324921433027D-05 0.000000000000D+00 0.000000000000D+00 0.246445534505D-05 0.410052992528D-06  7 1 -1 23 -11 11 23 21 2 0.16177029D+00 0.44873955D-01 0.91806871D+05 0.91806871D+05 0.91806871D+05 0.11247814D+01  1  2 11  2  7  2       -1 0.348587259855D-04 0.100000000000D+01
0.350976218592D-07 0.000000000000D+00 0.000000000000D+00 0.246445534505D-05 0.145008030214D-09  7 1 21 23 -11 11 23 1 2 0.16177029D+00 0.44873955D-01 0.91806871D+05 0.91806871D+05 0.91806871D+05 0.11247814D+01  1  2 11  4  7  2       -1 0.363268246234D-05 0.100000000000D+01
  </mgrwgt>
  </event>
  <event>
  8     66 0.56006291E-06 0.37981630E+03 0.75467711E-02 0.79974121E-01
        1 -1    0    0  501    0 0.00000000E+00 0.00000000E+00 0.15600922E+04 0.15600923E+04 0.32000000E+00 0.0000E+00 0.9000E+01
       -1 -1    0    0    0  501 0.00000000E+00 0.00000000E+00 -.41989564E+03 0.41989577E+03 0.32000000E+00 0.0000E+00 0.9000E+01
       25  2    1    2    0    0 0.28184249E+03 -.15650323E+03 0.14551169E+04 0.15201728E+04 0.29938556E+03 0.0000E+00 0.0000E+00
       23  2    1    2    0    0 -.28184249E+03 0.15650323E+03 -.31492027E+03 0.45981527E+03 0.91251611E+02 0.0000E+00 0.0000E+00
       23  1    3    3    0    0 0.29049201E+03 -.13382554E+03 0.95559480E+03 0.10118160E+04 0.91188000E+02 0.0000E+00 0.9000E+01
      -13  1    4    4    0    0 -.87993113E+02 0.77333879E+01 -.60561648E+02 0.10709957E+03 0.10565837E+00 0.0000E+00 0.9000E+01
       13  1    4    4    0    0 -.19384938E+03 0.14876984E+03 -.25435862E+03 0.35271570E+03 0.10565837E+00 0.0000E+00 0.9000E+01
       23  1    3    3    0    0 -.86495227E+01 -.22677691E+02 0.49952206E+03 0.50835680E+03 0.91188000E+02 0.0000E+00 0.9000E+01
#aMCatNLO 1  0  0  2  1 0.22576444D+04 0.00000000D+00  -5  7  0 0.00000000D+00 0.00000000D+00 0.00000000D+00 0.00000000D+00 0.00000000D+00
  <mgrwgt>
 0.3042228922D-03    3    2    0
 0.809367709749542D+03 0.000000000000000D+00 0.000000000000000D+00 0.809367709749542D+03
 0.809367709749542D+03 0.000000000000000D+00 0.000000000000000D+00 -.809367709749542D+03
 0.564525599386769D+03 0.290492011920002D+03 -.133825535175762D+03 0.456156791207345D+03
 0.173658461247346D+03 -.879929711127172D+02 0.773319882070306D+01 -.149514868269186D+03
 0.610595553818950D+03 -.193849518138059D+03 0.148770027798143D+03 -.559568381424516D+03
 0.269955805046019D+03 -.864952266922631D+01 -.226776914430843D+02 0.252926458486357D+03
 0.000000000000000D+00 0.000000000000000D+00 0.000000000000000D+00 0.000000000000000D+00
 0.309259615073113D+04 0.000000000000000D+00 0.000000000000000D+00 0.309259615073113D+04
 0.213696770495675D+04 0.000000000000000D+00 0.000000000000000D+00 -.213696770495675D+04
 0.735353972710895D+03 -.264762348576880D+03 -.504234166285039D+03 0.456156791207345D+03
 0.394130773047344D+03 -.330528860554040D+03 -.154061814769894D+03 -.149514868269186D+03
 0.115763862530070D+04 -.949165440790348D+03 -.355099111949470D+03 -.559568381424516D+03
 0.490872801708223D+03 -.333643784106332D+03 -.239480454395838D+03 0.252926458486357D+03
 0.245156768292072D+04 0.187810043402760D+04 0.125287554740024D+04 0.955628445774380D+03
0.151387620046D-03 0.000000000000D+00 0.000000000000D+00 0.285224062470D-05 0.000000000000D+00  7 1 -1 23 -13 13 23 21 0 0.24001420D+00 0.64599342D-01 0.14426042D+06 0.14426042D+06 0.14426042D+06 0.11088915D+01  1  2  2  2  7  2       -1 0.288440858326D-03 0.100000000000D+01
-.255723402434D-05 0.000000000000D+00 -.581368322254D-06 0.285224062470D-05 0.000000000000D+00  7 1 -1 23 -13 13 23 21 2 0.24001420D+00 0.64599342D-01 0.14426042D+06 0.14426042D+06 0.14426042D+06 0.11088915D+01  1  2  3  2  7  2       -1 -.599121644042D-05 0.100000000000D+01
0.929348775741D-05 0.000000000000D+00 0.000000000000D+00 0.285224062470D-05 0.000000000000D+00  7 1 -1 23 -13 13 23 21 2 0.24001420D+00 0.64599342D-01 0.14426042D+06 0.14426042D+06 0.14426042D+06 0.11088915D+01  1  2 15  2  7  2       -1 0.217732503600D-04 0.100000000000D+01
  </mgrwgt>
  </event>
  <event>
  8     66 0.56006291E-06 0.28973088E+03 0.75467711E-02 0.96196012E-01
        1 -1    0    0  501    0 0.00000000E+00 0.00000000E+00 0.81624012E+03 0.81624019E+03 0.32000000E+00 0.0000E+00 0.9000E+01
       -1 -1    0    0    0  501 0.00000000E+00 0.00000000E+00 -.23996726E+03 0.23996747E+03 0.32000000E+00 0.0000E+00 0.9000E+01
       25  2    1    2    0    0 -.28253371E+03 0.25763057E+03 0.24453532E+03 0.54188122E+03 0.29603872E+03 0.0000E+00 0.0000E+00
       23  2    1    2    0    0 0.28253371E+03 -.25763057E+03 0.33173754E+03 0.51432644E+03 0.91011457E+02 0.0000E+00 0.0000E+00
       23  1    3    3    0    0 -.62996539E+02 0.56027201E+02 0.18766785E+03 0.22503796E+03 0.91188000E+02 0.0000E+00 0.9000E+01
      -13  1    4    4    0    0 0.14859901E+03 -.17091987E+03 0.24123703E+03 0.33089361E+03 0.10565837E+00 0.0000E+00 0.9000E+01
       13  1    4    4    0    0 0.13393470E+03 -.86710699E+02 0.90500515E+02 0.18343283E+03 0.10565837E+00 0.0000E+00 0.9000E+01
       23  1    3    3    0    0 -.21953717E+03 0.20160337E+03 0.56867468E+02 0.31684325E+03 0.91188000E+02 0.0000E+00 0.9000E+01
#aMCatNLO 1  0  0  1  2 0.47836604D+02 0.00000000D+00  -5  7  0 0.00000000D+00 0.00000000D+00 0.00000000D+00 0.00000000D+00 0.00000000D+00
  <mgrwgt>
 0.3859006703D-03    9    2    0
 0.442573217195406D+03 0.000000000000000D+00 0.000000000000000D+00 0.442573217195406D+03
 0.442573217195406D+03 0.000000000000000D+00 0.000000000000000D+00 -.442573217195406D+03
 0.146347458393328D+03 -.629965393177503D+02 0.560272009406431D+02 0.774255514861254D+02
 0.237784506504197D+03 0.148599032023464D+03 -.170919981333333D+03 0.724303748171097D+02
 0.159962320666993D+03 0.133934680189100D+03 -.867105854184260D+02 -.114332782790917D+02
 0.341052148826296D+03 -.219537172894814D+03 0.201603365811116D+03 -.138422648024143D+03
 0.000000000000000D+00 0.000000000000000D+00 -.000000000000000D+00 0.000000000000000D+00
 0.544764393058771D+03 0.000000000000000D+00 0.000000000000000D+00 0.544764393058771D+03
 0.448852853993822D+03 0.000000000000000D+00 0.000000000000000D+00 -.448852853993822D+03
 0.151032578946922D+03 -.699093067567948D+02 0.601129051469968D+02 0.774255514861254D+02
 0.226517960612748D+03 0.137806058139740D+03 -.164540929935375D+03 0.724303748171097D+02
 0.151580062923603D+03 0.126692700988246D+03 -.824303047429711D+02 -.114332782790917D+02
 0.357307523392020D+03 -.235770939108680D+03 0.211198129050269D+03 -.138422648024143D+03
 0.107179121177300D+03 0.411814867374888D+02 -.243397995189192D+02 0.959115390649491D+02
0.151814059568D-04 0.000000000000D+00 0.000000000000D+00 0.185271759279D-07 0.000000000000D+00  7 1 -1 23 -13 13 23 21 0 0.12557542D+00 0.36918061D-01 0.16889012D+06 0.16889012D+06 0.16889012D+06 0.11035096D+01  1  2  2  1  7  1        1 0.271880082258D-03 0.100000000000D+01
-.837780180959D-06 0.000000000000D+00 -.583005962301D-07 0.185271759279D-07 0.000000000000D+00  7 1 -1 23 -13 13 23 21 2 0.12557542D+00 0.36918061D-01 0.16889012D+06 0.16889012D+06 0.16889012D+06 0.11035096D+01  1  2  3  1  7  1        1 -.182703854071D-04 0.100000000000D+01
0.960692738459D-06 0.000000000000D+00 0.000000000000D+00 0.185271759279D-07 0.000000000000D+00  7 1 -1 23 -13 13 23 21 2 0.12557542D+00 0.36918061D-01 0.16889012D+06 0.16889012D+06 0.16889012D+06 0.11035096D+01  1  2 15  1  7  1        1 0.209508734968D-04 0.100000000000D+01
0.811999106529D-04 0.000000000000D+00 0.000000000000D+00 0.185271759279D-07 0.000000000000D+00  7 1 -1 23 -13 13 23 21 2 0.15532347D+00 0.36918061D-01 0.19039823D+06 0.19039823D+06 0.19039823D+06 0.10994702D+01  1  2 12  1  7  1        1 0.122759723251D-02 0.100000000000D+01
-.812226905706D-04 0.000000000000D+00 0.000000000000D+00 0.185271759279D-07 0.000000000000D+00  7 1 -1 23 -13 13 23 21 2 0.12557542D+00 0.36918061D-01 0.16889012D+06 0.16889012D+06 0.16889012D+06 0.11035096D+01  1  2  4  1  7  1        1 -.177131172860D-02 0.100000000000D+01
-.101358623434D-03 0.000000000000D+00 -.999395829274D-05 0.185271759279D-07 0.000000000000D+00  7 1 -1 23 -13 13 23 21 2 0.15553098D+00 0.36918061D-01 0.16889012D+06 0.16889012D+06 0.16889012D+06 0.11035096D+01  1  2  5  1  7  1        1 -.154553341753D-02 0.100000000000D+01
0.101391943474D-03 0.000000000000D+00 0.976953042273D-05 0.185271759279D-07 0.000000000000D+00  7 1 -1 23 -13 13 23 21 2 0.12557542D+00 0.36918061D-01 0.16889012D+06 0.16889012D+06 0.16889012D+06 0.11035096D+01  1  2  6  1  7  1        1 0.221116460684D-02 0.100000000000D+01
0.243453721282D-05 0.000000000000D+00 0.000000000000D+00 0.185271759279D-07 0.000000000000D+00  7 21 -1 23 -13 13 23 -1 2 0.15532347D+00 0.36918061D-01 0.19039823D+06 0.19039823D+06 0.19039823D+06 0.10994702D+01  1  2 12  3  7  1        1 0.491309668990D-04 0.100000000000D+01
-.292424680414D-05 0.000000000000D+00 -.301063996408D-06 0.185271759279D-07 0.000000000000D+00  7 21 -1 23 -13 13 23 -1 2 0.15553098D+00 0.36918061D-01 0.16889012D+06 0.16889012D+06 0.16889012D+06 0.11035096D+01  1  2  5  3  7  1        1 -.597075602069D-04 0.100000000000D+01
  </mgrwgt>
  </event>
  <event>
  8     66 0.56006291E-06 0.25908511E+03 0.75467711E-02 0.10230167E+00
        1 -1    0    0  501    0 0.00000000E+00 0.00000000E+00 0.16478133E+03 0.16478164E+03 0.32000000E+00 0.0000E+00 0.9000E+01
       -1 -1    0    0    0  501 0.00000000E+00 0.00000000E+00 -.95209229E+03 0.95209235E+03 0.32000000E+00 0.0000E+00 0.9000E+01
       25  2    1    2    0    0 -.68518461E+01 0.21038940E+03 -.93856423E+02 0.38653536E+03 0.31030616E+03 0.0000E+00 0.0000E+00
       23  2    1    2    0    0 0.68518461E+01 -.21038940E+03 -.69345454E+03 0.73033862E+03 0.90579538E+02 0.0000E+00 0.0000E+00
       23  1    3    3    0    0 0.56960079E+02 0.10173577E+03 0.67265093E+02 0.16258678E+03 0.91188000E+02 0.0000E+00 0.9000E+01
      -13  1    4    4    0    0 -.17740748E+02 -.91352764E+02 -.43341815E+03 0.44329603E+03 0.10565837E+00 0.0000E+00 0.9000E+01
       13  1    4    4    0    0 0.24592594E+02 -.11903663E+03 -.26003639E+03 0.28704260E+03 0.10565837E+00 0.0000E+00 0.9000E+01
       23  1    3    3    0    0 -.63811925E+02 0.10865363E+03 -.16112152E+03 0.22394858E+03 0.91188000E+02 0.0000E+00 0.9000E+01
#aMCatNLO 1  0  0  2  2 0.17670547D+02 0.00000000D+00  -5  7  0 0.00000000D+00 0.00000000D+00 0.00000000D+00 0.00000000D+00 0.00000000D+00
  <mgrwgt>
 0.1162530227D-03    4    2    0
 0.396089931734899D+03 0.000000000000000D+00 0.000000000000000D+00 0.396089931734899D+03
 0.396089931734899D+03 0.000000000000000D+00 0.000000000000000D+00 -.396089931734899D+03
 0.296078556954445D+03 0.569600434768811D+02 0.101735803150127D+03 0.256422776579493D+03
 0.194237462473126D+03 -.177408049426783D+02 -.913527436282949D+02 -.170493788448635D+03
 0.146255759601642D+03 0.245926520070327D+02 -.119036681756010D+03 -.813401320409109D+02
 0.155608084440585D+03 -.638118905412356D+02 0.108653622234178D+03 -.458885608994741D+01
 0.000000000000000D+00 0.000000000000000D+00 -.000000000000000D+00 0.000000000000000D+00
 0.781924500421934D+03 0.000000000000000D+00 0.000000000000000D+00 0.781924500421934D+03
 0.396390832003202D+03 0.000000000000000D+00 0.000000000000000D+00 -.396390832003202D+03
 0.295095071854525D+03 0.503952064687381D+02 0.102340279973544D+03 0.256422776579493D+03
 0.194493002994184D+03 -.220575606664305D+02 -.909552655516682D+02 -.170493788448635D+03
 0.145502421578003D+03 0.213527495284742D+02 -.118738358133353D+03 -.813401320409109D+02
 0.157286424183979D+03 -.672865067111105D+02 0.108973557815573D+03 -.458885608994741D+01
 0.385938411814446D+03 0.175961113803288D+02 -.162021410409660D+01 0.385533668418732D+03
0.119124637006D-04 0.000000000000D+00 0.000000000000D+00 0.401974585729D-08 0.000000000000D+00  7 1 -1 23 -13 13 23 21 0 0.25351001D-01 0.14647577D+00 0.67125092D+05 0.67125092D+05 0.67125092D+05 0.11362112D+01  1  2  2  2  7  2       -1 0.114530273893D-03 0.100000000000D+01
-.516814676993D-06 0.000000000000D+00 -.457469972340D-07 0.401974585729D-08 0.000000000000D+00  7 1 -1 23 -13 13 23 21 2 0.25351001D-01 0.14647577D+00 0.67125092D+05 0.67125092D+05 0.67125092D+05 0.11362112D+01  1  2  3  2  7  2       -1 -.641463077729D-05 0.100000000000D+01
0.704539560719D-06 0.000000000000D+00 0.000000000000D+00 0.401974585729D-08 0.000000000000D+00  7 1 -1 23 -13 13 23 21 2 0.25351001D-01 0.14647577D+00 0.67125092D+05 0.67125092D+05 0.67125092D+05 0.11362112D+01  1  2 15  2  7  2       -1 0.874464552033D-05 0.100000000000D+01
-.489262673034D-07 0.000000000000D+00 0.000000000000D+00 0.401974585729D-08 0.000000000000D+00  7 1 -1 23 -13 13 23 21 2 0.25351001D-01 0.14647577D+00 0.67125092D+05 0.67125092D+05 0.67125092D+05 0.11362112D+01  1  2  4  2  7  2       -1 -.607265919553D-06 0.100000000000D+01
  </mgrwgt>
  </event>
  <event>
  9     66 0.56006291E-06 0.21247360E+03 0.75467711E-02 0.10482753E+00
        3 -1    0    0  501    0 0.00000000E+00 0.00000000E+00 0.12048778E+03 0.12048882E+03 0.50000000E+00 0.0000E+00 0.9000E+01
       -3 -1    0    0    0  502 0.00000000E+00 0.00000000E+00 -.86567553E+03 0.86567567E+03 0.50000000E+00 0.0000E+00 0.9000E+01
       25  2    1    2    0    0 -.10419100E+03 -.32563164E+02 -.12398860E+03 0.34246278E+03 0.29998577E+03 0.0000E+00 0.0000E+00
       23  2    1    2    0    0 0.84040069E+02 0.33396365E+02 -.43694583E+03 0.45834638E+03 0.10479357E+03 0.0000E+00 0.0000E+00
       23  1    3    3    0    0 0.53623121E+02 -.52171605E+02 -.10544136E+03 0.15821013E+03 0.91188000E+02 0.0000E+00 0.9000E+01
      -13  1    4    4    0    0 -.57462548E-01 -.22318566E+02 -.22092735E+02 0.31404168E+02 0.10565837E+00 0.0000E+00 0.9000E+01
       13  1    4    4    0    0 0.84097532E+02 0.55714931E+02 -.41485309E+03 0.42694221E+03 0.10565837E+00 0.0000E+00 0.9000E+01
       23  1    3    3    0    0 -.15781412E+03 0.19608441E+02 -.18547245E+02 0.18425265E+03 0.91188000E+02 0.0000E+00 0.9000E+01
       21  1    1    2  501  502 0.20150928E+02 -.83320130E+00 -.18425332E+03 0.18535534E+03 0.75000000E+00 0.0000E+00 0.9000E+01
#aMCatNLO 2  0  0  2  1 0.20168146D+02 0.00000000D+00  -5  7  0 0.00000000D+00 0.00000000D+00 0.00000000D+00 0.00000000D+00 0.00000000D+00
  <mgrwgt>
 0.1616641050D-05    2    2    0
 0.285587604396189D+03 0.000000000000000D+00 0.000000000000000D+00 0.285587604396189D+03
 0.285587604396189D+03 0.000000000000000D+00 0.000000000000000D+00 -.285587604396189D+03
 0.120233614492503D+03 0.578275956682702D+02 -.523454573119209D+02 0.753611225796416D+01
 0.223634886562201D+02 0.730430464372059D+00 -.223511580099689D+02 -.133535864106939D+00
 0.194059854692904D+03 0.908889016670747D+02 0.554341533846585D+02 -.162251315543850D+03
 0.234518250950752D+03 -.149446927799717D+03 0.192624619372314D+02 0.154848739149993D+03
 0.000000000000000D+00 0.000000000000000D+00 -.000000000000000D+00 -.000000000000000D+00
 0.287076658751957D+03 0.000000000000000D+00 0.000000000000000D+00 0.287076658751957D+03
 0.363326713750528D+03 0.000000000000000D+00 0.000000000000000D+00 -.363326713750528D+03
 0.118192041192571D+03 0.536231050162666D+02 -.521716098823516D+02 0.753611225796416D+01
 0.223190514521232D+02 -.575188091803267D-01 -.223185778552782D+02 -.133535864106939D+00
 0.191055118199990D+03 0.840976345996852D+02 0.557149589377930D+02 -.162251315543850D+03
 0.239964954771694D+03 -.157814149008611D+03 0.196084300984667D+02 0.154848739149993D+03
 0.788722068861065D+02 0.201509282018400D+02 -.833201298629901D+00 -.762500549985706D+02
-.346941327845D-04 0.000000000000D+00 0.000000000000D+00 0.611193963116D-08 0.000000000000D+00  7 3 -3 23 -13 13 23 21 2 0.18440410D-01 0.13340217D+00 0.49424874D+05 0.49424874D+05 0.49424874D+05 0.11477376D+01  1  2 13  2  7  2       -3 -.181910401454D-03 0.100000000000D+01
0.351444269477D-04 0.000000000000D+00 0.000000000000D+00 0.611193963116D-08 0.109017800736D-09  7 3 -3 23 -13 13 23 21 2 0.18536558D-01 0.13318012D+00 0.49424874D+05 0.49424874D+05 0.49424874D+05 0.11477376D+01  1  2  1  2  7  2       -3 0.183527042504D-03 0.100000000000D+01
  </mgrwgt>
  </event>
  <event>
  8     66 0.56006291E-06 0.24960874E+03 0.75467711E-02 0.88904606E-01
        1 -1    0    0  501    0 0.00000000E+00 0.00000000E+00 0.91817686E+03 0.91817692E+03 0.32000000E+00 0.0000E+00 0.9000E+01
       -1 -1    0    0    0  501 0.00000000E+00 0.00000000E+00 -.55119403E+03 0.55119412E+03 0.32000000E+00 0.0000E+00 0.9000E+01
       25  2    1    2    0    0 -.20250113E+03 -.22632387E+02 0.85705781E+03 0.93064350E+03 0.30005051E+03 0.0000E+00 0.0000E+00
       23  2    1    2    0    0 0.20250113E+03 0.22632387E+02 -.49007498E+03 0.53872753E+03 0.92384714E+02 0.0000E+00 0.0000E+00
       23  1    3    3    0    0 -.84188203E+02 -.38180003E+02 0.11472103E+03 0.17326723E+03 0.91188000E+02 0.0000E+00 0.9000E+01
      -11  1    4    4    0    0 0.16868936E+03 -.14079792E+02 -.41878830E+03 0.45170563E+03 0.51099893E-03 0.0000E+00 0.9000E+01
       11  1    4    4    0    0 0.33811773E+02 0.36712179E+02 -.71286685E+02 0.87021903E+02 0.51099893E-03 0.0000E+00 0.9000E+01
       23  1    3    3    0    0 -.11831293E+03 0.15547616E+02 0.74233678E+03 0.75737628E+03 0.91188000E+02 0.0000E+00 0.9000E+01
#aMCatNLO 1  0  0  2  1 0.78295539D+03 0.00000000D+00  -5  7  0 0.00000000D+00 0.00000000D+00 0.00000000D+00 0.00000000D+00 0.00000000D+00
  <mgrwgt>
 0.3069322515D-03    5    2    0
 0.711402637515914D+03 0.000000000000000D+00 0.000000000000000D+00 0.711402637515914D+03
 0.711402637515914D+03 0.000000000000000D+00 0.000000000000000D+00 -.711402637515914D+03
 0.149348053689538D+03 -.841882029723474D+02 -.381800029325934D+02 0.737849825723856D+02
 0.574506786361138D+03 0.168689360241160D+03 -.140797917049029D+02 -.549002465187523D+03
 0.108256875042343D+03 0.338117727346440D+02 0.367121791014903D+02 -.960652430595710D+02
 0.590693559938808D+03 -.118312930003456D+03 0.155476155360060D+02 0.571282725674708D+03
 0.000000000000000D+00 0.000000000000000D+00 0.000000000000000D+00 -.000000000000000D+00
 0.104444720144971D+04 0.000000000000000D+00 0.000000000000000D+00 0.104444720144971D+04
 0.147132071593260D+04 0.000000000000000D+00 0.000000000000000D+00 -.147132071593260D+04
 0.191793286957472D+03 -.847865388720903D+02 -.125842889154833D+03 0.737849825723856D+02
 0.662862555680002D+03 0.166519108763633D+03 -.332045851287457D+03 -.549002465187523D+03
 0.103236720104015D+03 0.334408290949732D+02 -.176352035196961D+02 -.960652430595710D+02
 0.666112976673255D+03 -.120517272838190D+03 -.307413208307363D+03 0.571282725674708D+03
 0.891762377967559D+03 0.534387385167365D+01 0.782937152269349D+03 -.426873514482893D+03
0.791167044379D-04 0.000000000000D+00 0.000000000000D+00 0.463436919285D-05 0.000000000000D+00  7 1 -1 23 -11 11 23 21 0 0.14125799D+00 0.84799093D-01 0.62304522D+05 0.62304522D+05 0.62304522D+05 0.11389845D+01  1  2  2  2  7  2       -1 0.259843246499D-03 0.100000000000D+01
0.146676255594D-05 0.000000000000D+00 -.303828976948D-06 0.463436919285D-05 0.000000000000D+00  7 1 -1 23 -11 11 23 21 2 0.14125799D+00 0.84799093D-01 0.62304522D+05 0.62304522D+05 0.62304522D+05 0.11389845D+01  1  2  3  2  7  2       -1 0.624940570830D-05 0.100000000000D+01
0.462467151445D-05 0.000000000000D+00 0.000000000000D+00 0.463436919285D-05 0.000000000000D+00  7 1 -1 23 -11 11 23 21 2 0.14125799D+00 0.84799093D-01 0.62304522D+05 0.62304522D+05 0.62304522D+05 0.11389845D+01  1  2 15  2  7  2       -1 0.197042448653D-04 0.100000000000D+01
0.374176951892D-04 0.000000000000D+00 -.227149270269D-04 0.463436919285D-05 0.000000000000D+00  7 1 -1 23 -11 11 23 21 2 0.14125799D+00 0.22470490D+00 0.62304522D+05 0.62304522D+05 0.62304522D+05 0.11389845D+01  1  2  5  2  7  2       -1 0.104787722741D-04 0.100000000000D+01
0.540017761782D-05 0.000000000000D+00 -.246079874377D-05 0.463436919285D-05 0.000000000000D+00  7 1 21 23 -11 11 23 1 2 0.14125799D+00 0.22470490D+00 0.62304522D+05 0.62304522D+05 0.62304522D+05 0.11389845D+01  1  2  5  4  7  2       -1 0.106565821928D-04 0.100000000000D+01
  </mgrwgt>
  </event>
  <event>
  8     66 0.56006291E-06 0.43599605E+03 0.75467711E-02 0.94121771E-01
        1 -1    0    0  501    0 0.00000000E+00 0.00000000E+00 0.19819687E+04 0.19819687E+04 0.32000000E+00 0.0000E+00 0.9000E+01
       -1 -1    0    0    0  501 0.00000000E+00 0.00000000E+00 -.21416245E+03 0.21416268E+03 0.32000000E+00 0.0000E+00 0.9000E+01
       25  2    1    2    0    0 0.35483169E+03 0.14239582E+03 0.11926298E+03 0.50136955E+03 0.30160515E+03 0.0000E+00 0.0000E+00
       23  2    1    2    0    0 -.35483169E+03 -.14239582E+03 0.16485433E+04 0.16947619E+04 0.91327622E+02 0.0000E+00 0.0000E+00
       23  1    3    3    0    0 0.18373908E+03 -.48157309E+02 0.85703557E+02 0.22746324E+03 0.91188000E+02 0.0000E+00 0.9000E+01
      -13  1    4    4    0    0 -.40184570E+00 0.54169257E+01 0.68770714E+02 0.68984976E+02 0.10565837E+00 0.0000E+00 0.9000E+01
       13  1    4    4    0    0 -.35442985E+03 -.14781275E+03 0.15797726E+04 0.16257769E+04 0.10565837E+00 0.0000E+00 0.9000E+01
       23  1    3    3    0    0 0.17109262E+03 0.19055313E+03 0.33559424E+02 0.27390631E+03 0.91188000E+02 0.0000E+00 0.9000E+01
#aMCatNLO 1  0  0  1  1 0.15664383D+03 0.00000000D+00  -5  7  0 0.00000000D+00 0.00000000D+00 0.00000000D+00 0.00000000D+00 0.00000000D+00
  <mgrwgt>
 0.1279580102D-03    4    2    0
 0.651508675816317D+03 0.000000000000000D+00 0.000000000000000D+00 0.651508675816317D+03
 0.651508675816317D+03 0.000000000000000D+00 0.000000000000000D+00 -.651508675816317D+03
 0.267096892586914D+03 0.183739078127693D+03 -.481573088200035D+02 -.164153353488699D+03
 0.229665186238367D+02 -.401371859899371D+00 0.541713080548043D+01 0.223148957462372D+02
 0.596836926640875D+03 -.354430322229668D+03 -.147812955203372D+03 0.456885974790588D+03
 0.416117013781008D+03 0.171092615961874D+03 0.190553133217895D+03 -.315047517048126D+03
 0.000000000000000D+00 0.000000000000000D+00 -.000000000000000D+00 -.000000000000000D+00
 0.722374394194410D+03 0.000000000000000D+00 0.000000000000000D+00 0.722374394194410D+03
 0.748898310572747D+03 0.000000000000000D+00 0.000000000000000D+00 -.748898310572747D+03
 0.258328089193018D+03 0.176535378194428D+03 -.175239010006511D+02 -.164153353488699D+03
 0.237768589224543D+02 -.104223454703337D+01 0.814237036751791D+01 0.223148957462372D+02
 0.593590140224553D+03 -.370751356972031D+03 -.784084938948342D+02 0.456885974790588D+03
 0.436704054183219D+03 0.159400238774993D+03 0.240274437833795D+03 -.315047517048126D+03
 0.158873562243912D+03 0.358579745496442D+02 -.152484413305828D+03 -.265239163783363D+02
0.899165292152D-04 0.000000000000D+00 0.000000000000D+00 0.788559181233D-06 0.000000000000D+00  7 1 -1 23 -13 13 23 21 0 0.30491828D+00 0.32948089D-01 0.19009255D+06 0.19009255D+06 0.19009255D+06 0.10995241D+01  1  2  2  1  7  1        1 0.296739014449D-03 0.100000000000D+01
-.401551099960D-05 0.000000000000D+00 -.345303147752D-06 0.788559181233D-06 0.000000000000D+00  7 1 -1 23 -13 13 23 21 2 0.30491828D+00 0.32948089D-01 0.19009255D+06 0.19009255D+06 0.19009255D+06 0.10995241D+01  1  2  3  1  7  1        1 -.160208445090D-04 0.100000000000D+01
0.542433046522D-05 0.000000000000D+00 0.000000000000D+00 0.788559181233D-06 0.000000000000D+00  7 1 -1 23 -13 13 23 21 2 0.30491828D+00 0.32948089D-01 0.19009255D+06 0.19009255D+06 0.19009255D+06 0.10995241D+01  1  2 15  1  7  1        1 0.216416677621D-04 0.100000000000D+01
-.437125805847D-04 0.000000000000D+00 0.000000000000D+00 0.788559181233D-06 0.000000000000D+00  7 1 -1 23 -13 13 23 21 2 0.30491828D+00 0.32948089D-01 0.19009255D+06 0.19009255D+06 0.19009255D+06 0.10995241D+01  1  2  4  1  7  1        1 -.174401827489D-03 0.100000000000D+01
  </mgrwgt>
  </event>
  <event>
  8     66 0.56006291E-06 0.24037685E+03 0.75467711E-02 0.10364772E+00
        1 -1    0    0  501    0 0.00000000E+00 0.00000000E+00 0.17958428E+03 0.17958457E+03 0.32000000E+00 0.0000E+00 0.9000E+01
       -1 -1    0    0    0  501 0.00000000E+00 0.00000000E+00 -.41807082E+03 0.41807095E+03 0.32000000E+00 0.0000E+00 0.9000E+01
       25  2    1    2    0    0 -.10515983E+03 0.12010797E+03 -.24071715E+03 0.41627808E+03 0.29976354E+03 0.0000E+00 0.0000E+00
       23  2    1    2    0    0 0.10515983E+03 -.12010797E+03 0.22306099E+01 0.18137743E+03 0.86071380E+02 0.0000E+00 0.0000E+00
       23  1    3    3    0    0 -.15622533E+03 0.79897286E+02 -.23069231E+03 0.30384885E+03 0.91188000E+02 0.0000E+00 0.9000E+01
      -11  1    4    4    0    0 0.10692230E+03 -.86941081E+02 0.26382380E+02 0.14031094E+03 0.51099893E-03 0.0000E+00 0.9000E+01
       11  1    4    4    0    0 -.17624687E+01 -.33166888E+02 -.24151770E+02 0.41066492E+02 0.51099893E-03 0.0000E+00 0.9000E+01
       23  1    3    3    0    0 0.51065496E+02 0.40210683E+02 -.10024844E+02 0.11242923E+03 0.91188000E+02 0.0000E+00 0.9000E+01
#aMCatNLO 1  0  0  2  2 0.35072466D+01 0.00000000D+00  -5  7  0 0.00000000D+00 0.00000000D+00 0.00000000D+00 0.00000000D+00 0.00000000D+00
  <mgrwgt>
 0.1756773901D-03    6    2    0
 0.274005601631905D+03 0.000000000000000D+00 0.000000000000000D+00 0.274005601631905D+03
 0.274005601631905D+03 0.000000000000000D+00 0.000000000000000D+00 -.274005601631905D+03
 0.230980545082131D+03 -.156225325364708D+03 0.798972860093270D+02 -.119360094945813D+03
 0.164502928837944D+03 0.106922297839360D+03 -.869410809593101D+02 0.898336477197691D+02
 0.342762027358978D+02 -.176246872027120D+01 -.331668882004823D+02 -.846813468829702D+01
 0.118251526607837D+03 0.510654962456187D+02 0.402106831504653D+02 0.379945819143406D+02
 0.000000000000000D+00 -.000000000000000D+00 0.000000000000000D+00 0.000000000000000D+00
 0.278780964817675D+03 0.000000000000000D+00 0.000000000000000D+00 0.278780964817675D+03
 0.274655941590725D+03 0.000000000000000D+00 0.000000000000000D+00 -.274655941590725D+03
 0.230303359769014D+03 -.155961326519159D+03 0.784450032940695D+02 -.119360094945813D+03
 0.165176132437253D+03 0.107110977502065D+03 -.879790256984112D+02 0.898336477197691D+02
 0.344837313229026D+02 -.172311650567919D+01 -.333833684693269D+02 -.846813468829702D+01
 0.118059202728487D+03 0.512007399839748D+02 0.394666945047835D+02 0.379945819143406D+02
 0.541448015074317D+01 -.627274461201497D+00 0.345069636888510D+01 0.412502322695028D+01
0.298416572100D-05 0.000000000000D+00 0.000000000000D+00 0.163834321743D-07 0.000000000000D+00  7 1 -1 23 -11 11 23 21 0 0.27628382D-01 0.64318620D-01 0.57781028D+05 0.57781028D+05 0.57781028D+05 0.11418108D+01  1  2  2  2  7  2       -1 0.159302292939D-03 0.100000000000D+01
-.162330926554D-06 0.000000000000D+00 -.114599821175D-07 0.163834321743D-07 0.000000000000D+00  7 1 -1 23 -11 11 23 21 2 0.27628382D-01 0.64318620D-01 0.57781028D+05 0.57781028D+05 0.57781028D+05 0.11418108D+01  1  2  3  2  7  2       -1 -.112976646265D-04 0.100000000000D+01
0.193835927277D-06 0.000000000000D+00 0.000000000000D+00 0.163834321743D-07 0.000000000000D+00  7 1 -1 23 -11 11 23 21 2 0.27628382D-01 0.64318620D-01 0.57781028D+05 0.57781028D+05 0.57781028D+05 0.11418108D+01  1  2 15  2  7  2       -1 0.134903024668D-04 0.100000000000D+01
-.430038910120D-05 0.000000000000D+00 0.000000000000D+00 0.163834321743D-07 0.000000000000D+00  7 1 -1 23 -11 11 23 21 2 0.27628382D-01 0.64318620D-01 0.57781028D+05 0.57781028D+05 0.57781028D+05 0.11418108D+01  1  2  4  2  7  2       -1 -.299292037938D-03 0.100000000000D+01
0.429010198421D-05 0.000000000000D+00 0.000000000000D+00 0.163834321743D-07 0.925339523071D-08  7 1 -1 23 -11 11 23 21 2 0.28109889D-01 0.64471277D-01 0.58632618D+05 0.58632618D+05 0.58632618D+05 0.11412605D+01  1  2 11  2  7  2       -1 0.290393932184D-03 0.100000000000D+01
0.395830962349D-07 0.000000000000D+00 0.000000000000D+00 0.163834321743D-07 0.412902777829D-11  7 1 21 23 -11 11 23 1 2 0.28109889D-01 0.64471277D-01 0.58632618D+05 0.58632618D+05 0.58632618D+05 0.11412605D+01  1  2 11  4  7  2       -1 0.230805650978D-04 0.100000000000D+01
  </mgrwgt>
  </event>
  <event>
  8     66 0.56006291E-06 0.86893708E+02 0.75467711E-02 0.10046600E+00
        1 -1    0    0  501    0 0.00000000E+00 0.00000000E+00 0.14553245E+03 0.14553280E+03 0.32000000E+00 0.0000E+00 0.9000E+01
       -1 -1    0    0    0  501 0.00000000E+00 0.00000000E+00 -.74658854E+03 0.74658860E+03 0.32000000E+00 0.0000E+00 0.9000E+01
       25  2    1    2    0    0 0.17957101E+03 -.16847019E+03 -.43204044E+03 0.57954041E+03 0.29762424E+03 0.0000E+00 0.0000E+00
       23  2    1    2    0    0 -.17957101E+03 0.16847019E+03 -.16901565E+03 0.31258100E+03 0.92263960E+02 0.0000E+00 0.0000E+00
       23  1    3    3    0    0 0.16397180E+03 -.10869630E+03 -.41480094E+03 0.46805631E+03 0.91188000E+02 0.0000E+00 0.9000E+01
      -11  1    4    4    0    0 0.97064001E+01 0.17714401E+02 -.19855337E+02 0.28323994E+02 0.51099893E-03 0.0000E+00 0.9000E+01
       11  1    4    4    0    0 -.18927741E+03 0.15075579E+03 -.14916031E+03 0.28425700E+03 0.51099893E-03 0.0000E+00 0.9000E+01
       23  1    3    3    0    0 0.15599211E+02 -.59773883E+02 -.17239501E+02 0.11148410E+03 0.91188000E+02 0.0000E+00 0.9000E+01
#aMCatNLO 1  0  0  2  1 0.26763404D+02 0.00000000D+00  -5  7  0 0.00000000D+00 0.00000000D+00 0.00000000D+00 0.00000000D+00 0.00000000D+00
  <mgrwgt>
 0.3498496228D-03    6    2    0
 0.329625613069849D+03 0.000000000000000D+00 0.000000000000000D+00 0.329625613069849D+03
 0.329625613069849D+03 0.000000000000000D+00 0.000000000000000D+00 -.329625613069849D+03
 0.255205322648090D+03 0.163971800941881D+03 -.108696304286390D+03 -.134584052897334D+03
 0.202263862311994D+02 0.970640013844747D+01 0.177144012650597D+02 -.104521966421012D+01
 0.248673097010701D+03 -.189277412042084D+03 0.150755785821326D+03 0.573154735559183D+02
 0.135146420249707D+03 0.155992109617552D+02 -.597738827999954D+02 0.783137990056259D+02
 0.000000000000000D+00 -.000000000000000D+00 -.000000000000000D+00 0.000000000000000D+00
 0.344937816658726D+03 0.000000000000000D+00 0.000000000000000D+00 0.344937816658726D+03
 0.341802828222097D+03 0.000000000000000D+00 0.000000000000000D+00 -.341802828222097D+03
 0.254510014899169D+03 0.168671837512027D+03 -.994838694262499D+02 -.134584052897334D+03
 0.210627168887552D+02 0.100871230249631D+02 0.184606475419651D+02 -.104521966421012D+01
 0.250837544593111D+03 -.184671472001096D+03 0.159783784213263D+03 0.573154735559183D+02
 0.133383978626829D+03 0.180753041885918D+02 -.549205487419669D+02 0.783137990056259D+02
 0.269463898729583D+02 -.121627927244858D+02 -.238400135870109D+02 0.313498843662961D+01
0.108717272154D-04 0.000000000000D+00 0.000000000000D+00 0.204448482908D-07 0.000000000000D+00  7 1 -1 23 -11 11 23 21 0 0.22389640D-01 0.11485981D+00 0.86775618D+05 0.86775618D+05 0.86775618D+05 0.11268126D+01  1  2  2  2  7  2       -1 0.226605892562D-03 0.100000000000D+01
-.594704338004D-06 0.000000000000D+00 -.417502950985D-07 0.204448482908D-07 0.000000000000D+00  7 1 -1 23 -11 11 23 21 2 0.22389640D-01 0.11485981D+00 0.86775618D+05 0.86775618D+05 0.86775618D+05 0.11268126D+01  1  2  3  2  7  2       -1 -.157389990601D-04 0.100000000000D+01
0.691897147110D-06 0.000000000000D+00 0.000000000000D+00 0.204448482908D-07 0.000000000000D+00  7 1 -1 23 -11 11 23 21 2 0.22389640D-01 0.11485981D+00 0.86775618D+05 0.86775618D+05 0.86775618D+05 0.11268126D+01  1  2 15  2  7  2       -1 0.183112310642D-04 0.100000000000D+01
0.199027941191D-04 0.000000000000D+00 0.000000000000D+00 0.204448482908D-07 0.000000000000D+00  7 1 -1 23 -11 11 23 21 2 0.22389640D-01 0.12166295D+00 0.94860936D+05 0.94860936D+05 0.94860936D+05 0.11236071D+01  1  2 12  2  7  2       -1 0.455197301017D-03 0.100000000000D+01
-.138810392737D-04 0.000000000000D+00 0.000000000000D+00 0.204448482908D-07 0.000000000000D+00  7 1 -1 23 -11 11 23 21 2 0.22389640D-01 0.11485981D+00 0.86775618D+05 0.86775618D+05 0.86775618D+05 0.11268126D+01  1  2  4  2  7  2       -1 -.367365176475D-03 0.100000000000D+01
0.212286359786D-06 0.000000000000D+00 0.000000000000D+00 0.204448482908D-07 0.000000000000D+00  7 1 21 23 -11 11 23 1 2 0.22389640D-01 0.12166295D+00 0.94860936D+05 0.94860936D+05 0.94860936D+05 0.11236071D+01  1  2 12  4  7  2       -1 0.328393737397D-04 0.100000000000D+01
  </mgrwgt>
  </event>
  <event>
  8     66 0.56006291E-06 0.77875078E+02 0.75467711E-02 0.10607070E+00
        1 -1    0    0  501    0 0.00000000E+00 0.00000000E+00 0.65651285E+02 0.65652065E+02 0.32000000E+00 0.0000E+00 0.9000E+01
       -1 -1    0    0    0  501 0.00000000E+00 0.00000000E+00 -.77798606E+03 0.77798613E+03 0.32000000E+00 0.0000E+00 0.9000E+01
       25  2    1    2    0    0 -.91313722E+01 0.79520485E+01 -.68546469E+03 0.74799904E+03 0.29915566E+03 0.0000E+00 0.0000E+00
       23  2    1    2    0    0 0.91313722E+01 -.79520485E+01 -.26870084E+02 0.95639148E+02 0.90984769E+02 0.0000E+00 0.0000E+00
       23  1    3    3    0    0 -.48672646E+02 0.55976124E+02 -.59140502E+03 0.60297388E+03 0.91188000E+02 0.0000E+00 0.9000E+01
      -11  1    4    4    0    0 -.32393437E+02 -.16981939E+01 -.40131434E+02 0.51601847E+02 0.51099893E-03 0.0000E+00 0.9000E+01
       11  1    4    4    0    0 0.41524809E+02 -.62538547E+01 0.13261350E+02 0.44037301E+02 0.51099893E-03 0.0000E+00 0.9000E+01
       23  1    3    3    0    0 0.39541274E+02 -.48024075E+02 -.94059671E+02 0.14502516E+03 0.91188000E+02 0.0000E+00 0.9000E+01
#aMCatNLO 1  0  0  2  1 0.98162529D+02 0.00000000D+00  -5  7  0 0.00000000D+00 0.00000000D+00 0.00000000D+00 0.00000000D+00 0.00000000D+00
  <mgrwgt>
 0.1587526744D-03    9    2    0
 0.226000312344768D+03 0.000000000000000D+00 0.000000000000000D+00 0.226000312344768D+03
 0.226000312344768D+03 0.000000000000000D+00 0.000000000000000D+00 -.226000312344768D+03
 0.193392282859565D+03 -.486726460204935D+02 0.559761236760769D+02 -.153567479738382D+03
 0.330669298623712D+02 -.323934371286333D+02 -.169819389068092D+01 0.641897336229981D+01
 0.103092931782998D+03 0.415248093840041D+02 -.625385465810540D+01 0.941527062338165D+02
 0.122448480184602D+03 0.395412737651227D+02 -.480240751272905D+02 0.529958001422653D+02
 0.000000000000000D+00 0.000000000000000D+00 0.000000000000000D+00 -.000000000000000D+00
 0.266486262487200D+03 0.000000000000000D+00 0.000000000000000D+00 0.266486262487200D+03
 0.299670599583133D+03 0.000000000000000D+00 0.000000000000000D+00 -.299670599583133D+03
 0.200397049604310D+03 -.844816646394997D+02 0.335201976821902D+02 -.153567479738382D+03
 0.399936967472948D+02 -.390371654445134D+02 -.586449269300858D+01 0.641897336229981D+01
 0.985775507570491D+02 0.231860138178672D+02 -.177541596631583D+02 0.941527062338165D+02
 0.123568671043026D+03 0.171698380185407D+02 -.620532589719323D+02 0.529958001422653D+02
 0.103619893918653D+03 0.831629782476052D+02 0.521517136459090D+02 -.331843370959322D+02
0.268658690021D-05 0.000000000000D+00 0.000000000000D+00 0.957422748887D-07 0.000000000000D+00  7 1 -1 23 -11 11 23 21 0 0.10100263D-01 0.11969023D+00 0.22856202D+05 0.22856202D+05 0.22856202D+05 0.11784563D+01  1  2  2  2  7  2       -1 0.145812889307D-03 0.100000000000D+01
-.119921279677D-06 0.000000000000D+00 -.103172010914D-07 0.957422748887D-07 0.000000000000D+00  7 1 -1 23 -11 11 23 21 2 0.10100263D-01 0.11969023D+00 0.22856202D+05 0.22856202D+05 0.22856202D+05 0.11784563D+01  1  2  3  2  7  2       -1 -.903895481014D-05 0.100000000000D+01
0.163730837590D-06 0.000000000000D+00 0.000000000000D+00 0.957422748887D-07 0.000000000000D+00  7 1 -1 23 -11 11 23 21 2 0.10100263D-01 0.11969023D+00 0.22856202D+05 0.22856202D+05 0.22856202D+05 0.11784563D+01  1  2 15  2  7  2       -1 0.123410594516D-04 0.100000000000D+01
0.435933783377D-06 0.000000000000D+00 0.000000000000D+00 0.957422748887D-07 0.000000000000D+00  7 1 -1 23 -11 11 23 21 2 0.10100263D-01 0.16660217D+00 0.41456153D+05 0.41456153D+05 0.41456153D+05 0.11545232D+01  1  2 12  2  7  2       -1 0.129229048527D-04 0.100000000000D+01
-.140306603919D-05 0.000000000000D+00 0.000000000000D+00 0.957422748887D-07 0.000000000000D+00  7 1 -1 23 -11 11 23 21 2 0.10100263D-01 0.11969023D+00 0.22856202D+05 0.22856202D+05 0.22856202D+05 0.11784563D+01  1  2  4  2  7  2       -1 -.105754796464D-03 0.100000000000D+01
-.166791796906D-05 0.000000000000D+00 -.101224769078D-05 0.957422748887D-07 0.000000000000D+00  7 1 -1 23 -11 11 23 21 2 0.10100263D-01 0.17734679D+00 0.22856202D+05 0.22856202D+05 0.22856202D+05 0.11784563D+01  1  2  5  2  7  2       -1 -.428721742424D-04 0.100000000000D+01
0.198407936879D-05 0.000000000000D+00 0.938740305501D-06 0.957422748887D-07 0.000000000000D+00  7 1 -1 23 -11 11 23 21 2 0.10100263D-01 0.11969023D+00 0.22856202D+05 0.22856202D+05 0.22856202D+05 0.11784563D+01  1  2  6  2  7  2       -1 0.149548135265D-03 0.100000000000D+01
0.180774938805D-07 0.000000000000D+00 0.000000000000D+00 0.957422748887D-07 0.000000000000D+00  7 1 21 23 -11 11 23 1 2 0.10100263D-01 0.16660217D+00 0.41456153D+05 0.41456153D+05 0.41456153D+05 0.11545232D+01  1  2 12  4  7  2       -1 0.354150918445D-05 0.100000000000D+01
-.446493392767D-07 0.000000000000D+00 -.475812212667D-07 0.957422748887D-07 0.000000000000D+00  7 1 21 23 -11 11 23 1 2 0.10100263D-01 0.17734679D+00 0.22856202D+05 0.22856202D+05 0.22856202D+05 0.11784563D+01  1  2  5  4  7  2       -1 -.774789819488D-05 0.100000000000D+01
  </mgrwgt>
  </event>
  <event>
  8     66 0.56006291E-06 0.20296455E+03 0.75467711E-02 0.93679500E-01
        1 -1    0    0  501    0 0.00000000E+00 0.00000000E+00 0.73115597E+03 0.73115604E+03 0.32000000E+00 0.0000E+00 0.9000E+01
       -1 -1    0    0    0  501 0.00000000E+00 0.00000000E+00 -.16328875E+03 0.16328906E+03 0.32000000E+00 0.0000E+00 0.9000E+01
       25  2    1    2    0    0 0.55450464E+02 -.49107460E+02 0.66998618E+03 0.73804689E+03 0.30057518E+03 0.0000E+00 0.0000E+00
       23  2    1    2    0    0 -.55450464E+02 0.49107460E+02 -.10211896E+03 0.15639820E+03 0.92443604E+02 0.0000E+00 0.0000E+00
       23  1    3    3    0    0 -.28745982E+01 0.93158193E+02 0.30150222E+03 0.32848981E+03 0.91188000E+02 0.0000E+00 0.9000E+01
      -13  1    4    4    0    0 0.10605136E+02 -.46767994E+01 -.60484426E+02 0.61585049E+02 0.10565837E+00 0.0000E+00 0.9000E+01
       13  1    4    4    0    0 -.66055600E+02 0.53784260E+02 -.41634534E+02 0.94813155E+02 0.10565837E+00 0.0000E+00 0.9000E+01
       23  1    3    3    0    0 0.58325062E+02 -.14226565E+03 0.36848396E+03 0.40955709E+03 0.91188000E+02 0.0000E+00 0.9000E+01
#aMCatNLO 1  0  0  2  2 0.45853791D+03 0.00000000D+00  -5  7  0 0.00000000D+00 0.00000000D+00 0.00000000D+00 0.00000000D+00 0.00000000D+00
  <mgrwgt>
 0.1751985297D-03    5    2    0
 0.345528166075355D+03 0.000000000000000D+00 0.000000000000000D+00 0.345528166075355D+03
 0.345528166075355D+03 0.000000000000000D+00 0.000000000000000D+00 -.345528166075355D+03
 0.177413711917620D+03 -.287459812847608D+01 0.931581926051541D+02 0.120306532110809D+03
 0.129412812121526D+03 0.106052345857878D+02 -.467687475841445D+01 -.128892714235817D+03
 0.156930872963106D+03 -.660556987454423D+02 0.537843352579125D+02 -.131799805891656D+03
 0.227298935148457D+03 0.583250622881306D+02 -.142265653104652D+03 0.140385988016665D+03
 0.000000000000000D+00 0.000000000000000D+00 -.000000000000000D+00 -.000000000000000D+00
 0.525216090711807D+03 0.000000000000000D+00 0.000000000000000D+00 0.525216090711807D+03
 0.890183897764639D+03 0.000000000000000D+00 0.000000000000000D+00 -.890183897764639D+03
 0.217512138067305D+03 -.121867354692668D+03 0.983410649438622D+02 0.120306532110809D+03
 0.148144894876646D+03 -.730240255971286D+02 -.103430195126348D+01 -.128892714235817D+03
 0.233676489555734D+03 -.183747277562477D+03 0.589105332380444D+02 -.131799805891656D+03
 0.230013128805177D+03 -.794649129742638D+02 -.136264045343313D+03 0.140385988016665D+03
 0.586053337171584D+03 0.458103570826538D+03 -.199532508873297D+02 -.364967807052832D+03
0.367388422428D-05 0.000000000000D+00 0.000000000000D+00 0.218162130400D-06 0.000000000000D+00  7 1 -1 23 -13 13 23 21 0 0.11248556D+00 0.25121375D-01 0.41194610D+05 0.41194610D+05 0.41194610D+05 0.11547697D+01  1  2  2  2  7  2       -1 0.152188149983D-03 0.100000000000D+01
-.133857706453D-06 0.000000000000D+00 -.141086827772D-07 0.218162130400D-06 0.000000000000D+00  7 1 -1 23 -13 13 23 21 2 0.11248556D+00 0.25121375D-01 0.41194610D+05 0.41194610D+05 0.41194610D+05 0.11547697D+01  1  2  3  2  7  2       -1 -.739417183116D-05 0.100000000000D+01
0.224958263583D-06 0.000000000000D+00 0.000000000000D+00 0.218162130400D-06 0.000000000000D+00  7 1 -1 23 -13 13 23 21 2 0.11248556D+00 0.25121375D-01 0.41194610D+05 0.41194610D+05 0.41194610D+05 0.11547697D+01  1  2 15  2  7  2       -1 0.124264795793D-04 0.100000000000D+01
0.146032330689D-05 0.000000000000D+00 -.125702976519D-05 0.218162130400D-06 0.000000000000D+00  7 1 -1 23 -13 13 23 21 2 0.11248556D+00 0.92908764D-01 0.41194610D+05 0.41194610D+05 0.41194610D+05 0.11547697D+01  1  2  5  2  7  2       -1 0.771501264828D-05 0.100000000000D+01
0.255620978765D-06 0.000000000000D+00 -.194043376273D-06 0.218162130400D-06 0.000000000000D+00  7 1 21 23 -13 13 23 1 2 0.11248556D+00 0.92908764D-01 0.41194610D+05 0.41194610D+05 0.41194610D+05 0.11547697D+01  1  2  5  4  7  2       -1 0.102630593187D-04 0.100000000000D+01
  </mgrwgt>
  </event>
  <event>
  8     66 0.56006291E-06 0.25899089E+03 0.75467711E-02 0.96826283E-01
        1 -1    0    0  501    0 0.00000000E+00 0.00000000E+00 0.20136179E+03 0.20136205E+03 0.32000000E+00 0.0000E+00 0.9000E+01
       -1 -1    0    0    0  501 0.00000000E+00 0.00000000E+00 -.87200812E+03 0.87200818E+03 0.32000000E+00 0.0000E+00 0.9000E+01
       25  2    1    2    0    0 -.32499060E+03 -.10386762E+03 -.51670207E+03 0.68804683E+03 0.30003341E+03 0.0000E+00 0.0000E+00
       23  2    1    2    0    0 0.32499060E+03 0.10386762E+03 -.15394426E+03 0.38532339E+03 0.91476287E+02 0.0000E+00 0.0000E+00
       23  1    3    3    0    0 -.17852315E+03 -.12213974E+03 -.14002443E+03 0.27333263E+03 0.91188000E+02 0.0000E+00 0.9000E+01
      -13  1    4    4    0    0 0.16852987E+03 0.15093967E+02 -.10406809E+03 0.19864623E+03 0.10565837E+00 0.0000E+00 0.9000E+01
       13  1    4    4    0    0 0.15646073E+03 0.88773648E+02 -.49876164E+02 0.18667717E+03 0.10565837E+00 0.0000E+00 0.9000E+01
       23  1    3    3    0    0 -.14646745E+03 0.18272124E+02 -.37667763E+03 0.41471421E+03 0.91188000E+02 0.0000E+00 0.9000E+01
#aMCatNLO 1  0  0  2  1 0.67043244D+02 0.00000000D+00  -5  7  0 0.00000000D+00 0.00000000D+00 0.00000000D+00 0.00000000D+00 0.00000000D+00
  <mgrwgt>
 0.1128369450D-03    9    2    0
 0.419033753092640D+03 0.000000000000000D+00 0.000000000000000D+00 0.419033753092640D+03
 0.419033753092640D+03 0.000000000000000D+00 0.000000000000000D+00 -.419033753092640D+03
 0.238024059612697D+03 -.178523149963913D+03 -.122139739566143D+03 0.393899804034699D+02
 0.171141377501093D+03 0.168529882037457D+03 0.150938686785141D+02 0.256753789013558D+02
 0.199177840115736D+03 0.156460715244011D+03 0.887737466117528D+02 0.855048448394272D+02
 0.229724228955754D+03 -.146467447317555D+03 0.182721242758765D+02 -.150570204144253D+03
 0.000000000000000D+00 -.000000000000000D+00 -.000000000000000D+00 -.000000000000000D+00
 0.427401419316651D+03 0.000000000000000D+00 0.000000000000000D+00 0.427401419316651D+03
 0.580238974895996D+03 0.000000000000000D+00 0.000000000000000D+00 -.580238974895996D+03
 0.224243653254476D+03 -.171370898996311D+03 -.105120926089548D+03 0.393899804034699D+02
 0.178024637703844D+03 0.173932212549821D+03 0.279487385293236D+02 0.256753789013558D+02
 0.211210452579011D+03 0.162810282782079D+03 0.103882571242897D+03 0.855048448394272D+02
 0.227266129489067D+03 -.139396848090326D+03 0.350966470675204D+02 -.150570204144253D+03
 0.166895521186249D+03 -.259747482452632D+02 -.618070307501931D+02 -.152837555579346D+03
0.919010931034D-05 0.000000000000D+00 0.000000000000D+00 0.791755002359D-06 0.000000000000D+00  7 1 -1 23 -13 13 23 21 0 0.30978761D-01 0.13415512D+00 0.14338957D+06 0.14338957D+06 0.14338957D+06 0.11090999D+01  1  2  2  2  7  2       -1 0.842056453812D-04 0.100000000000D+01
-.504192596982D-06 0.000000000000D+00 -.352924395630D-07 0.791755002359D-06 0.000000000000D+00  7 1 -1 23 -13 13 23 21 2 0.30978761D-01 0.13415512D+00 0.14338957D+06 0.14338957D+06 0.14338957D+06 0.11090999D+01  1  2  3  2  7  2       -1 -.568274667050D-05 0.100000000000D+01
0.586869525946D-06 0.000000000000D+00 0.000000000000D+00 0.791755002359D-06 0.000000000000D+00  7 1 -1 23 -13 13 23 21 2 0.30978761D-01 0.13415512D+00 0.14338957D+06 0.14338957D+06 0.14338957D+06 0.11090999D+01  1  2 15  2  7  2       -1 0.661459701025D-05 0.100000000000D+01
0.343158223703D-04 0.000000000000D+00 0.000000000000D+00 0.791755002359D-06 0.000000000000D+00  7 1 -1 23 -13 13 23 21 2 0.30978761D-01 0.18671911D+00 0.17111596D+06 0.17111596D+06 0.17111596D+06 0.11030662D+01  1  2 12  2  7  2       -1 0.140987779624D-03 0.100000000000D+01
-.335907295539D-04 0.000000000000D+00 0.000000000000D+00 0.791755002359D-06 0.000000000000D+00  7 1 -1 23 -13 13 23 21 2 0.30978761D-01 0.13415512D+00 0.14338957D+06 0.14338957D+06 0.14338957D+06 0.11090999D+01  1  2  4  2  7  2       -1 -.378600573818D-03 0.100000000000D+01
-.387065919201D-04 0.000000000000D+00 -.382618801230D-05 0.791755002359D-06 0.000000000000D+00  7 1 -1 23 -13 13 23 21 2 0.30978761D-01 0.18721240D+00 0.14338957D+06 0.14338957D+06 0.14338957D+06 0.11090999D+01  1  2  5  2  7  2       -1 -.160579549571D-03 0.100000000000D+01
0.380521663133D-04 0.000000000000D+00 0.362313801678D-05 0.791755002359D-06 0.000000000000D+00  7 1 -1 23 -13 13 23 21 2 0.30978761D-01 0.13415512D+00 0.14338957D+06 0.14338957D+06 0.14338957D+06 0.11090999D+01  1  2  6  2  7  2       -1 0.428885355946D-03 0.100000000000D+01
0.142273493679D-05 0.000000000000D+00 0.000000000000D+00 0.791755002359D-06 0.000000000000D+00  7 1 21 23 -13 13 23 1 2 0.30978761D-01 0.18671911D+00 0.17111596D+06 0.17111596D+06 0.17111596D+06 0.11030662D+01  1  2 12  4  7  2       -1 0.373951036828D-04 0.100000000000D+01
-.151332962313D-05 0.000000000000D+00 -.159544736692D-06 0.791755002359D-06 0.000000000000D+00  7 1 21 23 -13 13 23 1 2 0.30978761D-01 0.18721240D+00 0.14338957D+06 0.14338957D+06 0.14338957D+06 0.11090999D+01  1  2  5  4  7  2       -1 -.403886666287D-04 0.100000000000D+01
  </mgrwgt>
  </event>
  <event>
  8     66 0.56006291E-06 0.34772516E+03 0.75467711E-02 0.92800818E-01
        1 -1    0    0  501    0 0.00000000E+00 0.00000000E+00 0.48869436E+03 0.48869447E+03 0.32000000E+00 0.0000E+00 0.9000E+01
       -1 -1    0    0    0  501 0.00000000E+00 0.00000000E+00 -.10571549E+04 0.10571549E+04 0.32000000E+00 0.0000E+00 0.9000E+01
       25  2    1    2    0    0 0.52837455E+03 -.78343394E+02 0.16417932E+03 0.63454988E+03 0.30063492E+03 0.0000E+00 0.0000E+00
       23  2    1    2    0    0 -.52837455E+03 0.78343394E+02 -.73263982E+03 0.91129950E+03 0.91587774E+02 0.0000E+00 0.0000E+00
       23  1    3    3    0    0 0.21591037E+03 -.15162640E+03 0.67806987E+02 0.28726450E+03 0.91188000E+02 0.0000E+00 0.9000E+01
      -11  1    4    4    0    0 -.52101860E+03 0.85497330E+02 -.72958924E+03 0.90059461E+03 0.51099893E-03 0.0000E+00 0.9000E+01
       11  1    4    4    0    0 -.73559425E+01 -.71539361E+01 -.30505752E+01 0.10704891E+02 0.51099893E-03 0.0000E+00 0.9000E+01
       23  1    3    3    0    0 0.31246418E+03 0.73283005E+02 0.96372332E+02 0.34728539E+03 0.91188000E+02 0.0000E+00 0.9000E+01
#aMCatNLO 1  0  0  1  2 0.26478361D+02 0.00000000D+00  -5  7  0 0.00000000D+00 0.00000000D+00 0.00000000D+00 0.00000000D+00 0.00000000D+00
  <mgrwgt>
 0.1768041823D-03    9    2    0
 0.718766819824107D+03 0.000000000000000D+00 0.000000000000000D+00 0.718766819824107D+03
 0.718766819824107D+03 0.000000000000000D+00 0.000000000000000D+00 -.718766819824107D+03
 0.335723089904255D+03 0.215910366883152D+03 -.151626398830395D+03 0.186512440338357D+03
 0.679943007787259D+03 -.521018604115750D+03 0.854973301427322D+02 -.428430057935393D+03
 0.103051628734179D+02 -.735594246955697D+01 -.715393612469521D+01 0.952727744960061D+00
 0.411562379083283D+03 0.312464179702155D+03 0.732830048123579D+02 0.240964889852076D+03
 0.000000000000000D+00 0.000000000000000D+00 -.000000000000000D+00 0.000000000000000D+00
 0.779770347130100D+03 0.000000000000000D+00 0.000000000000000D+00 0.779770347130100D+03
 0.721767700722273D+03 0.000000000000000D+00 0.000000000000000D+00 -.721767700722273D+03
 0.331138843608224D+03 0.210064458730237D+03 -.149745501366804D+03 0.186512440338357D+03
 0.689676254957805D+03 -.533025090034505D+03 0.893603687537579D+02 -.428430057935393D+03
 0.103955314360938D+02 -.753741085387091D+01 -.709554940105026D+01 0.952727744960061D+00
 0.406566845385152D+03 0.305292217916502D+03 0.755905547051622D+02 0.240964889852076D+03
 0.637605724650974D+02 0.252058242416373D+02 -.810987269106559D+01 0.580026464078264D+02
0.803361049852D-04 0.000000000000D+00 0.000000000000D+00 0.337322407153D-05 0.000000000000D+00  7 1 -1 23 -11 11 23 21 0 0.75183760D-01 0.16263922D+00 0.33122375D+06 0.33122375D+06 0.33122375D+06 0.10813848D+01  1  2  2  1  7  1        1 0.125926236336D-03 0.100000000000D+01
-.419504500961D-05 0.000000000000D+00 -.308511796125D-06 0.337322407153D-05 0.000000000000D+00  7 1 -1 23 -11 11 23 21 2 0.75183760D-01 0.16263922D+00 0.33122375D+06 0.33122375D+06 0.33122375D+06 0.10813848D+01  1  2  3  1  7  1        1 -.768957943570D-05 0.100000000000D+01
0.514669861352D-05 0.000000000000D+00 0.000000000000D+00 0.337322407153D-05 0.000000000000D+00  7 1 -1 23 -11 11 23 21 2 0.75183760D-01 0.16263922D+00 0.33122375D+06 0.33122375D+06 0.33122375D+06 0.10813848D+01  1  2 15  1  7  1        1 0.943397454130D-05 0.100000000000D+01
0.132278107290D-02 0.000000000000D+00 0.000000000000D+00 0.337322407153D-05 0.000000000000D+00  7 1 -1 23 -11 11 23 21 2 0.81713985D-01 0.16263922D+00 0.34714145D+06 0.34714145D+06 0.34714145D+06 0.10798933D+01  1  2 12  1  7  1        1 0.214472348901D-02 0.100000000000D+01
-.133919048956D-02 0.000000000000D+00 0.000000000000D+00 0.337322407153D-05 0.000000000000D+00  7 1 -1 23 -11 11 23 21 2 0.75183760D-01 0.16263922D+00 0.33122375D+06 0.33122375D+06 0.33122375D+06 0.10813848D+01  1  2  4  1  7  1        1 -.245475593835D-02 0.100000000000D+01
-.185838588741D-02 0.000000000000D+00 -.131728250169D-03 0.337322407153D-05 0.000000000000D+00  7 1 -1 23 -11 11 23 21 2 0.81741373D-01 0.16263922D+00 0.33122375D+06 0.33122375D+06 0.33122375D+06 0.10813848D+01  1  2  5  1  7  1        1 -.302782491403D-02 0.100000000000D+01
0.186334181741D-02 0.000000000000D+00 0.131268991129D-03 0.337322407153D-05 0.000000000000D+00  7 1 -1 23 -11 11 23 21 2 0.75183760D-01 0.16263922D+00 0.33122375D+06 0.33122375D+06 0.33122375D+06 0.10813848D+01  1  2  6  1  7  1        1 0.341553306056D-02 0.100000000000D+01
0.191853891908D-04 0.000000000000D+00 0.000000000000D+00 0.337322407153D-05 0.000000000000D+00  7 21 -1 23 -11 11 23 -1 2 0.81713985D-01 0.16263922D+00 0.34714145D+06 0.34714145D+06 0.34714145D+06 0.10798933D+01  1  2 12  3  7  1        1 0.845442026171D-04 0.100000000000D+01
-.255067977652D-04 0.000000000000D+00 -.182995653683D-05 0.337322407153D-05 0.000000000000D+00  7 21 -1 23 -11 11 23 -1 2 0.81741373D-01 0.16263922D+00 0.33122375D+06 0.33122375D+06 0.33122375D+06 0.10813848D+01  1  2  5  3  7  1        1 -.113086348948D-03 0.100000000000D+01
  </mgrwgt>
  </event>
  <event>
  8     66 0.56006291E-06 0.35861779E+03 0.75467711E-02 0.96263312E-01
        1 -1    0    0  501    0 0.00000000E+00 0.00000000E+00 0.16867994E+04 0.16867994E+04 0.32000000E+00 0.0000E+00 0.9000E+01
       -1 -1    0    0    0  501 0.00000000E+00 0.00000000E+00 -.80890358E+02 0.80890991E+02 0.32000000E+00 0.0000E+00 0.9000E+01
       25  2    1    2    0    0 0.15217974E+02 0.29382901E+03 0.77781288E+03 0.88420433E+03 0.30042861E+03 0.0000E+00 0.0000E+00
       23  2    1    2    0    0 -.15217974E+02 -.29382901E+03 0.82809618E+03 0.88348611E+03 0.90759854E+02 0.0000E+00 0.0000E+00
       23  1    3    3    0    0 -.21303698E+02 0.30732023E+03 0.60172654E+03 0.68212144E+03 0.91188000E+02 0.0000E+00 0.9000E+01
      -11  1    4    4    0    0 -.25003216E+02 -.11362061E+03 0.21599722E+03 0.24533569E+03 0.51099893E-03 0.0000E+00 0.9000E+01
       11  1    4    4    0    0 0.97852420E+01 -.18020840E+03 0.61209896E+03 0.63815042E+03 0.51099893E-03 0.0000E+00 0.9000E+01
       23  1    3    3    0    0 0.36521672E+02 -.13491223E+02 0.17608634E+03 0.20208289E+03 0.91188000E+02 0.0000E+00 0.9000E+01
#aMCatNLO 1  0  0  2  1 0.13904458D+03 0.00000000D+00  -5  7  0 0.00000000D+00 0.00000000D+00 0.00000000D+00 0.00000000D+00 0.00000000D+00
  <mgrwgt>
 0.9552037717D-04    4    2    0
 0.369386512026253D+03 0.000000000000000D+00 0.000000000000000D+00 0.369386512026253D+03
 0.369386512026253D+03 0.000000000000000D+00 0.000000000000000D+00 -.369386512026253D+03
 0.324133975531696D+03 -.213036977129619D+02 0.307320231347209D+03 -.429884940238044D+02
 0.117499776157947D+03 -.250032158652239D+02 -.113620605399714D+03 -.164740590677321D+02
 0.196375778403448D+03 0.978524196360704D+01 -.180208402854656D+03 0.774120592921290D+02
 0.100763493959415D+03 0.365216716145788D+02 -.134912230928396D+02 -.179495062005924D+02
 0.000000000000000D+00 0.000000000000000D+00 -.000000000000000D+00 0.000000000000000D+00
 0.449342665459198D+03 0.000000000000000D+00 0.000000000000000D+00 0.449342665459198D+03
 0.441658063099118D+03 0.000000000000000D+00 0.000000000000000D+00 -.441658063099118D+03
 0.366347294612573D+03 -.740164611824740D+02 0.344337976095492D+03 -.429884940238044D+02
 0.111124180679692D+03 -.424568399986177D+02 -.101363729444498D+03 -.164740590677321D+02
 0.178824343209535D+03 -.188583087299331D+02 -.160093357114903D+03 0.774120592921290D+02
 0.954481382137335D+02 0.215424711584259D+02 -.297202086319477D+01 -.179495062005924D+02
 0.139256771842783D+03 0.113789138752599D+03 -.799088686728956D+02 0.768460236007993D+01
0.663238252460D-05 0.000000000000D+00 0.000000000000D+00 0.633482345107D-06 0.000000000000D+00  7 1 -1 23 -11 11 23 21 0 0.25950765D+00 0.12444722D-01 0.12860672D+06 0.12860672D+06 0.12860672D+06 0.11128645D+01  1  2  2  2  7  2       -1 0.168018890300D-03 0.100000000000D+01
-.368073536408D-06 0.000000000000D+00 -.254700952409D-07 0.633482345107D-06 0.000000000000D+00  7 1 -1 23 -11 11 23 21 2 0.25950765D+00 0.12444722D-01 0.12860672D+06 0.12860672D+06 0.12860672D+06 0.11128645D+01  1  2  3  2  7  2       -1 -.115480244676D-04 0.100000000000D+01
0.424371114060D-06 0.000000000000D+00 0.000000000000D+00 0.633482345107D-06 0.000000000000D+00  7 1 -1 23 -11 11 23 21 2 0.25950765D+00 0.12444722D-01 0.12860672D+06 0.12860672D+06 0.12860672D+06 0.11128645D+01  1  2 15  2  7  2       -1 0.133143177212D-04 0.100000000000D+01
-.236706373407D-05 0.000000000000D+00 0.000000000000D+00 0.633482345107D-06 0.000000000000D+00  7 1 -1 23 -11 11 23 21 2 0.25950765D+00 0.12444722D-01 0.12860672D+06 0.12860672D+06 0.12860672D+06 0.11128645D+01  1  2  4  2  7  2       -1 -.742648063864D-04 0.100000000000D+01
  </mgrwgt>
  </event>
  <event>
  8     66 0.56006291E-06 0.27843584E+03 0.75467711E-02 0.96859763E-01
        1 -1    0    0  501    0 0.00000000E+00 0.00000000E+00 0.12243615E+03 0.12243657E+03 0.32000000E+00 0.0000E+00 0.9000E+01
       -1 -1    0    0    0  501 0.00000000E+00 0.00000000E+00 -.80610167E+03 0.80610174E+03 0.32000000E+00 0.0000E+00 0.9000E+01
       25  2    1    2    0    0 0.14596477E+03 0.12994358E+03 -.22540963E+03 0.42329204E+03 0.30029253E+03 0.0000E+00 0.0000E+00
       23  2    1    2    0    0 -.14596477E+03 -.12994358E+03 -.45825590E+03 0.50524626E+03 0.84168105E+02 0.0000E+00 0.0000E+00
       23  1    3    3    0    0 -.25147162E+02 0.11646303E+03 -.15720173E+03 0.21731004E+03 0.91188000E+02 0.0000E+00 0.9000E+01
      -13  1    4    4    0    0 -.13904519E+03 -.76730356E+02 -.35398763E+03 0.38797985E+03 0.10565837E+00 0.0000E+00 0.9000E+01
       13  1    4    4    0    0 -.69195758E+01 -.53213226E+02 -.10426827E+03 0.11726641E+03 0.10565837E+00 0.0000E+00 0.9000E+01
       23  1    3    3    0    0 0.17111193E+03 0.13480555E+02 -.68207895E+02 0.20598200E+03 0.91188000E+02 0.0000E+00 0.9000E+01
#aMCatNLO 1  0  0  2  1 0.22941676D+03 0.00000000D+00  -5  7  0 0.00000000D+00 0.00000000D+00 0.00000000D+00 0.00000000D+00 0.00000000D+00
  <mgrwgt>
 0.3359350865D-03    6    2    0
 0.314159526577433D+03 0.000000000000000D+00 0.000000000000000D+00 0.314159526577433D+03
 0.314159526577433D+03 0.000000000000000D+00 0.000000000000000D+00 -.314159526577433D+03
 0.150094588288975D+03 -.251471619091887D+02 0.116463028442042D+03 0.413731116282813D+01
 0.188192832901229D+03 -.139045398370221D+03 -.767303953190972D+02 -.100972104967814D+03
 0.598447643407505D+02 -.691936972366758D+01 -.532131880995791D+02 -.264929189389537D+02
 0.230186867623911D+03 0.171111930003078D+03 0.134805549766345D+02 0.123327712743940D+03
 0.000000000000000D+00 0.000000000000000D+00 -.000000000000000D+00 -.000000000000000D+00
 0.437145772793924D+03 0.000000000000000D+00 0.000000000000000D+00 0.437145772793924D+03
 0.462567453066879D+03 0.000000000000000D+00 0.000000000000000D+00 -.462567453066879D+03
 0.202250567580873D+03 -.512242733664117D+02 0.173057785774608D+03 0.413731116282813D+01
 0.196146099047863D+03 -.167490373414773D+03 -.149966997516992D+02 -.100972104967814D+03
 0.471200067245462D+02 -.148358465379435D+02 -.360321791919098D+02 -.264929189389537D+02
 0.223375605276284D+03 0.137543711562745D+03 0.863331475589691D+02 0.123327712743940D+03
 0.230820947231238D+03 0.960067817563829D+02 -.208362054389968D+03 -.254216802729545D+02
0.102813888538D-04 0.000000000000D+00 0.000000000000D+00 0.115453067516D-07 0.000000000000D+00  7 1 -1 23 -13 13 23 21 0 0.18836368D-01 0.12401568D+00 0.77526515D+05 0.77526515D+05 0.77526515D+05 0.11309084D+01  1  2  2  2  7  2       -1 0.223500405234D-03 0.100000000000D+01
-.561068496870D-06 0.000000000000D+00 -.394832403506D-07 0.115453067516D-07 0.000000000000D+00  7 1 -1 23 -13 13 23 21 2 0.18836368D-01 0.12401568D+00 0.77526515D+05 0.77526515D+05 0.77526515D+05 0.11309084D+01  1  2  3  2  7  2       -1 -.155990190407D-04 0.100000000000D+01
0.659804054453D-06 0.000000000000D+00 0.000000000000D+00 0.115453067516D-07 0.000000000000D+00  7 1 -1 23 -13 13 23 21 2 0.18836368D-01 0.12401568D+00 0.77526515D+05 0.77526515D+05 0.77526515D+05 0.11309084D+01  1  2 15  2  7  2       -1 0.183440989218D-04 0.100000000000D+01
-.288639670426D-05 0.000000000000D+00 -.303341633529D-05 0.115453067516D-07 0.000000000000D+00  7 1 -1 23 -13 13 23 21 2 0.18836368D-01 0.22824604D+00 0.77526515D+05 0.77526515D+05 0.77526515D+05 0.11309084D+01  1  2  5  2  7  2       -1 -.114714927064D-04 0.100000000000D+01
0.438393867741D-05 0.000000000000D+00 0.254502243502D-05 0.115453067516D-07 0.000000000000D+00  7 1 -1 23 -13 13 23 21 2 0.18836368D-01 0.12401568D+00 0.77526515D+05 0.77526515D+05 0.77526515D+05 0.11309084D+01  1  2  6  2  7  2       -1 0.121883768708D-03 0.100000000000D+01
-.257504897391D-07 0.000000000000D+00 -.202037355419D-06 0.115453067516D-07 0.000000000000D+00  7 1 21 23 -13 13 23 1 2 0.18836368D-01 0.22824604D+00 0.77526515D+05 0.77526515D+05 0.77526515D+05 0.11309084D+01  1  2  5  4  7  2       -1 -.722674628413D-06 0.100000000000D+01
  </mgrwgt>
  </event>
  <event>
  8     66 0.56006291E-06 0.76127570E+03 0.75467711E-02 0.89864419E-01
        1 -1    0    0  501    0 0.00000000E+00 0.00000000E+00 0.89372947E+03 0.89372953E+03 0.32000000E+00 0.0000E+00 0.9000E+01
       -1 -1    0    0    0  501 0.00000000E+00 0.00000000E+00 -.65448521E+03 0.65448529E+03 0.32000000E+00 0.0000E+00 0.9000E+01
       25  2    1    2    0    0 0.59884412E+03 -.41971286E+03 0.16090275E+03 0.80671589E+03 0.30021270E+03 0.0000E+00 0.0000E+00
       23  2    1    2    0    0 -.59884412E+03 0.41971286E+03 0.78341506E+02 0.74149893E+03 0.94393379E+02 0.0000E+00 0.0000E+00
       23  1    3    3    0    0 0.15947843E+03 -.19034518E+02 0.73671184E+02 0.19884260E+03 0.91188000E+02 0.0000E+00 0.9000E+01
      -11  1    4    4    0    0 -.55339799E+03 0.35599390E+03 0.82264884E+02 0.66313535E+03 0.51099893E-03 0.0000E+00 0.9000E+01
       11  1    4    4    0    0 -.45446130E+02 0.63718965E+02 -.39233785E+01 0.78363577E+02 0.51099893E-03 0.0000E+00 0.9000E+01
       23  1    3    3    0    0 0.43936569E+03 -.40067834E+03 0.87231570E+02 0.60787329E+03 0.91188000E+02 0.0000E+00 0.9000E+01
#aMCatNLO 1  0  0  2  2 0.33728514D+02 0.00000000D+00  -5  7  0 0.00000000D+00 0.00000000D+00 0.00000000D+00 0.00000000D+00 0.00000000D+00
  <mgrwgt>
 0.3214809640D-03    4    2    0
 0.764809014037427D+03 0.000000000000000D+00 0.000000000000000D+00 0.764809014037427D+03
 0.764809014037427D+03 0.000000000000000D+00 0.000000000000000D+00 -.764809014037427D+03
 0.189737334156101D+03 0.159478433192550D+03 -.190345179155855D+02 0.434663214780635D+02
 0.658330749224199D+03 -.553397988701649D+03 0.355993895688852D+03 -.204545277955418D+02
 0.799299527665323D+02 -.454461298724995D+02 0.637189654028980D+02 -.162277563716083D+02
 0.601619991928023D+03 0.439365685381599D+03 -.400678343176165D+03 -.678403731091332D+01
 0.000000000000000D+00 0.000000000000000D+00 -.000000000000000D+00 0.000000000000000D+00
 0.918044146331936D+03 0.000000000000000D+00 0.000000000000000D+00 0.918044146331936D+03
 0.766853168658903D+03 0.000000000000000D+00 0.000000000000000D+00 -.766853168658903D+03
 0.186417594004828D+03 0.155718050394982D+03 -.172868646347545D+02 0.434663214780635D+02
 0.672865015512879D+03 -.566705818213244D+03 0.362178763868157D+03 -.204545277955418D+02
 0.814502944366821D+02 -.470594318925398D+02 0.644687541132705D+02 -.162277563716083D+02
 0.589256940611672D+03 0.427460609052979D+03 -.395145410274303D+03 -.678403731091332D+01
 0.154907470424777D+03 0.305865906578224D+02 -.142152430723697D+02 0.151190977673033D+03
0.156954069056D-03 0.000000000000D+00 0.000000000000D+00 0.503827805279D-06 0.000000000000D+00  7 1 -1 23 -11 11 23 21 0 0.13749685D+00 0.10069004D+00 0.57954070D+06 0.57954070D+06 0.57954070D+06 0.10640085D+01  1  2  2  2  7  2       -1 0.334161072981D-03 0.100000000000D+01
-.871944317707D-05 0.000000000000D+00 -.602744952132D-06 0.503827805279D-06 0.000000000000D+00  7 1 -1 23 -11 11 23 21 2 0.13749685D+00 0.10069004D+00 0.57954070D+06 0.57954070D+06 0.57954070D+06 0.10640085D+01  1  2  3  2  7  2       -1 -.210165869153D-04 0.100000000000D+01
0.990736694089D-05 0.000000000000D+00 0.000000000000D+00 0.503827805279D-06 0.000000000000D+00  7 1 -1 23 -11 11 23 21 2 0.13749685D+00 0.10069004D+00 0.57954070D+06 0.57954070D+06 0.57954070D+06 0.10640085D+01  1  2 15  2  7  2       -1 0.238798549617D-04 0.100000000000D+01
-.644869658956D-05 0.000000000000D+00 0.000000000000D+00 0.503827805279D-06 0.000000000000D+00  7 1 -1 23 -11 11 23 21 2 0.13749685D+00 0.10069004D+00 0.57954070D+06 0.57954070D+06 0.57954070D+06 0.10640085D+01  1  2  4  2  7  2       -1 -.155433769809D-04 0.100000000000D+01
  </mgrwgt>
  </event>
  <event>
  8     66 0.56006291E-06 0.28648326E+03 0.75467711E-02 0.96335722E-01
        1 -1    0    0  501    0 0.00000000E+00 0.00000000E+00 0.34898573E+03 0.34898588E+03 0.32000000E+00 0.0000E+00 0.9000E+01
       -1 -1    0    0    0  501 0.00000000E+00 0.00000000E+00 -.56407371E+03 0.56407380E+03 0.32000000E+00 0.0000E+00 0.9000E+01
       25  2    1    2    0    0 -.20268576E+03 -.31258037E+03 -.95593646E+01 0.47809923E+03 0.29949872E+03 0.0000E+00 0.0000E+00
       23  2    1    2    0    0 0.20268576E+03 0.31258037E+03 -.20552861E+03 0.43496046E+03 0.90335948E+02 0.0000E+00 0.0000E+00
       23  1    3    3    0    0 0.81659732E+01 -.20324926E+03 -.17101106E+02 0.22357246E+03 0.91188000E+02 0.0000E+00 0.9000E+01
      -13  1    4    4    0    0 0.38291458E+02 0.13690239E+03 -.87995043E+02 0.16718744E+03 0.10565837E+00 0.0000E+00 0.9000E+01
       13  1    4    4    0    0 0.16439430E+03 0.17567798E+03 -.11753357E+03 0.26777302E+03 0.10565837E+00 0.0000E+00 0.9000E+01
       23  1    3    3    0    0 -.21085173E+03 -.10933110E+03 0.75417417E+01 0.25452676E+03 0.91188000E+02 0.0000E+00 0.9000E+01
#aMCatNLO 1  0  0  1  2 0.22974706D+01 0.00000000D+00  -5  7  0 0.00000000D+00 0.00000000D+00 0.00000000D+00 0.00000000D+00 0.00000000D+00
  <mgrwgt>
 0.6583756544D-04   11    2    0
 0.443682077126849D+03 0.000000000000000D+00 0.000000000000000D+00 0.443682077126849D+03
 0.443682077126849D+03 0.000000000000000D+00 0.000000000000000D+00 -.443682077126849D+03
 0.225901346723711D+03 0.816597314152567D+01 -.203249263359998D+03 0.365953676557021D+02
 0.150699477068030D+03 0.382912853720810D+02 0.136902336294559D+03 -.500185982432842D+02
 0.247038159071519D+03 0.164394476325804D+03 0.175678030911682D+03 -.560315772221665D+02
 0.263725171390439D+03 -.210851734839411D+03 -.109331103846243D+03 0.694548078097486D+02
 0.000000000000000D+00 -.000000000000000D+00 0.000000000000000D+00 0.000000000000000D+00
 0.449748275536005D+03 0.000000000000000D+00 0.000000000000000D+00 0.449748275536005D+03
 0.443901149633524D+03 0.000000000000000D+00 0.000000000000000D+00 -.443901149633524D+03
 0.226427341756255D+03 0.823232949649458D+01 -.203831051530450D+03 0.365953676557021D+02
 0.150359046822226D+03 0.383354504820695D+02 0.136515112816867D+03 -.500185982432842D+02
 0.246635303035237D+03 0.164466897934967D+03 0.175043064818144D+03 -.560315772221665D+02
 0.263945436820356D+03 -.210774325868729D+03 -.110009797295432D+03 0.694548078097486D+02
 0.628229673545593D+01 -.260352044802186D+00 0.228267119087105D+01 0.584712590248020D+01
0.324041197136D-05 0.000000000000D+00 0.000000000000D+00 0.134684756673D-06 0.000000000000D+00  7 1 -1 23 -13 13 23 21 0 0.53690131D-01 0.86780589D-01 0.18493822D+06 0.18493822D+06 0.18493822D+06 0.11004465D+01  1  2  2  1  7  1        1 0.393454387072D-04 0.100000000000D+01
-.179809549999D-06 0.000000000000D+00 -.124440351901D-07 0.134684756673D-06 0.000000000000D+00  7 1 -1 23 -13 13 23 21 2 0.53690131D-01 0.86780589D-01 0.18493822D+06 0.18493822D+06 0.18493822D+06 0.11004465D+01  1  2  3  1  7  1        1 -.264389860642D-05 0.100000000000D+01
0.211785800800D-06 0.000000000000D+00 0.000000000000D+00 0.134684756673D-06 0.000000000000D+00  7 1 -1 23 -13 13 23 21 2 0.53690131D-01 0.86780589D-01 0.18493822D+06 0.18493822D+06 0.18493822D+06 0.11004465D+01  1  2 15  1  7  1        1 0.311407366069D-05 0.100000000000D+01
0.348522973239D-07 0.000000000000D+00 0.000000000000D+00 0.134684756673D-06 0.000000000000D+00  7 1 -1 23 -13 13 23 21 2 0.54437363D-01 0.86780589D-01 0.18592184D+06 0.18592184D+06 0.18592184D+06 0.11002683D+01  1  2 12  1  7  1        1 0.502853469484D-06 0.100000000000D+01
-.462285323753D-03 0.000000000000D+00 0.000000000000D+00 0.134684756673D-06 0.000000000000D+00  7 1 -1 23 -13 13 23 21 2 0.53690131D-01 0.86780589D-01 0.18493822D+06 0.18493822D+06 0.18493822D+06 0.11004465D+01  1  2  4  1  7  1        1 -.679738936693D-02 0.100000000000D+01
-.696906828451D-03 0.000000000000D+00 -.316027007394D-04 0.134684756673D-06 0.000000000000D+00  7 1 -1 23 -13 13 23 21 2 0.54438922D-01 0.86780589D-01 0.18493822D+06 0.18493822D+06 0.18493822D+06 0.11004465D+01  1  2  5  1  7  1        1 -.100594354172D-01 0.100000000000D+01
0.697280682177D-03 0.000000000000D+00 0.315996698560D-04 0.134684756673D-06 0.000000000000D+00  7 1 -1 23 -13 13 23 21 2 0.53690131D-01 0.86780589D-01 0.18493822D+06 0.18493822D+06 0.18493822D+06 0.11004465D+01  1  2  6  1  7  1        1 0.102527336501D-01 0.100000000000D+01
0.462259624757D-03 0.000000000000D+00 0.000000000000D+00 0.134684756673D-06 0.164749253659D-06  7 1 -1 23 -13 13 23 21 2 0.54424204D-01 0.86823438D-01 0.18592184D+06 0.18592184D+06 0.18592184D+06 0.11002683D+01  1  2 11  1  7  1        1 0.666479172626D-02 0.100000000000D+01
0.344112623260D-08 0.000000000000D+00 0.000000000000D+00 0.134684756673D-06 0.000000000000D+00  7 21 -1 23 -13 13 23 -1 2 0.54437363D-01 0.86780589D-01 0.18592184D+06 0.18592184D+06 0.18592184D+06 0.11002683D+01  1  2 12  3  7  1        1 0.202013082704D-06 0.100000000000D+01
-.177105083378D-05 0.000000000000D+00 -.803903743697D-07 0.134684756673D-06 0.000000000000D+00  7 21 -1 23 -13 13 23 -1 2 0.54438922D-01 0.86780589D-01 0.18493822D+06 0.18493822D+06 0.18493822D+06 0.11004465D+01  1  2  5  3  7  1        1 -.104030313888D-03 0.100000000000D+01
0.116993156102D-05 0.000000000000D+00 0.000000000000D+00 0.134684756673D-06 0.414093606375D-09  7 21 -1 23 -13 13 23 -1 2 0.54424204D-01 0.86823438D-01 0.18592184D+06 0.18592184D+06 0.18592184D+06 0.11002683D+01  1  2 11  3  7  1        1 0.686468067506D-04 0.100000000000D+01
  </mgrwgt>
  </event>
  <event>
  8     66 0.56006291E-06 0.24915025E+03 0.75467711E-02 0.91909366E-01
        1 -1    0    0  501    0 0.00000000E+00 0.00000000E+00 0.57935101E+03 0.57935110E+03 0.32000000E+00 0.0000E+00 0.9000E+01
       -1 -1    0    0    0  501 0.00000000E+00 0.00000000E+00 -.58796389E+03 0.58796398E+03 0.32000000E+00 0.0000E+00 0.9000E+01
       25  2    1    2    0    0 -.70682946E+02 0.48433228E+03 0.22583919E+03 0.61679677E+03 0.29976838E+03 0.0000E+00 0.0000E+00
       23  2    1    2    0    0 0.70682946E+02 -.48433228E+03 -.23445206E+03 0.55051831E+03 0.92351510E+02 0.0000E+00 0.0000E+00
       23  1    3    3    0    0 -.11294674E+03 0.15478803E+03 0.16064034E+03 0.26615197E+03 0.91188000E+02 0.0000E+00 0.9000E+01
      -13  1    4    4    0    0 0.32168359E+02 -.36732282E+03 -.13667241E+03 0.39324320E+03 0.10565837E+00 0.0000E+00 0.9000E+01
       13  1    4    4    0    0 0.38514586E+02 -.11700946E+03 -.97779652E+02 0.15727510E+03 0.10565837E+00 0.0000E+00 0.9000E+01
       23  1    3    3    0    0 0.42263791E+02 0.32954425E+03 0.65198854E+02 0.35064481E+03 0.91188000E+02 0.0000E+00 0.9000E+01
#aMCatNLO 1  0  0  1  2 0.21307482D+03 0.00000000D+00  -5  7  0 0.00000000D+00 0.00000000D+00 0.00000000D+00 0.00000000D+00 0.00000000D+00
  <mgrwgt>
 0.2255042785D-03    9    2    0
 0.583641651152629D+03 0.000000000000000D+00 0.000000000000000D+00 0.583641651152629D+03
 0.583641651152629D+03 0.000000000000000D+00 0.000000000000000D+00 -.583641651152629D+03
 0.267344505945332D+03 -.112946736611667D+03 0.154788031594311D+03 0.162608528309825D+03
 0.392245771428162D+03 0.321683511569377D+02 -.367323148858917D+03 -.133774611565455D+03
 0.156557600711823D+03 0.385145945906634D+02 -.117009128050480D+03 -.966218003197306D+02
 0.351135424219941D+03 0.422637908640660D+02 0.329544245315086D+03 0.677878835753606D+02
 0.000000000000000D+00 -.000000000000000D+00 -.000000000000000D+00 0.000000000000000D+00
 0.933293643692347D+03 0.000000000000000D+00 0.000000000000000D+00 0.933293643692347D+03
 0.626667801947933D+03 0.000000000000000D+00 0.000000000000000D+00 -.626667801947933D+03
 0.269358252185680D+03 -.718255575255291D+02 0.180660378842690D+03 0.162608528309825D+03
 0.367990201401496D+03 0.904162343899536D+02 -.330675136934676D+03 -.133774611565455D+03
 0.153720802280361D+03 0.622875556621396D+02 -.102051816085397D+03 -.966218003197306D+02
 0.395501932556878D+03 0.994697731238508D+02 0.365536720983389D+03 0.677878835753606D+02
 0.373390257215864D+03 -.180348005650415D+03 -.113470146806007D+03 0.306625841744414D+03
0.401661292888D-04 0.000000000000D+00 0.000000000000D+00 0.135612973938D-05 0.000000000000D+00  7 1 -1 23 -13 13 23 21 0 0.89130939D-01 0.90455996D-01 0.27491683D+06 0.27491683D+06 0.27491683D+06 0.10873685D+01  1  2  2  1  7  1        1 0.219200508647D-03 0.100000000000D+01
-.220028729001D-05 0.000000000000D+00 -.154248512454D-06 0.135612973938D-05 0.000000000000D+00  7 1 -1 23 -13 13 23 21 2 0.89130939D-01 0.90455996D-01 0.27491683D+06 0.27491683D+06 0.27491683D+06 0.10873685D+01  1  2  3  1  7  1        1 -.141975856690D-04 0.100000000000D+01
0.260901884161D-05 0.000000000000D+00 0.000000000000D+00 0.135612973938D-05 0.000000000000D+00  7 1 -1 23 -13 13 23 21 2 0.89130939D-01 0.90455996D-01 0.27491683D+06 0.27491683D+06 0.27491683D+06 0.10873685D+01  1  2 15  1  7  1        1 0.168349690897D-04 0.100000000000D+01
0.467637164345D-04 0.000000000000D+00 0.000000000000D+00 0.135612973938D-05 0.000000000000D+00  7 1 -1 23 -13 13 23 21 2 0.14417527D+00 0.90455996D-01 0.40949399D+06 0.40949399D+06 0.40949399D+06 0.10746940D+01  1  2 12  1  7  1        1 0.136693637372D-03 0.100000000000D+01
-.555499814228D-04 0.000000000000D+00 0.000000000000D+00 0.135612973938D-05 0.000000000000D+00  7 1 -1 23 -13 13 23 21 2 0.89130939D-01 0.90455996D-01 0.27491683D+06 0.27491683D+06 0.27491683D+06 0.10873685D+01  1  2  4  1  7  1        1 -.358442110603D-03 0.100000000000D+01
-.625543714419D-04 0.000000000000D+00 -.147645633229D-04 0.135612973938D-05 0.000000000000D+00  7 1 -1 23 -13 13 23 21 2 0.14786014D+00 0.90455996D-01 0.27491683D+06 0.27491683D+06 0.27491683D+06 0.10873685D+01  1  2  5  1  7  1        1 -.182738283460D-03 0.100000000000D+01
0.634351310413D-04 0.000000000000D+00 0.130560778201D-04 0.135612973938D-05 0.000000000000D+00  7 1 -1 23 -13 13 23 21 2 0.89130939D-01 0.90455996D-01 0.27491683D+06 0.27491683D+06 0.27491683D+06 0.10873685D+01  1  2  6  1  7  1        1 0.409321869682D-03 0.100000000000D+01
0.255733061149D-05 0.000000000000D+00 0.000000000000D+00 0.135612973938D-05 0.000000000000D+00  7 21 -1 23 -13 13 23 -1 2 0.14417527D+00 0.90455996D-01 0.40949399D+06 0.40949399D+06 0.40949399D+06 0.10746940D+01  1  2 12  3  7  1        1 0.106241931954D-04 0.100000000000D+01
-.288632841086D-05 0.000000000000D+00 -.840605776364D-06 0.135612973938D-05 0.000000000000D+00  7 21 -1 23 -13 13 23 -1 2 0.14786014D+00 0.90455996D-01 0.27491683D+06 0.27491683D+06 0.27491683D+06 0.10873685D+01  1  2  5  3  7  1        1 -.117929197527D-04 0.100000000000D+01
  </mgrwgt>
  </event>
  <event>
  8     66 0.56006291E-06 0.17768821E+03 0.75467711E-02 0.98704035E-01
        1 -1    0    0  501    0 0.00000000E+00 0.00000000E+00 0.97906387E+03 0.97906392E+03 0.32000000E+00 0.0000E+00 0.9000E+01
       -1 -1    0    0    0  501 0.00000000E+00 0.00000000E+00 -.66408912E+02 0.66409683E+02 0.32000000E+00 0.0000E+00 0.9000E+01
       25  2    1    2    0    0 0.63631525E+01 0.12532810E+02 0.90375891E+03 0.95233910E+03 0.29995339E+03 0.0000E+00 0.0000E+00
       23  2    1    2    0    0 -.63631525E+01 -.12532810E+02 0.88960452E+01 0.93134502E+02 0.91636973E+02 0.0000E+00 0.0000E+00
       23  1    3    3    0    0 0.99881584E+02 0.56747335E+02 0.61634808E+03 0.63355883E+03 0.91188000E+02 0.0000E+00 0.9000E+01
      -13  1    4    4    0    0 -.31195065E+02 0.14241430E+02 0.34415720E+02 0.48583982E+02 0.10565837E+00 0.0000E+00 0.9000E+01
       13  1    4    4    0    0 0.24831912E+02 -.26774240E+02 -.25519675E+02 0.44550519E+02 0.10565837E+00 0.0000E+00 0.9000E+01
       23  1    3    3    0    0 -.93518432E+02 -.44214525E+02 0.28741084E+03 0.31878027E+03 0.91188000E+02 0.0000E+00 0.9000E+01
#aMCatNLO 1  0  0  2  1 0.24830503D+03 0.00000000D+00  -5  7  0 0.00000000D+00 0.00000000D+00 0.00000000D+00 0.00000000D+00 0.00000000D+00
  <mgrwgt>
 0.2057193128D-03    3    2    0
 0.254988228612745D+03 0.000000000000000D+00 0.000000000000000D+00 0.254988228612745D+03
 0.254988228612745D+03 0.000000000000000D+00 0.000000000000000D+00 -.254988228612745D+03
 0.195804939842641D+03 0.998815845094253D+02 0.567473355218334D+02 0.129721748792711D+03
 0.380086664723447D+02 -.311951348406389D+02 0.142414824789992D+02 -.163921464756955D+02
 0.137000671720731D+03 0.248319821409925D+02 -.267742928991018D+02 -.132044287853106D+03
 0.139162179189773D+03 -.935184318097788D+02 -.442145251017307D+02 0.187146855360904D+02
 0.000000000000000D+00 -.000000000000000D+00 0.000000000000000D+00 0.000000000000000D+00
 0.855876484895427D+03 0.000000000000000D+00 0.000000000000000D+00 0.855876484895427D+03
 0.310541437157671D+03 0.000000000000000D+00 0.000000000000000D+00 -.310541437157671D+03
 0.256522843569843D+03 0.199825227190568D+03 0.270345038341095D+02 0.129721748792711D+03
 0.257395831170021D+02 -.171097027443841D+02 0.100539417620762D+02 -.163921464756955D+02
 0.167681139605262D+03 0.921526535639983D+02 -.467884501324737D+02 -.132044287853106D+03
 0.117270129803499D+03 -.368586819518913D+02 -.610592344382415D+02 0.187146855360904D+02
 0.599204225957492D+03 -.238009496058291D+03 0.707592389745295D+02 0.545335047737757D+03
0.189288793205D-05 0.000000000000D+00 0.000000000000D+00 0.367295187483D-06 0.000000000000D+00  7 1 -1 23 -13 13 23 21 0 0.15062527D+00 0.10216819D-01 0.31573099D+05 0.31573099D+05 0.31573099D+05 0.11652821D+01  1  2  2  2  7  2       -1 0.201402233950D-03 0.100000000000D+01
-.884803596984D-07 0.000000000000D+00 -.726918806790D-08 0.367295187483D-06 0.000000000000D+00  7 1 -1 23 -13 13 23 21 2 0.15062527D+00 0.10216819D-01 0.31573099D+05 0.31573099D+05 0.31573099D+05 0.11652821D+01  1  2  3  2  7  2       -1 -.127834604381D-04 0.100000000000D+01
0.118360898661D-06 0.000000000000D+00 0.000000000000D+00 0.367295187483D-06 0.000000000000D+00  7 1 -1 23 -13 13 23 21 2 0.15062527D+00 0.10216819D-01 0.31573099D+05 0.31573099D+05 0.31573099D+05 0.11652821D+01  1  2 15  2  7  2       -1 0.171005392678D-04 0.100000000000D+01
  </mgrwgt>
  </event>
  <event>
  8     66 0.56006291E-06 0.30799455E+03 0.75467711E-02 0.91254560E-01
        1 -1    0    0  501    0 0.00000000E+00 0.00000000E+00 0.39984738E+03 0.39984751E+03 0.32000000E+00 0.0000E+00 0.9000E+01
       -1 -1    0    0    0  501 0.00000000E+00 0.00000000E+00 -.64945070E+03 0.64945078E+03 0.32000000E+00 0.0000E+00 0.9000E+01
       25  2    1    2    0    0 -.54200360E+02 0.24068984E+03 0.26595548E+03 0.47073209E+03 0.29997851E+03 0.0000E+00 0.0000E+00
       23  2    1    2    0    0 0.54200360E+02 -.24068984E+03 -.51555881E+03 0.57856619E+03 0.89825806E+02 0.0000E+00 0.0000E+00
       23  1    3    3    0    0 -.51398812E+02 -.55191431E+01 0.15167659E+03 0.18437282E+03 0.91188000E+02 0.0000E+00 0.9000E+01
      -13  1    4    4    0    0 0.57667350E+02 -.23467911E+03 -.43426547E+03 0.49697719E+03 0.10565837E+00 0.0000E+00 0.9000E+01
       13  1    4    4    0    0 -.34669900E+01 -.60107307E+01 -.81293334E+02 0.81589008E+02 0.10565837E+00 0.0000E+00 0.9000E+01
       23  1    3    3    0    0 -.28015484E+01 0.24620899E+03 0.11427889E+03 0.28635927E+03 0.91188000E+02 0.0000E+00 0.9000E+01
#aMCatNLO 1  0  0  2  1 0.52915203D+03 0.00000000D+00  -5  7  0 0.00000000D+00 0.00000000D+00 0.00000000D+00 0.00000000D+00 0.00000000D+00
  <mgrwgt>
 0.3319656270D-03    3    2    0
 0.509589314542642D+03 0.000000000000000D+00 0.000000000000000D+00 0.509589314542642D+03
 0.509589314542642D+03 0.000000000000000D+00 0.000000000000000D+00 -.509589314542642D+03
 0.226968132735494D+03 -.513988117721298D+02 -.551914309370919D+01 0.201313146966017D+03
 0.405310387810448D+03 0.576674347251966D+02 -.234679430502925D+03 -.325386758086578D+03
 0.640904717925279D+02 -.346707455854058D+01 -.601041439420931D+01 -.637137574422056D+02
 0.322809636746815D+03 -.280154839452624D+01 0.246208987990844D+03 0.187787368562767D+03
 0.000000000000000D+00 0.000000000000000D+00 0.000000000000000D+00 0.000000000000000D+00
 0.975603551743538D+03 0.000000000000000D+00 0.000000000000000D+00 0.975603551743538D+03
 0.748559397133915D+03 0.000000000000000D+00 0.000000000000000D+00 -.748559397133915D+03
 0.282522309604825D+03 -.173987288396194D+03 -.265526724761075D+02 0.201313146966017D+03
 0.447778366728428D+03 -.147594219180740D+03 -.269897887795205D+03 -.325386758086578D+03
 0.745157392968227D+02 -.368171099194145D+02 -.117325586608203D+02 -.637137574422056D+02
 0.343541953485131D+03 -.163132380053176D+03 0.218699687349656D+03 0.187787368562767D+03
 0.575804579762245D+03 0.521530997549525D+03 0.894834315824762D+02 0.227044154609622D+03
0.422306743253D-04 0.000000000000D+00 0.000000000000D+00 0.172166791831D-05 0.000000000000D+00  7 1 -1 23 -13 13 23 21 0 0.61514997D-01 0.99915509D-01 0.94860643D+05 0.94860643D+05 0.94860643D+05 0.11236073D+01  1  2  2  2  7  2       -1 0.322489838160D-03 0.100000000000D+01
-.162291975875D-05 0.000000000000D+00 -.162176909001D-06 0.172166791831D-05 0.000000000000D+00  7 1 -1 23 -13 13 23 21 2 0.61514997D-01 0.99915509D-01 0.94860643D+05 0.94860643D+05 0.94860643D+05 0.11236073D+01  1  2  3  2  7  2       -1 -.156463895865D-04 0.100000000000D+01
0.260579474110D-05 0.000000000000D+00 0.000000000000D+00 0.172166791831D-05 0.000000000000D+00  7 1 -1 23 -13 13 23 21 2 0.61514997D-01 0.99915509D-01 0.94860643D+05 0.94860643D+05 0.94860643D+05 0.11236073D+01  1  2 15  2  7  2       -1 0.251221783960D-04 0.100000000000D+01
  </mgrwgt>
  </event>
  <event>
  8     66 0.56006291E-06 0.19024869E+03 0.75467711E-02 0.10249381E+00
        1 -1    0    0  501    0 0.00000000E+00 0.00000000E+00 0.89290478E+03 0.89290483E+03 0.32000000E+00 0.0000E+00 0.9000E+01
       -1 -1    0    0    0  501 0.00000000E+00 0.00000000E+00 -.67198929E+02 0.67199691E+02 0.32000000E+00 0.0000E+00 0.9000E+01
       25  2    1    2    0    0 0.80601492E+02 0.38660341E+02 0.34875482E+03 0.46658591E+03 0.29678488E+03 0.0000E+00 0.0000E+00
       23  2    1    2    0    0 -.80601492E+02 -.38660341E+02 0.47695103E+03 0.49351862E+03 0.89928381E+02 0.0000E+00 0.0000E+00
       23  1    3    3    0    0 -.34980200E+02 -.59238941E+02 0.62704804E+02 0.13030737E+03 0.91188000E+02 0.0000E+00 0.9000E+01
      -11  1    4    4    0    0 -.62973982E+02 -.31854149E+02 0.14736870E+03 0.16339505E+03 0.51099893E-03 0.0000E+00 0.9000E+01
       11  1    4    4    0    0 -.17627510E+02 -.68061917E+01 0.32958233E+03 0.33012356E+03 0.51099893E-03 0.0000E+00 0.9000E+01
       23  1    3    3    0    0 0.11558169E+03 0.97899281E+02 0.28605001E+03 0.33627854E+03 0.91188000E+02 0.0000E+00 0.9000E+01
#aMCatNLO 1  0  0  2  2 0.11735617D+03 0.00000000D+00  -5  7  0 0.00000000D+00 0.00000000D+00 0.00000000D+00 0.00000000D+00 0.00000000D+00
  <mgrwgt>
 0.2964996138D-03    4    2    0
 0.244954358435024D+03 0.000000000000000D+00 0.000000000000000D+00 0.244954358435024D+03
 0.244954358435024D+03 0.000000000000000D+00 0.000000000000000D+00 -.244954358435024D+03
 0.149687009483022D+03 -.349801999432045D+02 -.592389405008524D+02 -.967371852197501D+02
 0.718360993506154D+02 -.629739820051839D+02 -.318541488479119D+02 0.134170027016969D+02
 0.914763626485989D+02 -.176275097402301D+02 -.680619171022821D+01 0.895034724364351D+02
 0.176909245387812D+03 0.115581691688618D+03 0.978992810589925D+02 -.618328991838192D+01
 0.000000000000000D+00 0.000000000000000D+00 0.000000000000000D+00 0.000000000000000D+00
 0.321013986844458D+03 0.000000000000000D+00 0.000000000000000D+00 0.321013986844458D+03
 0.301691133216089D+03 0.000000000000000D+00 0.000000000000000D+00 -.301691133216089D+03
 0.168168311570012D+03 -.352323642568723D+02 -.967777204574448D+02 -.967371852197501D+02
 0.816001541834157D+02 -.630957076614855D+02 -.499750025108176D+02 0.134170027016969D+02
 0.957230685955063D+02 -.177760207544307D+02 -.289144837287193D+02 0.895034724364351D+02
 0.158277283772821D+03 0.115315777999345D+03 0.583136817967558D+02 -.618328991838192D+01
 0.118936301938793D+03 0.788314673443749D+00 0.117353524900226D+03 0.193228536283689D+02
0.374050000523D-05 0.000000000000D+00 0.000000000000D+00 0.504675097555D-08 0.000000000000D+00  7 1 -1 23 -11 11 23 21 0 0.13737003D+00 0.10338360D-01 0.36194564D+05 0.36194564D+05 0.36194564D+05 0.11598469D+01  1  2  2  2  7  2       -1 0.455061837018D-03 0.100000000000D+01
-.191666211746D-06 0.000000000000D+00 -.143645049163D-07 0.504675097555D-08 0.000000000000D+00  7 1 -1 23 -11 11 23 21 2 0.13737003D+00 0.10338360D-01 0.36194564D+05 0.36194564D+05 0.36194564D+05 0.11598469D+01  1  2  3  2  7  2       -1 -.313680585865D-04 0.100000000000D+01
0.234878600737D-06 0.000000000000D+00 0.000000000000D+00 0.504675097555D-08 0.000000000000D+00  7 1 -1 23 -11 11 23 21 2 0.13737003D+00 0.10338360D-01 0.36194564D+05 0.36194564D+05 0.36194564D+05 0.11598469D+01  1  2 15  2  7  2       -1 0.384401905872D-04 0.100000000000D+01
-.101206484645D-05 0.000000000000D+00 0.000000000000D+00 0.504675097555D-08 0.000000000000D+00  7 1 -1 23 -11 11 23 21 2 0.13737003D+00 0.10338360D-01 0.36194564D+05 0.36194564D+05 0.36194564D+05 0.11598469D+01  1  2  4  2  7  2       -1 -.165634355204D-03 0.100000000000D+01
  </mgrwgt>
  </event>
  <event>
  8     66 0.56006291E-06 0.34418900E+03 0.75467711E-02 0.84213050E-01
        1 -1    0    0  501    0 0.00000000E+00 0.00000000E+00 0.10792421E+04 0.10792421E+04 0.32000000E+00 0.0000E+00 0.9000E+01
       -1 -1    0    0    0  501 0.00000000E+00 0.00000000E+00 -.34258683E+03 0.34258698E+03 0.32000000E+00 0.0000E+00 0.9000E+01
       25  2    1    2    0    0 0.10146889E+03 0.28344305E+03 -.17327085E+03 0.45918565E+03 0.30032112E+03 0.0000E+00 0.0000E+00
       23  2    1    2    0    0 -.10146889E+03 -.28344305E+03 0.90992611E+03 0.96264348E+03 0.89894576E+02 0.0000E+00 0.0000E+00
       23  1    3    3    0    0 0.71884401E+02 0.45771010E+02 0.34248492E+02 0.12942397E+03 0.91188000E+02 0.0000E+00 0.9000E+01
      -11  1    4    4    0    0 0.76560100E+01 -.36740301E+02 0.19365661E+03 0.19725959E+03 0.51099893E-03 0.0000E+00 0.9000E+01
       11  1    4    4    0    0 -.10912490E+03 -.24670274E+03 0.71626950E+03 0.76538388E+03 0.51099893E-03 0.0000E+00 0.9000E+01
       23  1    3    3    0    0 0.29584493E+02 0.23767204E+03 -.20751934E+03 0.32976168E+03 0.91188000E+02 0.0000E+00 0.9000E+01
#aMCatNLO 1  0  0  1  1 0.13192712D+04 0.00000000D+00  -5  7  0 0.00000000D+00 0.00000000D+00 0.00000000D+00 0.00000000D+00 0.00000000D+00
  <mgrwgt>
 0.3411976913D-03    5    2    0
 0.608057783581739D+03 0.000000000000000D+00 0.000000000000000D+00 0.608057783581739D+03
 0.608057783581739D+03 0.000000000000000D+00 0.000000000000000D+00 -.608057783581739D+03
 0.130571005309961D+03 0.718844008810933D+02 0.457710098594375D+02 -.383560119155702D+02
 0.113320867918608D+03 0.765601003823816D+01 -.367403011926938D+02 0.106925931767702D+03
 0.460977073056503D+03 -.109124903606926D+03 -.246702744563249D+03 0.373803923362877D+03
 0.511246620878407D+03 0.295844926875947D+02 0.237672035896505D+03 -.442373843215009D+03
 0.000000000000000D+00 0.000000000000000D+00 0.000000000000000D+00 0.000000000000000D+00
 0.276926071393806D+04 0.000000000000000D+00 0.000000000000000D+00 0.276926071393806D+04
 0.112955616031810D+04 0.000000000000000D+00 0.000000000000000D+00 -.112955616031810D+04
 0.104548993517222D+03 -.277185138251194D+02 0.193840409286462D+02 -.383560119155702D+02
 0.169373401944918D+03 -.112100596756609D+03 -.684664195705882D+02 0.106925931767702D+03
 0.863101596181707D+03 -.670038885464270D+03 -.395301004521529D+03 0.373803923362877D+03
 0.657248414544656D+03 -.465420236507822D+03 0.106534564182944D+03 -.442373843215009D+03
 0.210454446806766D+04 0.127527823255382D+04 0.337848818980527D+03 0.163970455361997D+04
0.549078334315D-04 0.000000000000D+00 0.000000000000D+00 0.176975731951D-05 0.000000000000D+00  7 1 -1 23 -11 11 23 21 0 0.16603726D+00 0.52705681D-01 0.11846606D+06 0.11846606D+06 0.11846606D+06 0.11157324D+01  1  2  2  1  7  1        1 0.330027557028D-03 0.100000000000D+01
-.184930957089D-05 0.000000000000D+00 -.210860537942D-06 0.176975731951D-05 0.000000000000D+00  7 1 -1 23 -11 11 23 21 2 0.16603726D+00 0.52705681D-01 0.11846606D+06 0.11846606D+06 0.11846606D+06 0.11157324D+01  1  2  3  1  7  1        1 -.138371161495D-04 0.100000000000D+01
0.333525355058D-05 0.000000000000D+00 0.000000000000D+00 0.176975731951D-05 0.000000000000D+00  7 1 -1 23 -11 11 23 21 2 0.16603726D+00 0.52705681D-01 0.11846606D+06 0.11846606D+06 0.11846606D+06 0.11157324D+01  1  2 15  1  7  1        1 0.249554166019D-04 0.100000000000D+01
0.293492819976D-04 0.000000000000D+00 -.207176719220D-04 0.176975731951D-05 0.000000000000D+00  7 1 -1 23 -11 11 23 21 2 0.80805815D+00 0.52705681D-01 0.11846606D+06 0.11846606D+06 0.11846606D+06 0.11157324D+01  1  2  5  1  7  1        1 0.515564390368D-07 0.100000000000D+01
0.516854157087D-05 0.000000000000D+00 -.398885959610D-05 0.176975731951D-05 0.000000000000D+00  7 21 -1 23 -11 11 23 -1 2 0.80805815D+00 0.52705681D-01 0.11846606D+06 0.11846606D+06 0.11846606D+06 0.11157324D+01  1  2  5  3  7  1        1 0.277337930905D-09 0.100000000000D+01
  </mgrwgt>
  </event>
  <event>
  8     66 0.56006291E-06 0.12141012E+03 0.75467711E-02 0.10615104E+00
        1 -1    0    0  501    0 0.00000000E+00 0.00000000E+00 0.52606995E+03 0.52607005E+03 0.32000000E+00 0.0000E+00 0.9000E+01
       -1 -1    0    0    0  501 0.00000000E+00 0.00000000E+00 -.14702546E+03 0.14702581E+03 0.32000000E+00 0.0000E+00 0.9000E+01
       25  2    1    2    0    0 -.70907360E+02 -.50209498E+02 0.43541964E+03 0.53606580E+03 0.30037883E+03 0.0000E+00 0.0000E+00
       23  2    1    2    0    0 0.70907360E+02 0.50209498E+02 -.56375143E+02 0.13703006E+03 0.89723085E+02 0.0000E+00 0.0000E+00
       23  1    3    3    0    0 0.68931260E+02 -.81265745E+02 0.23185099E+03 0.27097191E+03 0.91188000E+02 0.0000E+00 0.9000E+01
      -13  1    4    4    0    0 0.51744437E+02 0.45044889E+02 -.80514909E+02 0.10577897E+03 0.10565837E+00 0.0000E+00 0.9000E+01
       13  1    4    4    0    0 0.19162923E+02 0.51646093E+01 0.24139767E+02 0.31251085E+02 0.10565837E+00 0.0000E+00 0.9000E+01
       23  1    3    3    0    0 -.13983862E+03 0.31056247E+02 0.20356864E+03 0.26509389E+03 0.91188000E+02 0.0000E+00 0.9000E+01
#aMCatNLO 1  0  0  2  1 0.76675828D+01 0.00000000D+00  -5  7  0 0.00000000D+00 0.00000000D+00 0.00000000D+00 0.00000000D+00 0.00000000D+00
  <mgrwgt>
 0.1724811048D-03    8    2    0
 0.278111176783944D+03 0.000000000000000D+00 0.000000000000000D+00 0.278111176783944D+03
 0.278111176783944D+03 0.000000000000000D+00 0.000000000000000D+00 -.278111176783944D+03
 0.169910874581407D+03 0.689312601664494D+02 -.812657453837514D+02 0.959104475857936D+02
 0.182873348588464D+03 0.517444834370560D+02 0.450449442409889D+02 -.169517323764023D+03
 0.213670034896397D+02 0.191628771130135D+02 0.516455401063879D+01 0.791582975745506D+01
 0.182071126908377D+03 -.139838620716519D+03 0.310562471321237D+02 0.656910464207739D+02
 0.000000000000000D+00 0.000000000000000D+00 0.000000000000000D+00 0.000000000000000D+00
 0.282723082847851D+03 0.000000000000000D+00 0.000000000000000D+00 0.282723082847851D+03
 0.281342923886757D+03 0.000000000000000D+00 0.000000000000000D+00 -.281342923886757D+03
 0.170538898127759D+03 0.679366831436258D+02 -.833909920672821D+02 0.959104475857936D+02
 0.182025970367014D+03 0.506784804393476D+02 0.427670720566088D+02 -.169517323764023D+03
 0.211925826636209D+02 0.190385451560494D+02 0.489887717201178D+01 0.791582975745506D+01
 0.182517749111414D+03 -.140903716798037D+03 0.287803128777185D+02 0.656910464207739D+02
 0.779080646479995D+01 0.325000805901459D+01 0.694472996094302D+01 0.138015896109440D+01
0.135175353089D-05 0.000000000000D+00 0.000000000000D+00 0.274901927111D-06 0.000000000000D+00  7 1 -1 23 -13 13 23 21 0 0.80933873D-01 0.22619336D-01 0.39702810D+05 0.39702810D+05 0.39702810D+05 0.11562100D+01  1  2  2  2  7  2       -1 0.106258966035D-03 0.100000000000D+01
-.649461124464D-07 0.000000000000D+00 -.519108948350D-08 0.274901927111D-06 0.000000000000D+00  7 1 -1 23 -13 13 23 21 2 0.80933873D-01 0.22619336D-01 0.39702810D+05 0.39702810D+05 0.39702810D+05 0.11562100D+01  1  2  3  2  7  2       -1 -.682487474627D-05 0.100000000000D+01
0.848125615847D-07 0.000000000000D+00 0.000000000000D+00 0.274901927111D-06 0.000000000000D+00  7 1 -1 23 -13 13 23 21 2 0.80933873D-01 0.22619336D-01 0.39702810D+05 0.39702810D+05 0.39702810D+05 0.11562100D+01  1  2 15  2  7  2       -1 0.891254438367D-05 0.100000000000D+01
0.936744412379D-06 0.000000000000D+00 0.000000000000D+00 0.274901927111D-06 0.000000000000D+00  7 1 -1 23 -13 13 23 21 2 0.80933873D-01 0.23067116D-01 0.40993711D+05 0.40993711D+05 0.40993711D+05 0.11549603D+01  1  2 12  2  7  2       -1 0.951778766097D-04 0.100000000000D+01
-.654075606043D-06 0.000000000000D+00 0.000000000000D+00 0.274901927111D-06 0.000000000000D+00  7 1 -1 23 -13 13 23 21 2 0.80933873D-01 0.22619336D-01 0.39702810D+05 0.39702810D+05 0.39702810D+05 0.11562100D+01  1  2  4  2  7  2       -1 -.687336611490D-04 0.100000000000D+01
0.530637268982D-07 0.000000000000D+00 0.000000000000D+00 0.274901927111D-06 0.332686822690D-07  7 1 -1 23 -13 13 23 21 2 0.82275996D-01 0.22882180D-01 0.40993711D+05 0.40993711D+05 0.40993711D+05 0.11549603D+01  1  2 11  2  7  2       -1 0.533925254692D-05 0.100000000000D+01
0.263270746157D-07 0.000000000000D+00 0.000000000000D+00 0.274901927111D-06 0.000000000000D+00  7 1 21 23 -13 13 23 1 2 0.80933873D-01 0.23067116D-01 0.40993711D+05 0.40993711D+05 0.40993711D+05 0.11549603D+01  1  2 12  4  7  2       -1 0.319817586582D-04 0.100000000000D+01
0.306322173156D-09 0.000000000000D+00 0.000000000000D+00 0.274901927111D-06 0.711678121676D-10  7 1 21 23 -13 13 23 1 2 0.82275996D-01 0.22882180D-01 0.40993711D+05 0.40993711D+05 0.40993711D+05 0.11549603D+01  1  2 11  4  7  2       -1 0.369242511675D-06 0.100000000000D+01
  </mgrwgt>
  </event>
  <event>
  8     66 0.56006291E-06 0.51341283E+03 0.75467711E-02 0.93572486E-01
        1 -1    0    0  501    0 0.00000000E+00 0.00000000E+00 0.18445551E+04 0.18445551E+04 0.32000000E+00 0.0000E+00 0.9000E+01
       -1 -1    0    0    0  501 0.00000000E+00 0.00000000E+00 -.22777366E+03 0.22777388E+03 0.32000000E+00 0.0000E+00 0.9000E+01
       25  2    1    2    0    0 0.11730237E+03 -.46436048E+03 0.14522715E+04 0.15583024E+04 0.29970511E+03 0.0000E+00 0.0000E+00
       23  2    1    2    0    0 -.11730237E+03 0.46436048E+03 0.16450989E+03 0.51402662E+03 0.88144030E+02 0.0000E+00 0.0000E+00
       23  1    3    3    0    0 -.38555849E+02 -.23840573E+03 0.88007522E+03 0.91715401E+03 0.91188000E+02 0.0000E+00 0.9000E+01
      -13  1    4    4    0    0 -.92407597E+02 0.32558592E+03 0.73865319E+02 0.34641226E+03 0.10565837E+00 0.0000E+00 0.9000E+01
       13  1    4    4    0    0 -.24894773E+02 0.13877456E+03 0.90644571E+02 0.16761437E+03 0.10565837E+00 0.0000E+00 0.9000E+01
       23  1    3    3    0    0 0.15585822E+03 -.22595474E+03 0.57219631E+03 0.64114834E+03 0.91188000E+02 0.0000E+00 0.9000E+01
#aMCatNLO 1  0  0  1  2 0.71650221D+02 0.00000000D+00  -5  7  0 0.00000000D+00 0.00000000D+00 0.00000000D+00 0.00000000D+00 0.00000000D+00
  <mgrwgt>
 0.1119207570D-03    4    2    0
 0.648183088125552D+03 0.000000000000000D+00 0.000000000000000D+00 0.648183088125552D+03
 0.648183088125552D+03 0.000000000000000D+00 0.000000000000000D+00 -.648183088125552D+03
 0.368534444804699D+03 -.385558488406990D+02 -.238405733192940D+03 0.263018133527743D+03
 0.461641676316202D+03 -.924076939627723D+02 0.325586187598343D+03 -.313954598395521D+03
 0.154893801536562D+03 -.248946757896795D+02 0.138774287992888D+03 -.641407971874491D+02
 0.311296253593640D+03 0.155858218593151D+03 -.225954742398291D+03 0.115077262055227D+03
 0.000000000000000D+00 -.000000000000000D+00 0.000000000000000D+00 -.000000000000000D+00
 0.664462252899382D+03 0.000000000000000D+00 0.000000000000000D+00 0.664462252899382D+03
 0.733112688140755D+03 0.000000000000000D+00 0.000000000000000D+00 -.733112688140755D+03
 0.379137751786130D+03 -.276063129437496D+02 -.255909234703782D+03 0.263018133527743D+03
 0.444381578910430D+03 -.791391329519312D+02 0.304375582885438D+03 -.313954598395521D+03
 0.147897936519728D+03 -.204603407692461D+02 0.131685732782858D+03 -.641407971874491D+02
 0.326927454745995D+03 0.165204899446890D+03 -.240895982281378D+03 0.115077262055227D+03
 0.992302190778551D+02 -.379991127819635D+02 0.607439013168634D+02 -.686504352413726D+02
0.472962269773D-04 0.000000000000D+00 0.000000000000D+00 0.574005268167D-06 0.000000000000D+00  7 1 -1 23 -13 13 23 21 0 0.28377772D+00 0.35042120D-01 0.26359273D+06 0.26359273D+06 0.26359273D+06 0.10887335D+01  1  2  2  1  7  1        1 0.170439569168D-03 0.100000000000D+01
-.245399054009D-05 0.000000000000D+00 -.181629964975D-06 0.574005268167D-06 0.000000000000D+00  7 1 -1 23 -13 13 23 21 2 0.28377772D+00 0.35042120D-01 0.26359273D+06 0.26359273D+06 0.26359273D+06 0.10887335D+01  1  2  3  1  7  1        1 -.104823826379D-04 0.100000000000D+01
0.295962986829D-05 0.000000000000D+00 0.000000000000D+00 0.574005268167D-06 0.000000000000D+00  7 1 -1 23 -13 13 23 21 2 0.28377772D+00 0.35042120D-01 0.26359273D+06 0.26359273D+06 0.26359273D+06 0.10887335D+01  1  2 15  1  7  1        1 0.126422544175D-04 0.100000000000D+01
-.142052548159D-04 0.000000000000D+00 0.000000000000D+00 0.574005268167D-06 0.000000000000D+00  7 1 -1 23 -13 13 23 21 2 0.28377772D+00 0.35042120D-01 0.26359273D+06 0.26359273D+06 0.26359273D+06 0.10887335D+01  1  2  4  1  7  1        1 -.606786839710D-04 0.100000000000D+01
  </mgrwgt>
  </event>
  <event>
  8     66 0.56006291E-06 0.15615891E+03 0.75467711E-02 0.97017254E-01
        1 -1    0    0  501    0 0.00000000E+00 0.00000000E+00 0.92025192E+03 0.92025197E+03 0.32000000E+00 0.0000E+00 0.9000E+01
       -1 -1    0    0    0  501 0.00000000E+00 0.00000000E+00 -.26120346E+03 0.26120365E+03 0.32000000E+00 0.0000E+00 0.9000E+01
       25  2    1    2    0    0 -.18722599E+03 -.25713641E+03 -.10051739E+02 0.43477016E+03 0.29622854E+03 0.0000E+00 0.0000E+00
       23  2    1    2    0    0 0.18722599E+03 0.25713641E+03 0.66910020E+03 0.74668547E+03 0.93120399E+02 0.0000E+00 0.0000E+00
       23  1    3    3    0    0 0.22551276E+02 -.12281672E+03 0.50549420E+02 0.16267453E+03 0.91188000E+02 0.0000E+00 0.9000E+01
      -11  1    4    4    0    0 0.14772889E+02 0.91930978E+01 0.66343952E+01 0.18621667E+02 0.51099893E-03 0.0000E+00 0.9000E+01
       11  1    4    4    0    0 0.17245310E+03 0.24794331E+03 0.66246580E+03 0.72806380E+03 0.51099893E-03 0.0000E+00 0.9000E+01
       23  1    3    3    0    0 -.20977726E+03 -.13431969E+03 -.60601159E+02 0.27209563E+03 0.91188000E+02 0.0000E+00 0.9000E+01
#aMCatNLO 1  0  0  1  2 0.71105455D+02 0.00000000D+00  -5  7  0 0.00000000D+00 0.00000000D+00 0.00000000D+00 0.00000000D+00 0.00000000D+00
  <mgrwgt>
 0.5438139161D-03    9    2    0
 0.490278626703896D+03 0.000000000000000D+00 0.000000000000000D+00 0.490278626703896D+03
 0.490278626703896D+03 0.000000000000000D+00 0.000000000000000D+00 -.490278626703896D+03
 0.162028500812832D+03 0.225512764569266D+02 -.122816723308893D+03 -.484301160176601D+02
 0.179778241198883D+02 0.147728890717567D+02 0.919309778037329D+01 -.452226290254197D+01
 0.431976823684496D+03 0.172453098449272D+03 0.247943314428344D+03 0.308849506825054D+03
 0.368574104790576D+03 -.209777263977956D+03 -.134319688899824D+03 -.255897127904852D+03
 0.000000000000000D+00 -.000000000000000D+00 -.000000000000000D+00 0.000000000000000D+00
 0.629965878022062D+03 0.000000000000000D+00 0.000000000000000D+00 0.629965878022062D+03
 0.500698925796682D+03 0.000000000000000D+00 0.000000000000000D+00 -.500698925796682D+03
 0.158922541554266D+03 0.322582023146140D+02 -.116426178825953D+03 -.484301160176601D+02
 0.192863666654895D+02 0.158999168403304D+02 0.993507533270769D+01 -.452226290254197D+01
 0.453442929786485D+03 0.199231961158321D+03 0.265573150676571D+03 0.308849506825054D+03
 0.351480153614449D+03 -.187999757825303D+03 -.119982490508039D+03 -.255897127904852D+03
 0.147532812198055D+03 -.593903224879625D+02 -.390995566752876D+02 0.129266952225379D+03
0.334837159294D-04 0.000000000000D+00 0.000000000000D+00 0.221496741855D-07 0.000000000000D+00  7 1 -1 23 -11 11 23 21 0 0.14157724D+00 0.40185167D-01 0.13664191D+06 0.13664191D+06 0.13664191D+06 0.11107628D+01  1  2  2  1  7  1        1 0.428062720675D-03 0.100000000000D+01
-.167981489946D-05 0.000000000000D+00 -.128586285634D-06 0.221496741855D-07 0.000000000000D+00  7 1 -1 23 -11 11 23 21 2 0.14157724D+00 0.40185167D-01 0.13664191D+06 0.13664191D+06 0.13664191D+06 0.11107628D+01  1  2  3  1  7  1        1 -.264958468952D-04 0.100000000000D+01
0.207588839686D-05 0.000000000000D+00 0.000000000000D+00 0.221496741855D-07 0.000000000000D+00  7 1 -1 23 -11 11 23 21 2 0.14157724D+00 0.40185167D-01 0.13664191D+06 0.13664191D+06 0.13664191D+06 0.11107628D+01  1  2 15  1  7  1        1 0.327431439932D-04 0.100000000000D+01
0.122078150796D-03 0.000000000000D+00 0.000000000000D+00 0.221496741855D-07 0.000000000000D+00  7 1 -1 23 -11 11 23 21 2 0.18311698D+00 0.40185167D-01 0.16571464D+06 0.16571464D+06 0.16571464D+06 0.11041534D+01  1  2 12  1  7  1        1 0.119145827180D-02 0.100000000000D+01
-.122934907249D-03 0.000000000000D+00 0.000000000000D+00 0.221496741855D-07 0.000000000000D+00  7 1 -1 23 -11 11 23 21 2 0.14157724D+00 0.40185167D-01 0.13664191D+06 0.13664191D+06 0.13664191D+06 0.11107628D+01  1  2  4  1  7  1        1 -.193906154874D-02 0.100000000000D+01
-.145975946200D-03 0.000000000000D+00 -.184238371478D-04 0.221496741855D-07 0.000000000000D+00  7 1 -1 23 -11 11 23 21 2 0.18353896D+00 0.40185167D-01 0.13664191D+06 0.13664191D+06 0.13664191D+06 0.11107628D+01  1  2  5  1  7  1        1 -.144547273669D-02 0.100000000000D+01
0.146401964154D-03 0.000000000000D+00 0.178200768463D-04 0.221496741855D-07 0.000000000000D+00  7 1 -1 23 -11 11 23 21 2 0.14157724D+00 0.40185167D-01 0.13664191D+06 0.13664191D+06 0.13664191D+06 0.11107628D+01  1  2  6  1  7  1        1 0.230920920433D-02 0.100000000000D+01
0.421974595756D-05 0.000000000000D+00 0.000000000000D+00 0.221496741855D-07 0.000000000000D+00  7 21 -1 23 -11 11 23 -1 2 0.18311698D+00 0.40185167D-01 0.16571464D+06 0.16571464D+06 0.16571464D+06 0.11041534D+01  1  2 12  3  7  1        1 0.447686037794D-04 0.100000000000D+01
-.475061101678D-05 0.000000000000D+00 -.641015182338D-06 0.221496741855D-07 0.000000000000D+00  7 21 -1 23 -11 11 23 -1 2 0.18353896D+00 0.40185167D-01 0.13664191D+06 0.13664191D+06 0.13664191D+06 0.11107628D+01  1  2  5  3  7  1        1 -.513978961018D-04 0.100000000000D+01
  </mgrwgt>
  </event>
  <event>
  8     66 0.56006291E-06 0.20790474E+03 0.75467711E-02 0.97426701E-01
        1 -1    0    0  501    0 0.00000000E+00 0.00000000E+00 0.34272156E+04 0.34272156E+04 0.32000000E+00 0.0000E+00 0.9000E+01
       -1 -1    0    0    0  501 0.00000000E+00 0.00000000E+00 -.76852442E+02 0.76853109E+02 0.32000000E+00 0.0000E+00 0.9000E+01
       25  2    1    2    0    0 -.23742821E+03 0.12005070E+03 0.50234299E+03 0.64220519E+03 0.29882218E+03 0.0000E+00 0.0000E+00
       23  2    1    2    0    0 0.23742821E+03 -.12005070E+03 0.28480201E+04 0.28618635E+04 0.90883004E+02 0.0000E+00 0.0000E+00
       23  1    3    3    0    0 -.26711511E+03 0.76803961E+02 0.39899954E+03 0.49473752E+03 0.91188000E+02 0.0000E+00 0.9000E+01
      -11  1    4    4    0    0 0.11016075E+03 -.62853968E+02 0.90557997E+03 0.91441845E+03 0.51099893E-03 0.0000E+00 0.9000E+01
       11  1    4    4    0    0 0.12726746E+03 -.57196728E+02 0.19424402E+04 0.19474451E+04 0.51099893E-03 0.0000E+00 0.9000E+01
       23  1    3    3    0    0 0.29686899E+02 0.43246735E+02 0.10334346E+03 0.14746767E+03 0.91188000E+02 0.0000E+00 0.9000E+01
#aMCatNLO 1  0  0  1  2 0.10865564D+03 0.00000000D+00  -5  7  0 0.00000000D+00 0.00000000D+00 0.00000000D+00 0.00000000D+00 0.00000000D+00
  <mgrwgt>
 0.2668443764D-03    9    2    0
 0.513216407089732D+03 0.000000000000000D+00 0.000000000000000D+00 0.513216407089732D+03
 0.513216407089732D+03 0.000000000000000D+00 0.000000000000000D+00 -.513216407089732D+03
 0.386582449712727D+03 -.267115109116149D+03 0.768039613224982D+02 -.252747718266522D+03
 0.165781245048205D+03 0.110160752214361D+03 -.628539684062858D+02 0.106758646192619D+03
 0.307961085756817D+03 0.127267457692220D+03 -.571967277444809D+02 0.274538811260631D+03
 0.166108033661715D+03 0.296868992095676D+02 0.432467348282684D+02 -.128549739186728D+03
 0.000000000000000D+00 -.000000000000000D+00 0.000000000000000D+00 0.000000000000000D+00
 0.736312482115705D+03 0.000000000000000D+00 0.000000000000000D+00 0.736312482115705D+03
 0.529485940741741D+03 0.000000000000000D+00 0.000000000000000D+00 -.529485940741741D+03
 0.375115753704330D+03 -.259066257036552D+03 0.374144719233842D+02 -.252747718266522D+03
 0.175561012722289D+03 0.113767710100024D+03 -.805057065666274D+02 0.106758646192619D+03
 0.318311060088448D+03 0.133885264903616D+03 -.895829667287226D+02 0.274538811260631D+03
 0.163179975218060D+03 0.331664800503368D+02 0.262183547207163D+02 -.128549739186728D+03
 0.233630621124320D+03 -.217531980174248D+02 0.106455846651249D+03 0.206826541373963D+03
0.135318494546D-03 0.000000000000D+00 0.000000000000D+00 0.504483047217D-06 0.000000000000D+00  7 1 -1 23 -11 11 23 21 0 0.52726399D+00 0.11823505D-01 0.11024838D+06 0.11024838D+06 0.11024838D+06 0.11182614D+01  1  2  2  1  7  1        1 0.224115501026D-03 0.100000000000D+01
-.578450134383D-05 0.000000000000D+00 -.519658649236D-06 0.504483047217D-06 0.000000000000D+00  7 1 -1 23 -11 11 23 21 2 0.52726399D+00 0.11823505D-01 0.11024838D+06 0.11024838D+06 0.11024838D+06 0.11182614D+01  1  2  3  1  7  1        1 -.119802903238D-04 0.100000000000D+01
0.826034955354D-05 0.000000000000D+00 0.000000000000D+00 0.504483047217D-06 0.000000000000D+00  7 1 -1 23 -11 11 23 21 2 0.52726399D+00 0.11823505D-01 0.11024838D+06 0.11024838D+06 0.11024838D+06 0.11182614D+01  1  2 15  1  7  1        1 0.171080236559D-04 0.100000000000D+01
0.187405038272D-03 0.000000000000D+00 0.000000000000D+00 0.504483047217D-06 0.000000000000D+00  7 1 -1 23 -11 11 23 21 2 0.76201418D+00 0.11823505D-01 0.15476860D+06 0.15476860D+06 0.15476860D+06 0.11064809D+01  1  2 12  1  7  1        1 0.105765617148D-04 0.100000000000D+01
-.201502006628D-03 0.000000000000D+00 0.000000000000D+00 0.504483047217D-06 0.000000000000D+00  7 1 -1 23 -11 11 23 21 2 0.52726399D+00 0.11823505D-01 0.11024838D+06 0.11024838D+06 0.11024838D+06 0.11182614D+01  1  2  4  1  7  1        1 -.417331140014D-03 0.100000000000D+01
-.215230719793D-03 0.000000000000D+00 -.316960361685D-04 0.504483047217D-06 0.000000000000D+00  7 1 -1 23 -11 11 23 21 2 0.75892907D+00 0.11823505D-01 0.11024838D+06 0.11024838D+06 0.11024838D+06 0.11182614D+01  1  2  5  1  7  1        1 -.136665397613D-04 0.100000000000D+01
0.221150720704D-03 0.000000000000D+00 0.307795496664D-04 0.504483047217D-06 0.000000000000D+00  7 1 -1 23 -11 11 23 21 2 0.52726399D+00 0.11823505D-01 0.11024838D+06 0.11024838D+06 0.11024838D+06 0.11182614D+01  1  2  6  1  7  1        1 0.458025624314D-03 0.100000000000D+01
0.839888832208D-05 0.000000000000D+00 0.000000000000D+00 0.504483047217D-06 0.000000000000D+00  7 21 -1 23 -11 11 23 -1 2 0.76201418D+00 0.11823505D-01 0.15476860D+06 0.15476860D+06 0.15476860D+06 0.11064809D+01  1  2 12  3  7  1        1 0.183513308835D-07 0.100000000000D+01
-.861951062753D-05 0.000000000000D+00 -.140916440402D-05 0.504483047217D-06 0.000000000000D+00  7 21 -1 23 -11 11 23 -1 2 0.75892907D+00 0.11823505D-01 0.11024838D+06 0.11024838D+06 0.11024838D+06 0.11182614D+01  1  2  5  3  7  1        1 -.217155103137D-07 0.100000000000D+01
  </mgrwgt>
  </event>
  <event>
  8     66 0.56006291E-06 0.86489916E+02 0.75467711E-02 0.10248689E+00
        1 -1    0    0  501    0 0.00000000E+00 0.00000000E+00 0.66850864E+03 0.66850871E+03 0.32000000E+00 0.0000E+00 0.9000E+01
       -1 -1    0    0    0  501 0.00000000E+00 0.00000000E+00 -.13177900E+03 0.13177939E+03 0.32000000E+00 0.0000E+00 0.9000E+01
       25  2    1    2    0    0 -.18372592E+03 -.96693337E+02 0.35248659E+03 0.50722186E+03 0.29987065E+03 0.0000E+00 0.0000E+00
       23  2    1    2    0    0 0.18372592E+03 0.96693337E+02 0.18424305E+03 0.29306624E+03 0.94008021E+02 0.0000E+00 0.0000E+00
       23  1    3    3    0    0 -.12866918E+02 -.27216074E+02 -.34538085E+01 0.96090855E+02 0.91188000E+02 0.0000E+00 0.9000E+01
      -11  1    4    4    0    0 0.12831569E+03 0.70970703E+02 0.17951813E+03 0.23179413E+03 0.51099893E-03 0.0000E+00 0.9000E+01
       11  1    4    4    0    0 0.55410231E+02 0.25722634E+02 0.47249131E+01 0.61272118E+02 0.51099893E-03 0.0000E+00 0.9000E+01
       23  1    3    3    0    0 -.17085900E+03 -.69477262E+02 0.35594039E+03 0.41113101E+03 0.91188000E+02 0.0000E+00 0.9000E+01
#aMCatNLO 1  0  0  2  1 0.18384514D+02 0.00000000D+00  -5  7  0 0.00000000D+00 0.00000000D+00 0.00000000D+00 0.00000000D+00 0.00000000D+00
  <mgrwgt>
 0.1386388139D-03    9    2    0
 0.296809010255767D+03 0.000000000000000D+00 0.000000000000000D+00 0.296809010255767D+03
 0.296809010255767D+03 0.000000000000000D+00 0.000000000000000D+00 -.296809010255767D+03
 0.132668024039401D+03 -.128669183704708D+02 -.272160744699842D+02 -.915384124868406D+02
 0.150179707737098D+03 0.128315689569383D+03 0.709707033164988D+02 0.324374428260828D+02
 0.783321001363880D+02 0.554102313654178D+02 0.257226335488403D+02 -.490302997657577D+02
 0.232438188598648D+03 -.170859002564330D+03 -.694772623953548D+02 0.108131269426516D+03
 0.000000000000000D+00 -.000000000000000D+00 -.000000000000000D+00 -.000000000000000D+00
 0.299011610741694D+03 0.000000000000000D+00 0.000000000000000D+00 0.299011610741694D+03
 0.337963768674046D+03 0.000000000000000D+00 0.000000000000000D+00 -.337963768674046D+03
 0.131840059013480D+03 -.101104829124569D+02 -.241877446518648D+02 -.915384124868406D+02
 0.154552171345859D+03 0.131491296707724D+03 0.744595518435738D+02 0.324374428260828D+02
 0.801139266359796D+02 0.570613954483297D+02 0.275366681972309D+02 -.490302997657577D+02
 0.227396482023680D+03 -.166067071156041D+03 -.642126556265237D+02 0.108131269426516D+03
 0.430727403967414D+02 -.123751380875558D+02 -.135958197624163D+02 -.389521579323521D+02
0.221737180310D-05 0.000000000000D+00 0.000000000000D+00 0.925529347794D-07 0.000000000000D+00  7 1 -1 23 -11 11 23 21 0 0.10284752D+00 0.20273729D-01 0.64899666D+05 0.64899666D+05 0.64899666D+05 0.11374633D+01  1  2  2  2  7  2       -1 0.147495173193D-03 0.100000000000D+01
-.119690791766D-06 0.000000000000D+00 -.851529157132D-08 0.925529347794D-07 0.000000000000D+00  7 1 -1 23 -11 11 23 21 2 0.10284752D+00 0.20273729D-01 0.64899666D+05 0.64899666D+05 0.64899666D+05 0.11374633D+01  1  2  3  2  7  2       -1 -.103008915437D-04 0.100000000000D+01
0.143323306257D-06 0.000000000000D+00 0.000000000000D+00 0.925529347794D-07 0.000000000000D+00  7 1 -1 23 -11 11 23 21 2 0.10284752D+00 0.20273729D-01 0.64899666D+05 0.64899666D+05 0.64899666D+05 0.11374633D+01  1  2 15  2  7  2       -1 0.123347653704D-04 0.100000000000D+01
0.213093191208D-04 0.000000000000D+00 0.000000000000D+00 0.925529347794D-07 0.000000000000D+00  7 1 -1 23 -11 11 23 21 2 0.10284752D+00 0.23153613D-01 0.69636933D+05 0.69636933D+05 0.69636933D+05 0.11348517D+01  1  2 12  2  7  2       -1 0.147386194528D-02 0.100000000000D+01
-.215089516030D-04 0.000000000000D+00 0.000000000000D+00 0.925529347794D-07 0.000000000000D+00  7 1 -1 23 -11 11 23 21 2 0.10284752D+00 0.20273729D-01 0.64899666D+05 0.64899666D+05 0.64899666D+05 0.11374633D+01  1  2  4  2  7  2       -1 -.185111464642D-02 0.100000000000D+01
-.275119928947D-04 0.000000000000D+00 -.223701649980D-05 0.925529347794D-07 0.000000000000D+00  7 1 -1 23 -11 11 23 21 2 0.10284752D+00 0.23208801D-01 0.64899666D+05 0.64899666D+05 0.64899666D+05 0.11374633D+01  1  2  5  2  7  2       -1 -.190550803410D-02 0.100000000000D+01
0.275822486403D-04 0.000000000000D+00 0.221672412203D-05 0.925529347794D-07 0.000000000000D+00  7 1 -1 23 -11 11 23 21 2 0.10284752D+00 0.20273729D-01 0.64899666D+05 0.64899666D+05 0.64899666D+05 0.11374633D+01  1  2  6  2  7  2       -1 0.237379791362D-02 0.100000000000D+01
0.440046113421D-06 0.000000000000D+00 0.000000000000D+00 0.925529347794D-07 0.000000000000D+00  7 1 21 23 -11 11 23 1 2 0.10284752D+00 0.23153613D-01 0.69636933D+05 0.69636933D+05 0.69636933D+05 0.11348517D+01  1  2 12  4  7  2       -1 0.358599738906D-03 0.100000000000D+01
-.563659580815D-06 0.000000000000D+00 -.468779107580D-07 0.925529347794D-07 0.000000000000D+00  7 1 21 23 -11 11 23 1 2 0.10284752D+00 0.23208801D-01 0.64899666D+05 0.64899666D+05 0.64899666D+05 0.11374633D+01  1  2  5  4  7  2       -1 -.460527150359D-03 0.100000000000D+01
  </mgrwgt>
  </event>
  <event>
  8     66 0.56006291E-06 0.19732351E+03 0.75467711E-02 0.94547131E-01
        1 -1    0    0  501    0 0.00000000E+00 0.00000000E+00 0.24594427E+04 0.24594427E+04 0.32000000E+00 0.0000E+00 0.9000E+01
       -1 -1    0    0    0  501 0.00000000E+00 0.00000000E+00 -.57443273E+03 0.57443282E+03 0.32000000E+00 0.0000E+00 0.9000E+01
       25  2    1    2    0    0 0.28774264E+03 0.21958232E+03 0.23732284E+04 0.24193557E+04 0.30009459E+03 0.0000E+00 0.0000E+00
       23  2    1    2    0    0 -.28774264E+03 -.21958232E+03 -.48821848E+03 0.61451979E+03 0.90912406E+02 0.0000E+00 0.0000E+00
       23  1    3    3    0    0 0.79136257E+02 0.71354506E+02 0.14560614E+04 0.14628001E+04 0.91188000E+02 0.0000E+00 0.9000E+01
      -13  1    4    4    0    0 -.11469259E+02 -.34791320E+02 -.80831438E+02 0.88745211E+02 0.10565837E+00 0.0000E+00 0.9000E+01
       13  1    4    4    0    0 -.27627339E+03 -.18479100E+03 -.40738704E+03 0.52577458E+03 0.10565837E+00 0.0000E+00 0.9000E+01
       23  1    3    3    0    0 0.20860639E+03 0.14822781E+03 0.91716698E+03 0.95655561E+03 0.91188000E+02 0.0000E+00 0.9000E+01
#aMCatNLO 1  0  0  1  2 0.21078913D+03 0.00000000D+00  -5  7  0 0.00000000D+00 0.00000000D+00 0.00000000D+00 0.00000000D+00 0.00000000D+00
  <mgrwgt>
 0.1839754694D-03    9    2    0
 0.118860612793675D+04 0.000000000000000D+00 0.000000000000000D+00 0.118860612793675D+04
 0.118860612793675D+04 0.000000000000000D+00 0.000000000000000D+00 -.118860612793675D+04
 0.712289423012438D+03 0.791362567540238D+02 0.713545059743979D+02 0.698345872856353D+03
 0.177353688791449D+03 -.114689016941019D+02 -.347911177832585D+02 -.173529171453265D+03
 0.994049159327895D+03 -.276273742977307D+03 -.184791201547228D+03 -.936834436777671D+03
 0.493519984741718D+03 0.208606387917385D+03 0.148227813356089D+03 0.412017735374582D+03
 0.000000000000000D+00 0.000000000000000D+00 -.000000000000000D+00 0.000000000000000D+00
 0.138969060070619D+04 0.000000000000000D+00 0.000000000000000D+00 0.138969060070619D+04
 0.124982177758846D+04 0.000000000000000D+00 0.000000000000000D+00 -.124982177758846D+04
 0.721005789926691D+03 0.755630923562363D+02 0.134675011423327D+03 0.698345872856353D+03
 0.175026787100390D+03 -.123473762467031D+02 -.192235573516218D+02 -.173529171453265D+03
 0.982970006964404D+03 -.281202395801210D+03 -.974499115172830D+02 -.936834436777671D+03
 0.507536786038913D+03 0.206110781721797D+03 0.192452771436371D+03 0.412017735374582D+03
 0.252973008264255D+03 0.118758979698796D+02 -.210454313990794D+03 0.139868823117735D+03
0.751498669291D-03 0.000000000000D+00 0.000000000000D+00 0.165447850643D-04 0.000000000000D+00  7 1 -1 23 -13 13 23 21 0 0.37837580D+00 0.88374274D-01 0.15246111D+06 0.15246111D+06 0.15246111D+06 0.11069946D+01  1  2  2  1  7  1        1 0.192738174609D-03 0.100000000000D+01
0.211553173962D-04 0.000000000000D+00 -.288595276422D-05 0.165447850643D-04 0.000000000000D+00  7 1 -1 23 -13 13 23 21 2 0.37837580D+00 0.88374274D-01 0.15246111D+06 0.15246111D+06 0.15246111D+06 0.11069946D+01  1  2  3  1  7  1        1 0.664890393815D-05 0.100000000000D+01
0.449457718397D-04 0.000000000000D+00 0.000000000000D+00 0.165447850643D-04 0.000000000000D+00  7 1 -1 23 -13 13 23 21 2 0.37837580D+00 0.88374274D-01 0.15246111D+06 0.15246111D+06 0.15246111D+06 0.11069946D+01  1  2 15  1  7  1        1 0.141260050034D-04 0.100000000000D+01
0.508320045947D-03 0.000000000000D+00 0.000000000000D+00 0.165447850643D-04 0.000000000000D+00  7 1 -1 23 -13 13 23 21 2 0.45094330D+00 0.88374274D-01 0.25348918D+06 0.25348918D+06 0.25348918D+06 0.10900066D+01  1  2 12  1  7  1        1 0.686938336501D-04 0.100000000000D+01
-.966535088835D-03 0.000000000000D+00 0.000000000000D+00 0.165447850643D-04 0.000000000000D+00  7 1 -1 23 -13 13 23 21 2 0.37837580D+00 0.88374274D-01 0.15246111D+06 0.15246111D+06 0.15246111D+06 0.11069946D+01  1  2  4  1  7  1        1 -.303772278059D-03 0.100000000000D+01
-.112694776594D-02 0.000000000000D+00 -.425619465791D-03 0.165447850643D-04 0.000000000000D+00  7 1 -1 23 -13 13 23 21 2 0.44931092D+00 0.88374274D-01 0.15246111D+06 0.15246111D+06 0.15246111D+06 0.11069946D+01  1  2  5  1  7  1        1 -.167563334516D-03 0.100000000000D+01
0.118869641320D-02 0.000000000000D+00 0.419412722170D-03 0.165447850643D-04 0.000000000000D+00  7 1 -1 23 -13 13 23 21 2 0.37837580D+00 0.88374274D-01 0.15246111D+06 0.15246111D+06 0.15246111D+06 0.11069946D+01  1  2  6  1  7  1        1 0.373595352645D-03 0.100000000000D+01
0.131400499089D-04 0.000000000000D+00 0.000000000000D+00 0.165447850643D-04 0.000000000000D+00  7 21 -1 23 -13 13 23 -1 2 0.45094330D+00 0.88374274D-01 0.25348918D+06 0.25348918D+06 0.25348918D+06 0.10900066D+01  1  2 12  3  7  1        1 0.422293687627D-06 0.100000000000D+01
-.248938116410D-04 0.000000000000D+00 -.108226884637D-04 0.165447850643D-04 0.000000000000D+00  7 21 -1 23 -13 13 23 -1 2 0.44931092D+00 0.88374274D-01 0.15246111D+06 0.15246111D+06 0.15246111D+06 0.11069946D+01  1  2  5  3  7  1        1 -.913481546479D-06 0.100000000000D+01
  </mgrwgt>
  </event>
  <event>
  8     66 0.56006291E-06 0.40280319E+03 0.75467711E-02 0.96134181E-01
        1 -1    0    0  501    0 0.00000000E+00 0.00000000E+00 0.76961867E+03 0.76961874E+03 0.32000000E+00 0.0000E+00 0.9000E+01
       -1 -1    0    0    0  501 0.00000000E+00 0.00000000E+00 -.48842175E+03 0.48842186E+03 0.32000000E+00 0.0000E+00 0.9000E+01
       25  2    1    2    0    0 -.14408937E+03 0.33432130E+03 -.30509092E+03 0.56196128E+03 0.30031238E+03 0.0000E+00 0.0000E+00
       23  2    1    2    0    0 0.14408937E+03 -.33432130E+03 0.58628785E+03 0.69607932E+03 0.90887312E+02 0.0000E+00 0.0000E+00
       23  1    3    3    0    0 -.11665581E+03 0.10326497E+03 -.18121975E+02 0.18142737E+03 0.91188000E+02 0.0000E+00 0.9000E+01
      -13  1    4    4    0    0 -.12421685E+02 -.39215729E+02 0.60886747E+02 0.73480465E+02 0.10565837E+00 0.0000E+00 0.9000E+01
       13  1    4    4    0    0 0.15651105E+03 -.29510557E+03 0.52540110E+03 0.62259885E+03 0.10565837E+00 0.0000E+00 0.9000E+01
       23  1    3    3    0    0 -.27433557E+02 0.23105633E+03 -.28696895E+03 0.38053391E+03 0.91188000E+02 0.0000E+00 0.9000E+01
#aMCatNLO 1  0  0  2  2 0.71475838D+02 0.00000000D+00  -5  7  0 0.00000000D+00 0.00000000D+00 0.00000000D+00 0.00000000D+00 0.00000000D+00
  <mgrwgt>
 0.1650622450D-03    4    2    0
 0.613105706929132D+03 0.000000000000000D+00 0.000000000000000D+00 0.613105706929132D+03
 0.613105706929132D+03 0.000000000000000D+00 0.000000000000000D+00 -.613105706929132D+03
 0.190292500042526D+03 -.116655811307910D+03 0.103264968010526D+03 -.601976104036781D+02
 0.614245508938714D+02 -.124219129267472D+02 -.392153833289575D+02 0.456160634219683D+02
 0.518274590276238D+03 0.156511280812220D+03 -.295105916793345D+03 0.396264138899900D+03
 0.456219772645630D+03 -.274335565775630D+02 0.231056332111777D+03 -.381682591918190D+03
 0.000000000000000D+00 0.000000000000000D+00 -.000000000000000D+00 0.000000000000000D+00
 0.701580631470199D+03 0.000000000000000D+00 0.000000000000000D+00 0.701580631470199D+03
 0.628753943525354D+03 0.000000000000000D+00 0.000000000000000D+00 -.628753943525354D+03
 0.199627161948064D+03 -.126023007054923D+03 0.109682276772323D+03 -.601976104036781D+02
 0.608342425638707D+02 -.153589847437102D+02 -.372032446682452D+02 0.456160634219683D+02
 0.501906104765261D+03 0.132003072585450D+03 -.278315754226307D+03 0.396264138899900D+03
 0.465925300611922D+03 -.495866159135536D+02 0.246233021658679D+03 -.381682591918190D+03
 0.102041765106435D+03 0.589655351267368D+02 -.403962995364497D+02 0.728266879448447D+02
0.419884092885D-04 0.000000000000D+00 0.000000000000D+00 0.402090574374D-05 0.000000000000D+00  7 1 -1 23 -13 13 23 21 0 0.11840289D+00 0.75141821D-01 0.16225041D+06 0.16225041D+06 0.16225041D+06 0.11048714D+01  1  2  2  2  7  2       -1 0.224069656831D-03 0.100000000000D+01
-.183216917135D-05 0.000000000000D+00 -.161246547470D-06 0.402090574374D-05 0.000000000000D+00  7 1 -1 23 -13 13 23 21 2 0.11840289D+00 0.75141821D-01 0.16225041D+06 0.16225041D+06 0.16225041D+06 0.11048714D+01  1  2  3  2  7  2       -1 -.119355554724D-04 0.100000000000D+01
0.248276054208D-05 0.000000000000D+00 0.000000000000D+00 0.402090574374D-05 0.000000000000D+00  7 1 -1 23 -13 13 23 21 2 0.11840289D+00 0.75141821D-01 0.16225041D+06 0.16225041D+06 0.16225041D+06 0.11048714D+01  1  2 15  2  7  2       -1 0.161737936856D-04 0.100000000000D+01
-.970853267546D-05 0.000000000000D+00 0.000000000000D+00 0.402090574374D-05 0.000000000000D+00  7 1 -1 23 -13 13 23 21 2 0.11840289D+00 0.75141821D-01 0.16225041D+06 0.16225041D+06 0.16225041D+06 0.11048714D+01  1  2  4  2  7  2       -1 -.632456500823D-04 0.100000000000D+01
  </mgrwgt>
  </event>
  <event>
  8     66 0.56006291E-06 0.46693340E+03 0.75467711E-02 0.90670157E-01
        1 -1    0    0  501    0 0.00000000E+00 0.00000000E+00 0.60050965E+03 0.60050974E+03 0.32000000E+00 0.0000E+00 0.9000E+01
       -1 -1    0    0    0  501 0.00000000E+00 0.00000000E+00 -.65275347E+03 0.65275355E+03 0.32000000E+00 0.0000E+00 0.9000E+01
       25  2    1    2    0    0 0.41364244E+03 -.35177433E+03 -.24876809E+03 0.66853563E+03 0.30034826E+03 0.0000E+00 0.0000E+00
       23  2    1    2    0    0 -.41364244E+03 0.35177433E+03 0.19652427E+03 0.58472766E+03 0.91866203E+02 0.0000E+00 0.0000E+00
       23  1    3    3    0    0 0.11117609E+03 -.24975006E+03 -.12702388E+03 0.31493735E+03 0.91188000E+02 0.0000E+00 0.9000E+01
      -11  1    4    4    0    0 -.12852929E+01 -.48095810E+01 0.46003620E+01 0.67784495E+01 0.51099893E-03 0.0000E+00 0.9000E+01
       11  1    4    4    0    0 -.41235714E+03 0.35658391E+03 0.19192391E+03 0.57794921E+03 0.51099893E-03 0.0000E+00 0.9000E+01
       23  1    3    3    0    0 0.30246634E+03 -.10202427E+03 -.12174422E+03 0.35359828E+03 0.91188000E+02 0.0000E+00 0.9000E+01
#aMCatNLO 1  0  0  1  2 0.24342138D+03 0.00000000D+00  -5  7  0 0.00000000D+00 0.00000000D+00 0.00000000D+00 0.00000000D+00 0.00000000D+00
  <mgrwgt>
 0.3755914016D-03    9    2    0
 0.626086946697264D+03 0.000000000000000D+00 0.000000000000000D+00 0.626086946697264D+03
 0.626086946697264D+03 0.000000000000000D+00 0.000000000000000D+00 -.626086946697264D+03
 0.309911590418823D+03 0.111176094503382D+03 -.249750058727015D+03 -.113994415252465D+03
 0.697628537709929D+01 -.128529284010727D+01 -.480958103048798D+01 0.488717815196750D+01
 0.586459573413193D+03 -.412357144925517D+03 0.356583913164965D+03 0.216204368940179D+03
 0.348826444185413D+03 0.302466343262242D+03 -.102024273407462D+03 -.107097131839682D+03
 0.000000000000000D+00 0.000000000000000D+00 0.000000000000000D+00 0.000000000000000D+00
 0.953168684519546D+03 0.000000000000000D+00 0.000000000000000D+00 0.953168684519546D+03
 0.684780551612443D+03 0.000000000000000D+00 0.000000000000000D+00 -.684780551612443D+03
 0.328147494031829D+03 0.624471549287279D+02 -.287177911107253D+03 -.113994415252465D+03
 0.787456899311960D+01 -.241946113717249D+01 -.568071600628338D+01 0.488717815196750D+01
 0.618786476789768D+03 -.504402479572693D+03 0.285885489855628D+03 0.216204368940179D+03
 0.320806380775558D+03 0.251326098949566D+03 -.141304207088178D+03 -.107097131839682D+03
 0.362334315541715D+03 0.193048686831571D+03 0.148277344346086D+03 0.268388132907103D+03
0.835260207129D-04 0.000000000000D+00 0.000000000000D+00 0.280736177402D-05 0.000000000000D+00  7 1 -1 23 -11 11 23 21 0 0.92386113D-01 0.10042362D+00 0.34239702D+06 0.34239702D+06 0.34239702D+06 0.10803299D+01  1  2  2  1  7  1        1 0.341014773428D-03 0.100000000000D+01
-.461453208352D-05 0.000000000000D+00 -.320761912444D-06 0.280736177402D-05 0.000000000000D+00  7 1 -1 23 -11 11 23 21 2 0.92386113D-01 0.10042362D+00 0.34239702D+06 0.34239702D+06 0.34239702D+06 0.10803299D+01  1  2  3  1  7  1        1 -.219883106805D-04 0.100000000000D+01
0.539865404091D-05 0.000000000000D+00 0.000000000000D+00 0.280736177402D-05 0.000000000000D+00  7 1 -1 23 -11 11 23 21 2 0.92386113D-01 0.10042362D+00 0.34239702D+06 0.34239702D+06 0.34239702D+06 0.10803299D+01  1  2 15  1  7  1        1 0.257246629039D-04 0.100000000000D+01
0.741264807398D-04 0.000000000000D+00 0.000000000000D+00 0.280736177402D-05 0.000000000000D+00  7 1 -1 23 -11 11 23 21 2 0.14315475D+00 0.10042362D+00 0.51803667D+06 0.51803667D+06 0.51803667D+06 0.10674244D+01  1  2 12  1  7  1        1 0.169854370620D-03 0.100000000000D+01
-.918291369096D-04 0.000000000000D+00 0.000000000000D+00 0.280736177402D-05 0.000000000000D+00  7 1 -1 23 -11 11 23 21 2 0.92386113D-01 0.10042362D+00 0.34239702D+06 0.34239702D+06 0.34239702D+06 0.10803299D+01  1  2  4  1  7  1        1 -.437567136893D-03 0.100000000000D+01
-.110343065315D-03 0.000000000000D+00 -.318242912901D-04 0.280736177402D-05 0.000000000000D+00  7 1 -1 23 -11 11 23 21 2 0.14802152D+00 0.10042362D+00 0.34239702D+06 0.34239702D+06 0.34239702D+06 0.10803299D+01  1  2  5  1  7  1        1 -.249712386030D-03 0.100000000000D+01
0.115507612414D-03 0.000000000000D+00 0.285888218303D-04 0.280736177402D-05 0.000000000000D+00  7 1 -1 23 -11 11 23 21 2 0.92386113D-01 0.10042362D+00 0.34239702D+06 0.34239702D+06 0.34239702D+06 0.10803299D+01  1  2  6  1  7  1        1 0.550395407759D-03 0.100000000000D+01
0.377387665388D-05 0.000000000000D+00 0.000000000000D+00 0.280736177402D-05 0.000000000000D+00  7 21 -1 23 -11 11 23 -1 2 0.14315475D+00 0.10042362D+00 0.51803667D+06 0.51803667D+06 0.51803667D+06 0.10674244D+01  1  2 12  3  7  1        1 0.122912391010D-04 0.100000000000D+01
-.460090583488D-05 0.000000000000D+00 -.171352527424D-05 0.280736177402D-05 0.000000000000D+00  7 21 -1 23 -11 11 23 -1 2 0.14802152D+00 0.10042362D+00 0.34239702D+06 0.34239702D+06 0.34239702D+06 0.10803299D+01  1  2  5  3  7  1        1 -.144212185909D-04 0.100000000000D+01
  </mgrwgt>
  </event>
  <event>
  7     66 0.56006291E-06 0.10964934E+04 0.75467711E-02 0.83581796E-01
        1 -1    0    0  501    0 0.00000000E+00 0.00000000E+00 0.25284084E+04 0.25284084E+04 0.32000000E+00 0.0000E+00 0.9000E+01
       -1 -1    0    0    0  501 0.00000000E+00 0.00000000E+00 -.87784838E+03 0.87784844E+03 0.32000000E+00 0.0000E+00 0.9000E+01
       23  2    1    2    0    0 -.66722438E+03 0.13043250E+04 0.10240259E+04 0.17898146E+04 0.91406879E+02 0.0000E+00 0.0000E+00
       23  1    1    2    0    0 0.80254267E+02 -.24293627E+03 0.14861482E+03 0.30961330E+03 0.91188000E+02 0.0000E+00 0.9000E+01
      -13  1    3    3    0    0 -.58324355E+03 0.11480290E+04 0.93472036E+03 0.15911775E+04 0.10565837E+00 0.0000E+00 0.9000E+01
       13  1    3    3    0    0 -.83980834E+02 0.15629591E+03 0.89305540E+02 0.19863707E+03 0.10565837E+00 0.0000E+00 0.9000E+01
       23  1    1    2    0    0 0.58697012E+03 -.10613887E+04 0.47791930E+03 0.13068290E+04 0.91188000E+02 0.0000E+00 0.9000E+01
#aMCatNLO 1  0  0  2  1 0.65394456D+02 0.00000000D+00  -5  7  0 0.00000000D+00 0.00000000D+00 0.00000000D+00 0.00000000D+00 0.00000000D+00
  <mgrwgt>
 0.3209630692D-03    9    2    0
 0.148981856317233D+04 0.000000000000000D+00 0.000000000000000D+00 0.148981856317233D+04
 0.148981856317233D+04 0.000000000000000D+00 0.000000000000000D+00 -.148981856317233D+04
 0.271618561647851D+03 0.802542665344882D+02 -.242936273393816D+03 -.161600129465802D+01
 0.130121608119243D+04 -.583244216743495D+03 0.114803037020627D+04 0.187124938672315D+03
 0.177605600648742D+03 -.839801670269893D+02 0.156294589452937D+03 -.794243260326287D+01
 0.122919688285563D+04 0.586970117235996D+03 -.106138868626539D+04 -.177566504774394D+03
 0.000000000000000D+00 0.000000000000000D+00 -.000000000000000D+00 -.000000000000000D+00
 0.149255449027616D+04 0.000000000000000D+00 0.000000000000000D+00 0.149255449027616D+04
 0.193991833187770D+04 0.000000000000000D+00 0.000000000000000D+00 -.193991833187770D+04
 0.269560822999271D+03 0.743303199191070D+02 -.242528715892743D+03 -.161600129465802D+01
 0.131602912203460D+04 -.611893535810571D+03 0.115000139487014D+04 0.187124938672315D+03
 0.179722582580227D+03 -.878916114420418D+02 0.156563690208714D+03 -.794243260326287D+01
 0.121504212234717D+04 0.560214587012880D+03 -.105954795106881D+04 -.177566504774394D+03
 0.452118172192596D+03 0.652402403206262D+02 -.448841811730552D+01 -.447363841601537D+03
0.372936523137D-02 0.000000000000D+00 0.000000000000D+00 0.526871829972D-08 0.000000000000D+00  7 1 -1 23 -13 13 23 21 0 0.38898591D+00 0.13505360D+00 0.21801059D+07 0.21801059D+07 0.21801059D+07 0.10260492D+01  1  2  2  2  7  2       -1 0.248543037757D-03 0.100000000000D+01
-.207166699226D-03 0.000000000000D+00 -.143217444529D-04 0.526871829972D-08 0.000000000000D+00  7 1 -1 23 -13 13 23 21 2 0.38898591D+00 0.13505360D+00 0.21801059D+07 0.21801059D+07 0.21801059D+07 0.10260492D+01  1  2  3  2  7  2       -1 -.145352675671D-04 0.100000000000D+01
0.234481132209D-03 0.000000000000D+00 0.000000000000D+00 0.526871829972D-08 0.000000000000D+00  7 1 -1 23 -13 13 23 21 2 0.38898591D+00 0.13505360D+00 0.21801059D+07 0.21801059D+07 0.21801059D+07 0.10260492D+01  1  2 15  2  7  2       -1 0.164517077736D-04 0.100000000000D+01
0.136153185936D+00 0.000000000000D+00 0.000000000000D+00 0.526871829972D-08 0.000000000000D+00  7 1 -1 23 -13 13 23 21 2 0.38898591D+00 0.17595346D+00 0.22788202D+07 0.22788202D+07 0.22788202D+07 0.10248511D+01  1  2 12  2  7  2       -1 0.427003359426D-02 0.100000000000D+01
-.132006235097D+00 0.000000000000D+00 0.000000000000D+00 0.526871829972D-08 0.000000000000D+00  7 1 -1 23 -13 13 23 21 2 0.38898591D+00 0.13505360D+00 0.21801059D+07 0.21801059D+07 0.21801059D+07 0.10260492D+01  1  2  4  2  7  2       -1 -.926184543569D-02 0.100000000000D+01
-.139336526550D+00 0.000000000000D+00 -.185315066224D-02 0.526871829972D-08 0.000000000000D+00  7 1 -1 23 -13 13 23 21 2 0.38898591D+00 0.17597304D+00 0.21801059D+07 0.21801059D+07 0.21801059D+07 0.10260492D+01  1  2  5  2  7  2       -1 -.439720284355D-02 0.100000000000D+01
0.135129807433D+00 0.000000000000D+00 0.179009094097D-02 0.526871829972D-08 0.000000000000D+00  7 1 -1 23 -13 13 23 21 2 0.38898591D+00 0.13505360D+00 0.21801059D+07 0.21801059D+07 0.21801059D+07 0.10260492D+01  1  2  6  2  7  2       -1 0.948100208511D-02 0.100000000000D+01
0.480337864294D-02 0.000000000000D+00 0.000000000000D+00 0.526871829972D-08 0.000000000000D+00  7 1 21 23 -13 13 23 1 2 0.38898591D+00 0.17595346D+00 0.22788202D+07 0.22788202D+07 0.22788202D+07 0.10248511D+01  1  2 12  4  7  2       -1 0.893376684437D-03 0.100000000000D+01
-.488312509395D-02 0.000000000000D+00 -.653978319539D-04 0.526871829972D-08 0.000000000000D+00  7 1 21 23 -13 13 23 1 2 0.38898591D+00 0.17597304D+00 0.21801059D+07 0.21801059D+07 0.21801059D+07 0.10260492D+01  1  2  5  4  7  2       -1 -.914860493313D-03 0.100000000000D+01
  </mgrwgt>
  </event>
  <event>
  8     66 0.56006291E-06 0.15331316E+03 0.75467711E-02 0.96128016E-01
        1 -1    0    0  501    0 0.00000000E+00 0.00000000E+00 0.77634837E+03 0.77634844E+03 0.32000000E+00 0.0000E+00 0.9000E+01
       -1 -1    0    0    0  501 0.00000000E+00 0.00000000E+00 -.18173934E+03 0.18173962E+03 0.32000000E+00 0.0000E+00 0.9000E+01
       25  2    1    2    0    0 -.30509100E+03 0.28554300E+02 0.34287146E+03 0.55027379E+03 0.30223260E+03 0.0000E+00 0.0000E+00
       23  2    1    2    0    0 0.30509100E+03 -.28554300E+02 0.25173758E+03 0.40781427E+03 0.95104155E+02 0.0000E+00 0.0000E+00
       23  1    3    3    0    0 -.31804167E+03 0.39860289E+02 0.23387351E+03 0.40712579E+03 0.91188000E+02 0.0000E+00 0.9000E+01
      -13  1    4    4    0    0 0.19792664E+03 -.39466563E+02 0.21277058E+03 0.29326421E+03 0.10565837E+00 0.0000E+00 0.9000E+01
       13  1    4    4    0    0 0.10716436E+03 0.10912263E+02 0.38966999E+02 0.11455006E+03 0.10565837E+00 0.0000E+00 0.9000E+01
       23  1    3    3    0    0 0.12950666E+02 -.11305989E+02 0.10899795E+03 0.14314800E+03 0.91188000E+02 0.0000E+00 0.9000E+01
#aMCatNLO 1  0  0  1  2 0.13031006D+03 0.00000000D+00  -5  7  0 0.00000000D+00 0.00000000D+00 0.00000000D+00 0.00000000D+00 0.00000000D+00
  <mgrwgt>
 0.2461816802D-03    9    2    0
 0.375623754391453D+03 0.000000000000000D+00 0.000000000000000D+00 0.375623754391453D+03
 0.375623754391453D+03 0.000000000000000D+00 0.000000000000000D+00 -.375623754391453D+03
 0.334109675723681D+03 -.318041666938005D+03 0.398602891274731D+02 -.239724740098449D+02
 0.205601623313016D+03 0.197926750978736D+03 -.394666220861290D+02 0.392353730332637D+02
 0.115246743542187D+03 0.107164250600779D+03 0.109123215045388D+02 -.409701907444147D+02
 0.962894662040226D+02 0.129506653584899D+02 -.113059885458829D+02 0.257072917209959D+02
 0.000000000000000D+00 -.000000000000000D+00 0.000000000000000D+00 0.000000000000000D+00
 0.451481792980691D+03 0.000000000000000D+00 0.000000000000000D+00 0.451481792980691D+03
 0.441663081846019D+03 0.000000000000000D+00 0.000000000000000D+00 -.441663081846019D+03
 0.320464559591060D+03 -.305904503264300D+03 -.151670030777761D+02 -.239724740098449D+02
 0.222751620072138D+03 0.205869308361289D+03 -.754764706550805D+02 0.392353730332637D+02
 0.119123015092239D+03 0.111509951924243D+03 -.879015454273359D+01 -.409701907444147D+02
 0.100126233967788D+03 0.165926197350235D+02 -.278178271486593D+02 0.257072917209959D+02
 0.130679446103484D+03 -.280673767562557D+02 0.127251455424250D+03 0.981871113467210D+01
0.507029754730D-05 0.000000000000D+00 0.000000000000D+00 0.455864812022D-08 0.000000000000D+00  7 1 -1 23 -13 13 23 21 0 0.11943824D+00 0.27959925D-01 0.13527116D+06 0.13527116D+06 0.13527116D+06 0.11111116D+01  1  2  2  1  7  1        1 0.157949126884D-03 0.100000000000D+01
-.281531157040D-06 0.000000000000D+00 -.194712776216D-07 0.455864812022D-08 0.000000000000D+00  7 1 -1 23 -13 13 23 21 2 0.11943824D+00 0.27959925D-01 0.13527116D+06 0.13527116D+06 0.13527116D+06 0.11111116D+01  1  2  3  1  7  1        1 -.108274348052D-04 0.100000000000D+01
0.325850115169D-06 0.000000000000D+00 0.000000000000D+00 0.455864812022D-08 0.000000000000D+00  7 1 -1 23 -13 13 23 21 2 0.11943824D+00 0.27959925D-01 0.13527116D+06 0.13527116D+06 0.13527116D+06 0.11111116D+01  1  2 15  1  7  1        1 0.125319020295D-04 0.100000000000D+01
0.271744063573D-05 0.000000000000D+00 0.000000000000D+00 0.455864812022D-08 0.000000000000D+00  7 1 -1 23 -13 13 23 21 2 0.15218032D+00 0.27959925D-01 0.19262064D+06 0.19262064D+06 0.19262064D+06 0.10990816D+01  1  2 12  1  7  1        1 0.681356023710D-04 0.100000000000D+01
-.266136881422D-05 0.000000000000D+00 0.000000000000D+00 0.455864812022D-08 0.000000000000D+00  7 1 -1 23 -13 13 23 21 2 0.11943824D+00 0.27959925D-01 0.13527116D+06 0.13527116D+06 0.13527116D+06 0.11111116D+01  1  2  4  1  7  1        1 -.102353848261D-03 0.100000000000D+01
-.674655239616D-05 0.000000000000D+00 -.253013931462D-05 0.455864812022D-08 0.000000000000D+00  7 1 -1 23 -13 13 23 21 2 0.16177982D+00 0.27959925D-01 0.13527116D+06 0.13527116D+06 0.13527116D+06 0.11111116D+01  1  2  5  1  7  1        1 -.156519722683D-03 0.100000000000D+01
0.728834674343D-05 0.000000000000D+00 0.241796673526D-05 0.455864812022D-08 0.000000000000D+00  7 1 -1 23 -13 13 23 21 2 0.11943824D+00 0.27959925D-01 0.13527116D+06 0.13527116D+06 0.13527116D+06 0.11111116D+01  1  2  6  1  7  1        1 0.280303253224D-03 0.100000000000D+01
0.898546547553D-07 0.000000000000D+00 0.000000000000D+00 0.455864812022D-08 0.000000000000D+00  7 21 -1 23 -13 13 23 -1 2 0.15218032D+00 0.27959925D-01 0.19262064D+06 0.19262064D+06 0.19262064D+06 0.10990816D+01  1  2 12  3  7  1        1 0.308333046522D-05 0.100000000000D+01
-.205205338783D-06 0.000000000000D+00 -.986111902764D-07 0.455864812022D-08 0.000000000000D+00  7 21 -1 23 -13 13 23 -1 2 0.16177982D+00 0.27959925D-01 0.13527116D+06 0.13527116D+06 0.13527116D+06 0.11111116D+01  1  2  5  3  7  1        1 -.612052900990D-05 0.100000000000D+01
  </mgrwgt>
  </event>
  <event>
  8     66 0.56006291E-06 0.11863909E+03 0.75467711E-02 0.96882326E-01
        1 -1    0    0  501    0 0.00000000E+00 0.00000000E+00 0.12694999E+04 0.12694999E+04 0.32000000E+00 0.0000E+00 0.9000E+01
       -1 -1    0    0    0  501 0.00000000E+00 0.00000000E+00 -.15569240E+03 0.15569273E+03 0.32000000E+00 0.0000E+00 0.9000E+01
       25  2    1    2    0    0 -.11311779E+03 0.20207024E+03 0.11521067E+03 0.39605351E+03 0.29992811E+03 0.0000E+00 0.0000E+00
       23  2    1    2    0    0 0.11311779E+03 -.20207024E+03 0.99859679E+03 0.10291391E+04 0.91124936E+02 0.0000E+00 0.0000E+00
       23  1    3    3    0    0 -.15437471E+03 0.10418710E+03 -.10869240E+02 0.20765331E+03 0.91188000E+02 0.0000E+00 0.9000E+01
      -11  1    4    4    0    0 0.84576350E+02 -.19863918E+03 0.93060357E+03 0.95531863E+03 0.51099893E-03 0.0000E+00 0.9000E+01
       11  1    4    4    0    0 0.28541440E+02 -.34310624E+01 0.67993218E+02 0.73820483E+02 0.51099893E-03 0.0000E+00 0.9000E+01
       23  1    3    3    0    0 0.41256923E+02 0.97883141E+02 0.12607991E+03 0.18840021E+03 0.91188000E+02 0.0000E+00 0.9000E+01
#aMCatNLO 1  0  0  1  2 0.19634139D+03 0.00000000D+00  -5  7  0 0.00000000D+00 0.00000000D+00 0.00000000D+00 0.00000000D+00 0.00000000D+00
  <mgrwgt>
 0.2031815657D-03    9    2    0
 0.444580412106858D+03 0.000000000000000D+00 0.000000000000000D+00 0.444580412106858D+03
 0.444580412106858D+03 0.000000000000000D+00 0.000000000000000D+00 -.444580412106858D+03
 0.346452738056560D+03 -.154374712880158D+03 0.104187099470378D+03 -.277538726468949D+03
 0.365513036714600D+03 0.845763501408131D+02 -.198639177885213D+03 0.294939142899470D+03
 0.331515443253754D+02 0.285414400893737D+02 -.343106234834755D+01 0.165117806412201D+02
 0.144043505117181D+03 0.412569226499709D+02 0.978831407631830D+02 -.339121970717412D+02
 0.000000000000000D+00 0.000000000000000D+00 -.000000000000000D+00 0.000000000000000D+00
 0.576912858033409D+03 0.000000000000000D+00 0.000000000000000D+00 0.576912858033409D+03
 0.534531186684954D+03 0.000000000000000D+00 0.000000000000000D+00 -.534531186684954D+03
 0.389260174282757D+03 -.234625935441040D+03 0.105504301651892D+03 -.277538726468949D+03
 0.354924990985762D+03 0.599130489745937D+01 -.197349323478940D+03 0.294939142899470D+03
 0.276361523451713D+02 0.219107463871793D+02 -.332222956137213D+01 0.165117806412201D+02
 0.138759219215290D+03 0.104089329102425D+02 0.983894637584455D+02 -.339121970717412D+02
 0.200863507889382D+03 0.196314951246159D+03 -.322221237002569D+01 0.423816713484555D+02
0.106341634479D-04 0.000000000000D+00 0.000000000000D+00 0.200259218330D-05 0.000000000000D+00  7 1 -1 23 -11 11 23 21 0 0.19530770D+00 0.23952705D-01 0.87617560D+05 0.87617560D+05 0.87617560D+05 0.11264638D+01  1  2  2  1  7  1        1 0.182540900642D-03 0.100000000000D+01
-.471938186957D-06 0.000000000000D+00 -.408379876793D-07 0.200259218330D-05 0.000000000000D+00  7 1 -1 23 -11 11 23 21 2 0.19530770D+00 0.23952705D-01 0.87617560D+05 0.87617560D+05 0.87617560D+05 0.11264638D+01  1  2  3  1  7  1        1 -.102796051285D-04 0.100000000000D+01
0.660795241599D-06 0.000000000000D+00 0.000000000000D+00 0.200259218330D-05 0.000000000000D+00  7 1 -1 23 -11 11 23 21 2 0.19530770D+00 0.23952705D-01 0.87617560D+05 0.87617560D+05 0.87617560D+05 0.11264638D+01  1  2 15  1  7  1        1 0.143932284824D-04 0.100000000000D+01
0.150512862031D-05 0.000000000000D+00 0.000000000000D+00 0.200259218330D-05 0.000000000000D+00  7 1 -1 23 -11 11 23 21 2 0.26831341D+00 0.23952705D-01 0.16951061D+06 0.16951061D+06 0.16951061D+06 0.11033853D+01  1  2 12  1  7  1        1 0.148479125462D-04 0.100000000000D+01
-.516181763312D-05 0.000000000000D+00 0.000000000000D+00 0.200259218330D-05 0.000000000000D+00  7 1 -1 23 -11 11 23 21 2 0.19530770D+00 0.23952705D-01 0.87617560D+05 0.87617560D+05 0.87617560D+05 0.11264638D+01  1  2  4  1  7  1        1 -.112433044158D-03 0.100000000000D+01
-.701821154924D-05 0.000000000000D+00 -.424420379928D-05 0.200259218330D-05 0.000000000000D+00  7 1 -1 23 -11 11 23 21 2 0.28097489D+00 0.23952705D-01 0.87617560D+05 0.87617560D+05 0.87617560D+05 0.11264638D+01  1  2  5  1  7  1        1 -.654396397018D-04 0.100000000000D+01
0.827450060560D-05 0.000000000000D+00 0.397819370806D-05 0.200259218330D-05 0.000000000000D+00  7 1 -1 23 -11 11 23 21 2 0.19530770D+00 0.23952705D-01 0.87617560D+05 0.87617560D+05 0.87617560D+05 0.11264638D+01  1  2  6  1  7  1        1 0.180232499111D-03 0.100000000000D+01
0.606211660006D-07 0.000000000000D+00 0.000000000000D+00 0.200259218330D-05 0.000000000000D+00  7 21 -1 23 -11 11 23 -1 2 0.26831341D+00 0.23952705D-01 0.16951061D+06 0.16951061D+06 0.16951061D+06 0.11033853D+01  1  2 12  3  7  1        1 0.382716375256D-06 0.100000000000D+01
-.184834459658D-06 0.000000000000D+00 -.188497527569D-06 0.200259218330D-05 0.000000000000D+00  7 21 -1 23 -11 11 23 -1 2 0.28097489D+00 0.23952705D-01 0.87617560D+05 0.87617560D+05 0.87617560D+05 0.11264638D+01  1  2  5  3  7  1        1 -.106340248681D-05 0.100000000000D+01
  </mgrwgt>
  </event>
  <event>
  8     66 0.56006291E-06 0.20112838E+03 0.75467711E-02 0.89728151E-01
        1 -1    0    0  501    0 0.00000000E+00 0.00000000E+00 0.39894503E+03 0.39894516E+03 0.32000000E+00 0.0000E+00 0.9000E+01
       -1 -1    0    0    0  501 0.00000000E+00 0.00000000E+00 -.16131077E+03 0.16131109E+03 0.32000000E+00 0.0000E+00 0.9000E+01
       25  2    1    2    0    0 -.12287868E+03 -.59409250E+02 0.21604098E+03 0.39480694E+03 0.30094880E+03 0.0000E+00 0.0000E+00
       23  2    1    2    0    0 0.12287868E+03 0.59409250E+02 0.21593277E+02 0.16544931E+03 0.90986677E+02 0.0000E+00 0.0000E+00
       23  1    3    3    0    0 -.23121858E+02 -.38047673E+02 0.23565617E+03 0.25657616E+03 0.91188000E+02 0.0000E+00 0.9000E+01
      -11  1    4    4    0    0 -.13089349E+02 0.17129929E+02 0.46588169E+01 0.22056067E+02 0.51099893E-03 0.0000E+00 0.9000E+01
       11  1    4    4    0    0 0.13596803E+03 0.42279321E+02 0.16934460E+02 0.14339324E+03 0.51099893E-03 0.0000E+00 0.9000E+01
       23  1    3    3    0    0 -.99756826E+02 -.21361576E+02 -.19615184E+02 0.13823078E+03 0.91188000E+02 0.0000E+00 0.9000E+01
#aMCatNLO 1  0  0  1  1 0.73407378D+03 0.00000000D+00  -5  7  0 0.00000000D+00 0.00000000D+00 0.00000000D+00 0.00000000D+00 0.00000000D+00
  <mgrwgt>
 0.1915582153D-03    5    2    0
 0.253681407210556D+03 0.000000000000000D+00 0.000000000000000D+00 0.253681407210556D+03
 0.253681407210556D+03 0.000000000000000D+00 0.000000000000000D+00 -.253681407210556D+03
 0.172950040077125D+03 -.231218576785647D+02 -.380476730862423D+02 0.140050773967492D+03
 0.221733926653160D+02 -.130893487538115D+02 0.171299289634254D+02 -.518592568394348D+01
 0.150410617148122D+03 0.135968032345018D+03 0.422793205641319D+02 -.484613968405632D+02
 0.161828764530548D+03 -.997568259126415D+02 -.213615764413150D+02 -.864034514429858D+02
 0.000000000000000D+00 -.000000000000000D+00 0.000000000000000D+00 0.000000000000000D+00
 0.412676436465189D+04 0.000000000000000D+00 0.000000000000000D+00 0.412676436465189D+04
 0.482774735242144D+03 0.000000000000000D+00 0.000000000000000D+00 -.482774735242144D+03
 0.350318353641394D+03 0.384771080711939D+02 -.305471750608138D+03 0.140050773967492D+03
 0.105955871431072D+02 -.923179632162805D+01 0.382855565150916D+00 -.518592568394348D+01
 0.249088074639618D+03 0.182996873620197D+03 -.161890414136127D+03 -.484613968405632D+02
 0.282343959019677D+03 -.474689738019608D+02 -.248362638003049D+03 -.864034514429858D+02
 0.371719312545024D+04 -.164773211567802D+03 0.715341947182163D+03 0.364398962940975D+04
0.191648137442D-05 0.000000000000D+00 0.000000000000D+00 0.513867751096D-06 0.000000000000D+00  7 1 -1 23 -11 11 23 21 0 0.61376193D-01 0.24817076D-01 0.40452626D+05 0.40452626D+05 0.40452626D+05 0.11554788D+01  1  2  2  1  7  1        1 0.188248433111D-03 0.100000000000D+01
-.994953283994D-07 0.000000000000D+00 -.735979309890D-08 0.513867751096D-06 0.000000000000D+00  7 1 -1 23 -11 11 23 21 2 0.61376193D-01 0.24817076D-01 0.40452626D+05 0.40452626D+05 0.40452626D+05 0.11554788D+01  1  2  3  1  7  1        1 -.130482837758D-04 0.100000000000D+01
0.124732978278D-06 0.000000000000D+00 0.000000000000D+00 0.513867751096D-06 0.000000000000D+00  7 1 -1 23 -11 11 23 21 2 0.61376193D-01 0.24817076D-01 0.40452626D+05 0.40452626D+05 0.40452626D+05 0.11554788D+01  1  2 15  1  7  1        1 0.163580674888D-04 0.100000000000D+01
-.373706203065D-05 0.000000000000D+00 -.221872377201D-05 0.513867751096D-06 0.000000000000D+00  7 1 -1 23 -11 11 23 21 2 0.99874867D+00 0.24817076D-01 0.40452626D+05 0.40452626D+05 0.40452626D+05 0.11554788D+01  1  2  5  1  7  1        1 -.151917895910D-11 0.100000000000D+01
-.167338573078D-05 0.000000000000D+00 -.688213794768D-06 0.513867751096D-06 0.000000000000D+00  7 21 -1 23 -11 11 23 -1 2 0.99874867D+00 0.24817076D-01 0.40452626D+05 0.40452626D+05 0.40452626D+05 0.11554788D+01  1  2  5  3  7  1        1 0.291228427811D-15 0.100000000000D+01
  </mgrwgt>
  </event>
  <event>
  9     66 -.56006291E-06 0.18142029E+03 0.75467711E-02 0.10740738E+00
        1 -1    0    0  501    0 0.00000000E+00 0.00000000E+00 0.73811098E+03 0.73811105E+03 0.32000000E+00 0.0000E+00 0.9000E+01
       -1 -1    0    0    0  502 0.00000000E+00 0.00000000E+00 -.16610946E+03 0.16610977E+03 0.32000000E+00 0.0000E+00 0.9000E+01
       25  2    1    2    0    0 -.16983393E+02 -.48739217E+02 -.88470280E+01 0.29946499E+03 0.29485092E+03 0.0000E+00 0.0000E+00
       23  2    1    2    0    0 0.23411200E+02 0.47904996E+02 0.58593804E+03 0.59648068E+03 0.98096099E+02 0.0000E+00 0.0000E+00
       23  1    3    3    0    0 0.74951787E+02 -.86256550E+02 -.56128154E+02 0.15660008E+03 0.91188000E+02 0.0000E+00 0.9000E+01
      -13  1    4    4    0    0 -.21286983E+02 0.27349792E+02 0.69080930E+02 0.77287339E+02 0.10565837E+00 0.0000E+00 0.9000E+01
       13  1    4    4    0    0 0.44698183E+02 0.20555204E+02 0.51685711E+03 0.51919334E+03 0.10565837E+00 0.0000E+00 0.9000E+01
       23  1    3    3    0    0 -.91935180E+02 0.37517333E+02 0.47281126E+02 0.14286491E+03 0.91188000E+02 0.0000E+00 0.9000E+01
       21  1    1    2  501  502 -.64278069E+01 0.83422114E+00 -.50894879E+01 0.82751444E+01 0.75000000E+00 0.0000E+00 0.9000E+01
#aMCatNLO 2  0  0  2  1 0.64817148D+01 0.00000000D+00  -5  7  0 0.00000000D+00 0.00000000D+00 0.00000000D+00 0.00000000D+00 0.00000000D+00
  <mgrwgt>
 -.3387196903D-03    3    2    0
 0.342652373984740D+03 0.000000000000000D+00 0.000000000000000D+00 0.342652373984740D+03
 0.342652373984740D+03 0.000000000000000D+00 0.000000000000000D+00 -.342652373984740D+03
 0.251191141952899D+03 0.725920582628857D+02 -.859502976808215D+02 -.205242972735579D+03
 0.431030950659351D+02 -.216902263121071D+02 0.274021193336210D+02 0.252296401642711D+02
 0.243140634329792D+03 0.424159708475238D+02 0.208514050794105D+02 0.238502562639419D+03
 0.147869876620854D+03 -.933178027983024D+02 0.376967732677900D+02 -.584892300681114D+02
 0.000000000000000D+00 -.000000000000000D+00 0.000000000000000D+00 -.000000000000000D+00
 0.343399470313510D+03 0.000000000000000D+00 0.000000000000000D+00 0.343399470313510D+03
 0.357020776426012D+03 0.000000000000000D+00 0.000000000000000D+00 -.357020776426012D+03
 0.251987880573237D+03 0.749517860301399D+02 -.862565506228174D+02 -.205242972735579D+03
 0.428682231693941D+02 -.212870518995315D+02 0.273497940816567D+02 0.252296401642711D+02
 0.243523966993017D+03 0.446982519476296D+02 0.205552034111214D+02 0.238502562639419D+03
 0.146955329062541D+03 -.919351791331805D+02 0.375173319902864D+02 -.584892300681114D+02
 0.150848469413320D+02 -.642780694505746D+01 0.834221139752823D+00 -.136213061125016D+02
-.493461098042D-04 0.000000000000D+00 0.000000000000D+00 0.544143899208D-09 0.000000000000D+00  7 1 -1 23 -13 13 23 21 2 0.11330545D+00 0.25580754D-01 0.34474730D+05 0.34474730D+05 0.34474730D+05 0.11617749D+01  1  2 13  2  7  2       -1 -.265598985560D-02 0.100000000000D+01
-.928798272790D-04 0.000000000000D+00 0.000000000000D+00 0.544143899208D-09 0.000000000000D+00  7 1 -1 23 -13 13 23 21 2 0.11330545D+00 0.24526185D-01 0.32913322D+05 0.32913322D+05 0.32913322D+05 0.11636197D+01  1  2  8  2  7  2       -1 -.537040755453D-02 0.100000000000D+01
0.143062147462D-03 0.000000000000D+00 0.000000000000D+00 0.544143899208D-09 0.933184091794D-10  7 1 -1 23 -13 13 23 21 2 0.11355249D+00 0.25554638D-01 0.34474730D+05 0.34474730D+05 0.34474730D+05 0.11617749D+01  1  2  1  2  7  2       -1 0.768767771988D-02 0.100000000000D+01
  </mgrwgt>
  </event>
  <event>
  8     66 0.56006291E-06 0.23826593E+03 0.75467711E-02 0.98045802E-01
        3 -1    0    0  501    0 0.00000000E+00 0.00000000E+00 0.49452764E+03 0.49452789E+03 0.50000000E+00 0.0000E+00 0.9000E+01
       -3 -1    0    0    0  501 0.00000000E+00 0.00000000E+00 -.12538319E+03 0.12538419E+03 0.50000000E+00 0.0000E+00 0.9000E+01
       25  2    1    2    0    0 0.97546326E+02 0.95507360E+02 0.21290313E+03 0.39240576E+03 0.30002932E+03 0.0000E+00 0.0000E+00
       23  2    1    2    0    0 -.97546326E+02 -.95507360E+02 0.15624132E+03 0.22750632E+03 0.93331858E+02 0.0000E+00 0.0000E+00
       23  1    3    3    0    0 0.10724318E+03 -.49565081E+02 0.54584503E+02 0.15891040E+03 0.91188000E+02 0.0000E+00 0.9000E+01
      -13  1    4    4    0    0 0.94515367E+01 0.33118095E+01 0.39776798E+02 0.41018343E+02 0.10565837E+00 0.0000E+00 0.9000E+01
       13  1    4    4    0    0 -.10699786E+03 -.98819170E+02 0.11646452E+03 0.18648798E+03 0.10565837E+00 0.0000E+00 0.9000E+01
       23  1    3    3    0    0 -.96968543E+01 0.14507244E+03 0.15831863E+03 0.23349536E+03 0.91188000E+02 0.0000E+00 0.9000E+01
#aMCatNLO 1  0  0  1  2 0.21955555D+03 0.00000000D+00  -5  7  0 0.00000000D+00 0.00000000D+00 0.00000000D+00 0.00000000D+00 0.00000000D+00
  <mgrwgt>
 0.5186796354D-04    3    2    0
 0.249009721234451D+03 0.000000000000000D+00 0.000000000000000D+00 0.249009721234451D+03
 0.249009721234451D+03 0.000000000000000D+00 0.000000000000000D+00 -.249009721234451D+03
 0.157345092623995D+03 0.107243191939645D+03 -.495650695443421D+02 -.498440416952173D+02
 0.215740394415632D+02 0.945166360573707D+01 0.331192366551850D+01 0.191085424494881D+02
 0.145805560490048D+03 -.106998014518265D+03 -.988193085491415D+02 0.674022379716551D+01
 0.173294749913295D+03 -.969684102711703D+01 0.145072454427965D+03 0.239952754485638D+02
 0.000000000000000D+00 -.000000000000000D+00 0.000000000000000D+00 -.000000000000000D+00
 0.313445789516797D+03 0.000000000000000D+00 0.000000000000000D+00 0.313445789516797D+03
 0.563847665246037D+03 0.000000000000000D+00 0.000000000000000D+00 -.563847665246037D+03
 0.222440035104499D+03 0.169372186972450D+03 -.999647520926534D+02 -.498440416952173D+02
 0.258936684772547D+02 0.172168991934118D+02 -.298731565623469D+01 0.191085424494881D+02
 0.150158419587442D+03 -.585813091088073D+02 -.138095440110312D+03 0.674022379716551D+01
 0.145776197934480D+03 0.424999299536537D+02 0.102729894628170D+03 0.239952754485638D+02
 0.333025133659158D+03 -.170507707010709D+03 0.138317613231030D+03 -.250401875729240D+03
0.304261567149D-05 0.000000000000D+00 0.000000000000D+00 0.837934281901D-07 0.000000000000D+00  7 3 -3 23 -13 13 23 21 0 0.76081271D-01 0.19289818D-01 0.56770651D+05 0.56770651D+05 0.56770651D+05 0.11424755D+01  1  2  2  1  7  1        3 0.513249490663D-04 0.100000000000D+01
-.168634422229D-06 0.000000000000D+00 -.116844453176D-07 0.837934281901D-07 0.000000000000D+00  7 3 -3 23 -13 13 23 21 2 0.76081271D-01 0.19289818D-01 0.56770651D+05 0.56770651D+05 0.56770651D+05 0.11424755D+01  1  2  3  1  7  1        3 -.371296975525D-05 0.100000000000D+01
0.193296872422D-06 0.000000000000D+00 0.000000000000D+00 0.837934281901D-07 0.000000000000D+00  7 3 -3 23 -13 13 23 21 2 0.76081271D-01 0.19289818D-01 0.56770651D+05 0.56770651D+05 0.56770651D+05 0.11424755D+01  1  2 15  1  7  1        3 0.425598422673D-05 0.100000000000D+01
  </mgrwgt>
  </event>
  <event>
  8     66 0.56006291E-06 0.68752829E+02 0.75467711E-02 0.10336919E+00
        1 -1    0    0  501    0 0.00000000E+00 0.00000000E+00 0.94999903E+03 0.94999909E+03 0.32000000E+00 0.0000E+00 0.9000E+01
       -1 -1    0    0    0  501 0.00000000E+00 0.00000000E+00 -.51919901E+02 0.51920887E+02 0.32000000E+00 0.0000E+00 0.9000E+01
       25  2    1    2    0    0 0.18373975E+02 0.79259252E+02 0.55013148E+03 0.63221827E+03 0.30072524E+03 0.0000E+00 0.0000E+00
       23  2    1    2    0    0 -.18373975E+02 -.79259252E+02 0.34794766E+03 0.36970170E+03 0.94826918E+02 0.0000E+00 0.0000E+00
       23  1    3    3    0    0 0.12882801E+02 -.29231867E+02 0.44579295E+03 0.45614370E+03 0.91188000E+02 0.0000E+00 0.9000E+01
      -13  1    4    4    0    0 -.47715248E+02 -.76001813E+02 0.30230966E+03 0.31534769E+03 0.10565837E+00 0.0000E+00 0.9000E+01
       13  1    4    4    0    0 0.29341273E+02 -.32574398E+01 0.45637992E+02 0.54354013E+02 0.10565837E+00 0.0000E+00 0.9000E+01
       23  1    3    3    0    0 0.54911740E+01 0.10849112E+03 0.10433852E+03 0.17607457E+03 0.91188000E+02 0.0000E+00 0.9000E+01
#aMCatNLO 1  0  0  2  1 0.11660497D+03 0.00000000D+00  -5  7  0 0.00000000D+00 0.00000000D+00 0.00000000D+00 0.00000000D+00 0.00000000D+00
  <mgrwgt>
 0.2460916546D-03    9    2    0
 0.222090919202826D+03 0.000000000000000D+00 0.000000000000000D+00 0.222090919202826D+03
 0.222090919202826D+03 0.000000000000000D+00 0.000000000000000D+00 -.222090919202826D+03
 0.127565138763643D+03 0.128828083444504D+02 -.292318083759125D+02 0.832895426330431D+02
 0.100083355945086D+03 -.477153347873247D+02 -.760019654957291D+02 0.443128221190024D+02
 0.303294486928910D+02 0.293413377571160D+02 -.325738380590318D+01 -.695347448248593D+01
 0.186203895004032D+03 0.549118868575820D+01 0.108491157677545D+03 -.120648890269560D+03
 0.000000000000000D+00 -.000000000000000D+00 -.000000000000000D+00 -.000000000000000D+00
 0.260630531356598D+03 0.000000000000000D+00 0.000000000000000D+00 0.260630531356598D+03
 0.339216060276100D+03 0.000000000000000D+00 0.000000000000000D+00 -.339216060276100D+03
 0.125013731588678D+03 0.191953311968897D+02 0.275192477117192D+01 0.832895426330431D+02
 0.814749253765538D+02 -.431777786635928D+02 -.530114769709583D+02 0.443128221190024D+02
 0.320096406367413D+02 0.308993339800172D+02 0.463653382453845D+01 -.695347448248593D+01
 0.220733913927026D+03 0.156614939643258D+02 0.160021162028879D+03 -.120648890269560D+03
 0.140614380103700D+03 -.225783804776398D+02 -.114398143653631D+03 -.785855289195016D+02
0.171498606142D-05 0.000000000000D+00 0.000000000000D+00 0.791261177347D-08 0.000000000000D+00  7 1 -1 23 -13 13 23 21 0 0.14615378D+00 0.79877570D-02 0.31989444D+05 0.31989444D+05 0.31989444D+05 0.11647575D+01  1  2  2  2  7  2       -1 0.278138584029D-03 0.100000000000D+01
-.898468719681D-07 0.000000000000D+00 -.658599804206D-08 0.791261177347D-08 0.000000000000D+00  7 1 -1 23 -13 13 23 21 2 0.14615378D+00 0.79877570D-02 0.31989444D+05 0.31989444D+05 0.31989444D+05 0.11647575D+01  1  2  3  2  7  2       -1 -.197685409450D-04 0.100000000000D+01
0.107483037029D-06 0.000000000000D+00 0.000000000000D+00 0.791261177347D-08 0.000000000000D+00  7 1 -1 23 -13 13 23 21 2 0.14615378D+00 0.79877570D-02 0.31989444D+05 0.31989444D+05 0.31989444D+05 0.11647575D+01  1  2 15  2  7  2       -1 0.236489348139D-04 0.100000000000D+01
0.308756706439D-06 0.000000000000D+00 0.000000000000D+00 0.791261177347D-08 0.000000000000D+00  7 1 -1 23 -13 13 23 21 2 0.14615378D+00 0.12598376D-01 0.61081116D+05 0.61081116D+05 0.61081116D+05 0.11397261D+01  1  2 12  2  7  2       -1 0.325032825735D-04 0.100000000000D+01
-.103158393619D-05 0.000000000000D+00 0.000000000000D+00 0.791261177347D-08 0.000000000000D+00  7 1 -1 23 -13 13 23 21 2 0.14615378D+00 0.79877570D-02 0.31989444D+05 0.31989444D+05 0.31989444D+05 0.11647575D+01  1  2  4  2  7  2       -1 -.226974059686D-03 0.100000000000D+01
-.951890618918D-06 0.000000000000D+00 -.583562300897D-06 0.791261177347D-08 0.000000000000D+00  7 1 -1 23 -13 13 23 21 2 0.14615378D+00 0.14317735D-01 0.31989444D+05 0.31989444D+05 0.31989444D+05 0.11647575D+01  1  2  5  2  7  2       -1 -.862462705003D-04 0.100000000000D+01
0.117381470801D-05 0.000000000000D+00 0.496574273587D-06 0.791261177347D-08 0.000000000000D+00  7 1 -1 23 -13 13 23 21 2 0.14615378D+00 0.79877570D-02 0.31989444D+05 0.31989444D+05 0.31989444D+05 0.11647575D+01  1  2  6  2  7  2       -1 0.258268358251D-03 0.100000000000D+01
0.161976763780D-07 0.000000000000D+00 0.000000000000D+00 0.791261177347D-08 0.000000000000D+00  7 1 21 23 -13 13 23 1 2 0.14615378D+00 0.12598376D-01 0.61081116D+05 0.61081116D+05 0.61081116D+05 0.11397261D+01  1  2 12  4  7  2       -1 0.230874906551D-04 0.100000000000D+01
-.301595641505D-07 0.000000000000D+00 -.373866373764D-07 0.791261177347D-08 0.000000000000D+00  7 1 21 23 -13 13 23 1 2 0.14615378D+00 0.14317735D-01 0.31989444D+05 0.31989444D+05 0.31989444D+05 0.11647575D+01  1  2  5  4  7  2       -1 -.365661245803D-04 0.100000000000D+01
  </mgrwgt>
  </event>
  <event>
  8     66 0.56006291E-06 0.24090451E+03 0.75467711E-02 0.10362400E+00
        1 -1    0    0  501    0 0.00000000E+00 0.00000000E+00 0.16555553E+04 0.16555553E+04 0.32000000E+00 0.0000E+00 0.9000E+01
       -1 -1    0    0    0  501 0.00000000E+00 0.00000000E+00 -.13024327E+03 0.13024367E+03 0.32000000E+00 0.0000E+00 0.9000E+01
       25  2    1    2    0    0 -.14172467E+03 0.78168247E+02 0.15612694E+04 0.15979413E+04 0.29942954E+03 0.0000E+00 0.0000E+00
       23  2    1    2    0    0 0.14172467E+03 -.78168247E+02 -.35957422E+02 0.18785766E+03 0.88325582E+02 0.0000E+00 0.0000E+00
       23  1    3    3    0    0 -.14351027E+03 -.11137097E+02 0.12493102E+04 0.12608768E+04 0.91188000E+02 0.0000E+00 0.9000E+01
      -11  1    4    4    0    0 0.43105728E+01 -.41256549E+02 -.17493880E+01 0.41517999E+02 0.51099893E-03 0.0000E+00 0.9000E+01
       11  1    4    4    0    0 0.13741410E+03 -.36911698E+02 -.34208034E+02 0.14633967E+03 0.51099893E-03 0.0000E+00 0.9000E+01
       23  1    3    3    0    0 0.17855936E+01 0.89305344E+02 0.31195925E+03 0.33706447E+03 0.91188000E+02 0.0000E+00 0.9000E+01
#aMCatNLO 1  0  0  2  2 0.34425540D+01 0.00000000D+00  -5  7  0 0.00000000D+00 0.00000000D+00 0.00000000D+00 0.00000000D+00 0.00000000D+00
  <mgrwgt>
 0.1809133802D-03    8    2    0
 0.464354731094754D+03 0.000000000000000D+00 0.000000000000000D+00 0.464354731094754D+03
 0.464354731094754D+03 0.000000000000000D+00 0.000000000000000D+00 -.464354731094754D+03
 0.372651263711594D+03 -.143510266286394D+03 -.111370969239678D+02 0.331412856637099D+03
 0.827074187121750D+02 0.431057281154402D+01 -.412565489948932D+02 -.715530099793110D+02
 0.337577211347279D+03 0.137414099855864D+03 -.369116981224685D+02 -.306126224494936D+03
 0.135773568418460D+03 0.178559361898691D+01 0.893053440413296D+02 0.462663778371479D+02
 0.000000000000000D+00 -.000000000000000D+00 -.000000000000000D+00 0.000000000000000D+00
 0.475925676644559D+03 0.000000000000000D+00 0.000000000000000D+00 0.475925676644559D+03
 0.464614046590373D+03 0.000000000000000D+00 0.000000000000000D+00 -.464614046590373D+03
 0.372188812824019D+03 -.142363132149531D+03 -.103690938642579D+02 0.331412856637099D+03
 0.826361850939300D+02 0.456521981324708D+01 -.410860635475779D+02 -.715530099793110D+02
 0.337926677716972D+03 0.138454448777922D+03 -.362151874620053D+02 -.306126224494936D+03
 0.135964166987875D+03 0.220409907053100D+01 0.895855322573039D+02 0.462663778371479D+02
 0.118238806121348D+02 -.286063551216960D+01 -.191518738346270D+01 0.113116300541857D+02
0.121789911596D-04 0.000000000000D+00 0.000000000000D+00 0.138463560060D-06 0.000000000000D+00  7 1 -1 23 -11 11 23 21 0 0.25470084D+00 0.20037459D-01 0.58034981D+05 0.58034981D+05 0.58034981D+05 0.11416458D+01  1  2  2  2  7  2       -1 0.156432708630D-03 0.100000000000D+01
-.322322572112D-06 0.000000000000D+00 -.467705328548D-07 0.138463560060D-06 0.000000000000D+00  7 1 -1 23 -11 11 23 21 2 0.25470084D+00 0.20037459D-01 0.58034981D+05 0.58034981D+05 0.58034981D+05 0.11416458D+01  1  2  3  2  7  2       -1 -.539597263694D-05 0.100000000000D+01
0.756265442723D-06 0.000000000000D+00 0.000000000000D+00 0.138463560060D-06 0.000000000000D+00  7 1 -1 23 -11 11 23 21 2 0.25470084D+00 0.20037459D-01 0.58034981D+05 0.58034981D+05 0.58034981D+05 0.11416458D+01  1  2 15  2  7  2       -1 0.126605704604D-04 0.100000000000D+01
-.361827288256D-05 0.000000000000D+00 0.000000000000D+00 0.138463560060D-06 0.000000000000D+00  7 1 -1 23 -11 11 23 21 2 0.25470084D+00 0.20037459D-01 0.58034981D+05 0.58034981D+05 0.58034981D+05 0.11416458D+01  1  2  4  2  7  2       -1 -.605731746906D-04 0.100000000000D+01
0.525003271109D-06 0.000000000000D+00 0.000000000000D+00 0.138463560060D-06 0.000000000000D+00  7 1 -1 23 -11 11 23 21 2 0.25470084D+00 0.20704868D-01 0.58034981D+05 0.58034981D+05 0.58034981D+05 0.11416458D+01  1  2  5  2  7  2       -1 0.834131776402D-05 0.100000000000D+01
-.524721583238D-06 0.000000000000D+00 0.000000000000D+00 0.138463560060D-06 0.000000000000D+00  7 1 -1 23 -11 11 23 21 2 0.25470084D+00 0.20037459D-01 0.58034981D+05 0.58034981D+05 0.58034981D+05 0.11416458D+01  1  2  6  2  7  2       -1 -.878431593110D-05 0.100000000000D+01
0.360504199290D-05 0.000000000000D+00 0.000000000000D+00 0.138463560060D-06 0.811680933067D-07  7 1 -1 23 -11 11 23 21 2 0.26104757D+00 0.20048649D-01 0.58836676D+05 0.58836676D+05 0.58836676D+05 0.11411300D+01  1  2 11  2  7  2       -1 0.566127828625D-04 0.100000000000D+01
0.112325944097D-06 0.000000000000D+00 0.000000000000D+00 0.138463560060D-06 0.860893527967D-11  7 1 21 23 -11 11 23 1 2 0.26104757D+00 0.20048649D-01 0.58836676D+05 0.58836676D+05 0.58836676D+05 0.11411300D+01  1  2 11  4  7  2       -1 0.216194637033D-04 0.100000000000D+01
  </mgrwgt>
  </event>
  <event>
  8     66 0.56006291E-06 0.19395534E+03 0.75467711E-02 0.84466474E-01
        1 -1    0    0  501    0 0.00000000E+00 0.00000000E+00 0.33071030E+03 0.33071045E+03 0.32000000E+00 0.0000E+00 0.9000E+01
       -1 -1    0    0    0  501 0.00000000E+00 0.00000000E+00 -.17552029E+03 0.17552058E+03 0.32000000E+00 0.0000E+00 0.9000E+01
       25  2    1    2    0    0 0.45491837E+02 0.36154269E+02 0.22212953E+03 0.37800730E+03 0.30028545E+03 0.0000E+00 0.0000E+00
       23  2    1    2    0    0 -.45491837E+02 -.36154269E+02 -.66939524E+02 0.12822373E+03 0.92648733E+02 0.0000E+00 0.0000E+00
       23  1    3    3    0    0 -.34780826E+02 -.73108819E+02 0.29586985E+02 0.12548006E+03 0.91188000E+02 0.0000E+00 0.9000E+01
      -13  1    4    4    0    0 0.24823773E+02 -.35791789E+01 0.10910618E+01 0.25104418E+02 0.10565837E+00 0.0000E+00 0.9000E+01
       13  1    4    4    0    0 -.70315610E+02 -.32575090E+02 -.68030586E+02 0.10311932E+03 0.10565837E+00 0.0000E+00 0.9000E+01
       23  1    3    3    0    0 0.80272663E+02 0.10926309E+03 0.19254255E+03 0.25252724E+03 0.91188000E+02 0.0000E+00 0.9000E+01
#aMCatNLO 1  0  0  1  2 0.13424769D+04 0.00000000D+00  -5  7  0 0.00000000D+00 0.00000000D+00 0.00000000D+00 0.00000000D+00 0.00000000D+00
  <mgrwgt>
 0.1394107673D-03    5    2    0
 0.240928372933868D+03 0.000000000000000D+00 0.000000000000000D+00 0.240928372933868D+03
 0.240928372933868D+03 0.000000000000000D+00 0.000000000000000D+00 -.240928372933868D+03
 0.122298373326680D+03 -.347808216023182D+02 -.731088159891218D+02 -.932932193079859D+01
 0.260227529177655D+02 0.248238723700050D+02 -.357914443892596D+01 -.693893039755273D+01
 0.130246041742893D+03 -.703157206736561D+02 -.325751333449249D+02 -.104683291424162D+03
 0.203289577880398D+03 0.802726699059692D+02 0.109263093772973D+03 0.120951543752514D+03
 0.000000000000000D+00 0.000000000000000D+00 0.000000000000000D+00 0.000000000000000D+00
 0.227768427536467D+04 0.000000000000000D+00 0.000000000000000D+00 0.227768427536467D+04
 0.100115459825291D+04 0.000000000000000D+00 0.000000000000000D+00 -.100115459825291D+04
 0.495358094178684D+03 -.461628872553127D+03 -.154519053524081D+03 -.932932193079859D+01
 0.109616230222808D+02 -.735171558412450D+00 -.845387171656961D+01 -.693893039755273D+01
 0.594975976151985D+03 -.571499827261762D+03 -.128163052922391D+03 -.104683291424162D+03
 0.325038845589679D+03 -.284842842817384D+03 0.396267429631333D+02 0.120951543752514D+03
 0.185250433467496D+04 0.131870671419069D+04 0.251509235199909D+03 0.127652967711176D+04
0.125387997848D-05 0.000000000000D+00 0.000000000000D+00 0.104857318111D-06 0.000000000000D+00  7 1 -1 23 -13 13 23 21 0 0.50878542D-01 0.27003156D-01 0.37618674D+05 0.37618674D+05 0.37618674D+05 0.11583255D+01  1  2  2  1  7  1        1 0.137296158934D-03 0.100000000000D+01
-.656764424547D-07 0.000000000000D+00 -.481522927155D-08 0.104857318111D-06 0.000000000000D+00  7 1 -1 23 -13 13 23 21 2 0.50878542D-01 0.27003156D-01 0.37618674D+05 0.37618674D+05 0.37618674D+05 0.11583255D+01  1  2  3  1  7  1        1 -.964879920980D-05 0.100000000000D+01
0.792113907747D-07 0.000000000000D+00 0.000000000000D+00 0.104857318111D-06 0.000000000000D+00  7 1 -1 23 -13 13 23 21 2 0.50878542D-01 0.27003156D-01 0.37618674D+05 0.37618674D+05 0.37618674D+05 0.11583255D+01  1  2 15  1  7  1        1 0.116372747388D-04 0.100000000000D+01
0.370230010241D-05 0.000000000000D+00 -.131302505689D-05 0.104857318111D-06 0.000000000000D+00  7 1 -1 23 -13 13 23 21 2 0.73360198D+00 0.27003156D-01 0.37618674D+05 0.37618674D+05 0.37618674D+05 0.11583255D+01  1  2  5  1  7  1        1 0.124807463344D-06 0.100000000000D+01
0.836420045000D-06 0.000000000000D+00 -.397171908434D-06 0.104857318111D-06 0.000000000000D+00  7 21 -1 23 -13 13 23 -1 2 0.73360198D+00 0.27003156D-01 0.37618674D+05 0.37618674D+05 0.37618674D+05 0.11583255D+01  1  2  5  3  7  1        1 0.132536417963D-08 0.100000000000D+01
  </mgrwgt>
  </event>
  <event>
  8     66 0.56006291E-06 0.73280640E+03 0.75467711E-02 0.83901076E-01
        1 -1    0    0  501    0 0.00000000E+00 0.00000000E+00 0.17961175E+03 0.17961204E+03 0.32000000E+00 0.0000E+00 0.9000E+01
       -1 -1    0    0    0  501 0.00000000E+00 0.00000000E+00 -.47662385E+04 0.47662385E+04 0.32000000E+00 0.0000E+00 0.9000E+01
       25  2    1    2    0    0 -.79083699E+02 0.69483403E+03 -.38563279E+04 0.39306734E+04 0.29979981E+03 0.0000E+00 0.0000E+00
       23  2    1    2    0    0 0.79083699E+02 -.69483403E+03 -.73029889E+03 0.10151772E+04 0.90552230E+02 0.0000E+00 0.0000E+00
       23  1    3    3    0    0 0.64625371E+02 0.13435385E+03 -.83650351E+03 0.85456467E+03 0.91188000E+02 0.0000E+00 0.9000E+01
      -11  1    4    4    0    0 0.40383918E+02 -.85746759E+02 -.93614862E+02 0.13321828E+03 0.51099893E-03 0.0000E+00 0.9000E+01
       11  1    4    4    0    0 0.38699782E+02 -.60908727E+03 -.63668402E+03 0.88195891E+03 0.51099893E-03 0.0000E+00 0.9000E+01
       23  1    3    3    0    0 -.14370907E+03 0.56048017E+03 -.30198243E+04 0.30761087E+04 0.91188000E+02 0.0000E+00 0.9000E+01
#aMCatNLO 1  0  0  1  1 0.10913648D+04 0.00000000D+00  -5  7  0 0.00000000D+00 0.00000000D+00 0.00000000D+00 0.00000000D+00 0.00000000D+00
  <mgrwgt>
 0.1015905275D-04    5    2    0
 0.925242229063169D+03 0.000000000000000D+00 0.000000000000000D+00 0.925242229063169D+03
 0.925242229063169D+03 0.000000000000000D+00 0.000000000000000D+00 -.925242229063169D+03
 0.210658215509680D+03 0.646253707154549D+02 0.134353853729720D+03 -.117619028501284D+03
 0.124022262712724D+03 0.403839177857913D+02 -.857467594204893D+02 0.799884621776108D+02
 0.779150010867064D+03 0.386997815908198D+02 -.609087267706849D+03 0.484344677534886D+03
 0.736653969036871D+03 -.143709070092066D+03 0.560480173397619D+03 -.446714111211213D+03
 0.000000000000000D+00 -.000000000000000D+00 -.000000000000000D+00 0.000000000000000D+00
 0.288562792265117D+04 0.000000000000000D+00 0.000000000000000D+00 0.288562792265117D+04
 0.123855164355671D+04 0.000000000000000D+00 0.000000000000000D+00 -.123855164355671D+04
 0.303928323132684D+03 0.199090176639072D+03 0.174888650170565D+03 -.117619028501284D+03
 0.152192773275627D+03 0.112560701316407D+03 -.639888636791280D+02 0.799884621776108D+02
 0.822735611713449D+03 0.457282902557033D+03 -.482904200803995D+03 0.484344677534886D+03
 0.869484467433753D+03 0.275985338775054D+03 0.686998241184467D+03 -.446714111211213D+03
 0.197583839065237D+04 -.104491911928757D+04 -.314993826871909D+03 0.164707627909446D+04
0.639432795193D-02 0.000000000000D+00 0.000000000000D+00 0.711658433498D-05 0.000000000000D+00  7 1 -1 23 -11 11 23 21 0 0.27632600D-01 0.73326748D+00 0.53700521D+06 0.53700521D+06 0.53700521D+06 0.10663258D+01  1  2  2  1  7  1        1 0.999695139422D-05 0.100000000000D+01
-.331756863904D-03 0.000000000000D+00 -.245559030006D-04 0.711658433498D-05 0.000000000000D+00  7 1 -1 23 -11 11 23 21 2 0.27632600D-01 0.73326748D+00 0.53700521D+06 0.53700521D+06 0.53700521D+06 0.10663258D+01  1  2  3  1  7  1        1 -.589756033379D-06 0.100000000000D+01
0.404285929487D-03 0.000000000000D+00 0.000000000000D+00 0.711658433498D-05 0.000000000000D+00  7 1 -1 23 -11 11 23 21 2 0.27632600D-01 0.73326748D+00 0.53700521D+06 0.53700521D+06 0.53700521D+06 0.10663258D+01  1  2 15  1  7  1        1 0.718689172906D-06 0.100000000000D+01
0.205448289807D-01 0.000000000000D+00 -.963313408875D-02 0.711658433498D-05 0.000000000000D+00  7 1 -1 23 -11 11 23 21 2 0.57365033D+00 0.73326748D+00 0.53700521D+06 0.53700521D+06 0.53700521D+06 0.10663258D+01  1  2  5  1  7  1        1 0.325025811532D-07 0.100000000000D+01
0.414350107979D-02 0.000000000000D+00 -.311588690836D-02 0.711658433498D-05 0.000000000000D+00  7 21 -1 23 -11 11 23 -1 2 0.57365033D+00 0.73326748D+00 0.53700521D+06 0.53700521D+06 0.53700521D+06 0.10663258D+01  1  2  5  3  7  1        1 0.665638338728D-09 0.100000000000D+01
  </mgrwgt>
  </event>
  <event>
  8     66 0.56006291E-06 0.35247407E+03 0.75467711E-02 0.96948186E-01
        1 -1    0    0  501    0 0.00000000E+00 0.00000000E+00 0.56459943E+03 0.56459952E+03 0.32000000E+00 0.0000E+00 0.9000E+01
       -1 -1    0    0    0  501 0.00000000E+00 0.00000000E+00 -.27695904E+03 0.27695922E+03 0.32000000E+00 0.0000E+00 0.9000E+01
       25  2    1    2    0    0 -.22565154E+03 -.21360582E+03 0.26998949E+02 0.43060759E+03 0.29689710E+03 0.0000E+00 0.0000E+00
       23  2    1    2    0    0 0.22565154E+03 0.21360582E+03 0.26064144E+03 0.41095115E+03 0.66338704E+02 0.0000E+00 0.0000E+00
       23  1    3    3    0    0 -.18850674E+03 -.74778917E+02 0.10197711E+03 0.24462474E+03 0.91188000E+02 0.0000E+00 0.9000E+01
      -11  1    4    4    0    0 0.14686279E+03 0.11725221E+03 0.11919687E+03 0.22254135E+03 0.51099893E-03 0.0000E+00 0.9000E+01
       11  1    4    4    0    0 0.78788751E+02 0.96353617E+02 0.14144457E+03 0.18840980E+03 0.51099893E-03 0.0000E+00 0.9000E+01
       23  1    3    3    0    0 -.37144796E+02 -.13882691E+03 -.74978161E+02 0.18598285E+03 0.91188000E+02 0.0000E+00 0.9000E+01
#aMCatNLO 1  0  0  1  1 0.10848455D+03 0.00000000D+00  -5  7  0 0.00000000D+00 0.00000000D+00 0.00000000D+00 0.00000000D+00 0.00000000D+00
  <mgrwgt>
 0.4390321027D-03    4    2    0
 0.395437770124730D+03 0.000000000000000D+00 0.000000000000000D+00 0.395437770124730D+03
 0.395437770124730D+03 0.000000000000000D+00 0.000000000000000D+00 -.395437770124730D+03
 0.223212553755625D+03 -.188506744377530D+03 -.747789169346761D+02 0.195426128337382D+02
 0.193451151307434D+03 0.146862789640907D+03 0.117252205419323D+03 0.458975956381978D+02
 0.149040826762830D+03 0.787887506002007D+02 0.963536171660752D+02 0.819846405128464D+02
 0.225171008423570D+03 -.371447958635775D+02 -.138826905650722D+03 -.147424848984782D+03
 0.000000000000000D+00 0.000000000000000D+00 -.000000000000000D+00 -.000000000000000D+00
 0.425721501219602D+03 0.000000000000000D+00 0.000000000000000D+00 0.425721501219602D+03
 0.509830255093327D+03 0.000000000000000D+00 0.000000000000000D+00 -.509830255093327D+03
 0.237276866535555D+03 -.211547288464934D+03 -.533937362964643D+02 0.195426128337382D+02
 0.191438685627161D+03 0.127604863473835D+03 0.135126532876083D+03 0.458975956381978D+02
 0.151506400166080D+03 0.637508988553686D+02 0.110311064297269D+03 0.819846405128464D+02
 0.218059338015594D+03 -.593217838420400D+02 -.118243238349647D+03 -.147424848984782D+03
 0.137270465968540D+03 0.795133099777697D+02 -.738006225272415D+02 -.841087538737250D+02
0.234505485350D-04 0.000000000000D+00 0.000000000000D+00 0.521101159805D-10 0.000000000000D+00  7 1 -1 23 -11 11 23 21 0 0.86861472D-01 0.42609104D-01 0.12423797D+06 0.12423797D+06 0.12423797D+06 0.11140685D+01  1  2  2  1  7  1        1 0.572745252922D-03 0.100000000000D+01
-.128185355537D-05 0.000000000000D+00 -.900562810455D-07 0.521101159805D-10 0.000000000000D+00  7 1 -1 23 -11 11 23 21 2 0.86861472D-01 0.42609104D-01 0.12423797D+06 0.12423797D+06 0.12423797D+06 0.11140685D+01  1  2  3  1  7  1        1 -.388571263454D-04 0.100000000000D+01
0.142185425597D-05 0.000000000000D+00 0.000000000000D+00 0.521101159805D-10 0.000000000000D+00  7 1 -1 23 -11 11 23 21 2 0.86861472D-01 0.42609104D-01 0.12423797D+06 0.12423797D+06 0.12423797D+06 0.11140685D+01  1  2 15  1  7  1        1 0.431010002955D-04 0.100000000000D+01
-.455104940976D-05 0.000000000000D+00 0.000000000000D+00 0.521101159805D-10 0.000000000000D+00  7 1 -1 23 -11 11 23 21 2 0.86861472D-01 0.42609104D-01 0.12423797D+06 0.12423797D+06 0.12423797D+06 0.11140685D+01  1  2  4  1  7  1        1 -.137957024169D-03 0.100000000000D+01
  </mgrwgt>
  </event>
  <event>
  8     66 0.56006291E-06 0.34394510E+03 0.75467711E-02 0.91313387E-01
        1 -1    0    0  501    0 0.00000000E+00 0.00000000E+00 0.24716064E+04 0.24716064E+04 0.32000000E+00 0.0000E+00 0.9000E+01
       -1 -1    0    0    0  501 0.00000000E+00 0.00000000E+00 -.13089857E+03 0.13089896E+03 0.32000000E+00 0.0000E+00 0.9000E+01
       25  2    1    2    0    0 0.20071412E+03 -.17783484E+03 0.22739834E+04 0.23100660E+04 0.30576659E+03 0.0000E+00 0.0000E+00
       23  2    1    2    0    0 -.20071412E+03 0.17783484E+03 0.66724431E+02 0.29243933E+03 0.95693396E+02 0.0000E+00 0.0000E+00
       23  1    3    3    0    0 0.24345045E+03 -.10147633E+03 0.16463148E+04 0.16698004E+04 0.91188000E+02 0.0000E+00 0.9000E+01
      -11  1    4    4    0    0 -.20964869E+03 0.16496173E+03 0.53825981E+02 0.27214368E+03 0.51099893E-03 0.0000E+00 0.9000E+01
       11  1    4    4    0    0 0.89345721E+01 0.12873112E+02 0.12898450E+02 0.20295655E+02 0.51099893E-03 0.0000E+00 0.9000E+01
       23  1    3    3    0    0 -.42736333E+02 -.76358512E+02 0.62766857E+03 0.64026565E+03 0.91188000E+02 0.0000E+00 0.9000E+01
#aMCatNLO 1  0  0  1  1 0.52786774D+03 0.00000000D+00  -5  7  0 0.00000000D+00 0.00000000D+00 0.00000000D+00 0.00000000D+00 0.00000000D+00
  <mgrwgt>
 0.3008441705D-03    6    2    0
 0.568797208436729D+03 0.000000000000000D+00 0.000000000000000D+00 0.568797208436729D+03
 0.568797208436729D+03 0.000000000000000D+00 0.000000000000000D+00 -.568797208436729D+03
 0.432599227663827D+03 0.243450454129469D+03 -.101476328024753D+03 0.330546928084512D+03
 0.511838385687231D+03 -.209648692801127D+03 0.164961728077838D+03 -.436822145660294D+03
 0.198911374423612D+02 0.893457208067745D+01 0.128731116774441D+02 -.122520923203401D+02
 0.173265666080039D+03 -.427363334090198D+02 -.763585117305293D+02 0.118527309896122D+03
 0.000000000000000D+00 0.000000000000000D+00 -.000000000000000D+00 0.000000000000000D+00
 0.106545273728216D+04 0.000000000000000D+00 0.000000000000000D+00 0.106545273728216D+04
 0.785947089648123D+03 0.000000000000000D+00 0.000000000000000D+00 -.785947089648123D+03
 0.354518069229998D+03 0.834551750091300D+02 -.337901193346970D+02 0.330546928084512D+03
 0.683675092309310D+03 -.452657598029118D+03 0.267766958102359D+03 -.436822145660294D+03
 0.204374039743175D+02 0.737094695870280D+00 0.163410650323849D+02 -.122520923203401D+02
 0.195468873692676D+03 -.117688041172346D+03 -.446500953245127D+02 0.118527309896122D+03
 0.597300387723978D+03 0.486153369496464D+03 -.205667808475534D+03 0.279505647634032D+03
0.643655795303D-04 0.000000000000D+00 0.000000000000D+00 0.421052929223D-08 0.000000000000D+00  7 1 -1 23 -11 11 23 21 0 0.38024717D+00 0.20138272D-01 0.11829824D+06 0.11829824D+06 0.11829824D+06 0.11157821D+01  1  2  2  1  7  1        1 0.230411350495D-03 0.100000000000D+01
-.247566712928D-05 0.000000000000D+00 -.247180773243D-06 0.421052929223D-08 0.000000000000D+00  7 1 -1 23 -11 11 23 21 2 0.38024717D+00 0.20138272D-01 0.11829824D+06 0.11829824D+06 0.11829824D+06 0.11157821D+01  1  2  3  1  7  1        1 -.110331926220D-04 0.100000000000D+01
0.397597621126D-05 0.000000000000D+00 0.000000000000D+00 0.421052929223D-08 0.000000000000D+00  7 1 -1 23 -11 11 23 21 2 0.38024717D+00 0.20138272D-01 0.11829824D+06 0.11829824D+06 0.11829824D+06 0.11157821D+01  1  2 15  1  7  1        1 0.177195515829D-04 0.100000000000D+01
-.540507515724D-05 0.000000000000D+00 -.142519005373D-04 0.421052929223D-08 0.000000000000D+00  7 1 -1 23 -11 11 23 21 2 0.74599200D+00 0.20138272D-01 0.11829824D+06 0.11829824D+06 0.11829824D+06 0.11157821D+01  1  2  5  1  7  1        1 -.189250742459D-06 0.100000000000D+01
0.143459744238D-04 0.000000000000D+00 0.115326188940D-04 0.421052929223D-08 0.000000000000D+00  7 1 -1 23 -11 11 23 21 2 0.38024717D+00 0.20138272D-01 0.11829824D+06 0.11829824D+06 0.11829824D+06 0.11157821D+01  1  2  6  1  7  1        1 0.639350489798D-04 0.100000000000D+01
0.446503932852D-06 0.000000000000D+00 -.104034056450D-05 0.421052929223D-08 0.000000000000D+00  7 21 -1 23 -11 11 23 -1 2 0.74599200D+00 0.20138272D-01 0.11829824D+06 0.11829824D+06 0.11829824D+06 0.11157821D+01  1  2  5  3  7  1        1 0.662826908543D-09 0.100000000000D+01
  </mgrwgt>
  </event>
  <event>
  8     66 0.56006291E-06 0.26089090E+03 0.75467711E-02 0.97155917E-01
        1 -1    0    0  501    0 0.00000000E+00 0.00000000E+00 0.11862439E+04 0.11862439E+04 0.32000000E+00 0.0000E+00 0.9000E+01
       -1 -1    0    0    0  501 0.00000000E+00 0.00000000E+00 -.86115005E+02 0.86115600E+02 0.32000000E+00 0.0000E+00 0.9000E+01
       25  2    1    2    0    0 0.14017979E+03 -.17699336E+03 0.80356705E+03 0.88748983E+03 0.30156453E+03 0.0000E+00 0.0000E+00
       23  2    1    2    0    0 -.14017979E+03 0.17699336E+03 0.29656180E+03 0.38486967E+03 0.95910057E+02 0.0000E+00 0.0000E+00
       23  1    3    3    0    0 -.25376457E+02 -.11938501E+03 0.19385684E+03 0.24656129E+03 0.91188000E+02 0.0000E+00 0.9000E+01
      -11  1    4    4    0    0 0.14226098E+02 0.22500959E+02 0.26917867E+02 0.37858243E+02 0.51099893E-03 0.0000E+00 0.9000E+01
       11  1    4    4    0    0 -.15440589E+03 0.15449240E+03 0.26964394E+03 0.34701143E+03 0.51099893E-03 0.0000E+00 0.9000E+01
       23  1    3    3    0    0 0.16555625E+03 -.57608353E+02 0.60971021E+03 0.64092854E+03 0.91188000E+02 0.0000E+00 0.9000E+01
#aMCatNLO 1  0  0  2  1 0.18016340D+03 0.00000000D+00  -5  7  0 0.00000000D+00 0.00000000D+00 0.00000000D+00 0.00000000D+00 0.00000000D+00
  <mgrwgt>
 0.1283595812D-03    7    2    0
 0.319615083295638D+03 0.000000000000000D+00 0.000000000000000D+00 0.319615083295638D+03
 0.319615083295638D+03 0.000000000000000D+00 0.000000000000000D+00 -.319615083295638D+03
 0.157137610660192D+03 -.253764569010651D+02 -.119385011164745D+03 -.384737817784538D+02
 0.290289385581783D+02 0.142260976929029D+02 0.225009589615068D+02 -.115760210806244D+02
 0.226647965921365D+03 -.154405886762488D+03 0.154492404971072D+03 -.604997470708450D+02
 0.226415651451542D+03 0.165556245970650D+03 -.576083527678340D+02 0.110549549929923D+03
 0.000000000000000D+00 -.000000000000000D+00 -.000000000000000D+00 -.000000000000000D+00
 0.352580182876864D+03 0.000000000000000D+00 0.000000000000000D+00 0.352580182876864D+03
 0.727652885151325D+03 0.000000000000000D+00 0.000000000000000D+00 -.727652885151325D+03
 0.141980523897198D+03 0.117184714118494D+02 -.101122022159154D+03 -.384737817784538D+02
 0.365582604397585D+02 0.223598487564197D+02 0.265054580400375D+02 -.115760210806244D+02
 0.215667800311731D+03 -.995524033240218D+02 0.181498483982858D+03 -.604997470708450D+02
 0.269927479386925D+03 0.227109895615813D+03 -.273035731699099D+02 0.110549549929923D+03
 0.416099003992576D+03 -.161635812460060D+03 -.795783466938326D+02 -.375072702274461D+03
0.388535613936D-05 0.000000000000D+00 0.000000000000D+00 0.394286801498D-08 0.000000000000D+00  7 1 -1 23 -11 11 23 21 0 0.18249910D+00 0.13248511D-01 0.88504018D+05 0.88504018D+05 0.88504018D+05 0.11261005D+01  1  2  2  2  7  2       -1 0.195090607034D-03 0.100000000000D+01
-.214503318790D-06 0.000000000000D+00 -.149207906129D-07 0.394286801498D-08 0.000000000000D+00  7 1 -1 23 -11 11 23 21 2 0.18249910D+00 0.13248511D-01 0.88504018D+05 0.88504018D+05 0.88504018D+05 0.11261005D+01  1  2  3  2  7  2       -1 -.136582118989D-04 0.100000000000D+01
0.250909450625D-06 0.000000000000D+00 0.000000000000D+00 0.394286801498D-08 0.000000000000D+00  7 1 -1 23 -11 11 23 21 2 0.18249910D+00 0.13248511D-01 0.88504018D+05 0.88504018D+05 0.88504018D+05 0.11261005D+01  1  2 15  2  7  2       -1 0.159763236458D-04 0.100000000000D+01
0.222488903886D-05 0.000000000000D+00 0.000000000000D+00 0.394286801498D-08 0.000000000000D+00  7 1 -1 23 -11 11 23 21 2 0.18249910D+00 0.29968876D-01 0.16191296D+06 0.16191296D+06 0.16191296D+06 0.11049422D+01  1  2 12  2  7  2       -1 0.361588537686D-04 0.100000000000D+01
-.496950186516D-05 0.000000000000D+00 -.119502801397D-05 0.394286801498D-08 0.000000000000D+00  7 1 -1 23 -11 11 23 21 2 0.18249910D+00 0.32797404D-01 0.88504018D+05 0.88504018D+05 0.88504018D+05 0.11261005D+01  1  2  5  2  7  2       -1 -.734538915636D-04 0.100000000000D+01
0.197310540643D-06 0.000000000000D+00 0.000000000000D+00 0.394286801498D-08 0.000000000000D+00  7 1 21 23 -11 11 23 1 2 0.18249910D+00 0.29968876D-01 0.16191296D+06 0.16191296D+06 0.16191296D+06 0.11049422D+01  1  2 12  4  7  2       -1 0.344911043659D-04 0.100000000000D+01
-.420877595024D-06 0.000000000000D+00 -.119056921463D-06 0.394286801498D-08 0.000000000000D+00  7 1 21 23 -11 11 23 1 2 0.18249910D+00 0.32797404D-01 0.88504018D+05 0.88504018D+05 0.88504018D+05 0.11261005D+01  1  2  5  4  7  2       -1 -.662452041029D-04 0.100000000000D+01
  </mgrwgt>
  </event>
  <event>
  8     66 0.56006291E-06 0.24189515E+03 0.75467711E-02 0.95066433E-01
        1 -1    0    0  501    0 0.00000000E+00 0.00000000E+00 0.18060208E+04 0.18060208E+04 0.32000000E+00 0.0000E+00 0.9000E+01
       -1 -1    0    0    0  501 0.00000000E+00 0.00000000E+00 -.10713820E+03 0.10713867E+03 0.32000000E+00 0.0000E+00 0.9000E+01
       25  2    1    2    0    0 -.33685776E+03 -.11396562E+03 0.12474106E+04 0.13312548E+04 0.29957428E+03 0.0000E+00 0.0000E+00
       23  2    1    2    0    0 0.33685776E+03 0.11396562E+03 0.45147195E+03 0.58190468E+03 0.91240431E+02 0.0000E+00 0.0000E+00
       23  1    3    3    0    0 -.23117660E+03 0.36574748E+02 0.81018230E+03 0.84822812E+03 0.91188000E+02 0.0000E+00 0.9000E+01
      -11  1    4    4    0    0 0.15104716E+02 -.14251569E+02 0.24754104E+02 0.32311381E+02 0.51099893E-03 0.0000E+00 0.9000E+01
       11  1    4    4    0    0 0.32175305E+03 0.12821719E+03 0.42671785E+03 0.54959330E+03 0.51099893E-03 0.0000E+00 0.9000E+01
       23  1    3    3    0    0 -.10568116E+03 -.15054037E+03 0.43722832E+03 0.48302667E+03 0.91188000E+02 0.0000E+00 0.9000E+01
#aMCatNLO 1  0  0  1  2 0.13015035D+03 0.00000000D+00  -5  7  0 0.00000000D+00 0.00000000D+00 0.00000000D+00 0.00000000D+00 0.00000000D+00
  <mgrwgt>
 0.2802406658D-03    9    2    0
 0.439879858800905D+03 0.000000000000000D+00 0.000000000000000D+00 0.439879858800905D+03
 0.439879858800905D+03 0.000000000000000D+00 0.000000000000000D+00 -.439879858800905D+03
 0.280066325580562D+03 -.231176603546032D+03 0.365747480492597D+02 0.123861055857972D+03
 0.224635297488906D+02 0.151047161299800D+02 -.142515692662082D+02 -.856449022782359D+01
 0.371142367343039D+03 0.321753045542689D+03 0.128217189380236D+03 -.133349116489132D+03
 0.206087494929318D+03 -.105681158126637D+03 -.150540368163288D+03 0.180525508589845D+02
 0.000000000000000D+00 -.000000000000000D+00 0.000000000000000D+00 0.000000000000000D+00
 0.624517692084349D+03 0.000000000000000D+00 0.000000000000000D+00 0.624517692084349D+03
 0.468213494566158D+03 0.000000000000000D+00 0.000000000000000D+00 -.468213494566158D+03
 0.250146133883159D+03 -.196355451596172D+03 0.189950631192219D+02 0.123861055857972D+03
 0.256529757712164D+02 0.182647175975174D+02 -.158469165498866D+02 -.856449022782359D+01
 0.409124747129246D+03 0.372996276948452D+03 0.102346710878908D+03 -.133349116489132D+03
 0.204410880147095D+03 -.787221041878362D+02 -.164150821801882D+03 0.180525508589845D+02
 0.203396449719791D+03 -.116183438761962D+03 0.586559643536381D+02 0.156304197518191D+03
0.155665877179D-04 0.000000000000D+00 0.000000000000D+00 0.911782973093D-06 0.000000000000D+00  7 1 -1 23 -11 11 23 21 0 0.27784939D+00 0.16482838D-01 0.16958320D+06 0.16958320D+06 0.16958320D+06 0.11033708D+01  1  2  2  1  7  1        1 0.209848415407D-03 0.100000000000D+01
-.860236801183D-06 0.000000000000D+00 -.597797956132D-07 0.911782973093D-06 0.000000000000D+00  7 1 -1 23 -11 11 23 21 2 0.27784939D+00 0.16482838D-01 0.16958320D+06 0.16958320D+06 0.16958320D+06 0.11033708D+01  1  2  3  1  7  1        1 -.141180036717D-04 0.100000000000D+01
0.101498955630D-05 0.000000000000D+00 0.000000000000D+00 0.911782973093D-06 0.000000000000D+00  7 1 -1 23 -11 11 23 21 2 0.27784939D+00 0.16482838D-01 0.16958320D+06 0.16958320D+06 0.16958320D+06 0.11033708D+01  1  2 15  1  7  1        1 0.166577694222D-04 0.100000000000D+01
0.176794483643D-04 0.000000000000D+00 0.000000000000D+00 0.911782973093D-06 0.000000000000D+00  7 1 -1 23 -11 11 23 21 2 0.40051514D+00 0.16482838D-01 0.23138732D+06 0.23138732D+06 0.23138732D+06 0.10929959D+01  1  2 12  1  7  1        1 0.816636153693D-04 0.100000000000D+01
-.190031944407D-04 0.000000000000D+00 0.000000000000D+00 0.911782973093D-06 0.000000000000D+00  7 1 -1 23 -11 11 23 21 2 0.27784939D+00 0.16482838D-01 0.16958320D+06 0.16958320D+06 0.16958320D+06 0.11033708D+01  1  2  4  1  7  1        1 -.311875949179D-03 0.100000000000D+01
-.245792659208D-04 0.000000000000D+00 -.551705236168D-05 0.911782973093D-06 0.000000000000D+00  7 1 -1 23 -11 11 23 21 2 0.40193503D+00 0.16482838D-01 0.16958320D+06 0.16958320D+06 0.16958320D+06 0.11033708D+01  1  2  5  1  7  1        1 -.115791776196D-03 0.100000000000D+01
0.252325814165D-04 0.000000000000D+00 0.516125470903D-05 0.911782973093D-06 0.000000000000D+00  7 1 -1 23 -11 11 23 21 2 0.27784939D+00 0.16482838D-01 0.16958320D+06 0.16958320D+06 0.16958320D+06 0.11033708D+01  1  2  6  1  7  1        1 0.414111180311D-03 0.100000000000D+01
0.788293294935D-06 0.000000000000D+00 0.000000000000D+00 0.911782973093D-06 0.000000000000D+00  7 21 -1 23 -11 11 23 -1 2 0.40051514D+00 0.16482838D-01 0.23138732D+06 0.23138732D+06 0.23138732D+06 0.10929959D+01  1  2 12  3  7  1        1 0.115154815821D-05 0.100000000000D+01
-.935125139956D-06 0.000000000000D+00 -.247717302188D-06 0.911782973093D-06 0.000000000000D+00  7 21 -1 23 -11 11 23 -1 2 0.40193503D+00 0.16482838D-01 0.16958320D+06 0.16958320D+06 0.16958320D+06 0.11033708D+01  1  2  5  3  7  1        1 -.140613385961D-05 0.100000000000D+01
  </mgrwgt>
  </event>
  <event>
  8     66 0.56006291E-06 0.52549382E+03 0.75467711E-02 0.88700979E-01
        1 -1    0    0  501    0 0.00000000E+00 0.00000000E+00 0.89983550E+03 0.89983556E+03 0.32000000E+00 0.0000E+00 0.9000E+01
       -1 -1    0    0    0  501 0.00000000E+00 0.00000000E+00 -.12794944E+04 0.12794944E+04 0.32000000E+00 0.0000E+00 0.9000E+01
       25  2    1    2    0    0 -.91771760E+02 0.47612934E+03 -.11386257E+04 0.12732742E+04 0.29939503E+03 0.0000E+00 0.0000E+00
       23  2    1    2    0    0 0.91771760E+02 -.47612934E+03 0.75896686E+03 0.90605579E+03 0.98920146E+02 0.0000E+00 0.0000E+00
       23  1    3    3    0    0 -.91147290E+02 0.79403054E+02 -.43217729E+03 0.45793573E+03 0.91188000E+02 0.0000E+00 0.9000E+01
      -13  1    4    4    0    0 -.14987521E+02 -.11327993E+03 0.14047937E+03 0.18108405E+03 0.10565837E+00 0.0000E+00 0.9000E+01
       13  1    4    4    0    0 0.10675928E+03 -.36284941E+03 0.61848749E+03 0.72497174E+03 0.10565837E+00 0.0000E+00 0.9000E+01
       23  1    3    3    0    0 -.62446956E+00 0.39672629E+03 -.70644843E+03 0.81533844E+03 0.91188000E+02 0.0000E+00 0.9000E+01
#aMCatNLO 1  0  0  1  1 0.58710394D+03 0.00000000D+00  -5  7  0 0.00000000D+00 0.00000000D+00 0.00000000D+00 0.00000000D+00 0.00000000D+00
  <mgrwgt>
 0.3184104934D-03    4    2    0
 0.107300258987859D+04 0.000000000000000D+00 0.000000000000000D+00 0.107300258987859D+04
 0.107300258987859D+04 0.000000000000000D+00 0.000000000000000D+00 -.107300258987859D+04
 0.388588586268937D+03 -.911472904160893D+02 0.794030541962261D+02 -.357873112245957D+03
 0.208748128114538D+03 -.149876598028657D+02 -.113279642858060D+03 0.174696518451020D+03
 0.845649616737914D+03 0.106759419778783D+03 -.362849699468333D+03 0.756350313130905D+03
 0.703018848635795D+03 -.624469559828469D+00 0.396726288130167D+03 -.573173719335968D+03
 0.000000000000000D+00 -.000000000000000D+00 0.000000000000000D+00 -.000000000000000D+00
 0.129972699672692D+04 0.000000000000000D+00 0.000000000000000D+00 0.129972699672692D+04
 0.157252675604171D+04 0.000000000000000D+00 0.000000000000000D+00 -.157252675604171D+04
 0.380878469951706D+03 -.900362180400724D+02 -.239472858834837D+02 -.357873112245957D+03
 0.247364327499113D+03 -.143290559735105D+02 -.174542015328942D+03 0.174696518451020D+03
 0.976302003074188D+03 0.109390227815134D+03 -.607563645301467D+03 0.756350313130905D+03
 0.620321322608486D+03 0.128636820308341D+01 0.218982932344420D+03 -.573173719335968D+03
 0.647387629635134D+03 -.631132200463491D+01 0.587070014169473D+03 -.272799759314786D+03
0.114016867843D-02 0.000000000000D+00 0.000000000000D+00 0.206431391702D-06 0.000000000000D+00  7 1 -1 23 -13 13 23 21 0 0.13843624D+00 0.19684529D+00 0.27614376D+06 0.27614376D+06 0.27614376D+06 0.10872244D+01  1  2  2  1  7  1        1 0.378606704605D-03 0.100000000000D+01
-.240939609075D-04 0.000000000000D+00 -.437854793846D-05 0.206431391702D-06 0.000000000000D+00  7 1 -1 23 -13 13 23 21 2 0.13843624D+00 0.19684529D+00 0.27614376D+06 0.27614376D+06 0.27614376D+06 0.10872244D+01  1  2  3  1  7  1        1 -.945726890476D-05 0.100000000000D+01
0.704145719164D-04 0.000000000000D+00 0.000000000000D+00 0.206431391702D-06 0.000000000000D+00  7 1 -1 23 -13 13 23 21 2 0.13843624D+00 0.19684529D+00 0.27614376D+06 0.27614376D+06 0.27614376D+06 0.10872244D+01  1  2 15  1  7  1        1 0.276388570556D-04 0.100000000000D+01
-.199680441977D-03 0.000000000000D+00 0.000000000000D+00 0.206431391702D-06 0.000000000000D+00  7 1 -1 23 -13 13 23 21 2 0.13843624D+00 0.19684529D+00 0.27614376D+06 0.27614376D+06 0.27614376D+06 0.10872244D+01  1  2  4  1  7  1        1 -.783777994013D-04 0.100000000000D+01
  </mgrwgt>
  </event>
  <event>
  8     66 0.56006291E-06 0.47810863E+03 0.75467711E-02 0.91975645E-01
        3 -1    0    0  501    0 0.00000000E+00 0.00000000E+00 0.11282619E+04 0.11282620E+04 0.50000000E+00 0.0000E+00 0.9000E+01
       -3 -1    0    0    0  501 0.00000000E+00 0.00000000E+00 -.89712847E+03 0.89712861E+03 0.50000000E+00 0.0000E+00 0.9000E+01
       25  2    1    2    0    0 0.19476590E+03 -.38228302E+03 -.77041569E+03 0.93142162E+03 0.29988636E+03 0.0000E+00 0.0000E+00
       23  2    1    2    0    0 -.19476590E+03 0.38228302E+03 0.10015491E+04 0.10939690E+04 0.97946291E+02 0.0000E+00 0.0000E+00
       23  1    3    3    0    0 -.24314096E+02 -.20770055E+03 -.31217755E+03 0.38665329E+03 0.91188000E+02 0.0000E+00 0.9000E+01
      -11  1    4    4    0    0 -.14560501E+03 0.21924094E+03 0.69712801E+03 0.74515426E+03 0.51099893E-03 0.0000E+00 0.9000E+01
       11  1    4    4    0    0 -.49160893E+02 0.16304208E+03 0.30442112E+03 0.34881475E+03 0.51099893E-03 0.0000E+00 0.9000E+01
       23  1    3    3    0    0 0.21908000E+03 -.17458246E+03 -.45823814E+03 0.54476832E+03 0.91188000E+02 0.0000E+00 0.9000E+01
#aMCatNLO 1  0  0  2  2 0.29526072D+03 0.00000000D+00  -5  7  0 0.00000000D+00 0.00000000D+00 0.00000000D+00 0.00000000D+00 0.00000000D+00
  <mgrwgt>
 0.7520018981D-05    4    2    0
 0.100607958653163D+04 0.000000000000000D+00 0.000000000000000D+00 0.100607958653163D+04
 0.100607958653163D+04 0.000000000000000D+00 0.000000000000000D+00 -.100607958653163D+04
 0.425055155664393D+03 -.243140963239924D+02 -.207700552691956D+03 -.358644586107590D+03
 0.669976254094652D+03 -.145605007297988D+03 0.219240938855849D+03 0.616117499857016D+03
 0.316140111944948D+03 -.491608927130226D+02 0.163042078835078D+03 0.266355134242536D+03
 0.600987651359270D+03 0.219079996335003D+03 -.174582464998971D+03 -.523828047991962D+03
 0.000000000000000D+00 0.000000000000000D+00 0.000000000000000D+00 0.000000000000000D+00
 0.132630280627273D+04 0.000000000000000D+00 0.000000000000000D+00 0.132630280627273D+04
 0.108728406374533D+04 0.000000000000000D+00 0.000000000000000D+00 -.108728406374533D+04
 0.459490887733924D+03 -.461842055401449D+02 -.268435661902160D+03 -.358644586107590D+03
 0.654121014546090D+03 -.178342875602422D+03 0.128325160286688D+03 0.616117499857016D+03
 0.299459933745236D+03 -.643814008292408D+02 0.120773464008474D+03 0.266355134242536D+03
 0.620634984213083D+03 0.188875779538953D+03 -.258462082955425D+03 -.523828047991962D+03
 0.379880049779736D+03 0.100032702432855D+03 0.277799120562423D+03 0.239018742527400D+03
0.328758180342D-03 0.000000000000D+00 0.000000000000D+00 0.328956024784D-06 0.000000000000D+00  7 3 -3 23 -11 11 23 21 0 0.17357877D+00 0.13801978D+00 0.22858786D+06 0.22858786D+06 0.22858786D+06 0.10933967D+01  1  2  2  2  7  2       -3 0.860879751800D-05 0.100000000000D+01
-.597280226474D-05 0.000000000000D+00 -.126251797653D-05 0.328956024784D-06 0.000000000000D+00  7 3 -3 23 -11 11 23 21 2 0.17357877D+00 0.13801978D+00 0.22858786D+06 0.22858786D+06 0.22858786D+06 0.10933967D+01  1  2  3  2  7  2       -3 -.186981893189D-06 0.100000000000D+01
0.200460843554D-04 0.000000000000D+00 0.000000000000D+00 0.328956024784D-06 0.000000000000D+00  7 3 -3 23 -11 11 23 21 2 0.17357877D+00 0.13801978D+00 0.22858786D+06 0.22858786D+06 0.22858786D+06 0.10933967D+01  1  2 15  2  7  2       -3 0.627553807686D-06 0.100000000000D+01
-.488523657907D-04 0.000000000000D+00 0.000000000000D+00 0.328956024784D-06 0.000000000000D+00  7 3 -3 23 -11 11 23 21 2 0.17357877D+00 0.13801978D+00 0.22858786D+06 0.22858786D+06 0.22858786D+06 0.10933967D+01  1  2  4  2  7  2       -3 -.152935045183D-05 0.100000000000D+01
  </mgrwgt>
  </event>
  <event>
  8     66 0.56006291E-06 0.93703697E+03 0.75467711E-02 0.84524751E-01
        1 -1    0    0  501    0 0.00000000E+00 0.00000000E+00 0.49697554E+03 0.49697564E+03 0.32000000E+00 0.0000E+00 0.9000E+01
       -1 -1    0    0    0  501 0.00000000E+00 0.00000000E+00 -.18754306E+04 0.18754306E+04 0.32000000E+00 0.0000E+00 0.9000E+01
       25  2    1    2    0    0 0.19547021E+03 0.90458032E+03 -.90576663E+03 0.13292437E+04 0.30000243E+03 0.0000E+00 0.0000E+00
       23  2    1    2    0    0 -.19547021E+03 -.90458032E+03 -.47268843E+03 0.10431626E+04 0.90992621E+02 0.0000E+00 0.0000E+00
       23  1    3    3    0    0 0.53761924E+02 0.41457470E+03 -.56632602E+03 0.70979077E+03 0.91188000E+02 0.0000E+00 0.9000E+01
      -13  1    4    4    0    0 -.12123380E+03 -.69938927E+03 -.38928617E+03 0.80955958E+03 0.10565837E+00 0.0000E+00 0.9000E+01
       13  1    4    4    0    0 -.74236411E+02 -.20519105E+03 -.83402260E+02 0.23360299E+03 0.10565837E+00 0.0000E+00 0.9000E+01
       23  1    3    3    0    0 0.14170828E+03 0.49000562E+03 -.33944061E+03 0.61945292E+03 0.91188000E+02 0.0000E+00 0.9000E+01
#aMCatNLO 1  0  0  1  2 0.72042909D+03 0.00000000D+00  -5  7  0 0.00000000D+00 0.00000000D+00 0.00000000D+00 0.00000000D+00 0.00000000D+00
  <mgrwgt>
 0.5808750586D-04    5    2    0
 0.965423892213772D+03 0.000000000000000D+00 0.000000000000000D+00 0.965423892213772D+03
 0.965423892213772D+03 0.000000000000000D+00 0.000000000000000D+00 -.965423892213772D+03
 0.467803371393165D+03 0.537619240473788D+02 0.414574696298306D+03 -.189109015265541D+03
 0.716779450574896D+03 -.121233859953731D+03 -.699389936746245D+03 0.996436066451482D+02
 0.227482286943562D+03 -.742363481164985D+02 -.205190382184393D+03 0.642966760448942D+02
 0.518782675515920D+03 0.141708284022850D+03 0.490005622632331D+03 0.251687325754989D+02
 0.000000000000000D+00 -.000000000000000D+00 0.000000000000000D+00 0.000000000000000D+00
 0.153675456384769D+04 0.000000000000000D+00 0.000000000000000D+00 0.153675456384769D+04
 0.128670612371389D+04 0.000000000000000D+00 0.000000000000000D+00 -.128670612371389D+04
 0.366667070599266D+03 0.115883513116678D+03 0.277377506389544D+03 -.189109015265541D+03
 0.984109353018568D+03 0.538765950610814D+01 -.979036946942462D+03 0.996436066451482D+02
 0.301119303198555D+03 -.348849593653503D+02 -.292098976065372D+03 0.642966760448942D+02
 0.408975750815493D+03 0.210774634148482D+03 0.337470742304000D+03 0.251687325754989D+02
 0.762589209929703D+03 -.297160847405917D+03 0.656287674314291D+03 0.250048440133796D+03
0.502308494417D-03 0.000000000000D+00 0.000000000000D+00 0.585713725860D-05 0.000000000000D+00  7 1 -1 23 -13 13 23 21 0 0.76457786D-01 0.28852779D+00 0.87803828D+06 0.87803828D+06 0.87803828D+06 0.10516449D+01  1  2  2  1  7  1        1 0.648334613528D-04 0.100000000000D+01
-.278758064454D-04 0.000000000000D+00 -.192899687943D-05 0.585713725860D-05 0.000000000000D+00  7 1 -1 23 -13 13 23 21 2 0.76457786D-01 0.28852779D+00 0.87803828D+06 0.87803828D+06 0.87803828D+06 0.10516449D+01  1  2  3  1  7  1        1 -.397918716590D-05 0.100000000000D+01
0.312428178275D-04 0.000000000000D+00 0.000000000000D+00 0.585713725860D-05 0.000000000000D+00  7 1 -1 23 -13 13 23 21 2 0.76457786D-01 0.28852779D+00 0.87803828D+06 0.87803828D+06 0.87803828D+06 0.10516449D+01  1  2 15  1  7  1        1 0.445981786999D-05 0.100000000000D+01
-.155898040517D-03 0.000000000000D+00 -.162529052534D-03 0.585713725860D-05 0.000000000000D+00  7 1 -1 23 -13 13 23 21 2 0.15782941D+00 0.28852779D+00 0.87803828D+06 0.87803828D+06 0.87803828D+06 0.10516449D+01  1  2  5  1  7  1        1 -.710028972274D-05 0.100000000000D+01
-.224721382696D-05 0.000000000000D+00 -.127375324159D-04 0.585713725860D-05 0.000000000000D+00  7 21 -1 23 -13 13 23 -1 2 0.15782941D+00 0.28852779D+00 0.87803828D+06 0.87803828D+06 0.87803828D+06 0.10516449D+01  1  2  5  3  7  1        1 -.126296476245D-06 0.100000000000D+01
  </mgrwgt>
  </event>
  <event>
  8     66 0.56006291E-06 0.33443125E+03 0.75467711E-02 0.94412963E-01
        1 -1    0    0  501    0 0.00000000E+00 0.00000000E+00 0.23200067E+04 0.23200067E+04 0.32000000E+00 0.0000E+00 0.9000E+01
       -1 -1    0    0    0  501 0.00000000E+00 0.00000000E+00 -.82434848E+02 0.82435469E+02 0.32000000E+00 0.0000E+00 0.9000E+01
       25  2    1    2    0    0 -.19497215E+03 -.22247530E+03 0.18931391E+04 0.19394069E+04 0.29968970E+03 0.0000E+00 0.0000E+00
       23  2    1    2    0    0 0.19497215E+03 0.22247530E+03 0.34443274E+03 0.46303532E+03 0.90875737E+02 0.0000E+00 0.0000E+00
       23  1    3    3    0    0 -.25269133E+02 -.40427531E+02 0.10632385E+04 0.10682061E+04 0.91188000E+02 0.0000E+00 0.9000E+01
      -13  1    4    4    0    0 0.17237489E+02 0.14722384E+01 0.57373003E+00 0.17310080E+02 0.10565837E+00 0.0000E+00 0.9000E+01
       13  1    4    4    0    0 0.17773466E+03 0.22100306E+03 0.34385901E+03 0.44572524E+03 0.10565837E+00 0.0000E+00 0.9000E+01
       23  1    3    3    0    0 -.16970302E+03 -.18204776E+03 0.82990060E+03 0.87120075E+03 0.91188000E+02 0.0000E+00 0.9000E+01
#aMCatNLO 1  0  0  1  1 0.30450323D+03 0.00000000D+00  -5  7  0 0.00000000D+00 0.00000000D+00 0.00000000D+00 0.00000000D+00 0.00000000D+00
  <mgrwgt>
 0.2835610622D-03    3    2    0
 0.437321588440693D+03 0.000000000000000D+00 0.000000000000000D+00 0.437321588440693D+03
 0.437321588440693D+03 0.000000000000000D+00 0.000000000000000D+00 -.437321588440693D+03
 0.214065429926204D+03 -.252691331080660D+02 -.404275305445628D+02 0.187712127023072D+03
 0.460786197712191D+02 0.172372724370047D+02 0.147194168528957D+01 -.427077162422456D+02
 0.344620804918898D+03 0.177734876761477D+03 0.221003353392192D+03 -.195783887373138D+03
 0.269878322265064D+03 -.169703016090416D+03 -.182047764532918D+03 0.507794765923116D+02
 0.000000000000000D+00 0.000000000000000D+00 0.000000000000000D+00 -.000000000000000D+00
 0.573110678472155D+03 0.000000000000000D+00 0.000000000000000D+00 0.573110678472155D+03
 0.673714663446493D+03 0.000000000000000D+00 0.000000000000000D+00 -.673714663446493D+03
 0.242049246680546D+03 -.877262913427620D+02 -.856787117686702D+02 0.187712127023072D+03
 0.436309454016153D+02 0.495307112857746D+01 -.742815296058335D+01 -.427077162422456D+02
 0.269657985493941D+03 0.936198294263298D+02 0.160060695124998D+03 -.195783887373138D+03
 0.370795131027151D+03 -.257432364215604D+03 -.245609039859729D+03 0.507794765923116D+02
 0.320692033315395D+03 0.246585755003458D+03 0.178655209463984D+03 -.100603984974337D+03
0.295557072587D-04 0.000000000000D+00 0.000000000000D+00 0.116833880947D-05 0.000000000000D+00  7 1 -1 23 -13 13 23 21 0 0.35692416D+00 0.12682334D-01 0.11184426D+06 0.11184426D+06 0.11184426D+06 0.11177544D+01  1  2  2  1  7  1        1 0.279035743685D-03 0.100000000000D+01
-.149833911912D-05 0.000000000000D+00 -.113501698070D-06 0.116833880947D-05 0.000000000000D+00  7 1 -1 23 -13 13 23 21 2 0.35692416D+00 0.12682334D-01 0.11184426D+06 0.11184426D+06 0.11184426D+06 0.11177544D+01  1  2  3  1  7  1        1 -.176734525152D-04 0.100000000000D+01
0.188199147913D-05 0.000000000000D+00 0.000000000000D+00 0.116833880947D-05 0.000000000000D+00  7 1 -1 23 -13 13 23 21 2 0.35692416D+00 0.12682334D-01 0.11184426D+06 0.11184426D+06 0.11184426D+06 0.11177544D+01  1  2 15  1  7  1        1 0.221987710364D-04 0.100000000000D+01
  </mgrwgt>
  </event>
  <event>
  8     66 0.56006291E-06 0.31731044E+03 0.75467711E-02 0.99908269E-01
        1 -1    0    0  501    0 0.00000000E+00 0.00000000E+00 0.31262710E+03 0.31262726E+03 0.32000000E+00 0.0000E+00 0.9000E+01
       -1 -1    0    0    0  501 0.00000000E+00 0.00000000E+00 -.59395954E+03 0.59395963E+03 0.32000000E+00 0.0000E+00 0.9000E+01
       25  2    1    2    0    0 0.14941950E+03 0.21866210E+03 -.43171786E+03 0.58853371E+03 0.29975376E+03 0.0000E+00 0.0000E+00
       23  2    1    2    0    0 -.14941950E+03 -.21866210E+03 0.15038541E+03 0.31805318E+03 0.91666529E+02 0.0000E+00 0.0000E+00
       23  1    3    3    0    0 -.18448320E+02 0.37374228E+02 -.23902591E+02 0.10307162E+03 0.91188000E+02 0.0000E+00 0.9000E+01
      -13  1    4    4    0    0 -.12746219E+03 -.14002342E+03 0.14055812E+03 0.23581723E+03 0.10565837E+00 0.0000E+00 0.9000E+01
       13  1    4    4    0    0 -.21957319E+02 -.78638678E+02 0.98272862E+01 0.82235955E+02 0.10565837E+00 0.0000E+00 0.9000E+01
       23  1    3    3    0    0 0.16786782E+03 0.18128787E+03 -.40781527E+03 0.48546209E+03 0.91188000E+02 0.0000E+00 0.9000E+01
#aMCatNLO 1  0  0  1  1 0.88426151D+01 0.00000000D+00  -5  7  0 0.00000000D+00 0.00000000D+00 0.00000000D+00 0.00000000D+00 0.00000000D+00
  <mgrwgt>
 0.6849451258D-04    6    2    0
 0.430915259001037D+03 0.000000000000000D+00 0.000000000000000D+00 0.430915259001037D+03
 0.430915259001037D+03 0.000000000000000D+00 0.000000000000000D+00 -.430915259001037D+03
 0.100621644502811D+03 -.184483204195097D+02 0.373742279759837D+02 0.850238527405335D+01
 0.293947121094994D+03 -.127462325198976D+03 -.140023504098120D+03 0.224837016425209D+03
 0.897143201064018D+02 -.219571791366008D+02 -.786385961725643D+02 0.371821557810398D+02
 0.377547432297867D+03 0.167867824755086D+03 0.181287872294700D+03 -.270521557480302D+03
 0.000000000000000D+00 0.000000000000000D+00 0.000000000000000D+00 -.000000000000000D+00
 0.432148359343828D+03 0.000000000000000D+00 0.000000000000000D+00 0.432148359343828D+03
 0.447087686688464D+03 0.000000000000000D+00 0.000000000000000D+00 -.447087686688464D+03
 0.100389829678071D+03 -.189647708156049D+02 0.364816867942702D+02 0.850238527405335D+01
 0.295861088999167D+03 -.128977694831304D+03 -.142642399954523D+03 0.224837016425209D+03
 0.905302409551977D+02 -.224202739690406D+02 -.794389270700064D+02 0.371821557810398D+02
 0.375094720991463D+03 0.165934092664576D+03 0.177945953035406D+03 -.270521557480302D+03
 0.173601654083931D+02 0.442864695137333D+01 0.765368719485263D+01 -.149393273446367D+02
0.651764152563D-05 0.000000000000D+00 0.000000000000D+00 0.106379198809D-05 0.000000000000D+00  7 1 -1 23 -13 13 23 21 0 0.48096495D-01 0.91378411D-01 0.10068592D+06 0.10068592D+06 0.10068592D+06 0.11214785D+01  1  2  2  1  7  1        1 0.834915054269D-04 0.100000000000D+01
-.320859627129D-06 0.000000000000D+00 -.250294595928D-07 0.106379198809D-05 0.000000000000D+00  7 1 -1 23 -13 13 23 21 2 0.48096495D-01 0.91378411D-01 0.10068592D+06 0.10068592D+06 0.10068592D+06 0.11214785D+01  1  2  3  1  7  1        1 -.516950316233D-05 0.100000000000D+01
0.408563208985D-06 0.000000000000D+00 0.000000000000D+00 0.106379198809D-05 0.000000000000D+00  7 1 -1 23 -13 13 23 21 2 0.48096495D-01 0.91378411D-01 0.10068592D+06 0.10068592D+06 0.10068592D+06 0.11214785D+01  1  2 15  1  7  1        1 0.658253211774D-05 0.100000000000D+01
-.101987701312D-05 0.000000000000D+00 0.000000000000D+00 0.106379198809D-05 0.000000000000D+00  7 1 -1 23 -13 13 23 21 2 0.48096495D-01 0.91378411D-01 0.10068592D+06 0.10068592D+06 0.10068592D+06 0.11214785D+01  1  2  4  1  7  1        1 -.164316635649D-04 0.100000000000D+01
0.130746323521D-08 0.000000000000D+00 0.000000000000D+00 0.106379198809D-05 0.911750648995D-07  7 1 -1 23 -13 13 23 21 2 0.48234128D-01 0.94807880D-01 0.10354110D+06 0.10354110D+06 0.10354110D+06 0.11204840D+01  1  2 11  1  7  1        1 0.193461846974D-07 0.100000000000D+01
0.338441643163D-10 0.000000000000D+00 0.000000000000D+00 0.106379198809D-05 0.498824392839D-10  7 21 -1 23 -13 13 23 -1 2 0.48234128D-01 0.94807880D-01 0.10354110D+06 0.10354110D+06 0.10354110D+06 0.11204840D+01  1  2 11  3  7  1        1 0.229558241855D-08 0.100000000000D+01
  </mgrwgt>
  </event>
  <event>
  8     66 0.56006291E-06 0.84104775E+02 0.75467711E-02 0.10646419E+00
        1 -1    0    0  501    0 0.00000000E+00 0.00000000E+00 0.96644278E+02 0.96644808E+02 0.32000000E+00 0.0000E+00 0.9000E+01
       -1 -1    0    0    0  501 0.00000000E+00 0.00000000E+00 -.71493022E+03 0.71493029E+03 0.32000000E+00 0.0000E+00 0.9000E+01
       25  2    1    2    0    0 0.11877272E+02 -.36992093E+02 -.64229253E+03 0.70882217E+03 0.29728721E+03 0.0000E+00 0.0000E+00
       23  2    1    2    0    0 -.11877272E+02 0.36992093E+02 0.24006590E+02 0.10275293E+03 0.92045444E+02 0.0000E+00 0.0000E+00
       23  1    3    3    0    0 0.74169055E+02 -.11393958E+03 -.31674474E+03 0.35654700E+03 0.91188000E+02 0.0000E+00 0.9000E+01
      -11  1    4    4    0    0 0.38978421E+02 0.95682562E+01 -.12910846E+00 0.40135838E+02 0.51099893E-03 0.0000E+00 0.9000E+01
       11  1    4    4    0    0 -.50855693E+02 0.27423837E+02 0.24135699E+02 0.62617093E+02 0.51099893E-03 0.0000E+00 0.9000E+01
       23  1    3    3    0    0 -.62291783E+02 0.76947488E+02 -.32554779E+03 0.35227517E+03 0.91188000E+02 0.0000E+00 0.9000E+01
#aMCatNLO 1  0  0  2  1 0.92758597D+03 0.00000000D+00  -5  7  0 0.00000000D+00 0.00000000D+00 0.00000000D+00 0.00000000D+00 0.00000000D+00
  <mgrwgt>
 0.1160803472D-05    1    2    0
 0.262857677220602D+03 0.000000000000000D+00 0.000000000000000D+00 0.262857677220602D+03
 0.262857677220602D+03 0.000000000000000D+00 0.000000000000000D+00 -.262857677220602D+03
 0.177902054892598D+03 0.741690549594321D+02 -.113939581316177D+03 -.696463415186187D+02
 0.618080114799125D+02 0.389784209244492D+02 0.956825622080449D+01 0.470038451430358D+02
 0.125051010300313D+03 -.508556927122151D+02 0.274238370844617D+02 0.110902600760553D+03
 0.160954277768380D+03 -.622917831716661D+02 0.769474880109108D+02 -.882601043849700D+02
 0.000000000000000D+00 0.000000000000000D+00 -.000000000000000D+00 -.000000000000000D+00
 0.280838645845970D+03 0.000000000000000D+00 0.000000000000000D+00 0.280838645845970D+03
 0.305670968315989D+03 0.000000000000000D+00 0.000000000000000D+00 -.305670968315989D+03
 0.166929027040189D+03 0.589219469303409D+02 -.105960558735759D+03 -.696463415186187D+02
 0.591049886670525D+02 0.336321117546695D+02 0.123660537773101D+02 0.470038451430358D+02
 0.131456240264583D+03 -.621974596367247D+02 0.333591406331634D+02 0.110902600760553D+03
 0.170850202731429D+03 -.769629048419080D+02 0.846250889607810D+02 -.882601043849700D+02
 0.581691554587049D+02 0.466063057936222D+02 -.243897246354958D+02 -.248323224700197D+02
0.218372269182D-07 0.000000000000D+00 0.000000000000D+00 0.110555018188D-07 0.000000000000D+00  7 1 -1 23 -11 11 23 21 2 0.14868397D-01 0.10998931D+00 0.39246405D+05 0.39246405D+05 0.39246405D+05 0.11566626D+01  1  2 14  2  7  2       -1 0.116080347226D-05 0.100000000000D+01
  </mgrwgt>
  </event>
  <event>
  8     66 0.56006291E-06 0.18771989E+03 0.75467711E-02 0.96772746E-01
        1 -1    0    0  501    0 0.00000000E+00 0.00000000E+00 0.88681519E+03 0.88681524E+03 0.32000000E+00 0.0000E+00 0.9000E+01
       -1 -1    0    0    0  501 0.00000000E+00 0.00000000E+00 -.19907467E+03 0.19907492E+03 0.32000000E+00 0.0000E+00 0.9000E+01
       25  2    1    2    0    0 -.25081745E+03 0.23881918E+03 0.25517813E+03 0.52443263E+03 0.29994952E+03 0.0000E+00 0.0000E+00
       23  2    1    2    0    0 0.25081745E+03 -.23881918E+03 0.43256239E+03 0.56145754E+03 0.90445252E+02 0.0000E+00 0.0000E+00
       23  1    3    3    0    0 -.16397065E+03 0.13111475E+03 0.27471966E+03 0.35758019E+03 0.91188000E+02 0.0000E+00 0.9000E+01
      -13  1    4    4    0    0 0.25147020E+03 -.24197373E+03 0.43480292E+03 0.55753218E+03 0.10565837E+00 0.0000E+00 0.9000E+01
       13  1    4    4    0    0 -.65274595E+00 0.31545500E+01 -.22405250E+01 0.39253508E+01 0.10565837E+00 0.0000E+00 0.9000E+01
       23  1    3    3    0    0 -.86846805E+02 0.10770443E+03 -.19541539E+02 0.16685244E+03 0.91188000E+02 0.0000E+00 0.9000E+01
#aMCatNLO 1  0  0  2  1 0.80654574D+02 0.00000000D+00  -5  7  0 0.00000000D+00 0.00000000D+00 0.00000000D+00 0.00000000D+00 0.00000000D+00
  <mgrwgt>
 0.2482516212D-03    9    2    0
 0.420169737301664D+03 0.000000000000000D+00 0.000000000000000D+00 0.420169737301664D+03
 0.420169737301664D+03 0.000000000000000D+00 0.000000000000000D+00 -.420169737301664D+03
 0.237233854424444D+03 -.163970647540128D+03 0.131114747588997D+03 0.623474141486468D+02
 0.364599725698915D+03 0.251470542180522D+03 -.241974066300331D+03 0.105565513465531D+03
 0.690553004083630D+01 -.653090010946986D+00 0.315488453475043D+01 -.610790652800831D+01
 0.231600364439133D+03 -.868468046294467D+02 0.107704434176584D+03 -.161805021086170D+03
 0.000000000000000D+00 0.000000000000000D+00 0.000000000000000D+00 -.000000000000000D+00
 0.434173894166563D+03 0.000000000000000D+00 0.000000000000000D+00 0.434173894166563D+03
 0.556801773508018D+03 0.000000000000000D+00 0.000000000000000D+00 -.556801773508018D+03
 0.240081774970064D+03 -.179745605671632D+03 0.114578900847806D+03 0.623474141486468D+02
 0.366419288814451D+03 0.227310859075425D+03 -.267299066456356D+03 0.105565513465531D+03
 0.676143690181092D+01 -.110477400792483D+01 0.268141403250181D+01 -.610790652800831D+01
 0.230938655954654D+03 -.102133405845826D+03 0.916804997356468D+02 -.161805021086170D+03
 0.146774511033601D+03 0.556729264499584D+02 0.583582518404013D+02 -.122627879341455D+03
0.937904938662D-05 0.000000000000D+00 0.000000000000D+00 0.110329884927D-05 0.000000000000D+00  7 1 -1 23 -13 13 23 21 0 0.13643313D+00 0.30626896D-01 0.13942871D+06 0.13942871D+06 0.13942871D+06 0.11100653D+01  1  2  2  2  7  2       -1 0.202637696525D-03 0.100000000000D+01
-.512236354993D-06 0.000000000000D+00 -.360180192051D-07 0.110329884927D-05 0.000000000000D+00  7 1 -1 23 -13 13 23 21 2 0.13643313D+00 0.30626896D-01 0.13942871D+06 0.13942871D+06 0.13942871D+06 0.11100653D+01  1  2  3  2  7  2       -1 -.136373149356D-04 0.100000000000D+01
0.590146802717D-06 0.000000000000D+00 0.000000000000D+00 0.110329884927D-05 0.000000000000D+00  7 1 -1 23 -13 13 23 21 2 0.13643313D+00 0.30626896D-01 0.13942871D+06 0.13942871D+06 0.13942871D+06 0.11100653D+01  1  2 15  2  7  2       -1 0.157115318514D-04 0.100000000000D+01
0.228813676965D-04 0.000000000000D+00 0.000000000000D+00 0.110329884927D-05 0.000000000000D+00  7 1 -1 23 -13 13 23 21 2 0.13643313D+00 0.40975513D-01 0.17266551D+06 0.17266551D+06 0.17266551D+06 0.11027612D+01  1  2 12  2  7  2       -1 0.363219108868D-03 0.100000000000D+01
-.231746077895D-04 0.000000000000D+00 0.000000000000D+00 0.110329884927D-05 0.000000000000D+00  7 1 -1 23 -13 13 23 21 2 0.13643313D+00 0.30626896D-01 0.13942871D+06 0.13942871D+06 0.13942871D+06 0.11100653D+01  1  2  4  2  7  2       -1 -.616979684973D-03 0.100000000000D+01
-.290828058583D-04 0.000000000000D+00 -.466262965078D-05 0.110329884927D-05 0.000000000000D+00  7 1 -1 23 -13 13 23 21 2 0.13643313D+00 0.41583463D-01 0.13942871D+06 0.13942871D+06 0.13942871D+06 0.11100653D+01  1  2  5  2  7  2       -1 -.458705450643D-03 0.100000000000D+01
0.293360084671D-04 0.000000000000D+00 0.445277151928D-05 0.110329884927D-05 0.000000000000D+00  7 1 -1 23 -13 13 23 21 2 0.13643313D+00 0.30626896D-01 0.13942871D+06 0.13942871D+06 0.13942871D+06 0.11100653D+01  1  2  6  2  7  2       -1 0.781015214012D-03 0.100000000000D+01
0.865417439297D-06 0.000000000000D+00 0.000000000000D+00 0.110329884927D-05 0.000000000000D+00  7 1 21 23 -13 13 23 1 2 0.13643313D+00 0.40975513D-01 0.17266551D+06 0.17266551D+06 0.17266551D+06 0.11027612D+01  1  2 12  4  7  2       -1 0.134098870344D-03 0.100000000000D+01
-.103222359993D-05 0.000000000000D+00 -.182755044318D-06 0.110329884927D-05 0.000000000000D+00  7 1 21 23 -13 13 23 1 2 0.13643313D+00 0.41583463D-01 0.13942871D+06 0.13942871D+06 0.13942871D+06 0.11100653D+01  1  2  5  4  7  2       -1 -.159108349897D-03 0.100000000000D+01
  </mgrwgt>
  </event>
  <event>
  8     66 0.56006291E-06 0.71330200E+02 0.75467711E-02 0.10491924E+00
        1 -1    0    0  501    0 0.00000000E+00 0.00000000E+00 0.15076138E+03 0.15076172E+03 0.32000000E+00 0.0000E+00 0.9000E+01
       -1 -1    0    0    0  501 0.00000000E+00 0.00000000E+00 -.55191380E+03 0.55191389E+03 0.32000000E+00 0.0000E+00 0.9000E+01
       25  2    1    2    0    0 0.28804694E+02 -.92240205E+02 -.45684241E+03 0.55489461E+03 0.29977503E+03 0.0000E+00 0.0000E+00
       23  2    1    2    0    0 -.28804694E+02 0.92240205E+02 0.55689996E+02 0.14778101E+03 0.96953004E+02 0.0000E+00 0.0000E+00
       23  1    3    3    0    0 0.11168258E+03 0.10946813E+02 -.14903327E+03 0.20765114E+03 0.91188000E+02 0.0000E+00 0.9000E+01
      -13  1    4    4    0    0 -.44785297E+02 0.72613867E+01 0.83005464E+00 0.45377866E+02 0.10565837E+00 0.0000E+00 0.9000E+01
       13  1    4    4    0    0 0.15980603E+02 0.84978818E+02 0.54859942E+02 0.10240314E+03 0.10565837E+00 0.0000E+00 0.9000E+01
       23  1    3    3    0    0 -.82877882E+02 -.10318702E+03 -.30780914E+03 0.34724347E+03 0.91188000E+02 0.0000E+00 0.9000E+01
#aMCatNLO 1  0  0  2  1 0.49649497D+01 0.00000000D+00  -5  7  0 0.00000000D+00 0.00000000D+00 0.00000000D+00 0.00000000D+00 0.00000000D+00
  <mgrwgt>
 0.1926757037D-03   11    2    0
 0.288456998479450D+03 0.000000000000000D+00 0.000000000000000D+00 0.288456998479450D+03
 0.288456998479450D+03 0.000000000000000D+00 0.000000000000000D+00 -.288456998479450D+03
 0.149288008266158D+03 0.111682578637060D+03 0.109468038601670D+02 -.371325622910750D+02
 0.558468174040026D+02 -.447853138932537D+02 0.726132461807489D+01 0.325640267539149D+02
 0.162872564466302D+03 0.159806135267754D+02 0.849789012177337D+02 0.138024195686714D+03
 0.208906606822438D+03 -.828778782705813D+02 -.103187029695976D+03 -.133455660149554D+03
 0.000000000000000D+00 -.000000000000000D+00 0.000000000000000D+00 -.000000000000000D+00
 0.289129108972457D+03 0.000000000000000D+00 0.000000000000000D+00 0.289129108972457D+03
 0.297784909590510D+03 0.000000000000000D+00 0.000000000000000D+00 -.297784909590510D+03
 0.149705085130401D+03 0.112341755276413D+03 0.984195148405064D+01 -.371325622910750D+02
 0.555977437685884D+02 -.445396170764027D+02 0.684950979379909D+01 0.325640267539149D+02
 0.162321013497673D+03 0.166975531972758D+02 0.837772316633312D+02 0.138024195686714D+03
 0.209311518464744D+03 -.819558515601587D+02 -.104732447632589D+03 -.133455660149554D+03
 0.997865770156229D+01 -.254383983712748D+01 0.426375469140776D+01 -.865580061805320D+01
0.209467083041D-05 0.000000000000D+00 0.000000000000D+00 0.276689202322D-07 0.000000000000D+00  7 1 -1 23 -13 13 23 21 0 0.23194092D-01 0.84909848D-01 0.47776533D+05 0.47776533D+05 0.47776533D+05 0.11490371D+01  1  2  2  2  7  2       -1 0.815647440982D-04 0.100000000000D+01
-.105482776770D-06 0.000000000000D+00 -.804408752826D-08 0.276689202322D-07 0.000000000000D+00  7 1 -1 23 -13 13 23 21 2 0.23194092D-01 0.84909848D-01 0.47776533D+05 0.47776533D+05 0.47776533D+05 0.11490371D+01  1  2  3  2  7  2       -1 -.542295959420D-05 0.100000000000D+01
0.136589743419D-06 0.000000000000D+00 0.000000000000D+00 0.276689202322D-07 0.000000000000D+00  7 1 -1 23 -13 13 23 21 2 0.23194092D-01 0.84909848D-01 0.47776533D+05 0.47776533D+05 0.47776533D+05 0.11490371D+01  1  2 15  2  7  2       -1 0.702219530261D-05 0.100000000000D+01
0.448658410799D-05 0.000000000000D+00 0.000000000000D+00 0.276689202322D-07 0.000000000000D+00  7 1 -1 23 -13 13 23 21 2 0.23194092D-01 0.87752737D-01 0.48780898D+05 0.48780898D+05 0.48780898D+05 0.11482395D+01  1  2 12  2  7  2       -1 0.215224470088D-03 0.100000000000D+01
-.408247758263D-04 0.000000000000D+00 0.000000000000D+00 0.276689202322D-07 0.000000000000D+00  7 1 -1 23 -13 13 23 21 2 0.23194092D-01 0.84909848D-01 0.47776533D+05 0.47776533D+05 0.47776533D+05 0.11490371D+01  1  2  4  2  7  2       -1 -.209883657339D-02 0.100000000000D+01
-.981365648562D-04 0.000000000000D+00 -.760339898134D-05 0.276689202322D-07 0.000000000000D+00  7 1 -1 23 -13 13 23 21 2 0.23194092D-01 0.87766606D-01 0.47776533D+05 0.47776533D+05 0.47776533D+05 0.11490371D+01  1  2  5  2  7  2       -1 -.471381245971D-02 0.100000000000D+01
0.983384840181D-04 0.000000000000D+00 0.759923796435D-05 0.276689202322D-07 0.000000000000D+00  7 1 -1 23 -13 13 23 21 2 0.23194092D-01 0.84909848D-01 0.47776533D+05 0.47776533D+05 0.47776533D+05 0.11490371D+01  1  2  6  2  7  2       -1 0.505566540542D-02 0.100000000000D+01
0.362736144717D-04 0.000000000000D+00 0.000000000000D+00 0.276689202322D-07 0.789537103680D-08  7 1 -1 23 -13 13 23 21 2 0.23248135D-01 0.87655601D-01 0.48780898D+05 0.48780898D+05 0.48780898D+05 0.11482395D+01  1  2 11  2  7  2       -1 0.173883525357D-02 0.100000000000D+01
0.129650310407D-06 0.000000000000D+00 0.000000000000D+00 0.276689202322D-07 0.000000000000D+00  7 1 21 23 -13 13 23 1 2 0.23194092D-01 0.87752737D-01 0.48780898D+05 0.48780898D+05 0.48780898D+05 0.11482395D+01  1  2 12  4  7  2       -1 0.479994337913D-04 0.100000000000D+01
-.576779185167D-06 0.000000000000D+00 -.449195610356D-07 0.276689202322D-07 0.000000000000D+00  7 1 21 23 -13 13 23 1 2 0.23194092D-01 0.87766606D-01 0.47776533D+05 0.47776533D+05 0.47776533D+05 0.11490371D+01  1  2  5  4  7  2       -1 -.213953002190D-03 0.100000000000D+01
0.211798414839D-06 0.000000000000D+00 0.000000000000D+00 0.276689202322D-07 0.452066276202D-10  7 1 21 23 -13 13 23 1 2 0.23248135D-01 0.87655601D-01 0.48780898D+05 0.48780898D+05 0.48780898D+05 0.11482395D+01  1  2 11  4  7  2       -1 0.783891963232D-04 0.100000000000D+01
  </mgrwgt>
  </event>
  <event>
  8     66 0.56006291E-06 0.17575758E+03 0.75467711E-02 0.10064575E+00
        1 -1    0    0  501    0 0.00000000E+00 0.00000000E+00 0.14907165E+03 0.14907200E+03 0.32000000E+00 0.0000E+00 0.9000E+01
       -1 -1    0    0    0  501 0.00000000E+00 0.00000000E+00 -.26271787E+03 0.26271806E+03 0.32000000E+00 0.0000E+00 0.9000E+01
       25  2    1    2    0    0 -.17603361E+02 -.18244517E+02 -.96271455E+02 0.31573915E+03 0.29963357E+03 0.0000E+00 0.0000E+00
       23  2    1    2    0    0 0.17603361E+02 0.18244517E+02 -.17374760E+02 0.96050908E+02 0.91000846E+02 0.0000E+00 0.0000E+00
       23  1    3    3    0    0 -.17205727E+02 0.99712847E+02 0.36428010E+01 0.13626155E+03 0.91188000E+02 0.0000E+00 0.9000E+01
      -13  1    4    4    0    0 0.32401189E+02 -.10346620E+02 0.25445832E+02 0.42478125E+02 0.10565837E+00 0.0000E+00 0.9000E+01
       13  1    4    4    0    0 -.14797827E+02 0.28591138E+02 -.42820592E+02 0.53572783E+02 0.10565837E+00 0.0000E+00 0.9000E+01
       23  1    3    3    0    0 -.39763469E+00 -.11795736E+03 -.99914256E+02 0.17947760E+03 0.91188000E+02 0.0000E+00 0.9000E+01
#aMCatNLO 1  0  0  1  2 0.20464125D+03 0.00000000D+00  -5  7  0 0.00000000D+00 0.00000000D+00 0.00000000D+00 0.00000000D+00 0.00000000D+00
  <mgrwgt>
 0.2325241567D-03    3    2    0
 0.197898704274932D+03 0.000000000000000D+00 0.000000000000000D+00 0.197898704274932D+03
 0.197898704274932D+03 0.000000000000000D+00 0.000000000000000D+00 -.197898704274932D+03
 0.142812047763721D+03 -.172066167648078D+02 0.997112128941252D+02 0.429142867255041D+02
 0.515017194315228D+02 0.324023274355204D+02 -.103455546678174D+02 0.386715112166542D+02
 0.434422447733974D+02 -.147969802344079D+02 0.285921298933517D+02 -.291679295640952D+02
 0.158041396581222D+03 -.398730436304749D+00 -.117957788119659D+03 -.524178683780631D+02
 0.000000000000000D+00 0.000000000000000D+00 0.000000000000000D+00 -.000000000000000D+00
 0.263518790400498D+03 0.000000000000000D+00 0.000000000000000D+00 0.263518790400498D+03
 0.479811870220427D+03 0.000000000000000D+00 0.000000000000000D+00 -.479811870220427D+03
 0.124653366149220D+03 -.559469371873117D+02 0.474501271076454D+02 0.429142867255041D+02
 0.522988120903277D+02 0.173676140034068D+02 -.306275358151495D+02 0.386715112166542D+02
 0.415853180613853D+02 -.271125726722258D+02 0.119782705890221D+02 -.291679295640952D+02
 0.227033632638243D+03 -.561739045061861D+02 -.193199064521924D+03 -.524178683780631D+02
 0.297759531681749D+03 0.121865800362317D+03 0.164398202640406D+03 -.216293079819930D+03
0.147987667965D-05 0.000000000000D+00 0.000000000000D+00 0.798758497881D-07 0.000000000000D+00  7 1 -1 23 -13 13 23 21 0 0.22934142D-01 0.40418175D-01 0.30890725D+05 0.30890725D+05 0.30890725D+05 0.11661588D+01  1  2  2  1  7  1        1 0.229801108473D-03 0.100000000000D+01
-.808081329896D-07 0.000000000000D+00 -.568311611035D-08 0.798758497881D-07 0.000000000000D+00  7 1 -1 23 -13 13 23 21 2 0.22934142D-01 0.40418175D-01 0.30890725D+05 0.30890725D+05 0.30890725D+05 0.11661588D+01  1  2  3  1  7  1        1 -.170646366469D-04 0.100000000000D+01
0.937028957251D-07 0.000000000000D+00 0.000000000000D+00 0.798758497881D-07 0.000000000000D+00  7 1 -1 23 -13 13 23 21 2 0.22934142D-01 0.40418175D-01 0.30890725D+05 0.30890725D+05 0.30890725D+05 0.11661588D+01  1  2 15  1  7  1        1 0.197876848425D-04 0.100000000000D+01
  </mgrwgt>
  </event>
  <event>
  8     66 0.56006291E-06 0.22990994E+03 0.75467711E-02 0.10128234E+00
        1 -1    0    0  501    0 0.00000000E+00 0.00000000E+00 0.12997591E+03 0.12997631E+03 0.32000000E+00 0.0000E+00 0.9000E+01
       21 -1    0    0  502  501 0.00000000E+00 0.00000000E+00 -.16070768E+04 0.16070770E+04 0.75000000E+00 0.0000E+00 0.9000E+01
       25  2    1    2    0    0 -.80141170E+02 0.88422923E+02 -.28564660E+03 0.43208343E+03 0.30143140E+03 0.0000E+00 0.0000E+00
       23  1    3    3    0    0 0.40275331E+02 0.11527332E+03 -.21411103E+03 0.26280949E+03 0.91188000E+02 0.0000E+00 0.9000E+01
      -13  1    1    2    0    0 0.33162223E+02 0.62035046E+02 -.12275766E+02 0.71405781E+02 0.10565837E+00 0.0000E+00 0.9000E+01
       13  1    1    2    0    0 -.38738278E+02 -.87727911E+02 -.68582283E+02 0.11789988E+03 0.10565837E+00 0.0000E+00 0.9000E+01
       23  1    3    3    0    0 -.12041650E+03 -.26850402E+02 -.71535571E+02 0.16927394E+03 0.91188000E+02 0.0000E+00 0.9000E+01
        1  1    1    2  502    0 0.85717226E+02 -.62730057E+02 -.11105962E+04 0.11156642E+04 0.32000000E+00 0.0000E+00 0.9000E+01
#aMCatNLO 2  0  0  2  1 0.10621913D+03 0.00000000D+00  -5  7  0 0.00000000D+00 0.00000000D+00 0.00000000D+00 0.00000000D+00 0.00000000D+00
  <mgrwgt>
 0.8354767122D-05    2    2    0
 0.245212273637938D+03 0.000000000000000D+00 0.000000000000000D+00 0.245212273637938D+03
 0.245212273637938D+03 0.000000000000000D+00 0.000000000000000D+00 -.245212273637938D+03
 0.165285205803254D+03 0.691510007015250D+02 0.941492122123158D+02 -.731984484480522D+02
 0.791519712050209D+02 0.468666336813452D+02 0.519866751976343D+02 0.369586092123977D+02
 0.102584586788333D+03 -.215789457527616D+02 -.100282149312311D+03 0.119878106241154D+01
 0.143402783479269D+03 -.944386886301086D+02 -.458537380976388D+02 0.350410581732429D+02
 0.000000000000000D+00 0.000000000000000D+00 -.000000000000000D+00 -.000000000000000D+00
 0.255886408044496D+03 0.000000000000000D+00 0.000000000000000D+00 0.255886408044496D+03
 0.816306356987531D+03 0.000000000000000D+00 0.000000000000000D+00 -.816306356987531D+03
 0.169073773056023D+03 0.402659526829746D+02 0.115288028826630D+03 -.731984484480522D+02
 0.794453575182758D+02 0.331655167817321D+02 0.620135028271471D+02 0.369586092123977D+02
 0.959076544363301D+02 -.387265573965247D+02 -.877330887160403D+02 0.119878106241154D+01
 0.157368730627045D+03 -.120422138086776D+03 -.268383854930991D+02 0.350410581732429D+02
 0.570397249394353D+03 0.857172260185940D+02 -.627300574446377D+02 -.560419948943035D+03
-.995789371652D-06 0.000000000000D+00 0.000000000000D+00 0.172869389291D-10 0.000000000000D+00  7 1 21 23 -13 13 23 1 2 0.19162201D-01 0.24412927D+00 0.83598878D+05 0.83598878D+05 0.83598878D+05 0.11281629D+01  1  2 13  4  7  2       -1 -.210471161754D-04 0.100000000000D+01
0.154351291736D-05 0.000000000000D+00 0.000000000000D+00 0.172869389291D-10 0.267659836366D-14  7 1 21 23 -13 13 23 1 2 0.19996335D-01 0.24724259D+00 0.83598878D+05 0.83598878D+05 0.83598878D+05 0.11281629D+01  1  2  1  4  7  2       -1 0.294018832971D-04 0.100000000000D+01
  </mgrwgt>
  </event>
  <event>
  8     66 0.56006291E-06 0.18753544E+03 0.75467711E-02 0.88465191E-01
        1 -1    0    0  501    0 0.00000000E+00 0.00000000E+00 0.39769572E+03 0.39769584E+03 0.32000000E+00 0.0000E+00 0.9000E+01
       -1 -1    0    0    0  501 0.00000000E+00 0.00000000E+00 -.15056787E+03 0.15056821E+03 0.32000000E+00 0.0000E+00 0.9000E+01
       25  2    1    2    0    0 -.10500409E+03 -.82911242E+02 0.13955774E+03 0.35612653E+03 0.29908127E+03 0.0000E+00 0.0000E+00
       23  2    1    2    0    0 0.10500409E+03 0.82911242E+02 0.10757011E+03 0.19213752E+03 0.86286541E+02 0.0000E+00 0.0000E+00
       23  1    3    3    0    0 -.91993693E+02 -.67843923E+02 0.19789788E+03 0.24605783E+03 0.91188000E+02 0.0000E+00 0.9000E+01
      -13  1    4    4    0    0 0.78642747E+02 0.49380686E+02 0.20375694E+02 0.95070047E+02 0.10565837E+00 0.0000E+00 0.9000E+01
       13  1    4    4    0    0 0.26361348E+02 0.33530555E+02 0.87194411E+02 0.97067478E+02 0.10565837E+00 0.0000E+00 0.9000E+01
       23  1    3    3    0    0 -.13010401E+02 -.15067319E+02 -.58340135E+02 0.11006869E+03 0.91188000E+02 0.0000E+00 0.9000E+01
#aMCatNLO 1  0  0  2  2 0.85496565D+03 0.00000000D+00  -5  7  0 0.00000000D+00 0.00000000D+00 0.00000000D+00 0.00000000D+00 0.00000000D+00
  <mgrwgt>
 0.2634194990D-03    3    2    0
 0.244704566682608D+03 0.000000000000000D+00 0.000000000000000D+00 0.244704566682608D+03
 0.244704566682608D+03 0.000000000000000D+00 0.000000000000000D+00 -.244704566682608D+03
 0.175719221706814D+03 -.919936988349531D+02 -.678439272939127D+02 0.974492403113055D+02
 0.962142043353713D+02 0.786428253987970D+02 0.493807150432535D+02 -.251798354045440D+02
 0.647115356364082D+02 0.263612797258538D+02 0.335305350249747D+02 0.486658915111638D+02
 0.152764171686622D+03 -.130104062896976D+02 -.150673227743154D+02 -.120935296417925D+03
 0.000000000000000D+00 -.000000000000000D+00 0.000000000000000D+00 0.000000000000000D+00
 0.929497342699932D+03 0.000000000000000D+00 0.000000000000000D+00 0.929497342699932D+03
 0.910805882210202D+03 0.000000000000000D+00 0.000000000000000D+00 -.910805882210202D+03
 0.334328899394202D+03 0.105802706498345D+03 -.287697748490517D+03 0.974492403113055D+02
 0.221425738567628D+03 0.201823435810347D+03 -.875364743802615D+02 -.251798354045440D+02
 0.117512620284741D+03 0.970277159207230D+02 -.450163222933295D+02 0.486658915111638D+02
 0.311866017525891D+03 0.167172947855752D+03 -.215343960047608D+03 -.120935296417925D+03
 0.855169949137672D+03 -.571826806085167D+03 0.635594505211716D+03 0.186914604897292D+02
0.234720872153D-05 0.000000000000D+00 0.000000000000D+00 0.529919107916D-08 0.000000000000D+00  7 1 -1 23 -13 13 23 21 0 0.61183992D-01 0.23164324D-01 0.35169541D+05 0.35169541D+05 0.35169541D+05 0.11609835D+01  1  2  2  2  7  2       -1 0.258585182526D-03 0.100000000000D+01
-.119175194724D-06 0.000000000000D+00 -.901389952493D-08 0.529919107916D-08 0.000000000000D+00  7 1 -1 23 -13 13 23 21 2 0.61183992D-01 0.23164324D-01 0.35169541D+05 0.35169541D+05 0.35169541D+05 0.11609835D+01  1  2  3  2  7  2       -1 -.176966012113D-04 0.100000000000D+01
0.151731197816D-06 0.000000000000D+00 0.000000000000D+00 0.529919107916D-08 0.000000000000D+00  7 1 -1 23 -13 13 23 21 2 0.61183992D-01 0.23164324D-01 0.35169541D+05 0.35169541D+05 0.35169541D+05 0.11609835D+01  1  2 15  2  7  2       -1 0.225309176568D-04 0.100000000000D+01
  </mgrwgt>
  </event>
  <event>
  8     66 0.56006291E-06 0.17909728E+03 0.75467711E-02 0.95846003E-01
        1 -1    0    0  501    0 0.00000000E+00 0.00000000E+00 0.71629390E+03 0.71629397E+03 0.32000000E+00 0.0000E+00 0.9000E+01
       -1 -1    0    0    0  501 0.00000000E+00 0.00000000E+00 -.64476486E+02 0.64477280E+02 0.32000000E+00 0.0000E+00 0.9000E+01
       25  2    1    2    0    0 -.32019319E+02 -.16139931E+02 0.34467556E+03 0.45842864E+03 0.30011638E+03 0.0000E+00 0.0000E+00
       23  2    1    2    0    0 0.32019319E+02 0.16139931E+02 0.30714186E+03 0.32234262E+03 0.91010476E+02 0.0000E+00 0.0000E+00
       23  1    3    3    0    0 -.93399856E+02 0.58529525E+02 0.27111605E+03 0.30654266E+03 0.91188000E+02 0.0000E+00 0.9000E+01
      -11  1    4    4    0    0 0.46331416E+02 0.35366430E+02 0.11719486E+03 0.13088935E+03 0.51099893E-03 0.0000E+00 0.9000E+01
       11  1    4    4    0    0 -.14312096E+02 -.19226499E+02 0.18994699E+03 0.19145327E+03 0.51099893E-03 0.0000E+00 0.9000E+01
       23  1    3    3    0    0 0.61380537E+02 -.74669456E+02 0.73559508E+02 0.15188598E+03 0.91188000E+02 0.0000E+00 0.9000E+01
#aMCatNLO 1  0  0  1  2 0.37332173D+03 0.00000000D+00  -5  7  0 0.00000000D+00 0.00000000D+00 0.00000000D+00 0.00000000D+00 0.00000000D+00
  <mgrwgt>
 0.1427151936D-03    5    2    0
 0.214905681426794D+03 0.000000000000000D+00 0.000000000000000D+00 0.214905681426794D+03
 0.214905681426794D+03 0.000000000000000D+00 0.000000000000000D+00 -.214905681426794D+03
 0.145695389540660D+03 -.933998561220816D+02 0.585295251568564D+02 0.276162407052828D+02
 0.600379299465523D+02 0.463314155495698D+02 0.353664298403473D+02 0.143933528334437D+02
 0.597249250641576D+02 -.143120959897374D+02 -.192264989193847D+02 0.547044086121282D+02
 0.164353118302217D+03 0.613805365622492D+02 -.746694560778190D+02 -.967140021508548D+02
 0.000000000000000D+00 0.000000000000000D+00 0.000000000000000D+00 0.000000000000000D+00
 0.540381517017239D+03 0.000000000000000D+00 0.000000000000000D+00 0.540381517017239D+03
 0.420898527300215D+03 0.000000000000000D+00 0.000000000000000D+00 -.420898527300215D+03
 0.211805646429929D+03 -.185205628466821D+03 -.385045315400354D+02 0.276162407052828D+02
 0.295518839045486D+02 0.233248750720244D+02 0.110496805109638D+02 0.143933528334437D+02
 0.997823946828379D+02 -.552733554284849D+02 -.625204778189942D+02 0.547044086121282D+02
 0.228163969763138D+03 -.394173096048669D+02 -.181207679874647D+03 -.967140021508548D+02
 0.391976149537001D+03 0.256571418428149D+03 0.271183008722713D+03 0.119482989717024D+03
0.756763540687D-06 0.000000000000D+00 0.000000000000D+00 0.192370325647D-06 0.000000000000D+00  7 1 -1 23 -11 11 23 21 0 0.11019913D+00 0.99195260D-02 0.32075837D+05 0.32075837D+05 0.32075837D+05 0.11646495D+01  1  2  2  1  7  1        1 0.137778721032D-03 0.100000000000D+01
-.403441751929D-07 0.000000000000D+00 -.290617125665D-08 0.192370325647D-06 0.000000000000D+00  7 1 -1 23 -11 11 23 21 2 0.11019913D+00 0.99195260D-02 0.32075837D+05 0.32075837D+05 0.32075837D+05 0.11646495D+01  1  2  3  1  7  1        1 -.996307307172D-05 0.100000000000D+01
0.466378675815D-07 0.000000000000D+00 0.000000000000D+00 0.192370325647D-06 0.000000000000D+00  7 1 -1 23 -11 11 23 21 2 0.11019913D+00 0.99195260D-02 0.32075837D+05 0.32075837D+05 0.32075837D+05 0.11646495D+01  1  2 15  1  7  1        1 0.115173127323D-04 0.100000000000D+01
0.240005968296D-06 0.000000000000D+00 -.256033987867D-06 0.192370325647D-06 0.000000000000D+00  7 1 -1 23 -11 11 23 21 2 0.39606397D+00 0.99195260D-02 0.32075837D+05 0.32075837D+05 0.32075837D+05 0.11646495D+01  1  2  5  1  7  1        1 0.317414280339D-05 0.100000000000D+01
0.433015499263D-07 0.000000000000D+00 -.384860146134D-07 0.192370325647D-06 0.000000000000D+00  7 21 -1 23 -11 11 23 -1 2 0.39606397D+00 0.99195260D-02 0.32075837D+05 0.32075837D+05 0.32075837D+05 0.11646495D+01  1  2  5  3  7  1        1 0.208090142543D-06 0.100000000000D+01
  </mgrwgt>
  </event>
  <event>
  8     66 0.56006291E-06 0.39980275E+03 0.75467711E-02 0.95218727E-01
        1 -1    0    0  501    0 0.00000000E+00 0.00000000E+00 0.45722610E+04 0.45722611E+04 0.32000000E+00 0.0000E+00 0.9000E+01
       -1 -1    0    0    0  501 0.00000000E+00 0.00000000E+00 -.46772139E+02 0.46773233E+02 0.32000000E+00 0.0000E+00 0.9000E+01
       25  2    1    2    0    0 0.34238020E+03 0.24929466E+02 0.35858432E+04 0.36147029E+04 0.29993326E+03 0.0000E+00 0.0000E+00
       23  2    1    2    0    0 -.34238020E+03 -.24929466E+02 0.93964575E+03 0.10043314E+04 0.88892070E+02 0.0000E+00 0.0000E+00
       23  1    3    3    0    0 0.12865631E+03 -.97581437E+02 0.18209157E+04 0.18303343E+04 0.91188000E+02 0.0000E+00 0.9000E+01
      -13  1    4    4    0    0 -.67674575E+02 -.35794139E+02 0.15414145E+03 0.17210656E+03 0.10565837E+00 0.0000E+00 0.9000E+01
       13  1    4    4    0    0 -.27470563E+03 0.10864673E+02 0.78550430E+03 0.83222487E+03 0.10565837E+00 0.0000E+00 0.9000E+01
       23  1    3    3    0    0 0.21372389E+03 0.12251090E+03 0.17649275E+04 0.17843685E+04 0.91188000E+02 0.0000E+00 0.9000E+01
#aMCatNLO 1  0  0  2  2 0.13714134D+03 0.00000000D+00  -5  7  0 0.00000000D+00 0.00000000D+00 0.00000000D+00 0.00000000D+00 0.00000000D+00
  <mgrwgt>
 0.4204505451D-04    4    2    0
 0.462446734277734D+03 0.000000000000000D+00 0.000000000000000D+00 0.462446734277734D+03
 0.462446734277734D+03 0.000000000000000D+00 0.000000000000000D+00 -.462446734277734D+03
 0.231208582859178D+03 0.128656314517308D+03 -.975814365288857D+02 0.138085384539900D+03
 0.105309840735582D+03 -.676742825804747D+02 -.357942048690054D+02 -.723127162452597D+02
 0.312776022779100D+03 -.274705919409920D+03 0.108647388120461D+02 -.149155810202648D+03
 0.275599022181607D+03 0.213723887473087D+03 0.122510902585845D+03 0.833831419080077D+02
 0.000000000000000D+00 -.000000000000000D+00 0.000000000000000D+00 0.000000000000000D+00
 0.590881120131955D+03 0.000000000000000D+00 0.000000000000000D+00 0.590881120131955D+03
 0.505612779791599D+03 0.000000000000000D+00 0.000000000000000D+00 -.505612779791599D+03
 0.256459906200390D+03 0.148998835923743D+03 -.127232879453977D+03 0.138085384539900D+03
 0.105161011103750D+03 -.588947368336730D+02 -.485913500418343D+02 -.723127162452597D+02
 0.291823943558885D+03 -.249485738009072D+03 -.258964253733917D+02 -.149155810202648D+03
 0.281560847342321D+03 0.236965160647110D+03 0.886342129042970D+02 0.833831419080077D+02
 0.161488191718208D+03 -.775835217281082D+02 0.113086441964906D+03 0.852683403403553D+02
0.159669106123D-03 0.000000000000D+00 0.000000000000D+00 0.268732857104D-06 0.000000000000D+00  7 1 -1 23 -13 13 23 21 0 0.70342486D+00 0.71957987D-02 0.15984224D+06 0.15984224D+06 0.15984224D+06 0.11053804D+01  1  2  2  2  7  2       -1 0.468800361985D-04 0.100000000000D+01
-.864199101698D-05 0.000000000000D+00 -.613171409353D-06 0.268732857104D-06 0.000000000000D+00  7 1 -1 23 -13 13 23 21 2 0.70342486D+00 0.71957987D-02 0.15984224D+06 0.15984224D+06 0.15984224D+06 0.11053804D+01  1  2  3  2  7  2       -1 -.310030472003D-05 0.100000000000D+01
0.103643890182D-04 0.000000000000D+00 0.000000000000D+00 0.268732857104D-06 0.000000000000D+00  7 1 -1 23 -13 13 23 21 2 0.70342486D+00 0.71957987D-02 0.15984224D+06 0.15984224D+06 0.15984224D+06 0.11053804D+01  1  2 15  2  7  2       -1 0.371821309814D-05 0.100000000000D+01
-.151997404219D-04 0.000000000000D+00 0.000000000000D+00 0.268732857104D-06 0.000000000000D+00  7 1 -1 23 -13 13 23 21 2 0.70342486D+00 0.71957987D-02 0.15984224D+06 0.15984224D+06 0.15984224D+06 0.11053804D+01  1  2  4  2  7  2       -1 -.545289006672D-05 0.100000000000D+01
  </mgrwgt>
  </event>
  <event>
  8     66 0.56006291E-06 0.10559849E+04 0.75467711E-02 0.84072632E-01
        1 -1    0    0  501    0 0.00000000E+00 0.00000000E+00 0.74491312E+03 0.74491319E+03 0.32000000E+00 0.0000E+00 0.9000E+01
       -1 -1    0    0    0  501 0.00000000E+00 0.00000000E+00 -.15112590E+04 0.15112591E+04 0.32000000E+00 0.0000E+00 0.9000E+01
       25  2    1    2    0    0 -.77665112E+03 0.68511291E+03 -.32101587E+03 0.11251472E+04 0.30056356E+03 0.0000E+00 0.0000E+00
       23  2    1    2    0    0 0.77665112E+03 -.68511291E+03 -.44533005E+03 0.11310250E+04 0.91280414E+02 0.0000E+00 0.0000E+00
       23  1    3    3    0    0 -.16952587E+03 0.26924581E+03 -.15395905E+03 0.36503557E+03 0.91188000E+02 0.0000E+00 0.9000E+01
      -11  1    4    4    0    0 0.71777336E+03 -.59757487E+03 -.39337373E+03 0.10134284E+04 0.51099893E-03 0.0000E+00 0.9000E+01
       11  1    4    4    0    0 0.58877765E+02 -.87538034E+02 -.51956328E+02 0.11759659E+03 0.51099893E-03 0.0000E+00 0.9000E+01
       23  1    3    3    0    0 -.60712525E+03 0.41586709E+03 -.16705683E+03 0.76011166E+03 0.91188000E+02 0.0000E+00 0.9000E+01
#aMCatNLO 1  0  0  1  2 0.64911354D+03 0.00000000D+00  -5  7  0 0.00000000D+00 0.00000000D+00 0.00000000D+00 0.00000000D+00 0.00000000D+00
  <mgrwgt>
 0.3326572786D-03    3    2    0
 0.106101687631791D+04 0.000000000000000D+00 0.000000000000000D+00 0.106101687631791D+04
 0.106101687631791D+04 0.000000000000000D+00 0.000000000000000D+00 -.106101687631791D+04
 0.332509907584867D+03 -.169525874778507D+03 0.269245811187875D+03 -.318631171805558D+02
 0.935427535058033D+03 0.717773358979615D+03 -.597574871377897D+03 -.522527662574581D+02
 0.106266760478439D+03 0.588777653866365D+02 -.875380342601096D+02 -.127720665334157D+02
 0.747829549514488D+03 -.607125249587745D+03 0.415867094450131D+03 0.968879499714295D+02
 0.000000000000000D+00 -.000000000000000D+00 0.000000000000000D+00 -.000000000000000D+00
 0.125531492851678D+04 0.000000000000000D+00 0.000000000000000D+00 0.125531492851678D+04
 0.183218091659734D+04 0.000000000000000D+00 0.000000000000000D+00 -.183218091659734D+04
 0.251337852724915D+03 -.133732806470751D+03 0.189619996586240D+03 -.318631171805558D+02
 0.123495609911508D+04 0.850829773601768D+03 -.893574233912741D+03 -.522527662574581D+02
 0.142934578048192D+03 0.741551735375819D+02 -.121524393254572D+03 -.127720665334157D+02
 0.589864897298594D+03 -.525117246877789D+03 0.233430820379199D+03 0.968879499714295D+02
 0.868402417927339D+03 -.266134893790810D+03 0.592047810201874D+03 -.576865988080566D+03
0.158445406710D-02 0.000000000000D+00 0.000000000000D+00 0.401138229130D-05 0.000000000000D+00  7 1 -1 23 -11 11 23 21 0 0.11460203D+00 0.23250140D+00 0.11151041D+07 0.11151041D+07 0.11151041D+07 0.10447288D+01  1  2  2  1  7  1        1 0.329854366232D-03 0.100000000000D+01
-.880228072283D-04 0.000000000000D+00 -.608472081398D-05 0.401138229130D-05 0.000000000000D+00  7 1 -1 23 -11 11 23 21 2 0.11460203D+00 0.23250140D+00 0.11151041D+07 0.11151041D+07 0.11151041D+07 0.10447288D+01  1  2  3  1  7  1        1 -.200006870030D-04 0.100000000000D+01
0.100358394042D-03 0.000000000000D+00 0.000000000000D+00 0.401138229130D-05 0.000000000000D+00  7 1 -1 23 -11 11 23 21 2 0.11460203D+00 0.23250140D+00 0.11151041D+07 0.11151041D+07 0.11151041D+07 0.10447288D+01  1  2 15  1  7  1        1 0.228035993236D-04 0.100000000000D+01
  </mgrwgt>
  </event>
  <event>
  8     66 0.56006291E-06 0.26475620E+03 0.75467711E-02 0.86162452E-01
        1 -1    0    0  501    0 0.00000000E+00 0.00000000E+00 0.12075508E+04 0.12075508E+04 0.32000000E+00 0.0000E+00 0.9000E+01
       -1 -1    0    0    0  501 0.00000000E+00 0.00000000E+00 -.11237041E+03 0.11237086E+03 0.32000000E+00 0.0000E+00 0.9000E+01
       25  2    1    2    0    0 -.18521094E+03 0.50425341E+02 0.10417330E+04 0.11007879E+04 0.29946722E+03 0.0000E+00 0.0000E+00
       23  2    1    2    0    0 0.18521094E+03 -.50425341E+02 0.53447379E+02 0.21913376E+03 0.91198543E+02 0.0000E+00 0.0000E+00
       23  1    3    3    0    0 0.27172769E+02 -.16109663E+02 0.16010382E+03 0.18693947E+03 0.91188000E+02 0.0000E+00 0.9000E+01
      -13  1    4    4    0    0 0.74836360E+02 -.27710494E+02 -.22894585E+02 0.83021235E+02 0.10565837E+00 0.0000E+00 0.9000E+01
       13  1    4    4    0    0 0.11037458E+03 -.22714847E+02 0.76341964E+02 0.13611253E+03 0.10565837E+00 0.0000E+00 0.9000E+01
       23  1    3    3    0    0 -.21238371E+03 0.66535004E+02 0.88162918E+03 0.91384846E+03 0.91188000E+02 0.0000E+00 0.9000E+01
#aMCatNLO 1  0  0  2  2 0.10759879D+04 0.00000000D+00  -5  7  0 0.00000000D+00 0.00000000D+00 0.00000000D+00 0.00000000D+00 0.00000000D+00
  <mgrwgt>
 0.1730532238D-03    5    2    0
 0.368365718464050D+03 0.000000000000000D+00 0.000000000000000D+00 0.368365718464050D+03
 0.368365718464050D+03 0.000000000000000D+00 0.000000000000000D+00 -.368365718464050D+03
 0.969184897446691D+02 0.271727692036419D+02 -.161096627242007D+02 0.894771988305592D+01
 0.182773905083610D+03 0.748363128694994D+02 -.277105009383102D+02 -.164432219450322D+03
 0.130372612628949D+03 0.110374631598183D+03 -.227148404358158D+02 -.655629075563206D+02
 0.326666429470872D+03 -.212383713671324D+03 0.665350040983267D+02 0.221047407123587D+03
 0.000000000000000D+00 -.000000000000000D+00 -.000000000000000D+00 -.000000000000000D+00
 0.878840105685357D+03 0.000000000000000D+00 0.000000000000000D+00 0.878840105685357D+03
 0.192808981592980D+04 0.000000000000000D+00 0.000000000000000D+00 -.192808981592980D+04
 0.183614481809798D+03 0.133250615198949D+03 0.869668813070628D+02 0.894771988305592D+01
 0.373698704312539D+03 0.285255129000246D+03 0.176754853372021D+03 -.164432219450322D+03
 0.323255107836733D+03 0.281904741603160D+03 0.143962101113296D+03 -.655629075563206D+02
 0.423472783838146D+03 0.712661956548782D+02 0.342159495657287D+03 0.221047407123587D+03
 0.150288884381794D+04 -.771676681457233D+03 -.749843331449667D+03 -.104924971024444D+04
0.509391042515D-05 0.000000000000D+00 0.000000000000D+00 0.685591852402D-06 0.000000000000D+00  7 1 -1 23 -13 13 23 21 0 0.18577708D+00 0.17287793D-01 0.70095845D+05 0.70095845D+05 0.70095845D+05 0.11346091D+01  1  2  2  2  7  2       -1 0.163509859355D-03 0.100000000000D+01
-.245464013728D-06 0.000000000000D+00 -.195619572900D-07 0.685591852402D-06 0.000000000000D+00  7 1 -1 23 -13 13 23 21 2 0.18577708D+00 0.17287793D-01 0.70095845D+05 0.70095845D+05 0.70095845D+05 0.11346091D+01  1  2  3  2  7  2       -1 -.101431536300D-04 0.100000000000D+01
0.315185405349D-06 0.000000000000D+00 0.000000000000D+00 0.685591852402D-06 0.000000000000D+00  7 1 -1 23 -13 13 23 21 2 0.18577708D+00 0.17287793D-01 0.70095845D+05 0.70095845D+05 0.70095845D+05 0.11346091D+01  1  2 15  2  7  2       -1 0.130242064400D-04 0.100000000000D+01
0.115784526304D-04 0.000000000000D+00 -.426020105199D-05 0.685591852402D-06 0.000000000000D+00  7 1 -1 23 -13 13 23 21 2 0.18577708D+00 0.20759903D+00 0.70095845D+05 0.70095845D+05 0.70095845D+05 0.11346091D+01  1  2  5  2  7  2       -1 0.267982087531D-05 0.100000000000D+01
0.254291976137D-05 0.000000000000D+00 -.123238499734D-05 0.685591852402D-06 0.000000000000D+00  7 1 21 23 -13 13 23 1 2 0.18577708D+00 0.20759903D+00 0.70095845D+05 0.70095845D+05 0.70095845D+05 0.11346091D+01  1  2  5  4  7  2       -1 0.398249077285D-05 0.100000000000D+01
  </mgrwgt>
  </event>
  <event>
  9     66 0.56006291E-06 0.38682433E+03 0.75467711E-02 0.94445395E-01
        1 -1    0    0  501    0 0.00000000E+00 0.00000000E+00 0.25716179E+03 0.25716199E+03 0.32000000E+00 0.0000E+00 0.9000E+01
       21 -1    0    0  502  501 0.00000000E+00 0.00000000E+00 -.12566820E+04 0.12566822E+04 0.75000000E+00 0.0000E+00 0.9000E+01
       25  2    1    2    0    0 0.15793845E+03 -.16122691E+03 -.68437123E+03 0.78062495E+03 0.30012109E+03 0.0000E+00 0.0000E+00
       23  2    1    2    0    0 -.35526240E+03 0.25161299E+03 -.20427826E+03 0.48950057E+03 0.91437013E+02 0.0000E+00 0.0000E+00
       23  1    3    3    0    0 0.17125795E+02 -.16260592E+03 -.23180725E+03 0.29796615E+03 0.91188000E+02 0.0000E+00 0.9000E+01
      -11  1    4    4    0    0 -.33679717E+03 0.20594325E+03 -.17205853E+03 0.43063801E+03 0.51099893E-03 0.0000E+00 0.9000E+01
       11  1    4    4    0    0 -.18465233E+02 0.45669738E+02 -.32219739E+02 0.58862563E+02 0.51099893E-03 0.0000E+00 0.9000E+01
       23  1    3    3    0    0 0.14081266E+03 0.13790157E+01 -.45256398E+03 0.48265880E+03 0.91188000E+02 0.0000E+00 0.9000E+01
        1  1    1    2  502    0 0.19732395E+03 -.90386085E+02 -.11087071E+03 0.24371869E+03 0.32000000E+00 0.0000E+00 0.9000E+01
#aMCatNLO 2  0  0  2  2 0.21704005D+03 0.00000000D+00  -5  7  0 0.00000000D+00 0.00000000D+00 0.00000000D+00 0.00000000D+00 0.00000000D+00
  <mgrwgt>
 0.1558004336D-04    1    2    0
 0.440571939768858D+03 0.000000000000000D+00 0.000000000000000D+00 0.440571939768858D+03
 0.440571939768858D+03 0.000000000000000D+00 0.000000000000000D+00 -.440571939768858D+03
 0.216236725992482D+03 0.619470755518108D+02 -.183136729057439D+03 -.326583622471843D+02
 0.350671503952464D+03 -.250204427208279D+03 0.166278634782999D+03 0.180885775848633D+03
 0.435334671017849D+02 -.805446989219235D+01 0.409009905258201D+02 0.125458059392267D+02
 0.270702182490984D+03 0.196311821548661D+03 -.240428962513802D+02 -.160773219540676D+03
 0.000000000000000D+00 0.000000000000000D+00 -.000000000000000D+00 0.000000000000000D+00
 0.611753949632866D+03 0.000000000000000D+00 0.000000000000000D+00 0.611753949632866D+03
 0.528269230642969D+03 0.000000000000000D+00 0.000000000000000D+00 -.528269230642969D+03
 0.190041570050263D+03 0.171257951814041D+02 -.162605920918967D+03 -.326583622471843D+02
 0.434240278218162D+03 -.336797167695218D+03 0.205943252268928D+03 0.180885775848633D+03
 0.508339162548881D+02 -.184652326340103D+02 0.456697381086877D+02 0.125458059392267D+02
 0.232364769867028D+03 0.140812659677724D+03 0.137901572439802D+01 -.160773219540676D+03
 0.232542645885493D+03 0.197323945470100D+03 -.903860851830467D+02 0.834847189898966D+02
0.970096490463D-06 0.000000000000D+00 0.000000000000D+00 0.126082666334D-05 0.609132191492D-11  7 1 21 23 -11 11 23 1 2 0.39563378D-01 0.19333569D+00 0.25809128D+06 0.25809128D+06 0.25809128D+06 0.10894200D+01  1  2  1  4  7  2       -1 0.155800433552D-04 0.100000000000D+01
  </mgrwgt>
  </event>
  <event>
  9     66 0.56006291E-06 0.21742219E+03 0.75467711E-02 0.99024722E-01
        1 -1    0    0  501    0 0.00000000E+00 0.00000000E+00 0.19487268E+04 0.19487268E+04 0.32000000E+00 0.0000E+00 0.9000E+01
       21 -1    0    0  502  501 0.00000000E+00 0.00000000E+00 -.33719119E+03 0.33719202E+03 0.75000000E+00 0.0000E+00 0.9000E+01
       25  2    1    2    0    0 -.15450988E+03 -.17082149E+03 0.18228085E+04 0.18616629E+04 0.30017407E+03 0.0000E+00 0.0000E+00
       23  2    1    2    0    0 -.19935972E+02 0.15243194E+02 0.17558079E+02 0.97147827E+02 0.92193363E+02 0.0000E+00 0.0000E+00
       23  1    3    3    0    0 -.20314555E+03 -.15321501E+03 0.11973586E+04 0.12274876E+04 0.91188000E+02 0.0000E+00 0.9000E+01
      -13  1    4    4    0    0 0.93973508E+01 -.27899362E+02 0.31531635E+02 0.43138611E+02 0.10565837E+00 0.0000E+00 0.9000E+01
       13  1    4    4    0    0 -.29333323E+02 0.43142556E+02 -.13973555E+02 0.54009216E+02 0.10565837E+00 0.0000E+00 0.9000E+01
       23  1    3    3    0    0 0.48635669E+02 -.17606481E+02 0.62544999E+03 0.63417534E+03 0.91188000E+02 0.0000E+00 0.9000E+01
        1  1    1    2  502    0 0.17444585E+03 0.15557829E+03 -.22883104E+03 0.32710810E+03 0.32000000E+00 0.0000E+00 0.9000E+01
#aMCatNLO 2  0  0  2  1 0.23374336D+03 0.00000000D+00  -5  7  0 0.00000000D+00 0.00000000D+00 0.00000000D+00 0.00000000D+00 0.00000000D+00
  <mgrwgt>
 0.2113443179D-03    1    2    0
 0.314385982017178D+03 0.000000000000000D+00 0.000000000000000D+00 0.314385982017178D+03
 0.314385982017178D+03 0.000000000000000D+00 0.000000000000000D+00 -.314385982017178D+03
 0.225140842032662D+03 -.132736268297839D+03 -.904209913098492D+02 0.128756649599484D+03
 0.378026648761700D+02 0.197685578030199D+02 -.186500127438432D+02 -.262758942527779D+02
 0.211691068482865D+03 0.253980179855686D+02 0.919544525521633D+02 -.188977320897651D+03
 0.154137388642659D+03 0.875696925092509D+02 0.171165515015291D+02 0.864965655509447D+02
 0.000000000000000D+00 0.000000000000000D+00 0.000000000000000D+00 -.000000000000000D+00
 0.344082797189067D+03 0.000000000000000D+00 0.000000000000000D+00 0.344082797189067D+03
 0.190969855975540D+04 0.000000000000000D+00 0.000000000000000D+00 -.190969855975540D+04
 0.299393514758074D+03 -.203145545302803D+03 -.153215005605637D+03 0.128756649599484D+03
 0.394602757000458D+02 0.939740152922950D+01 -.278994549057664D+02 -.262758942527779D+02
 0.196046328189685D+03 -.293333736495721D+02 0.431426491228637D+02 -.188977320897651D+03
 0.135912926804237D+03 0.486356689485688D+02 -.176064812586235D+02 0.864965655509447D+02
 0.158296831149243D+04 0.174445848474577D+03 0.155578292647164D+03 -.156561576256634D+04
0.115904007904D-04 0.000000000000D+00 0.000000000000D+00 0.447616094289D-06 0.452628341746D-10  7 1 21 23 -13 13 23 1 2 0.29980417D+00 0.51875632D-01 0.11919149D+06 0.11919149D+06 0.11919149D+06 0.11155184D+01  1  2  1  4  7  2       -1 0.211344317924D-03 0.100000000000D+01
  </mgrwgt>
  </event>
  <event>
  8     66 0.56006291E-06 0.17824969E+03 0.75467711E-02 0.10269576E+00
        1 -1    0    0  501    0 0.00000000E+00 0.00000000E+00 0.38131046E+03 0.38131059E+03 0.32000000E+00 0.0000E+00 0.9000E+01
       -1 -1    0    0    0  501 0.00000000E+00 0.00000000E+00 -.14671214E+03 0.14671249E+03 0.32000000E+00 0.0000E+00 0.9000E+01
       25  2    1    2    0    0 -.74777034E+02 0.47465181E+02 0.71067127E+02 0.32094658E+03 0.30018598E+03 0.0000E+00 0.0000E+00
       23  2    1    2    0    0 0.74777034E+02 -.47465181E+02 0.16353120E+03 0.20707650E+03 0.91069616E+02 0.0000E+00 0.0000E+00
       23  1    3    3    0    0 0.22807925E+02 0.44496198E+02 -.71009140E+02 0.12592721E+03 0.91188000E+02 0.0000E+00 0.9000E+01
      -13  1    4    4    0    0 0.39333294E+02 0.18926312E+02 0.98011695E+02 0.10729220E+03 0.10565837E+00 0.0000E+00 0.9000E+01
       13  1    4    4    0    0 0.35443739E+02 -.66391493E+02 0.65519502E+02 0.99784294E+02 0.10565837E+00 0.0000E+00 0.9000E+01
       23  1    3    3    0    0 -.97584959E+02 0.29689833E+01 0.14207627E+03 0.19501937E+03 0.91188000E+02 0.0000E+00 0.9000E+01
#aMCatNLO 1  0  0  1  1 0.13031449D+03 0.00000000D+00  -5  7  0 0.00000000D+00 0.00000000D+00 0.00000000D+00 0.00000000D+00 0.00000000D+00
  <mgrwgt>
 0.1667399936D-03    3    2    0
 0.236522726223894D+03 0.000000000000000D+00 0.000000000000000D+00 0.236522726223894D+03
 0.236522726223894D+03 0.000000000000000D+00 0.000000000000000D+00 -.236522726223894D+03
 0.175778247112417D+03 0.228079215172450D+02 0.444961999639890D+02 -.141713188231518D+03
 0.711546300041123D+02 0.393333015591499D+02 0.189264154218562D+02 0.561930917351806D+02
 0.788880831176611D+02 0.354437384953836D+02 -.663916005489098D+02 0.236479689614958D+02
 0.147224492213598D+03 -.975849615717785D+02 0.296898516306457D+01 0.618721275348418D+02
 0.000000000000000D+00 -.000000000000000D+00 -.000000000000000D+00 -.000000000000000D+00
 0.255586082496586D+03 0.000000000000000D+00 0.000000000000000D+00 0.255586082496586D+03
 0.659415997449371D+03 0.000000000000000D+00 0.000000000000000D+00 -.659415997449371D+03
 0.194528981737434D+03 0.637123446678776D+02 0.733783538244270D+02 -.141713188231518D+03
 0.856639389969401D+02 0.566556020830120D+02 0.311574973052147D+02 0.561930917351806D+02
 0.792535187795880D+02 0.529121822571089D+02 -.540573285663759D+02 0.236479689614958D+02
 0.131220317346973D+03 -.668277323658073D+02 0.246863193246119D+02 0.618721275348418D+02
 0.424335323085022D+03 -.106452396642191D+03 -.751648418878777D+02 -.403829914952785D+03
0.135012093768D-05 0.000000000000D+00 0.000000000000D+00 0.169404582478D-06 0.000000000000D+00  7 1 -1 23 -13 13 23 21 0 0.58663185D-01 0.22571135D-01 0.31772953D+05 0.31772953D+05 0.31772953D+05 0.11650293D+01  1  2  2  1  7  1        1 0.163769538754D-03 0.100000000000D+01
-.677101014405D-07 0.000000000000D+00 -.518481989571D-08 0.169404582478D-06 0.000000000000D+00  7 1 -1 23 -13 13 23 21 2 0.58663185D-01 0.22571135D-01 0.31772953D+05 0.31772953D+05 0.31772953D+05 0.11650293D+01  1  2  3  1  7  1        1 -.111477607324D-04 0.100000000000D+01
0.857522717491D-07 0.000000000000D+00 0.000000000000D+00 0.169404582478D-06 0.000000000000D+00  7 1 -1 23 -13 13 23 21 2 0.58663185D-01 0.22571135D-01 0.31772953D+05 0.31772953D+05 0.31772953D+05 0.11650293D+01  1  2 15  1  7  1        1 0.141182155598D-04 0.100000000000D+01
  </mgrwgt>
  </event>
  <event>
  8     66 0.56006291E-06 0.27088448E+03 0.75467711E-02 0.94744047E-01
        3 -1    0    0  501    0 0.00000000E+00 0.00000000E+00 0.33907332E+03 0.33907368E+03 0.50000000E+00 0.0000E+00 0.9000E+01
       -3 -1    0    0    0  501 0.00000000E+00 0.00000000E+00 -.63245549E+03 0.63245569E+03 0.50000000E+00 0.0000E+00 0.9000E+01
       25  2    1    2    0    0 0.14263123E+03 0.11766277E+03 -.54391496E+03 0.64874147E+03 0.30138649E+03 0.0000E+00 0.0000E+00
       23  2    1    2    0    0 -.14263123E+03 -.11766277E+03 0.25053278E+03 0.32278791E+03 0.85071539E+02 0.0000E+00 0.0000E+00
       23  1    3    3    0    0 0.18299123E+03 0.21287975E+02 -.39478377E+03 0.44509375E+03 0.91188000E+02 0.0000E+00 0.9000E+01
      -13  1    4    4    0    0 -.14575788E+03 -.93507873E+02 0.24069751E+03 0.29652046E+03 0.10565837E+00 0.0000E+00 0.9000E+01
       13  1    4    4    0    0 0.31266565E+01 -.24154899E+02 0.98352708E+01 0.26267448E+02 0.10565837E+00 0.0000E+00 0.9000E+01
       23  1    3    3    0    0 -.40360003E+02 0.96374797E+02 -.14913118E+03 0.20364772E+03 0.91188000E+02 0.0000E+00 0.9000E+01
#aMCatNLO 1  0  0  2  2 0.33659336D+03 0.00000000D+00  -5  7  0 0.00000000D+00 0.00000000D+00 0.00000000D+00 0.00000000D+00 0.00000000D+00
  <mgrwgt>
 0.7825828288D-04    3    2    0
 0.463086445418272D+03 0.000000000000000D+00 0.000000000000000D+00 0.463086445418272D+03
 0.463086445418272D+03 0.000000000000000D+00 0.000000000000000D+00 -.463086445418272D+03
 0.341835885441123D+03 0.182991227984653D+03 0.212879751570661D+02 -.273125527598021D+03
 0.387287524362958D+03 -.145758111107673D+03 -.935079802053993D+02 0.346413708174805D+03
 0.306687673338649D+02 0.312688601789554D+01 -.241547915198761D+02 0.186371113706269D+02
 0.166380713698598D+03 -.403600028948761D+02 0.963747965682092D+02 -.919252919474107D+02
 0.000000000000000D+00 0.000000000000000D+00 0.000000000000000D+00 0.000000000000000D+00
 0.748358322891504D+03 0.000000000000000D+00 0.000000000000000D+00 0.748358322891504D+03
 0.603516020540756D+03 0.000000000000000D+00 0.000000000000000D+00 -.603516020540756D+03
 0.342069131075674D+03 0.157495893859716D+03 -.964029495528981D+02 -.273125527598021D+03
 0.456498274891999D+03 -.177213650052903D+03 -.238712253566674D+03 0.346413708174805D+03
 0.409701266212828D+02 0.456255603412279D+00 -.364828889473839D+02 0.186371113706269D+02
 0.145902121823039D+03 -.520016125348478D+02 0.426350888661406D+02 -.919252919474107D+02
 0.366434689020265D+03 0.712631131246222D+02 0.328963003200815D+03 0.144842302350749D+03
0.556708673973D-04 0.000000000000D+00 0.000000000000D+00 0.117552784339D-07 0.000000000000D+00  7 3 -3 23 -13 13 23 21 0 0.52165169D-01 0.97300889D-01 0.73378404D+05 0.73378404D+05 0.73378404D+05 0.11329235D+01  1  2  2  2  7  2       -3 0.756343927883D-04 0.100000000000D+01
-.201157861364D-05 0.000000000000D+00 -.213790789282D-06 0.117552784339D-07 0.000000000000D+00  7 3 -3 23 -13 13 23 21 2 0.52165169D-01 0.97300889D-01 0.73378404D+05 0.73378404D+05 0.73378404D+05 0.11329235D+01  1  2  3  2  7  2       -3 -.350775742247D-05 0.100000000000D+01
0.351628961584D-05 0.000000000000D+00 0.000000000000D+00 0.117552784339D-07 0.000000000000D+00  7 3 -3 23 -13 13 23 21 2 0.52165169D-01 0.97300889D-01 0.73378404D+05 0.73378404D+05 0.73378404D+05 0.11329235D+01  1  2 15  2  7  2       -3 0.613164751100D-05 0.100000000000D+01
  </mgrwgt>
  </event>
  <event>
  8     66 0.56006291E-06 0.36951135E+03 0.75467711E-02 0.88266792E-01
        1 -1    0    0  501    0 0.00000000E+00 0.00000000E+00 0.13649733E+04 0.13649734E+04 0.32000000E+00 0.0000E+00 0.9000E+01
       -1 -1    0    0    0  501 0.00000000E+00 0.00000000E+00 -.13007055E+04 0.13007056E+04 0.32000000E+00 0.0000E+00 0.9000E+01
       25  2    1    2    0    0 0.78874022E+03 0.60983444E+02 -.10170086E+04 0.13229932E+04 0.30029089E+03 0.0000E+00 0.0000E+00
       23  2    1    2    0    0 -.78874022E+03 -.60983444E+02 0.10812763E+04 0.13426857E+04 0.88409584E+02 0.0000E+00 0.0000E+00
       23  1    3    3    0    0 0.66439044E+03 0.40134442E+02 -.70213020E+03 0.97176515E+03 0.91188000E+02 0.0000E+00 0.9000E+01
      -11  1    4    4    0    0 -.36280185E+03 -.64765908E+02 0.46026762E+03 0.58963217E+03 0.51099893E-03 0.0000E+00 0.9000E+01
       11  1    4    4    0    0 -.42593837E+03 0.37824641E+01 0.62100872E+03 0.75305354E+03 0.51099893E-03 0.0000E+00 0.9000E+01
       23  1    3    3    0    0 0.12434978E+03 0.20849001E+02 -.31487836E+03 0.35122810E+03 0.91188000E+02 0.0000E+00 0.9000E+01
#aMCatNLO 1  0  0  1  2 0.19439293D+03 0.00000000D+00  -5  7  0 0.00000000D+00 0.00000000D+00 0.00000000D+00 0.00000000D+00 0.00000000D+00
  <mgrwgt>
 0.2363953305D-03    9    2    0
 0.133245205768249D+04 0.000000000000000D+00 0.000000000000000D+00 0.133245205768249D+04
 0.133245205768249D+04 0.000000000000000D+00 0.000000000000000D+00 -.133245205768249D+04
 0.988980519366300D+03 0.664390444394618D+03 0.401344423900910D+02 -.725769784624019D+03
 0.578703625707497D+03 -.362801853294085D+03 -.647659078123804D+02 0.446181665735627D+03
 0.738296025823643D+03 -.425938371602453D+03 0.378246408879933D+01 0.603028372723086D+03
 0.358923944467530D+03 0.124349780501919D+03 0.208490013334901D+02 -.323440253834694D+03
 0.000000000000000D+00 -.000000000000000D+00 -.000000000000000D+00 0.000000000000000D+00
 0.143595863516394D+04 0.000000000000000D+00 0.000000000000000D+00 0.143595863516394D+04
 0.143049580283023D+04 0.000000000000000D+00 0.000000000000000D+00 -.143049580283023D+04
 0.101653293623408D+04 0.698042443683541D+03 0.104971070528008D+03 -.725769784624019D+03
 0.563856399472504D+03 -.343629990324261D+03 -.278278661996562D+02 0.446181665735627D+03
 0.726189307423259D+03 -.401364684871286D+03 0.511280905666521D+02 0.603028372723086D+03
 0.365406116789736D+03 0.136503852387255D+03 0.442660064399420D+02 -.323440253834694D+03
 0.194469678074595D+03 -.895516208752489D+02 -.172537301334946D+03 0.546283233371213D+01
0.897870081818D-03 0.000000000000D+00 0.000000000000D+00 0.195769737083D-05 0.000000000000D+00  7 1 -1 23 -11 11 23 21 0 0.20999590D+00 0.20010855D+00 0.65765298D+06 0.65765298D+06 0.65765298D+06 0.10601985D+01  1  2  2  1  7  1        1 0.118957472739D-03 0.100000000000D+01
-.349273855148D-04 0.000000000000D+00 -.344805752880D-05 0.195769737083D-05 0.000000000000D+00  7 1 -1 23 -11 11 23 21 2 0.20999590D+00 0.20010855D+00 0.65765298D+06 0.65765298D+06 0.65765298D+06 0.10601985D+01  1  2  3  1  7  1        1 -.520138147904D-05 0.100000000000D+01
0.557128403858D-04 0.000000000000D+00 0.000000000000D+00 0.195769737083D-05 0.000000000000D+00  7 1 -1 23 -11 11 23 21 2 0.20999590D+00 0.20010855D+00 0.65765298D+06 0.65765298D+06 0.65765298D+06 0.10601985D+01  1  2 15  1  7  1        1 0.829674857869D-05 0.100000000000D+01
0.112845975417D-02 0.000000000000D+00 0.000000000000D+00 0.195769737083D-05 0.000000000000D+00  7 1 -1 23 -11 11 23 21 2 0.23346765D+00 0.20010855D+00 0.83314555D+06 0.83314555D+06 0.83314555D+06 0.10531824D+01  1  2 12  1  7  1        1 0.127684806950D-03 0.100000000000D+01
-.930370710790D-03 0.000000000000D+00 0.000000000000D+00 0.195769737083D-05 0.000000000000D+00  7 1 -1 23 -11 11 23 21 2 0.20999590D+00 0.20010855D+00 0.65765298D+06 0.65765298D+06 0.65765298D+06 0.10601985D+01  1  2  4  1  7  1        1 -.138550679142D-03 0.100000000000D+01
-.323084614099D-02 0.000000000000D+00 -.900967959720D-03 0.195769737083D-05 0.000000000000D+00  7 1 -1 23 -11 11 23 21 2 0.23658472D+00 0.20010855D+00 0.65765298D+06 0.65765298D+06 0.65765298D+06 0.10601985D+01  1  2  5  1  7  1        1 -.366281329509D-03 0.100000000000D+01
0.332099444562D-02 0.000000000000D+00 0.894602924985D-03 0.195769737083D-05 0.000000000000D+00  7 1 -1 23 -11 11 23 21 2 0.20999590D+00 0.20010855D+00 0.65765298D+06 0.65765298D+06 0.65765298D+06 0.10601985D+01  1  2  6  1  7  1        1 0.494562039123D-03 0.100000000000D+01
0.192641090078D-04 0.000000000000D+00 0.000000000000D+00 0.195769737083D-05 0.000000000000D+00  7 21 -1 23 -11 11 23 -1 2 0.23346765D+00 0.20010855D+00 0.83314555D+06 0.83314555D+06 0.83314555D+06 0.10531824D+01  1  2 12  3  7  1        1 0.159265164985D-05 0.100000000000D+01
-.568480571270D-04 0.000000000000D+00 -.170010295536D-04 0.195769737083D-05 0.000000000000D+00  7 21 -1 23 -11 11 23 -1 2 0.23658472D+00 0.20010855D+00 0.65765298D+06 0.65765298D+06 0.65765298D+06 0.10601985D+01  1  2  5  3  7  1        1 -.466499836955D-05 0.100000000000D+01
  </mgrwgt>
  </event>
  <event>
  8     66 0.56006291E-06 0.53535246E+03 0.75467711E-02 0.87064890E-01
        1 -1    0    0  501    0 0.00000000E+00 0.00000000E+00 0.12761210E+04 0.12761210E+04 0.32000000E+00 0.0000E+00 0.9000E+01
       -1 -1    0    0    0  501 0.00000000E+00 0.00000000E+00 -.23189258E+03 0.23189280E+03 0.32000000E+00 0.0000E+00 0.9000E+01
       25  2    1    2    0    0 -.30854542E+03 -.38459267E+03 0.46050823E+03 0.73863833E+03 0.30067749E+03 0.0000E+00 0.0000E+00
       23  2    1    2    0    0 0.30854542E+03 0.38459267E+03 0.58372019E+03 0.76937552E+03 0.89986839E+02 0.0000E+00 0.0000E+00
       23  1    3    3    0    0 -.50369198E+02 0.10403393E+01 0.73014825E+02 0.12721853E+03 0.91188000E+02 0.0000E+00 0.9000E+01
      -11  1    4    4    0    0 0.12949670E+03 0.17924376E+03 0.32896646E+03 0.39637943E+03 0.51099893E-03 0.0000E+00 0.9000E+01
       11  1    4    4    0    0 0.17904872E+03 0.20534891E+03 0.25475373E+03 0.37299609E+03 0.51099893E-03 0.0000E+00 0.9000E+01
       23  1    3    3    0    0 -.25817622E+03 -.38563301E+03 0.38749341E+03 0.61141980E+03 0.91188000E+02 0.0000E+00 0.9000E+01
#aMCatNLO 1  0  0  2  1 0.75688217D+03 0.00000000D+00  -5  7  0 0.00000000D+00 0.00000000D+00 0.00000000D+00 0.00000000D+00 0.00000000D+00
  <mgrwgt>
 0.3133003379D-03    3    2    0
 0.543988226881665D+03 0.000000000000000D+00 0.000000000000000D+00 0.543988226881665D+03
 0.543988226881665D+03 0.000000000000000D+00 0.000000000000000D+00 -.543988226881665D+03
 0.106255194583071D+03 -.503691981969179D+02 0.104033925188341D+01 -.208992009207731D+02
 0.233671914167512D+03 0.129496700228071D+03 0.179243756995291D+03 0.755304155884465D+02
 0.272489519513068D+03 0.179048721221276D+03 0.205348909716043D+03 -.489070055521566D+01
 0.475559825499680D+03 -.258176223252428D+03 -.385633005963217D+03 -.497405141124577D+02
 0.000000000000000D+00 0.000000000000000D+00 -.000000000000000D+00 0.000000000000000D+00
 0.117097395047206D+04 0.000000000000000D+00 0.000000000000000D+00 0.117097395047206D+04
 0.944436861399639D+03 0.000000000000000D+00 0.000000000000000D+00 -.944436861399639D+03
 0.163591952600078D+03 -.132430212773573D+03 0.217379335983341D+02 -.208992009207731D+02
 0.227798667435881D+03 -.108373537686221D+02 0.214639094691283D+03 0.755304155884465D+02
 0.246101573748421D+03 0.213442144007121D+02 0.245125458002928D+03 -.489070055521566D+01
 0.687861865751786D+03 -.611974902842639D+03 -.296397190536786D+03 -.497405141124577D+02
 0.790056752335536D+03 0.733898254984122D+03 -.185105295755759D+03 0.226537089072426D+03
0.369440792905D-04 0.000000000000D+00 0.000000000000D+00 0.515585712850D-06 0.000000000000D+00  7 1 -1 23 -11 11 23 21 0 0.19632633D+00 0.35675802D-01 0.28660226D+06 0.28660226D+06 0.28660226D+06 0.10860229D+01  1  2  2  2  7  2       -1 0.310275605509D-03 0.100000000000D+01
-.205180982559D-05 0.000000000000D+00 -.141874992075D-06 0.515585712850D-06 0.000000000000D+00  7 1 -1 23 -11 11 23 21 2 0.19632633D+00 0.35675802D-01 0.28660226D+06 0.28660226D+06 0.28660226D+06 0.10860229D+01  1  2  3  2  7  2       -1 -.203244055823D-04 0.100000000000D+01
0.235716564644D-05 0.000000000000D+00 0.000000000000D+00 0.515585712850D-06 0.000000000000D+00  7 1 -1 23 -11 11 23 21 2 0.19632633D+00 0.35675802D-01 0.28660226D+06 0.28660226D+06 0.28660226D+06 0.10860229D+01  1  2 15  2  7  2       -1 0.233491379295D-04 0.100000000000D+01
  </mgrwgt>
  </event>
  <event>
  8     66 0.56006291E-06 0.19186807E+03 0.75467711E-02 0.95598681E-01
        1 -1    0    0  501    0 0.00000000E+00 0.00000000E+00 0.38801335E+03 0.38801348E+03 0.32000000E+00 0.0000E+00 0.9000E+01
       -1 -1    0    0    0  501 0.00000000E+00 0.00000000E+00 -.12350458E+03 0.12350499E+03 0.32000000E+00 0.0000E+00 0.9000E+01
       25  2    1    2    0    0 -.38097833E+02 0.37667154E+02 0.11074582E+03 0.32437083E+03 0.30013586E+03 0.0000E+00 0.0000E+00
       23  2    1    2    0    0 0.38097833E+02 -.37667154E+02 0.15376295E+03 0.18714765E+03 0.92254739E+02 0.0000E+00 0.0000E+00
       23  1    3    3    0    0 -.12346479E+03 0.18125994E+01 0.11889572E+03 0.19416046E+03 0.91188000E+02 0.0000E+00 0.9000E+01
      -13  1    4    4    0    0 -.81990615E+01 -.51353541E+02 0.47500225E+02 0.70432189E+02 0.10565837E+00 0.0000E+00 0.9000E+01
       13  1    4    4    0    0 0.46296895E+02 0.13686387E+02 0.10626273E+03 0.11671546E+03 0.10565837E+00 0.0000E+00 0.9000E+01
       23  1    3    3    0    0 0.85366961E+02 0.35854554E+02 -.81499019E+01 0.13021037E+03 0.91188000E+02 0.0000E+00 0.9000E+01
#aMCatNLO 1  0  0  2  1 0.37283184D+03 0.00000000D+00  -5  7  0 0.00000000D+00 0.00000000D+00 0.00000000D+00 0.00000000D+00 0.00000000D+00
  <mgrwgt>
 0.1590974205D-03    5    2    0
 0.218909946421693D+03 0.000000000000000D+00 0.000000000000000D+00 0.218909946421693D+03
 0.218909946421693D+03 0.000000000000000D+00 0.000000000000000D+00 -.218909946421693D+03
 0.155012849708965D+03 -.123464824806471D+03 0.181262941707932D+01 0.216074903910178D+02
 0.535907914910272D+02 -.819905989117061D+01 -.513535840353380D+02 0.129444102322676D+02
 0.721636877818503D+02 0.462969541724385D+02 0.136863697857137D+02 0.536364908501684D+02
 0.157052563861543D+03 0.853669305252029D+02 0.358545848325449D+02 -.881883914734539D+02
 0.000000000000000D+00 -.000000000000000D+00 0.000000000000000D+00 -.000000000000000D+00
 0.423891511998634D+03 0.000000000000000D+00 0.000000000000000D+00 0.423891511998634D+03
 0.542368679796812D+03 0.000000000000000D+00 0.000000000000000D+00 -.542368679796812D+03
 0.984770268355008D+02 -.302182862610458D+02 -.156365111438524D+01 0.216074903910178D+02
 0.649939708462821D+02 0.354224794102078D+02 -.529330373447390D+02 0.129444102322676D+02
 0.133760997297793D+03 0.122046583098410D+03 0.109436192086096D+02 0.536364908501684D+02
 0.277824385778242D+03 0.245336909602414D+03 0.300623749081618D+02 -.881883914734539D+02
 0.391203811037628D+03 -.372587685849986D+03 0.134906943423528D+02 -.118477167798178D+03
0.902400678262D-06 0.000000000000D+00 0.000000000000D+00 0.107183509496D-06 0.000000000000D+00  7 1 -1 23 -13 13 23 21 0 0.59694403D-01 0.19000746D-01 0.36813355D+05 0.36813355D+05 0.36813355D+05 0.11591778D+01  1  2  2  2  7  2       -1 0.140753843172D-03 0.100000000000D+01
-.490736663182D-07 0.000000000000D+00 -.346545621208D-08 0.107183509496D-06 0.000000000000D+00  7 1 -1 23 -13 13 23 21 2 0.59694403D-01 0.19000746D-01 0.36813355D+05 0.36813355D+05 0.36813355D+05 0.11591778D+01  1  2  3  2  7  2       -1 -.102851231835D-04 0.100000000000D+01
0.580810429906D-07 0.000000000000D+00 0.000000000000D+00 0.107183509496D-06 0.000000000000D+00  7 1 -1 23 -13 13 23 21 2 0.59694403D-01 0.19000746D-01 0.36813355D+05 0.36813355D+05 0.36813355D+05 0.11591778D+01  1  2 15  2  7  2       -1 0.121729376792D-04 0.100000000000D+01
0.455162118026D-06 0.000000000000D+00 -.347413460064D-06 0.107183509496D-06 0.000000000000D+00  7 1 -1 23 -13 13 23 21 2 0.59694403D-01 0.85752031D-01 0.36813355D+05 0.36813355D+05 0.36813355D+05 0.11591778D+01  1  2  5  2  7  2       -1 0.692419376866D-05 0.100000000000D+01
0.797325399090D-07 0.000000000000D+00 -.633204479673D-07 0.107183509496D-06 0.000000000000D+00  7 1 21 23 -13 13 23 1 2 0.59694403D-01 0.85752031D-01 0.36813355D+05 0.36813355D+05 0.36813355D+05 0.11591778D+01  1  2  5  4  7  2       -1 0.953156906624D-05 0.100000000000D+01
  </mgrwgt>
  </event>
  <event>
  7     66 0.56006291E-06 0.30772956E+03 0.75467711E-02 0.95390583E-01
        1 -1    0    0  501    0 0.00000000E+00 0.00000000E+00 0.26635716E+03 0.26635735E+03 0.32000000E+00 0.0000E+00 0.9000E+01
       -1 -1    0    0    0  501 0.00000000E+00 0.00000000E+00 -.12577068E+04 0.12577068E+04 0.32000000E+00 0.0000E+00 0.9000E+01
       25  2    1    2    0    0 -.87979920E+02 -.68004895E+02 -.85539241E+03 0.91270015E+03 0.29826206E+03 0.0000E+00 0.0000E+00
       23  1    3    3    0    0 0.48589198E+02 -.10706545E+03 -.37009362E+03 0.39888401E+03 0.91188000E+02 0.0000E+00 0.9000E+01
      -13  1    1    2    0    0 -.11907040E+03 -.21044248E+03 -.92739648E+01 0.24197069E+03 0.10565837E+00 0.0000E+00 0.9000E+01
       13  1    1    2    0    0 0.20705032E+03 0.27844737E+03 -.12668324E+03 0.36939332E+03 0.10565837E+00 0.0000E+00 0.9000E+01
       23  1    3    3    0    0 -.13656912E+03 0.39060552E+02 -.48529879E+03 0.51381613E+03 0.91188000E+02 0.0000E+00 0.9000E+01
#aMCatNLO 1  0  0  2  1 0.28621697D+02 0.00000000D+00  -5  7  0 0.00000000D+00 0.00000000D+00 0.00000000D+00 0.00000000D+00 0.00000000D+00
  <mgrwgt>
 0.4808590294D-02    9    2    0
 0.578791306975296D+03 0.000000000000000D+00 0.000000000000000D+00 0.578791306975296D+03
 0.578791306975296D+03 0.000000000000000D+00 0.000000000000000D+00 -.578791306975296D+03
 0.208234063186627D+03 0.485845976850286D+02 -.107069003505286D+03 -.145677517425926D+03
 0.310614089189255D+03 -.119048083656939D+03 -.210412081079612D+03 0.195026722056819D+03
 0.377836770639887D+03 0.207038368646928D+03 0.278424987938901D+03 0.149583639636228D+03
 0.260897690934823D+03 -.136574882675017D+03 0.390560966459980D+02 -.198932844267120D+03
 0.000000000000000D+00 -.000000000000000D+00 0.000000000000000D+00 -.000000000000000D+00
 0.582106940936551D+03 0.000000000000000D+00 0.000000000000000D+00 0.582106940936551D+03
 0.644217429882988D+03 0.000000000000000D+00 0.000000000000000D+00 -.644217429882988D+03
 0.211100916823935D+03 0.519005841122602D+02 -.111052852396195D+03 -.145677517425926D+03
 0.312824541472297D+03 -.114118101337235D+03 -.216334995731874D+03 0.195026722056819D+03
 0.375936049056521D+03 0.212998998116156D+03 0.271263846715554D+03 0.149583639636228D+03
 0.258074894029987D+03 -.132470989296494D+03 0.341256509269882D+02 -.198932844267120D+03
 0.683879694367994D+02 -.183104915946880D+02 0.219983504855271D+02 -.621104889464362D+02
0.128272399685D-02 0.000000000000D+00 0.000000000000D+00 0.817414736222D-11 0.000000000000D+00  7 1 -1 23 -13 13 23 21 0 0.40978042D-01 0.19349337D+00 0.20535148D+06 0.20535148D+06 0.20535148D+06 0.10969457D+01  1  2  2  2  7  2       -1 0.262347026558D-02 0.100000000000D+01
-.660742034505D-04 0.000000000000D+00 -.492599789690D-05 0.817414736222D-11 0.000000000000D+00  7 1 -1 23 -13 13 23 21 2 0.40978042D-01 0.19349337D+00 0.20535148D+06 0.20535148D+06 0.20535148D+06 0.10969457D+01  1  2  3  2  7  2       -1 -.162609206052D-03 0.100000000000D+01
0.783710194021D-04 0.000000000000D+00 0.000000000000D+00 0.817414736222D-11 0.000000000000D+00  7 1 -1 23 -13 13 23 21 2 0.40978042D-01 0.19349337D+00 0.20535148D+06 0.20535148D+06 0.20535148D+06 0.10969457D+01  1  2 15  2  7  2       -1 0.192871780164D-03 0.100000000000D+01
0.131189934284D-01 0.000000000000D+00 0.000000000000D+00 0.817414736222D-11 0.000000000000D+00  7 1 -1 23 -13 13 23 21 2 0.40978042D-01 0.21588229D+00 0.21869122D+06 0.21869122D+06 0.21869122D+06 0.10948577D+01  1  2 12  2  7  2       -1 0.211418951411D-01 0.100000000000D+01
-.132622391522D-01 0.000000000000D+00 0.000000000000D+00 0.817414736222D-11 0.000000000000D+00  7 1 -1 23 -13 13 23 21 2 0.40978042D-01 0.19349337D+00 0.20535148D+06 0.20535148D+06 0.20535148D+06 0.10969457D+01  1  2  4  2  7  2       -1 -.326384892498D-01 0.100000000000D+01
-.170183113874D-01 0.000000000000D+00 -.129628093364D-02 0.817414736222D-11 0.000000000000D+00  7 1 -1 23 -13 13 23 21 2 0.40978042D-01 0.21585658D+00 0.20535148D+06 0.20535148D+06 0.20535148D+06 0.10969457D+01  1  2  5  2  7  2       -1 -.276405122702D-01 0.100000000000D+01
0.170656301029D-01 0.000000000000D+00 0.128856632828D-02 0.817414736222D-11 0.000000000000D+00  7 1 -1 23 -13 13 23 21 2 0.40978042D-01 0.19349337D+00 0.20535148D+06 0.20535148D+06 0.20535148D+06 0.10969457D+01  1  2  6  2  7  2       -1 0.419986684196D-01 0.100000000000D+01
0.230327080456D-03 0.000000000000D+00 0.000000000000D+00 0.817414736222D-11 0.000000000000D+00  7 1 21 23 -13 13 23 1 2 0.40978042D-01 0.21588229D+00 0.21869122D+06 0.21869122D+06 0.21869122D+06 0.10948577D+01  1  2 12  4  7  2       -1 0.246832623424D-02 0.100000000000D+01
-.293458105672D-03 0.000000000000D+00 -.227373862798D-04 0.817414736222D-11 0.000000000000D+00  7 1 21 23 -13 13 23 1 2 0.40978042D-01 0.21585658D+00 0.20535148D+06 0.20535148D+06 0.20535148D+06 0.10969457D+01  1  2  5  4  7  2       -1 -.317503082014D-02 0.100000000000D+01
  </mgrwgt>
  </event>
  <event>
  7     66 0.56006291E-06 0.41014802E+03 0.75467711E-02 0.95090296E-01
        1 -1    0    0  501    0 0.00000000E+00 0.00000000E+00 0.15148425E+04 0.15148426E+04 0.32000000E+00 0.0000E+00 0.9000E+01
       -1 -1    0    0    0  501 0.00000000E+00 0.00000000E+00 -.14357063E+03 0.14357098E+03 0.32000000E+00 0.0000E+00 0.9000E+01
       23  2    1    2    0    0 -.19608094E+03 0.28487953E+03 0.72986871E+03 0.81286777E+03 0.91878140E+02 0.0000E+00 0.0000E+00
       23  1    1    2    0    0 0.37111436E+02 -.26553507E+03 0.14945954E+03 0.32021796E+03 0.91188000E+02 0.0000E+00 0.9000E+01
      -13  1    3    3    0    0 -.97215298E+02 0.82227707E+02 0.20096518E+03 0.23790591E+03 0.10565837E+00 0.0000E+00 0.9000E+01
       13  1    3    3    0    0 -.98865646E+02 0.20265183E+03 0.52890353E+03 0.57496185E+03 0.10565837E+00 0.0000E+00 0.9000E+01
       23  1    1    2    0    0 0.15896951E+03 -.19344461E+02 0.49194366E+03 0.52532783E+03 0.91188000E+02 0.0000E+00 0.9000E+01
#aMCatNLO 1  0  0  2  1 0.12480398D+03 0.00000000D+00  -5  7  0 0.00000000D+00 0.00000000D+00 0.00000000D+00 0.00000000D+00 0.00000000D+00
  <mgrwgt>
 0.7432254635D-03    4    2    0
 0.466355247660289D+03 0.000000000000000D+00 0.000000000000000D+00 0.466355247660289D+03
 0.466355247660289D+03 0.000000000000000D+00 0.000000000000000D+00 -.466355247660289D+03
 0.349628925944936D+03 0.371151858099772D+02 -.265534743373888D+03 -.205033893678739D+03
 0.127552667495653D+03 -.972161433321754D+02 0.822287786415913D+02 0.755859934027179D+01
 0.244724243468645D+03 -.988672746724823D+02 0.202654349182709D+03 0.951127336242062D+02
 0.210804658411344D+03 0.158968232194680D+03 -.193483844504125D+02 0.102362560714261D+03
 0.000000000000000D+00 -.000000000000000D+00 0.000000000000000D+00 0.000000000000000D+00
 0.794737557796798D+03 0.000000000000000D+00 0.000000000000000D+00 0.794737557796798D+03
 0.482521834137384D+03 0.000000000000000D+00 0.000000000000000D+00 -.482521834137384D+03
 0.387420139872037D+03 0.561579315093941D+02 -.310783691023179D+03 -.205033893678739D+03
 0.113502280023995D+03 -.909881345358888D+02 0.674299230337508D+02 0.755859934027179D+01
 0.216780219281811D+03 -.869436287025065D+02 0.174321647543962D+03 0.951127336242062D+02
 0.223320687581510D+03 0.170184498449967D+03 -.460002261867386D+02 0.102362560714261D+03
 0.336236065174829D+03 -.484106667209657D+02 0.115032346632204D+03 0.312215723659415D+03
0.583715062248D-04 0.000000000000D+00 0.000000000000D+00 0.140991125487D-09 0.000000000000D+00  7 1 -1 23 -13 13 23 21 0 0.23305273D+00 0.22087819D-01 0.16822140D+06 0.16822140D+06 0.16822140D+06 0.11036441D+01  1  2  2  2  7  2       -1 0.765894534303D-03 0.100000000000D+01
-.317782755475D-05 0.000000000000D+00 -.224161953474D-06 0.140991125487D-09 0.000000000000D+00  7 1 -1 23 -13 13 23 21 2 0.23305273D+00 0.22087819D-01 0.16822140D+06 0.16822140D+06 0.16822140D+06 0.11036441D+01  1  2  3  2  7  2       -1 -.507874565377D-04 0.100000000000D+01
0.365191375432D-05 0.000000000000D+00 0.000000000000D+00 0.140991125487D-09 0.000000000000D+00  7 1 -1 23 -13 13 23 21 2 0.23305273D+00 0.22087819D-01 0.16822140D+06 0.16822140D+06 0.16822140D+06 0.11036441D+01  1  2 15  2  7  2       -1 0.583642151380D-04 0.100000000000D+01
-.189251513241D-05 0.000000000000D+00 0.000000000000D+00 0.140991125487D-09 0.000000000000D+00  7 1 -1 23 -13 13 23 21 2 0.23305273D+00 0.22087819D-01 0.16822140D+06 0.16822140D+06 0.16822140D+06 0.11036441D+01  1  2  4  2  7  2       -1 -.302458293844D-04 0.100000000000D+01
  </mgrwgt>
  </event>
  <event>
  9     66 -.56006291E-06 0.27144050E+03 0.75467711E-02 0.10192603E+00
        1 -1    0    0  502    0 0.00000000E+00 0.00000000E+00 0.32112918E+03 0.32112934E+03 0.32000000E+00 0.0000E+00 0.9000E+01
       -1 -1    0    0    0  501 0.00000000E+00 0.00000000E+00 -.52727157E+03 0.52727167E+03 0.32000000E+00 0.0000E+00 0.9000E+01
       25  2    1    2    0    0 0.79948732E+02 0.20600148E+03 -.22547993E+03 0.43549612E+03 0.29997878E+03 0.0000E+00 0.0000E+00
       23  2    1    2    0    0 -.79364651E+02 -.21417763E+03 -.11992425E+03 0.27340006E+03 0.90526021E+02 0.0000E+00 0.0000E+00
       23  1    3    3    0    0 0.41245668E+02 0.15992561E+03 -.25971459E+03 0.32100518E+03 0.91188000E+02 0.0000E+00 0.9000E+01
      -11  1    4    4    0    0 -.66553803E+02 -.59582956E+02 -.57209918E+02 0.10607786E+03 0.51099893E-03 0.0000E+00 0.9000E+01
       11  1    4    4    0    0 -.12810849E+02 -.15459467E+03 -.62714335E+02 0.16732220E+03 0.51099893E-03 0.0000E+00 0.9000E+01
       23  1    3    3    0    0 0.38703065E+02 0.46075867E+02 0.34234661E+02 0.11449094E+03 0.91188000E+02 0.0000E+00 0.9000E+01
       21  1    1    2  502  501 -.58408120E+00 0.81761510E+01 0.13926178E+03 0.13950483E+03 0.75000000E+00 0.0000E+00 0.9000E+01
#aMCatNLO 2  0  0  1  2 0.81969870D+01 0.00000000D+00  -5  7  0 0.00000000D+00 0.00000000D+00 0.00000000D+00 0.00000000D+00 0.00000000D+00
  <mgrwgt>
 -.3899289325D-04    2    2    0
 0.309500626436819D+03 0.000000000000000D+00 0.000000000000000D+00 0.309500626436819D+03
 0.309500626436819D+03 0.000000000000000D+00 0.000000000000000D+00 -.309500626436819D+03
 0.224775512424738D+03 0.410345691140483D+02 0.162880630377733D+03 -.118299805693755D+03
 0.888356149705125D+02 -.666379608862952D+02 -.584048812165642D+02 -.632601819352186D+01
 0.154597047178394D+03 -.129576690543754D+02 -.152539431943690D+03 0.215422262371426D+02
 0.150793078299994D+03 0.385610608266223D+02 0.480636827825214D+02 0.103083597650134D+03
 0.000000000000000D+00 -.000000000000000D+00 0.000000000000000D+00 0.000000000000000D+00
 0.546907476361992D+03 0.000000000000000D+00 0.000000000000000D+00 0.546907476361992D+03
 0.309598524724608D+03 0.000000000000000D+00 0.000000000000000D+00 -.309598524724608D+03
 0.222682511319170D+03 0.412456675263592D+02 0.159925608914074D+03 -.118299805693755D+03
 0.895519727192336D+02 -.665538025193892D+02 -.595829563040617D+02 -.632601819352186D+01
 0.156613209866178D+03 -.128108485982189D+02 -.154594670514636D+03 0.215422262371426D+02
 0.150207829981957D+03 0.387030647922922D+02 0.460758669487323D+02 0.103083597650134D+03
 0.237450477200061D+03 -.584081201043199D+00 0.817615095589154D+01 0.237308951637383D+03
-.169719241612D-03 0.000000000000D+00 0.000000000000D+00 0.162495768087D-06 0.000000000000D+00  7 1 -1 23 -11 11 23 21 2 0.49405730D-01 0.81092918D-01 0.75779827D+05 0.75779827D+05 0.75779827D+05 0.11317421D+01  1  2 13  1  7  1        1 -.346735194726D-02 0.100000000000D+01
0.167911974403D-03 0.000000000000D+00 0.000000000000D+00 0.162495768087D-06 0.190592175961D-07  7 1 -1 23 -11 11 23 21 2 0.49404414D-01 0.81118568D-01 0.75779827D+05 0.75779827D+05 0.75779827D+05 0.11317421D+01  1  2  1  1  7  1        1 0.342835905401D-02 0.100000000000D+01
  </mgrwgt>
  </event>
  <event>
  8     66 0.56006291E-06 0.37972129E+03 0.75467711E-02 0.92590333E-01
        1 -1    0    0  501    0 0.00000000E+00 0.00000000E+00 0.33158013E+04 0.33158013E+04 0.32000000E+00 0.0000E+00 0.9000E+01
       -1 -1    0    0    0  501 0.00000000E+00 0.00000000E+00 -.76410557E+02 0.76411227E+02 0.32000000E+00 0.0000E+00 0.9000E+01
       25  2    1    2    0    0 0.17312948E+03 0.28615731E+03 0.72197914E+03 0.85105177E+03 0.30195268E+03 0.0000E+00 0.0000E+00
       23  2    1    2    0    0 -.17312948E+03 -.28615731E+03 0.25174116E+04 0.25411608E+04 0.90978168E+02 0.0000E+00 0.0000E+00
       23  1    3    3    0    0 0.62696748E+02 0.65973071E+01 0.81168090E+02 0.13739693E+03 0.91188000E+02 0.0000E+00 0.9000E+01
      -13  1    4    4    0    0 -.11705883E+03 -.19012171E+03 0.13360862E+04 0.13546127E+04 0.10565837E+00 0.0000E+00 0.9000E+01
       13  1    4    4    0    0 -.56070649E+02 -.96035601E+02 0.11813254E+04 0.11865481E+04 0.10565837E+00 0.0000E+00 0.9000E+01
       23  1    3    3    0    0 0.11043274E+03 0.27956001E+03 0.64081105E+03 0.71365484E+03 0.91188000E+02 0.0000E+00 0.9000E+01
#aMCatNLO 1  0  0  1  2 0.36855513D+03 0.00000000D+00  -5  7  0 0.00000000D+00 0.00000000D+00 0.00000000D+00 0.00000000D+00 0.00000000D+00
  <mgrwgt>
 0.2990530046D-03    3    2    0
 0.503352150485907D+03 0.000000000000000D+00 0.000000000000000D+00 0.503352150485907D+03
 0.503352150485907D+03 0.000000000000000D+00 0.000000000000000D+00 -.503352150485907D+03
 0.201791564064677D+03 0.626967485587983D+02 0.659730813071999D+01 -.168612506147237D+03
 0.265250469577167D+03 -.117058917045221D+03 -.190121840109678D+03 0.143208615189232D+03
 0.196928520376190D+03 -.560705669589436D+02 -.960354737619606D+02 0.162524218003884D+03
 0.342733746953780D+03 0.110432735445366D+03 0.279560005740919D+03 -.137120327045879D+03
 0.000000000000000D+00 0.000000000000000D+00 -.000000000000000D+00 -.000000000000000D+00
 0.547492928349580D+03 0.000000000000000D+00 0.000000000000000D+00 0.547492928349580D+03
 0.349688367653458D+04 0.000000000000000D+00 0.000000000000000D+00 -.349688367653458D+04
 0.198044221844821D+03 0.617002590112816D+01 0.493762697380855D+02 -.168612506147237D+03
 0.274636880366311D+03 -.193385408000053D+03 -.132358575716025D+03 0.143208615189232D+03
 0.204862423242607D+03 -.112873699736669D+03 -.530473272353609D+02 0.162524218003884D+03
 0.394504250188384D+03 0.620582713510311D+01 0.358438077906211D+03 -.137120327045879D+03
 0.297232882924204D+04 0.293883254700491D+03 -.222408444692910D+03 -.294939074818500D+04
0.146435563827D-03 0.000000000000D+00 0.000000000000D+00 0.172960023843D-06 0.000000000000D+00  7 1 -1 23 -13 13 23 21 0 0.51012333D+00 0.11755523D-01 0.14418826D+06 0.14418826D+06 0.14418826D+06 0.11089087D+01  1  2  2  1  7  1        1 0.294980938469D-03 0.100000000000D+01
-.734953207701D-05 0.000000000000D+00 -.562351122465D-06 0.172960023843D-06 0.000000000000D+00  7 1 -1 23 -13 13 23 21 2 0.51012333D+00 0.11755523D-01 0.14418826D+06 0.14418826D+06 0.14418826D+06 0.11089087D+01  1  2  3  1  7  1        1 -.182053351635D-04 0.100000000000D+01
0.899343372576D-05 0.000000000000D+00 0.000000000000D+00 0.172960023843D-06 0.000000000000D+00  7 1 -1 23 -13 13 23 21 2 0.51012333D+00 0.11755523D-01 0.14418826D+06 0.14418826D+06 0.14418826D+06 0.11089087D+01  1  2 15  1  7  1        1 0.222774012730D-04 0.100000000000D+01
  </mgrwgt>
  </event>
  <event>
  8     66 0.56006291E-06 0.21668797E+03 0.75467711E-02 0.98500171E-01
        1 -1    0    0  501    0 0.00000000E+00 0.00000000E+00 0.43416250E+03 0.43416262E+03 0.32000000E+00 0.0000E+00 0.9000E+01
       -1 -1    0    0    0  501 0.00000000E+00 0.00000000E+00 -.33616620E+03 0.33616635E+03 0.32000000E+00 0.0000E+00 0.9000E+01
       25  2    1    2    0    0 0.78912971E+02 -.81754503E+02 0.35274338E+03 0.47648466E+03 0.29949738E+03 0.0000E+00 0.0000E+00
       23  2    1    2    0    0 -.78912971E+02 0.81754503E+02 -.25474707E+03 0.29384431E+03 0.92397790E+02 0.0000E+00 0.0000E+00
       23  1    3    3    0    0 0.64355314E+01 0.56953668E+02 0.24018884E+03 0.26323197E+03 0.91188000E+02 0.0000E+00 0.9000E+01
      -13  1    4    4    0    0 0.18537813E+02 0.27027616E+02 -.79496462E+02 0.85987448E+02 0.10565837E+00 0.0000E+00 0.9000E+01
       13  1    4    4    0    0 -.97450784E+02 0.54726887E+02 -.17525061E+03 0.20785686E+03 0.10565837E+00 0.0000E+00 0.9000E+01
       23  1    3    3    0    0 0.72477440E+02 -.13870817E+03 0.11255453E+03 0.21325269E+03 0.91188000E+02 0.0000E+00 0.9000E+01
#aMCatNLO 1  0  0  2  2 0.24903623D+03 0.00000000D+00  -5  7  0 0.00000000D+00 0.00000000D+00 0.00000000D+00 0.00000000D+00 0.00000000D+00
  <mgrwgt>
 0.2256157735D-03    3    2    0
 0.382035157126730D+03 0.000000000000000D+00 0.000000000000000D+00 0.382035157126730D+03
 0.382035157126730D+03 0.000000000000000D+00 0.000000000000000D+00 -.382035157126730D+03
 0.234582586517155D+03 0.643553141893048D+01 0.569536676994900D+02 0.208395302787780D+03
 0.968874787303230D+02 0.185379637864948D+02 0.270275799214369D+02 -.911758595076555D+02
 0.232036511514733D+03 -.974509352914807D+02 0.547269235977644D+02 -.203345080393569D+03
 0.200563737491248D+03 0.724774400860555D+02 -.138708171218691D+03 0.861256371134441D+02
 0.000000000000000D+00 -.000000000000000D+00 0.000000000000000D+00 0.000000000000000D+00
 0.660965581224477D+03 0.000000000000000D+00 0.000000000000000D+00 0.660965581224477D+03
 0.461644659371371D+03 0.000000000000000D+00 0.000000000000000D+00 -.461644659371371D+03
 0.248373284498818D+03 0.831324536517331D+02 0.550856608797871D+02 0.208395302787780D+03
 0.107729788912954D+03 0.510326814320452D+02 0.262361485002129D+02 -.911758595076555D+02
 0.211862998128307D+03 -.269564487069179D+02 0.530099814068938D+02 -.203345080393569D+03
 0.235664744515898D+03 0.141753711414640D+03 -.140395442930750D+03 0.861256371134441D+02
 0.318979424539871D+03 -.248962397791501D+03 0.606365214385640D+01 0.199320921853107D+03
0.860016304430D-05 0.000000000000D+00 0.000000000000D+00 0.311289987746D-06 0.000000000000D+00  7 1 -1 23 -13 13 23 21 0 0.66794252D-01 0.51717897D-01 0.46953676D+05 0.46953676D+05 0.46953676D+05 0.11497045D+01  1  2  2  2  7  2       -1 0.217696781717D-03 0.100000000000D+01
-.290991984662D-06 0.000000000000D+00 -.330268905650D-07 0.311289987746D-06 0.000000000000D+00  7 1 -1 23 -13 13 23 21 2 0.66794252D-01 0.51717897D-01 0.46953676D+05 0.46953676D+05 0.46953676D+05 0.11497045D+01  1  2  3  2  7  2       -1 -.973640887454D-05 0.100000000000D+01
0.527666836776D-06 0.000000000000D+00 0.000000000000D+00 0.311289987746D-06 0.000000000000D+00  7 1 -1 23 -13 13 23 21 2 0.66794252D-01 0.51717897D-01 0.46953676D+05 0.46953676D+05 0.46953676D+05 0.11497045D+01  1  2 15  2  7  2       -1 0.176554006405D-04 0.100000000000D+01
  </mgrwgt>
  </event>
  <event>
  8     66 0.56006291E-06 0.37541913E+03 0.75467711E-02 0.95574791E-01
        1 -1    0    0  501    0 0.00000000E+00 0.00000000E+00 0.30229235E+03 0.30229252E+03 0.32000000E+00 0.0000E+00 0.9000E+01
       -1 -1    0    0    0  501 0.00000000E+00 0.00000000E+00 -.11036084E+04 0.11036084E+04 0.32000000E+00 0.0000E+00 0.9000E+01
       25  2    1    2    0    0 -.31341891E+03 -.43549053E+02 -.94922710E+03 0.10445769E+04 0.29996828E+03 0.0000E+00 0.0000E+00
       23  2    1    2    0    0 0.31341891E+03 0.43549053E+02 0.14791108E+03 0.36132400E+03 0.92463045E+02 0.0000E+00 0.0000E+00
       23  1    3    3    0    0 -.23628489E+03 0.73589858E+02 -.65515889E+03 0.70625381E+03 0.91188000E+02 0.0000E+00 0.9000E+01
      -11  1    4    4    0    0 0.28539253E+03 0.52906095E+02 0.15753349E+03 0.33024953E+03 0.51099893E-03 0.0000E+00 0.9000E+01
       11  1    4    4    0    0 0.28026380E+02 -.93570420E+01 -.96224092E+01 0.31074474E+02 0.51099893E-03 0.0000E+00 0.9000E+01
       23  1    3    3    0    0 -.77134016E+02 -.11713891E+03 -.29406821E+03 0.33832314E+03 0.91188000E+02 0.0000E+00 0.9000E+01
#aMCatNLO 1  0  0  2  2 0.17106893D+03 0.00000000D+00  -5  7  0 0.00000000D+00 0.00000000D+00 0.00000000D+00 0.00000000D+00 0.00000000D+00
  <mgrwgt>
 0.2004591371D-03    4    2    0
 0.577592005325466D+03 0.000000000000000D+00 0.000000000000000D+00 0.577592005325466D+03
 0.577592005325466D+03 0.000000000000000D+00 0.000000000000000D+00 -.577592005325466D+03
 0.405072763150995D+03 -.236284891005414D+03 0.735898582289848D+02 -.307445401902808D+03
 0.511201872276468D+03 0.285392527009277D+03 0.529060950705434D+02 0.420808038006181D+03
 0.311439923996518D+02 0.280263796928282D+02 -.935704196997944D+01 0.984459595285867D+01
 0.207765382823817D+03 -.771340156966913D+02 -.117138911329549D+03 -.123207232056232D+03
 0.000000000000000D+00 0.000000000000000D+00 0.000000000000000D+00 0.000000000000000D+00
 0.869415690733633D+03 0.000000000000000D+00 0.000000000000000D+00 0.869415690733633D+03
 0.609514483091287D+03 0.000000000000000D+00 0.000000000000000D+00 -.609514483091287D+03
 0.433623736745824D+03 -.288938649011932D+03 0.413046690023319D+02 -.307445401902808D+03
 0.476651874949076D+03 0.223374607346271D+03 0.148791745321145D+02 0.420808038006181D+03
 0.286697455975596D+02 0.242712452832320D+02 -.116595409667333D+02 0.984459595285867D+01
 0.228836591075692D+03 -.104544091548565D+03 -.133945679148193D+03 -.123207232056232D+03
 0.311148225456768D+03 0.145836887930994D+03 0.894213765804805D+02 0.259901207642346D+03
0.786602791123D-04 0.000000000000D+00 0.000000000000D+00 0.203650152180D-05 0.000000000000D+00  7 1 -1 23 -11 11 23 21 0 0.46506533D-01 0.16978592D+00 0.14093952D+06 0.14093952D+06 0.14093952D+06 0.11096935D+01  1  2  2  2  7  2       -1 0.215532465222D-03 0.100000000000D+01
-.338381410796D-05 0.000000000000D+00 -.302076183519D-06 0.203650152180D-05 0.000000000000D+00  7 1 -1 23 -11 11 23 21 2 0.46506533D-01 0.16978592D+00 0.14093952D+06 0.14093952D+06 0.14093952D+06 0.11096935D+01  1  2  3  2  7  2       -1 -.114174686733D-04 0.100000000000D+01
0.479007532405D-05 0.000000000000D+00 0.000000000000D+00 0.203650152180D-05 0.000000000000D+00  7 1 -1 23 -11 11 23 21 2 0.46506533D-01 0.16978592D+00 0.14093952D+06 0.14093952D+06 0.14093952D+06 0.11096935D+01  1  2 15  2  7  2       -1 0.161623934443D-04 0.100000000000D+01
-.587356845044D-05 0.000000000000D+00 0.000000000000D+00 0.203650152180D-05 0.000000000000D+00  7 1 -1 23 -11 11 23 21 2 0.46506533D-01 0.16978592D+00 0.14093952D+06 0.14093952D+06 0.14093952D+06 0.11096935D+01  1  2  4  2  7  2       -1 -.198182529075D-04 0.100000000000D+01
  </mgrwgt>
  </event>
  <event>
  9     66 0.56006291E-06 0.21230920E+03 0.75467711E-02 0.99300158E-01
        1 -1    0    0  501    0 0.00000000E+00 0.00000000E+00 0.18308103E+04 0.18308104E+04 0.32000000E+00 0.0000E+00 0.9000E+01
       21 -1    0    0  502  501 0.00000000E+00 0.00000000E+00 -.81809142E+02 0.81812580E+02 0.75000000E+00 0.0000E+00 0.9000E+01
       25  2    1    2    0    0 0.73021972E+02 0.34366297E+02 0.11399827E+04 0.11817355E+04 0.30070732E+03 0.0000E+00 0.0000E+00
       23  2    1    2    0    0 0.94053244E+02 -.13763786E+03 0.17977729E+03 0.25884166E+03 0.82999618E+02 0.0000E+00 0.0000E+00
       23  1    3    3    0    0 0.12520878E+03 0.10276405E+03 0.69524045E+03 0.71966118E+03 0.91188000E+02 0.0000E+00 0.9000E+01
      -13  1    4    4    0    0 0.49970899E+02 -.56727745E+02 0.13869070E+03 0.15795648E+03 0.10565837E+00 0.0000E+00 0.9000E+01
       13  1    4    4    0    0 0.44082345E+02 -.80910115E+02 0.41086585E+02 0.10088517E+03 0.10565837E+00 0.0000E+00 0.9000E+01
       23  1    3    3    0    0 -.52186808E+02 -.68397753E+02 0.44474229E+03 0.46207431E+03 0.91188000E+02 0.0000E+00 0.9000E+01
        1  1    1    2  502    0 -.16707522E+03 0.10327156E+03 0.42924116E+03 0.47204578E+03 0.32000000E+00 0.0000E+00 0.9000E+01
#aMCatNLO 2  0  0  2  2 0.19641574D+03 0.00000000D+00  -5  7  0 0.00000000D+00 0.00000000D+00 0.00000000D+00 0.00000000D+00 0.00000000D+00
  <mgrwgt>
 0.3701661625D-04    1    2    0
 0.271531245261483D+03 0.000000000000000D+00 0.000000000000000D+00 0.271531245261483D+03
 0.271531245261483D+03 0.000000000000000D+00 0.000000000000000D+00 -.271531245261483D+03
 0.200474588557331D+03 0.645479894221480D+02 0.140259343172861D+03 0.896419713499596D+02
 0.557996888762517D+02 0.301592508884763D+02 -.444818392607702D+02 -.150130223643157D+02
 0.138819638809825D+03 -.138772619877013D+00 -.535764610682043D+02 -.128064185785322D+03
 0.147968574279558D+03 -.945684676907473D+02 -.422010428438861D+02 0.534352367996784D+02
 0.000000000000000D+00 -.000000000000000D+00 0.000000000000000D+00 -.000000000000000D+00
 0.383024721027758D+03 0.000000000000000D+00 0.000000000000000D+00 0.383024721027758D+03
 0.391045869549397D+03 0.000000000000000D+00 0.000000000000000D+00 -.391045869549397D+03
 0.206370109194243D+03 0.125208776939485D+03 0.102764049037858D+03 0.896419713499596D+02
 0.770747360171501D+02 0.499709070302229D+02 -.567277052433707D+02 -.150130223643157D+02
 0.157766098340442D+03 0.440823379940085D+02 -.809101574691987D+02 -.128064185785322D+03
 0.136280192185062D+03 -.521868067772156D+02 -.683977492652895D+02 0.534352367996784D+02
 0.196579454840256D+03 -.167075215186501D+03 0.103271562940001D+03 -.802114852163946D+01
0.110435839363D-06 0.000000000000D+00 0.000000000000D+00 0.323638043591D-08 0.407601550157D-13  7 1 21 23 -13 13 23 1 2 0.28166330D+00 0.12586284D-01 0.11404309D+06 0.11404309D+06 0.11404309D+06 0.11170687D+01  1  2  1  4  7  2       -1 0.370166162544D-04 0.100000000000D+01
  </mgrwgt>
  </event>
  <event>
  8     66 0.56006291E-06 0.29975637E+03 0.75467711E-02 0.94065716E-01
        1 -1    0    0  501    0 0.00000000E+00 0.00000000E+00 0.15631950E+04 0.15631951E+04 0.32000000E+00 0.0000E+00 0.9000E+01
       -1 -1    0    0    0  501 0.00000000E+00 0.00000000E+00 -.17848277E+03 0.17848306E+03 0.32000000E+00 0.0000E+00 0.9000E+01
       25  2    1    2    0    0 0.11400691E+03 0.18514996E+03 0.14506399E+04 0.14971686E+04 0.29979924E+03 0.0000E+00 0.0000E+00
       23  2    1    2    0    0 -.11400691E+03 -.18514996E+03 -.65927625E+02 0.24450954E+03 0.90334821E+02 0.0000E+00 0.0000E+00
       23  1    3    3    0    0 -.55470474E+02 0.13331124E+03 0.69751222E+03 0.71811378E+03 0.91188000E+02 0.0000E+00 0.9000E+01
      -11  1    4    4    0    0 -.61324065E+02 -.15939543E+03 -.72429762E+02 0.18550907E+03 0.51099893E-03 0.0000E+00 0.9000E+01
       11  1    4    4    0    0 -.52682847E+02 -.25754537E+02 0.65021371E+01 0.59000477E+02 0.51099893E-03 0.0000E+00 0.9000E+01
       23  1    3    3    0    0 0.16947739E+03 0.51838727E+02 0.75312767E+03 0.77905479E+03 0.91188000E+02 0.0000E+00 0.9000E+01
#aMCatNLO 1  0  0  2  1 0.34970562D+03 0.00000000D+00  -5  7  0 0.00000000D+00 0.00000000D+00 0.00000000D+00 0.00000000D+00 0.00000000D+00
  <mgrwgt>
 0.1493583309D-03    7    2    0
 0.528207968208854D+03 0.000000000000000D+00 0.000000000000000D+00 0.528207968208854D+03
 0.528207968208854D+03 0.000000000000000D+00 0.000000000000000D+00 -.528207968208854D+03
 0.269656423845392D+03 -.554704743348513D+02 0.133311237299298D+03 0.208687508164439D+03
 0.400781023918556D+03 -.613240650621795D+02 -.159395427096847D+03 -.362571215071011D+03
 0.887493723164819D+02 -.526828468673686D+02 -.257545367669677D+02 -.666158582353919D+02
 0.297229116337277D+03 0.169477386264399D+03 0.518387265645166D+02 0.220499565141964D+03
 0.000000000000000D+00 0.000000000000000D+00 0.000000000000000D+00 -.000000000000000D+00
 0.669232614574062D+03 0.000000000000000D+00 0.000000000000000D+00 0.669232614574062D+03
 0.827351760735283D+03 0.000000000000000D+00 0.000000000000000D+00 -.827351760735283D+03
 0.246320976267619D+03 -.774051985268147D+02 0.530728855685687D+02 0.208687508164439D+03
 0.478419503831813D+03 -.986997739234769D+02 -.296117696661418D+03 -.362571215071011D+03
 0.106308120786924D+03 -.609749393347168D+02 -.560874384326560D+02 -.666158582353919D+02
 0.281744574595694D+03 0.144864625662411D+03 -.381960203948339D+02 0.220499565141964D+03
 0.383791199827296D+03 0.922152861225971D+02 0.337328269920339D+03 -.158119146161222D+03
0.195493015707D-04 0.000000000000D+00 0.000000000000D+00 0.242450439407D-05 0.000000000000D+00  7 1 -1 23 -11 11 23 21 0 0.24049157D+00 0.27458912D-01 0.89853883D+05 0.89853883D+05 0.89853883D+05 0.11255549D+01  1  2  2  2  7  2       -1 0.170520753216D-03 0.100000000000D+01
-.662262718776D-06 0.000000000000D+00 -.750744654810D-07 0.242450439407D-05 0.000000000000D+00  7 1 -1 23 -11 11 23 21 2 0.24049157D+00 0.27458912D-01 0.89853883D+05 0.89853883D+05 0.89853883D+05 0.11255549D+01  1  2  3  2  7  2       -1 -.731829144147D-05 0.100000000000D+01
0.111196922335D-05 0.000000000000D+00 0.000000000000D+00 0.242450439407D-05 0.000000000000D+00  7 1 -1 23 -11 11 23 21 2 0.24049157D+00 0.27458912D-01 0.89853883D+05 0.89853883D+05 0.89853883D+05 0.11255549D+01  1  2 15  2  7  2       -1 0.122877441531D-04 0.100000000000D+01
-.801841807384D-05 0.000000000000D+00 0.000000000000D+00 0.242450439407D-05 0.000000000000D+00  7 1 -1 23 -11 11 23 21 2 0.24049157D+00 0.27458912D-01 0.89853883D+05 0.89853883D+05 0.89853883D+05 0.11255549D+01  1  2  4  2  7  2       -1 -.886070115382D-04 0.100000000000D+01
-.936293472646D-06 0.000000000000D+00 -.614373807053D-05 0.242450439407D-05 0.000000000000D+00  7 1 -1 23 -11 11 23 21 2 0.24049157D+00 0.54694016D-01 0.89853883D+05 0.89853883D+05 0.89853883D+05 0.11255549D+01  1  2  5  2  7  2       -1 -.314790332998D-05 0.100000000000D+01
0.512165494296D-05 0.000000000000D+00 0.492702160852D-05 0.242450439407D-05 0.000000000000D+00  7 1 -1 23 -11 11 23 21 2 0.24049157D+00 0.27458912D-01 0.89853883D+05 0.89853883D+05 0.89853883D+05 0.11255549D+01  1  2  6  2  7  2       -1 0.565965174735D-04 0.100000000000D+01
0.297581392537D-06 0.000000000000D+00 -.458151076905D-06 0.242450439407D-05 0.000000000000D+00  7 1 21 23 -11 11 23 1 2 0.24049157D+00 0.54694016D-01 0.89853883D+05 0.89853883D+05 0.89853883D+05 0.11255549D+01  1  2  5  4  7  2       -1 0.902652239443D-05 0.100000000000D+01
  </mgrwgt>
  </event>
  <event>
  8     66 0.56006291E-06 0.37922763E+03 0.75467711E-02 0.90549723E-01
        1 -1    0    0  501    0 0.00000000E+00 0.00000000E+00 0.33957248E+03 0.33957263E+03 0.32000000E+00 0.0000E+00 0.9000E+01
       -1 -1    0    0    0  501 0.00000000E+00 0.00000000E+00 -.66467227E+03 0.66467234E+03 0.32000000E+00 0.0000E+00 0.9000E+01
       25  2    1    2    0    0 0.24795980E+03 -.22695832E+03 0.88291247E+02 0.46186942E+03 0.30419380E+03 0.0000E+00 0.0000E+00
       23  2    1    2    0    0 -.24795980E+03 0.22695832E+03 -.41339103E+03 0.54237556E+03 0.10141481E+03 0.0000E+00 0.0000E+00
       23  1    3    3    0    0 0.23571407E+03 -.17934869E+03 0.14677416E+03 0.34290666E+03 0.91188000E+02 0.0000E+00 0.9000E+01
      -13  1    4    4    0    0 -.17804567E+03 0.11180967E+03 -.29976201E+03 0.36614060E+03 0.10565837E+00 0.0000E+00 0.9000E+01
       13  1    4    4    0    0 -.69914128E+02 0.11514865E+03 -.11362902E+03 0.17623496E+03 0.10565837E+00 0.0000E+00 0.9000E+01
       23  1    3    3    0    0 0.12245733E+02 -.47609629E+02 -.58482909E+02 0.11896275E+03 0.91188000E+02 0.0000E+00 0.9000E+01
#aMCatNLO 1  0  0  1  1 0.56821516D+03 0.00000000D+00  -5  7  0 0.00000000D+00 0.00000000D+00 0.00000000D+00 0.00000000D+00 0.00000000D+00
  <mgrwgt>
 0.1264464221D-03    3    2    0
 0.475083703934347D+03 0.000000000000000D+00 0.000000000000000D+00 0.475083703934347D+03
 0.475083703934347D+03 0.000000000000000D+00 0.000000000000000D+00 -.475083703934347D+03
 0.412641538742796D+03 0.235714070778563D+03 -.179348690383152D+03 0.272453137707880D+03
 0.284415597939833D+03 -.178045788138504D+03 0.111809678012872D+03 -.191547710976324D+03
 0.147386831208713D+03 -.699140161604020D+02 0.115148642311204D+03 -.597971448478524D+02
 0.105723439977352D+03 0.122457335203432D+02 -.476096299409237D+02 -.211082818837038D+02
 0.000000000000000D+00 0.000000000000000D+00 -.000000000000000D+00 -.000000000000000D+00
 0.803341969148575D+03 0.000000000000000D+00 0.000000000000000D+00 0.803341969148575D+03
 0.876695733491523D+03 0.000000000000000D+00 0.000000000000000D+00 -.876695733491523D+03
 0.305547084069129D+03 0.620958860200968D+02 -.834095793758551D+02 0.272453137707880D+03
 0.456924315353237D+03 -.357260671174388D+03 0.210841450414241D+03 -.191547710976324D+03
 0.241630001107380D+03 -.163956714863659D+03 0.167115392930497D+03 -.597971448478524D+02
 0.103005899704977D+03 -.382134465758159D+02 -.197265548626000D+02 -.211082818837038D+02
 0.572930402405375D+03 0.497334946593766D+03 -.274820709106283D+03 -.733537643429475D+02
0.140333080811D-04 0.000000000000D+00 0.000000000000D+00 0.535336722017D-09 0.000000000000D+00  7 1 -1 23 -13 13 23 21 0 0.52241938D-01 0.10225729D+00 0.14381360D+06 0.14381360D+06 0.14381360D+06 0.11089982D+01  1  2  2  1  7  1        1 0.124775737199D-03 0.100000000000D+01
-.731488791048D-06 0.000000000000D+00 -.538915980865D-07 0.535336722017D-09 0.000000000000D+00  7 1 -1 23 -13 13 23 21 2 0.52241938D-01 0.10225729D+00 0.14381360D+06 0.14381360D+06 0.14381360D+06 0.11089982D+01  1  2  3  1  7  1        1 -.799906955570D-05 0.100000000000D+01
0.884267472593D-06 0.000000000000D+00 0.000000000000D+00 0.535336722017D-09 0.000000000000D+00  7 1 -1 23 -13 13 23 21 2 0.52241938D-01 0.10225729D+00 0.14381360D+06 0.14381360D+06 0.14381360D+06 0.11089982D+01  1  2 15  1  7  1        1 0.966975448656D-05 0.100000000000D+01
  </mgrwgt>
  </event>
  <event>
  8     66 0.56006291E-06 0.55725270E+03 0.75467711E-02 0.84928274E-01
        1 -1    0    0  501    0 0.00000000E+00 0.00000000E+00 0.39084335E+03 0.39084348E+03 0.32000000E+00 0.0000E+00 0.9000E+01
       -1 -1    0    0    0  501 0.00000000E+00 0.00000000E+00 -.10013844E+04 0.10013845E+04 0.32000000E+00 0.0000E+00 0.9000E+01
       25  2    1    2    0    0 -.26608118E+03 -.44332708E+03 -.62808080E+03 0.86704920E+03 0.29991785E+03 0.0000E+00 0.0000E+00
       23  2    1    2    0    0 0.26608118E+03 0.44332708E+03 0.17539751E+02 0.52517874E+03 0.90371310E+02 0.0000E+00 0.0000E+00
       23  1    3    3    0    0 -.14636930E+03 -.55168579E+02 -.20448763E+03 0.27312632E+03 0.91188000E+02 0.0000E+00 0.9000E+01
      -13  1    4    4    0    0 0.20591454E+03 0.35070809E+03 -.23464881E+02 0.40736663E+03 0.10565837E+00 0.0000E+00 0.9000E+01
       13  1    4    4    0    0 0.60166644E+02 0.92618991E+02 0.41004632E+02 0.11781211E+03 0.10565837E+00 0.0000E+00 0.9000E+01
       23  1    3    3    0    0 -.11971188E+03 -.38815850E+03 -.42359317E+03 0.59392288E+03 0.91188000E+02 0.0000E+00 0.9000E+01
#aMCatNLO 1  0  0  1  1 0.10801957D+04 0.00000000D+00  -5  7  0 0.00000000D+00 0.00000000D+00 0.00000000D+00 0.00000000D+00 0.00000000D+00
  <mgrwgt>
 0.1879780800D-03    5    2    0
 0.625607357193452D+03 0.000000000000000D+00 0.000000000000000D+00 0.625607357193452D+03
 0.625607357193452D+03 0.000000000000000D+00 0.000000000000000D+00 -.625607357193452D+03
 0.204126435403642D+03 -.146369301154681D+03 -.551685793113564D+02 -.942592479433922D+02
 0.441827789681542D+03 0.205914737846036D+03 0.350708442662307D+03 0.172668771693246D+03
 0.151097828543067D+03 0.601664448691092D+02 0.926186379518109D+02 0.103113241662717D+03
 0.454162660758653D+03 -.119711881560464D+03 -.388158501302761D+03 -.181522765412570D+03
 0.000000000000000D+00 -.000000000000000D+00 -.000000000000000D+00 0.000000000000000D+00
 0.137890697607229D+04 0.000000000000000D+00 0.000000000000000D+00 0.137890697607229D+04
 0.135454887800459D+04 0.000000000000000D+00 0.000000000000000D+00 -.135454887800459D+04
 0.203689978984369D+03 -.123694608148184D+03 0.948113615916679D+02 -.942592479433922D+02
 0.909645622441085D+03 0.281056992167286D+03 0.847730865818895D+03 0.172668771693246D+03
 0.286441623632935D+03 0.844937460916701D+02 0.253529623544615D+03 0.103113241662717D+03
 0.253208287267692D+03 -.803818827611717D+02 -.128013374136378D+03 -.181522765412570D+03
 0.108047034175080D+04 -.161474247349600D+03 -.106805847681880D+04 0.243580980676915D+02
0.698346074820D-04 0.000000000000D+00 0.000000000000D+00 0.258812738062D-05 0.000000000000D+00  7 1 -1 23 -13 13 23 21 0 0.60129761D-01 0.15405915D+00 0.31053058D+06 0.31053058D+06 0.31053058D+06 0.10834451D+01  1  2  2  1  7  1        1 0.175729520805D-03 0.100000000000D+01
-.381654983106D-05 0.000000000000D+00 -.268183280605D-06 0.258812738062D-05 0.000000000000D+00  7 1 -1 23 -13 13 23 21 2 0.60129761D-01 0.15405915D+00 0.31053058D+06 0.31053058D+06 0.31053058D+06 0.10834451D+01  1  2  3  1  7  1        1 -.112735001522D-04 0.100000000000D+01
0.440083810433D-05 0.000000000000D+00 0.000000000000D+00 0.258812738062D-05 0.000000000000D+00  7 1 -1 23 -13 13 23 21 2 0.60129761D-01 0.15405915D+00 0.31053058D+06 0.31053058D+06 0.31053058D+06 0.10834451D+01  1  2 15  1  7  1        1 0.129993976851D-04 0.100000000000D+01
0.361720093329D-04 0.000000000000D+00 -.270047413875D-04 0.258812738062D-05 0.000000000000D+00  7 1 -1 23 -13 13 23 21 2 0.25107717D+00 0.15405915D+00 0.31053058D+06 0.31053058D+06 0.31053058D+06 0.10834451D+01  1  2  5  1  7  1        1 0.939594608294D-05 0.100000000000D+01
0.632277463374D-05 0.000000000000D+00 -.463055159414D-05 0.258812738062D-05 0.000000000000D+00  7 21 -1 23 -13 13 23 -1 2 0.25107717D+00 0.15405915D+00 0.31053058D+06 0.31053058D+06 0.31053058D+06 0.10834451D+01  1  2  5  3  7  1        1 0.112671558637D-05 0.100000000000D+01
  </mgrwgt>
  </event>
  <event>
  8     66 0.56006291E-06 0.34962699E+03 0.75467711E-02 0.87631787E-01
        1 -1    0    0  501    0 0.00000000E+00 0.00000000E+00 0.11263311E+04 0.11263312E+04 0.32000000E+00 0.0000E+00 0.9000E+01
       -1 -1    0    0    0  501 0.00000000E+00 0.00000000E+00 -.30927662E+03 0.30927678E+03 0.32000000E+00 0.0000E+00 0.9000E+01
       25  2    1    2    0    0 0.25121849E+03 0.13167669E+03 -.13844981E+03 0.43472417E+03 0.29894359E+03 0.0000E+00 0.0000E+00
       23  2    1    2    0    0 -.25121849E+03 -.13167669E+03 0.95550434E+03 0.10008838E+04 0.91270838E+02 0.0000E+00 0.0000E+00
       23  1    3    3    0    0 0.13991780E+03 0.19233550E+03 -.10191925E+03 0.27435875E+03 0.91188000E+02 0.0000E+00 0.9000E+01
      -11  1    4    4    0    0 -.22714109E+03 -.13475441E+03 0.77524103E+03 0.81899358E+03 0.51099893E-03 0.0000E+00 0.9000E+01
       11  1    4    4    0    0 -.24077399E+02 0.30777236E+01 0.18026330E+03 0.18189022E+03 0.51099893E-03 0.0000E+00 0.9000E+01
       23  1    3    3    0    0 0.11130069E+03 -.60658815E+02 -.36530558E+02 0.16036542E+03 0.91188000E+02 0.0000E+00 0.9000E+01
#aMCatNLO 1  0  0  1  2 0.85723387D+03 0.00000000D+00  -5  7  0 0.00000000D+00 0.00000000D+00 0.00000000D+00 0.00000000D+00 0.00000000D+00
  <mgrwgt>
 0.3603182596D-03    3    2    0
 0.590210161431428D+03 0.000000000000000D+00 0.000000000000000D+00 0.590210161431428D+03
 0.590210161431428D+03 0.000000000000000D+00 0.000000000000000D+00 -.590210161431428D+03
 0.404216348092436D+03 0.139917800952562D+03 0.192335503915771D+03 -.313856125686995D+03
 0.459446102512997D+03 -.227141087611066D+03 -.134754412445900D+03 0.375950656016990D+03
 0.964386135346278D+02 -.240773992666092D+02 0.307772363864068D+01 0.933338772485196D+02
 0.220319258722795D+03 0.111300685925113D+03 -.606588151085116D+02 -.155428407578514D+03
 0.000000000000000D+00 -.000000000000000D+00 0.000000000000000D+00 -.000000000000000D+00
 0.109746109590510D+04 0.000000000000000D+00 0.000000000000000D+00 0.109746109590510D+04
 0.122859421746159D+04 0.000000000000000D+00 0.000000000000000D+00 -.122859421746159D+04
 0.417095357837625D+03 0.254540773708007D+03 -.485449593117013D+02 -.313856125686995D+03
 0.585305521246133D+03 -.813346464734229D+02 -.441167012280662D+03 0.375950656016990D+03
 0.109654526412702D+03 0.468513777590855D+01 -.573668197181352D+02 0.933338772485196D+02
 0.346794159451531D+03 0.190447525561389D+03 -.226986096073846D+03 -.155428407578514D+03
 0.867205748418702D+03 -.368338790571882D+03 0.774064887384344D+03 -.131133121556483D+03
0.524272716615D-04 0.000000000000D+00 0.000000000000D+00 0.729315659970D-06 0.000000000000D+00  7 1 -1 23 -11 11 23 21 0 0.17328173D+00 0.47581034D-01 0.12223903D+06 0.12223903D+06 0.12223903D+06 0.11146350D+01  1  2  2  1  7  1        1 0.349894784925D-03 0.100000000000D+01
-.194170232704D-05 0.000000000000D+00 -.201334527598D-06 0.729315659970D-06 0.000000000000D+00  7 1 -1 23 -11 11 23 21 2 0.17328173D+00 0.47581034D-01 0.12223903D+06 0.12223903D+06 0.12223903D+06 0.11146350D+01  1  2  3  1  7  1        1 -.161000853199D-04 0.100000000000D+01
0.319879411448D-05 0.000000000000D+00 0.000000000000D+00 0.729315659970D-06 0.000000000000D+00  7 1 -1 23 -11 11 23 21 2 0.17328173D+00 0.47581034D-01 0.12223903D+06 0.12223903D+06 0.12223903D+06 0.11146350D+01  1  2 15  1  7  1        1 0.265235599950D-04 0.100000000000D+01
  </mgrwgt>
  </event>
  <event>
  8     66 0.56006291E-06 0.23682084E+03 0.75467711E-02 0.95910071E-01
        3 -1    0    0  501    0 0.00000000E+00 0.00000000E+00 0.12150242E+03 0.12150345E+03 0.50000000E+00 0.0000E+00 0.9000E+01
       -3 -1    0    0    0  501 0.00000000E+00 0.00000000E+00 -.78589582E+03 0.78589598E+03 0.50000000E+00 0.0000E+00 0.9000E+01
       25  2    1    2    0    0 -.17253495E+03 -.88564295E+02 -.23690111E+03 0.42917187E+03 0.30075640E+03 0.0000E+00 0.0000E+00
       23  2    1    2    0    0 0.17253495E+03 0.88564295E+02 -.42749229E+03 0.47822755E+03 0.91323561E+02 0.0000E+00 0.0000E+00
       23  1    3    3    0    0 -.52825198E+02 -.27918366E+02 0.33308796E+02 0.11399414E+03 0.91188000E+02 0.0000E+00 0.9000E+01
      -11  1    4    4    0    0 0.15772836E+03 0.57353776E+02 -.40096390E+03 0.43467199E+03 0.51099893E-03 0.0000E+00 0.9000E+01
       11  1    4    4    0    0 0.14806594E+02 0.31210518E+02 -.26528389E+02 0.43555563E+02 0.51099893E-03 0.0000E+00 0.9000E+01
       23  1    3    3    0    0 -.11970976E+03 -.60645929E+02 -.27020991E+03 0.31517773E+03 0.91188000E+02 0.0000E+00 0.9000E+01
#aMCatNLO 1  0  0  2  2 0.32559041D+03 0.00000000D+00  -5  7  0 0.00000000D+00 0.00000000D+00 0.00000000D+00 0.00000000D+00 0.00000000D+00
  <mgrwgt>
 0.3841494955D-04    5    2    0
 0.309012589640279D+03 0.000000000000000D+00 0.000000000000000D+00 0.309012589640279D+03
 0.309012589640279D+03 0.000000000000000D+00 0.000000000000000D+00 -.309012589640279D+03
 0.203176772270322D+03 -.528251975432426D+02 -.279183659644377D+02 0.171451488160878D+03
 0.207149077139605D+03 0.157728360815593D+03 0.573537764845758D+02 -.121420956499172D+03
 0.354306057109873D+02 0.148065935592295D+02 0.312105183331910D+02 0.787376362312104D+01
 0.172268724159644D+03 -.119709756831579D+03 -.606459288533291D+02 -.579042952848272D+02
 0.000000000000000D+00 0.000000000000000D+00 -.000000000000000D+00 -.000000000000000D+00
 0.506852390697290D+03 0.000000000000000D+00 0.000000000000000D+00 0.506852390697290D+03
 0.517454975322990D+03 0.000000000000000D+00 0.000000000000000D+00 -.517454975322990D+03
 0.252895465613591D+03 -.162003404268003D+03 0.386518969275109D+00 0.171451488160878D+03
 0.161284315894280D+03 0.695298391612293D+02 0.802195945048691D+02 -.121420956499172D+03
 0.366221852614025D+02 -.244197772934311D+01 0.356822791382095D+02 0.787376362312104D+01
 0.247742403299765D+03 -.220255367573479D+03 -.345790788104998D+02 -.579042952848272D+02
 0.325762995951241D+03 0.315170910409596D+03 -.817093138018539D+02 -.106025846257003D+02
0.710546765201D-05 0.000000000000D+00 0.000000000000D+00 0.309307656730D-06 0.000000000000D+00  7 3 -3 23 -11 11 23 21 0 0.18692771D-01 0.12090714D+00 0.56084111D+05 0.56084111D+05 0.56084111D+05 0.11429345D+01  1  2  2  2  7  2       -3 0.367064796543D-04 0.100000000000D+01
-.360768472163D-06 0.000000000000D+00 -.272868666963D-07 0.309307656730D-06 0.000000000000D+00  7 3 -3 23 -11 11 23 21 2 0.18692771D-01 0.12090714D+00 0.56084111D+05 0.56084111D+05 0.56084111D+05 0.11429345D+01  1  2  3  2  7  2       -3 -.243456486814D-05 0.100000000000D+01
0.452577546759D-06 0.000000000000D+00 0.000000000000D+00 0.309307656730D-06 0.000000000000D+00  7 3 -3 23 -11 11 23 21 2 0.18692771D-01 0.12090714D+00 0.56084111D+05 0.56084111D+05 0.56084111D+05 0.11429345D+01  1  2 15  2  7  2       -3 0.305411775271D-05 0.100000000000D+01
0.351649284596D-06 0.000000000000D+00 -.194910890818D-05 0.309307656730D-06 0.000000000000D+00  7 3 -3 23 -11 11 23 21 2 0.18692771D-01 0.27968073D+00 0.56084111D+05 0.56084111D+05 0.56084111D+05 0.11429345D+01  1  2  5  2  7  2       -3 0.340298368610D-07 0.100000000000D+01
0.155377333368D-06 0.000000000000D+00 -.178005205176D-06 0.309307656730D-06 0.000000000000D+00  7 3 21 23 -11 11 23 3 2 0.18692771D-01 0.27968073D+00 0.56084111D+05 0.56084111D+05 0.56084111D+05 0.11429345D+01  1  2  5  4  7  2       -3 0.105488717557D-05 0.100000000000D+01
  </mgrwgt>
  </event>
  <event>
  8     66 0.56006291E-06 0.17028903E+03 0.75467711E-02 0.10195260E+00
        1 -1    0    0  501    0 0.00000000E+00 0.00000000E+00 0.48672289E+03 0.48672299E+03 0.32000000E+00 0.0000E+00 0.9000E+01
       -1 -1    0    0    0  501 0.00000000E+00 0.00000000E+00 -.10544358E+03 0.10544406E+03 0.32000000E+00 0.0000E+00 0.9000E+01
       25  2    1    2    0    0 -.13859244E+02 0.13144208E+02 0.38697771E+03 0.48983629E+03 0.29970484E+03 0.0000E+00 0.0000E+00
       23  2    1    2    0    0 0.13859244E+02 -.13144208E+02 -.56984021E+01 0.10233076E+03 0.10037064E+03 0.0000E+00 0.0000E+00
       23  1    3    3    0    0 -.16793432E+02 -.72030087E+02 0.44908730E+02 0.12570759E+03 0.91188000E+02 0.0000E+00 0.9000E+01
      -13  1    4    4    0    0 0.21033481E+02 0.39752804E+02 -.16429460E+02 0.47881427E+02 0.10565837E+00 0.0000E+00 0.9000E+01
       13  1    4    4    0    0 -.71742374E+01 -.52897012E+02 0.10731058E+02 0.54449337E+02 0.10565837E+00 0.0000E+00 0.9000E+01
       23  1    3    3    0    0 0.29341880E+01 0.85174295E+02 0.34206898E+03 0.36412870E+03 0.91188000E+02 0.0000E+00 0.9000E+01
#aMCatNLO 1  0  0  1  2 0.16234581D+03 0.00000000D+00  -5  7  0 0.00000000D+00 0.00000000D+00 0.00000000D+00 0.00000000D+00 0.00000000D+00
  <mgrwgt>
 0.9560460671D-04    6    2    0
 0.226543543047621D+03 0.000000000000000D+00 0.000000000000000D+00 0.226543543047621D+03
 0.226543543047621D+03 0.000000000000000D+00 0.000000000000000D+00 -.226543543047621D+03
 0.126503023188447D+03 -.167936111970009D+02 -.720299167008833D+02 -.470895875416702D+02
 0.764045542388166D+02 0.210331966173768D+02 0.397507013666384D+02 -.617668381038512D+02
 0.621320970320339D+02 -.717350674084306D+01 -.528953323826956D+02 -.317965736324107D+02
 0.188047411635944D+03 0.293392132046720D+01 0.851745477169405D+02 0.140652999277932D+03
 0.000000000000000D+00 0.000000000000000D+00 -.000000000000000D+00 0.000000000000000D+00
 0.333001581021369D+03 0.000000000000000D+00 0.000000000000000D+00 0.333001581021369D+03
 0.311992173818350D+03 0.000000000000000D+00 0.000000000000000D+00 -.311992173818350D+03
 0.110993902710032D+03 -.274341361265212D+02 -.321610636476912D+02 -.470895875416702D+02
 0.929791965640020D+02 0.134443319773205D+02 0.681853257088617D+02 -.617668381038512D+02
 0.483509549157389D+02 -.121234557310977D+02 -.343484288962191D+02 -.317965736324107D+02
 0.228970106814762D+03 -.157496270426732D+02 0.155179707155615D+03 0.140652999277932D+03
 0.163699593835185D+03 0.418628869229715D+02 -.156855540320566D+03 0.210094072030187D+02
0.450771751655D-06 0.000000000000D+00 0.000000000000D+00 0.360016456189D-08 0.000000000000D+00  7 1 -1 23 -13 13 23 21 0 0.74880489D-01 0.16222134D-01 0.28998352D+05 0.28998352D+05 0.28998352D+05 0.11687067D+01  1  2  2  1  7  1        1 0.664966921850D-04 0.100000000000D+01
-.225620541534D-07 0.000000000000D+00 -.173108221728D-08 0.360016456189D-08 0.000000000000D+00  7 1 -1 23 -13 13 23 21 2 0.74880489D-01 0.16222134D-01 0.28998352D+05 0.28998352D+05 0.28998352D+05 0.11687067D+01  1  2  3  1  7  1        1 -.454603816760D-05 0.100000000000D+01
0.281904880819D-07 0.000000000000D+00 0.000000000000D+00 0.360016456189D-08 0.000000000000D+00  7 1 -1 23 -13 13 23 21 2 0.74880489D-01 0.16222134D-01 0.28998352D+05 0.28998352D+05 0.28998352D+05 0.11687067D+01  1  2 15  1  7  1        1 0.568011378362D-05 0.100000000000D+01
-.813147296461D-07 0.000000000000D+00 -.151759544228D-06 0.360016456189D-08 0.000000000000D+00  7 1 -1 23 -13 13 23 21 2 0.14163710D+00 0.16222134D-01 0.28998352D+05 0.28998352D+05 0.28998352D+05 0.11687067D+01  1  2  5  1  7  1        1 -.644143254530D-05 0.100000000000D+01
0.168904762064D-06 0.000000000000D+00 0.125411406617D-06 0.360016456189D-08 0.000000000000D+00  7 1 -1 23 -13 13 23 21 2 0.74880489D-01 0.16222134D-01 0.28998352D+05 0.28998352D+05 0.28998352D+05 0.11687067D+01  1  2  6  1  7  1        1 0.340326944440D-04 0.100000000000D+01
0.298673009168D-08 0.000000000000D+00 -.105162364354D-07 0.360016456189D-08 0.000000000000D+00  7 21 -1 23 -13 13 23 -1 2 0.14163710D+00 0.16222134D-01 0.28998352D+05 0.28998352D+05 0.28998352D+05 0.11687067D+01  1  2  5  3  7  1        1 0.382577011457D-06 0.100000000000D+01
  </mgrwgt>
  </event>
  <event>
  8     66 0.56006291E-06 0.17222256E+03 0.75467711E-02 0.93940893E-01
        1 -1    0    0  501    0 0.00000000E+00 0.00000000E+00 0.11156956E+04 0.11156956E+04 0.32000000E+00 0.0000E+00 0.9000E+01
       -1 -1    0    0    0  501 0.00000000E+00 0.00000000E+00 -.69384241E+02 0.69384979E+02 0.32000000E+00 0.0000E+00 0.9000E+01
       25  2    1    2    0    0 0.30183203E+02 -.44917930E+02 0.28749644E+03 0.41916599E+03 0.30019539E+03 0.0000E+00 0.0000E+00
       23  2    1    2    0    0 -.30183203E+02 0.44917930E+02 0.75881487E+03 0.76591460E+03 0.88862318E+02 0.0000E+00 0.0000E+00
       23  1    3    3    0    0 0.11954433E+03 -.34446213E+02 0.23416965E+03 0.28040696E+03 0.91188000E+02 0.0000E+00 0.9000E+01
      -13  1    4    4    0    0 -.35357602E+01 -.46352773E+01 0.88304952E+00 0.58973160E+01 0.10565837E+00 0.0000E+00 0.9000E+01
       13  1    4    4    0    0 -.26647443E+02 0.49553207E+02 0.75793182E+03 0.76001728E+03 0.10565837E+00 0.0000E+00 0.9000E+01
       23  1    3    3    0    0 -.89361130E+02 -.10471717E+02 0.53326797E+02 0.13875902E+03 0.91188000E+02 0.0000E+00 0.9000E+01
#aMCatNLO 1  0  0  2  2 0.45800631D+03 0.00000000D+00  -5  7  0 0.00000000D+00 0.00000000D+00 0.00000000D+00 0.00000000D+00 0.00000000D+00
  <mgrwgt>
 0.3158256070D-03    5    2    0
 0.278230397013938D+03 0.000000000000000D+00 0.000000000000000D+00 0.278230397013938D+03
 0.278230397013938D+03 0.000000000000000D+00 0.000000000000000D+00 -.278230397013938D+03
 0.156867284329218D+03 0.119544332835816D+03 -.344462133244742D+02 -.285430275771197D+02
 0.108987114536361D+02 -.353572744622177D+01 -.463535343937886D+01 -.920836800240360D+01
 0.193453379358619D+03 -.266474760038905D+02 0.495532837238267D+02 0.185090772541685D+03
 0.195241418886404D+03 -.893611293857036D+02 -.104717169599737D+02 -.147339376962162D+03
 0.000000000000000D+00 0.000000000000000D+00 -.000000000000000D+00 -.000000000000000D+00
 0.490300846890122D+03 0.000000000000000D+00 0.000000000000000D+00 0.490300846890122D+03
 0.763920119382941D+03 0.000000000000000D+00 0.000000000000000D+00 -.763920119382941D+03
 0.142180726696352D+03 0.820197680980619D+02 0.660163685594314D+02 -.285430275771197D+02
 0.115598343768517D+02 -.635382730263544D+01 0.290939996577220D+01 -.920836800240360D+01
 0.296435411297586D+03 -.881187547334687D+02 0.214127167952397D+03 0.185090772541685D+03
 0.270530900606158D+03 -.147806271675441D+03 0.146000448247897D+03 -.147339376962162D+03
 0.533514093296115D+03 0.160259085613484D+03 -.429053384725498D+03 -.273619272492819D+03
0.317972521904D-05 0.000000000000D+00 0.000000000000D+00 0.209040724291D-06 0.000000000000D+00  7 1 -1 23 -13 13 23 21 0 0.17164553D+00 0.10674559D-01 0.29660610D+05 0.29660610D+05 0.29660610D+05 0.11677946D+01  1  2  2  2  7  2       -1 0.252155993071D-03 0.100000000000D+01
-.127235227687D-06 0.000000000000D+00 -.122109820820D-07 0.209040724291D-06 0.000000000000D+00  7 1 -1 23 -13 13 23 21 2 0.17164553D+00 0.10674559D-01 0.29660610D+05 0.29660610D+05 0.29660610D+05 0.11677946D+01  1  2  3  2  7  2       -1 -.137600506842D-04 0.100000000000D+01
0.204385301954D-06 0.000000000000D+00 0.000000000000D+00 0.209040724291D-06 0.000000000000D+00  7 1 -1 23 -13 13 23 21 2 0.17164553D+00 0.10674559D-01 0.29660610D+05 0.29660610D+05 0.29660610D+05 0.11677946D+01  1  2 15  2  7  2       -1 0.221035649098D-04 0.100000000000D+01
0.248838176270D-05 0.000000000000D+00 -.130576720499D-05 0.209040724291D-06 0.000000000000D+00  7 1 -1 23 -13 13 23 21 2 0.17164553D+00 0.52556581D-01 0.29660610D+05 0.29660610D+05 0.29660610D+05 0.11677946D+01  1  2  5  2  7  2       -1 0.204081623042D-04 0.100000000000D+01
0.449718863195D-06 0.000000000000D+00 -.253440472044D-06 0.209040724291D-06 0.000000000000D+00  7 1 21 23 -13 13 23 1 2 0.17164553D+00 0.52556581D-01 0.29660610D+05 0.29660610D+05 0.29660610D+05 0.11677946D+01  1  2  5  4  7  2       -1 0.349179374093D-04 0.100000000000D+01
  </mgrwgt>
  </event>
  <event>
  8     66 0.56006291E-06 0.16008914E+03 0.75467711E-02 0.99741687E-01
        1 -1    0    0  501    0 0.00000000E+00 0.00000000E+00 0.10563528E+04 0.10563528E+04 0.32000000E+00 0.0000E+00 0.9000E+01
       -1 -1    0    0    0  501 0.00000000E+00 0.00000000E+00 -.11651179E+03 0.11651223E+03 0.32000000E+00 0.0000E+00 0.9000E+01
       25  2    1    2    0    0 -.59885357E+02 -.24096785E+03 0.75693261E+03 0.85108414E+03 0.29957549E+03 0.0000E+00 0.0000E+00
       23  2    1    2    0    0 0.59885357E+02 0.24096785E+03 0.18290836E+03 0.32178090E+03 0.91846159E+02 0.0000E+00 0.0000E+00
       23  1    3    3    0    0 -.15250355E+01 -.26307637E+03 0.53063664E+03 0.59925120E+03 0.91188000E+02 0.0000E+00 0.9000E+01
      -11  1    4    4    0    0 0.47230938E+02 0.50981438E+02 0.77680741E+02 0.10423131E+03 0.51099893E-03 0.0000E+00 0.9000E+01
       11  1    4    4    0    0 0.12654419E+02 0.18998641E+03 0.10522762E+03 0.21754959E+03 0.51099893E-03 0.0000E+00 0.9000E+01
       23  1    3    3    0    0 -.58360322E+02 0.22108516E+02 0.22629597E+03 0.25183294E+03 0.91188000E+02 0.0000E+00 0.9000E+01
#aMCatNLO 1  0  0  1  2 0.33376926D+01 0.00000000D+00  -5  7  0 0.00000000D+00 0.00000000D+00 0.00000000D+00 0.00000000D+00 0.00000000D+00
  <mgrwgt>
 0.1535771956D-03   11    2    0
 0.350824506722696D+03 0.000000000000000D+00 0.000000000000000D+00 0.350824506722696D+03
 0.350824506722696D+03 0.000000000000000D+00 0.000000000000000D+00 -.350824506722696D+03
 0.290924258363344D+03 -.152503547687607D+01 -.263076365570140D+03 0.843218412124754D+02
 0.701799831527651D+02 0.472309378647010D+02 0.509814375360461D+02 -.976532490505941D+01
 0.222702622028969D+03 0.126544191374679D+02 0.189986411802179D+03 -.115505354271583D+03
 0.117842149900314D+03 -.583603215252928D+02 0.221085162319151D+02 0.409488379641669D+02
 0.000000000000000D+00 0.000000000000000D+00 0.000000000000000D+00 0.000000000000000D+00
 0.364098940297734D+03 0.000000000000000D+00 0.000000000000000D+00 0.364098940297734D+03
 0.351038344149105D+03 0.000000000000000D+00 0.000000000000000D+00 -.351038344149105D+03
 0.292083770426653D+03 -.206303338654113D+01 -.264354399604837D+03 0.843218412124754D+02
 0.698700896183951D+02 0.471017001137978D+02 0.506744284543106D+02 -.976532490505941D+01
 0.221848829100237D+03 0.122441885066094D+02 0.189011893688087D+03 -.115505354271583D+03
 0.117854262833797D+03 -.585778214071206D+02 0.215918371769882D+02 0.409488379641669D+02
 0.134803324677572D+02 0.129496617325459D+01 0.307624028545035D+01 0.130605961486284D+02
0.176693254240D-05 0.000000000000D+00 0.000000000000D+00 0.266494227779D-06 0.000000000000D+00  7 1 -1 23 -11 11 23 21 0 0.16251585D+00 0.17924928D-01 0.10524821D+06 0.10524821D+06 0.10524821D+06 0.11199036D+01  1  2  2  1  7  1        1 0.681458441487D-04 0.100000000000D+01
-.974321625350D-07 0.000000000000D+00 -.678548620685D-08 0.266494227779D-06 0.000000000000D+00  7 1 -1 23 -11 11 23 21 2 0.16251585D+00 0.17924928D-01 0.10524821D+06 0.10524821D+06 0.10524821D+06 0.11199036D+01  1  2  3  1  7  1        1 -.471284376149D-05 0.100000000000D+01
0.110618963837D-06 0.000000000000D+00 0.000000000000D+00 0.266494227779D-06 0.000000000000D+00  7 1 -1 23 -11 11 23 21 2 0.16251585D+00 0.17924928D-01 0.10524821D+06 0.10524821D+06 0.10524821D+06 0.11199036D+01  1  2 15  1  7  1        1 0.535069611569D-05 0.100000000000D+01
0.146340191415D-05 0.000000000000D+00 0.000000000000D+00 0.266494227779D-06 0.000000000000D+00  7 1 -1 23 -11 11 23 21 2 0.16871362D+00 0.17924928D-01 0.10630510D+06 0.10630510D+06 0.10630510D+06 0.11195495D+01  1  2 12  1  7  1        1 0.661006906181D-04 0.100000000000D+01
-.175326137950D-03 0.000000000000D+00 0.000000000000D+00 0.266494227779D-06 0.000000000000D+00  7 1 -1 23 -11 11 23 21 2 0.16251585D+00 0.17924928D-01 0.10524821D+06 0.10524821D+06 0.10524821D+06 0.11199036D+01  1  2  4  1  7  1        1 -.848061537348D-02 0.100000000000D+01
-.206477839832D-03 0.000000000000D+00 -.571857276502D-05 0.266494227779D-06 0.000000000000D+00  7 1 -1 23 -11 11 23 21 2 0.16870809D+00 0.17924928D-01 0.10524821D+06 0.10524821D+06 0.10524821D+06 0.11199036D+01  1  2  5  1  7  1        1 -.933454672338D-02 0.100000000000D+01
0.206551246901D-03 0.000000000000D+00 0.571457682651D-05 0.266494227779D-06 0.000000000000D+00  7 1 -1 23 -11 11 23 21 2 0.16251585D+00 0.17924928D-01 0.10524821D+06 0.10524821D+06 0.10524821D+06 0.11199036D+01  1  2  6  1  7  1        1 0.999098993655D-02 0.100000000000D+01
0.173957385613D-03 0.000000000000D+00 0.000000000000D+00 0.266494227779D-06 0.160006489383D-06  7 1 -1 23 -11 11 23 21 2 0.16866509D+00 0.17935854D-01 0.10630510D+06 0.10630510D+06 0.10630510D+06 0.11195495D+01  1  2 11  1  7  1        1 0.785402725743D-02 0.100000000000D+01
0.377785172806D-07 0.000000000000D+00 0.000000000000D+00 0.266494227779D-06 0.000000000000D+00  7 21 -1 23 -11 11 23 -1 2 0.16871362D+00 0.17924928D-01 0.10630510D+06 0.10630510D+06 0.10630510D+06 0.11195495D+01  1  2 12  3  7  1        1 0.210091376429D-05 0.100000000000D+01
-.138966131926D-05 0.000000000000D+00 -.379391376507D-07 0.266494227779D-06 0.000000000000D+00  7 21 -1 23 -11 11 23 -1 2 0.16870809D+00 0.17924928D-01 0.10524821D+06 0.10524821D+06 0.10524821D+06 0.11199036D+01  1  2  5  3  7  1        1 -.773831664097D-04 0.100000000000D+01
0.115309173792D-05 0.000000000000D+00 0.000000000000D+00 0.266494227779D-06 0.105839351303D-08  7 21 -1 23 -11 11 23 -1 2 0.16866509D+00 0.17935854D-01 0.10630510D+06 0.10630510D+06 0.10630510D+06 0.11195495D+01  1  2 11  3  7  1        1 0.641199640226D-04 0.100000000000D+01
  </mgrwgt>
  </event>
  <event>
  8     66 0.56006291E-06 0.17450986E+03 0.75467711E-02 0.10289056E+00
        1 -1    0    0  501    0 0.00000000E+00 0.00000000E+00 0.33416632E+04 0.33416632E+04 0.32000000E+00 0.0000E+00 0.9000E+01
       -1 -1    0    0    0  501 0.00000000E+00 0.00000000E+00 -.13430373E+02 0.13434184E+02 0.32000000E+00 0.0000E+00 0.9000E+01
       25  2    1    2    0    0 0.43946061E+02 0.51986209E+02 0.25891016E+04 0.26072989E+04 0.29987819E+03 0.0000E+00 0.0000E+00
       23  2    1    2    0    0 -.43946061E+02 -.51986209E+02 0.73913122E+03 0.74779843E+03 0.90849980E+02 0.0000E+00 0.0000E+00
       23  1    3    3    0    0 -.62271011E+02 0.12908084E+02 0.46005457E+03 0.47329668E+03 0.91188000E+02 0.0000E+00 0.9000E+01
      -13  1    4    4    0    0 0.15231685E+02 -.20292956E+02 0.57252469E+02 0.62623196E+02 0.10565837E+00 0.0000E+00 0.9000E+01
       13  1    4    4    0    0 -.59177746E+02 -.31693253E+02 0.68187875E+03 0.68517524E+03 0.10565837E+00 0.0000E+00 0.9000E+01
       23  1    3    3    0    0 0.10621707E+03 0.39078125E+02 0.21290470E+04 0.21340023E+04 0.91188000E+02 0.0000E+00 0.9000E+01
#aMCatNLO 1  0  0  2  2 0.13580369D+03 0.00000000D+00  -5  7  0 0.00000000D+00 0.00000000D+00 0.00000000D+00 0.00000000D+00 0.00000000D+00
  <mgrwgt>
 0.1709176233D-03    4    2    0
 0.211863640173912D+03 0.000000000000000D+00 0.000000000000000D+00 0.211863640173912D+03
 0.211863640173912D+03 0.000000000000000D+00 0.000000000000000D+00 -.211863640173912D+03
 0.134019601790018D+03 -.622709796864515D+02 0.129081208910688D+02 -.748445577440737D+02
 0.461555076761966D+02 0.152317112944641D+02 -.202929752580946D+02 -.385554278288272D+02
 0.693333691365232D+02 -.591778447241565D+02 -.316933191765130D+02 0.173387510853776D+02
 0.174218801745086D+03 0.106217113116144D+03 0.390781735435389D+02 0.960612344875234D+02
 0.000000000000000D+00 -.000000000000000D+00 -.000000000000000D+00 0.000000000000000D+00
 0.329954020434193D+03 0.000000000000000D+00 0.000000000000000D+00 0.329954020434193D+03
 0.265378700475382D+03 0.000000000000000D+00 0.000000000000000D+00 -.265378700475382D+03
 0.126503122688626D+03 -.285071669860549D+02 0.356850432604024D+02 -.748445577440737D+02
 0.488778357820665D+02 0.275480572686530D+02 -.119844214043807D+02 -.385554278288272D+02
 0.514034778742960D+02 -.435303180192685D+02 -.211375651746813D+02 0.173387510853776D+02
 0.218173371399337D+03 0.157071240584921D+03 0.733841485172395D+02 0.960612344875234D+02
 0.150374913165250D+03 -.112581812848250D+03 -.759472051985799D+02 0.645753199588108D+02
0.721159042087D-05 0.000000000000D+00 0.000000000000D+00 0.177483585330D-06 0.000000000000D+00  7 1 -1 23 -13 13 23 21 0 0.51410232D+00 0.20665056D-02 0.30453690D+05 0.30453690D+05 0.30453690D+05 0.11667316D+01  1  2  2  2  7  2       -1 0.194140992650D-03 0.100000000000D+01
-.382317740086D-06 0.000000000000D+00 -.276944060715D-07 0.177483585330D-06 0.000000000000D+00  7 1 -1 23 -13 13 23 21 2 0.51410232D+00 0.20665056D-02 0.30453690D+05 0.30453690D+05 0.30453690D+05 0.11667316D+01  1  2  3  2  7  2       -1 -.140104652138D-04 0.100000000000D+01
0.459310911637D-06 0.000000000000D+00 0.000000000000D+00 0.177483585330D-06 0.000000000000D+00  7 1 -1 23 -13 13 23 21 2 0.51410232D+00 0.20665056D-02 0.30453690D+05 0.30453690D+05 0.30453690D+05 0.11667316D+01  1  2 15  2  7  2       -1 0.168319669089D-04 0.100000000000D+01
-.710712748016D-06 0.000000000000D+00 0.000000000000D+00 0.177483585330D-06 0.000000000000D+00  7 1 -1 23 -13 13 23 21 2 0.51410232D+00 0.20665056D-02 0.30453690D+05 0.30453690D+05 0.30453690D+05 0.11667316D+01  1  2  4  2  7  2       -1 -.260448710302D-04 0.100000000000D+01
  </mgrwgt>
  </event>
  <event>
  8     66 0.56006291E-06 0.24928017E+03 0.75467711E-02 0.96268748E-01
        3 -1    0    0  501    0 0.00000000E+00 0.00000000E+00 0.32593724E+03 0.32593762E+03 0.50000000E+00 0.0000E+00 0.9000E+01
       -3 -1    0    0    0  501 0.00000000E+00 0.00000000E+00 -.40277331E+03 0.40277362E+03 0.50000000E+00 0.0000E+00 0.9000E+01
       25  2    1    2    0    0 0.26507502E+03 -.10905198E+03 -.10238614E+03 0.42724264E+03 0.29982705E+03 0.0000E+00 0.0000E+00
       23  2    1    2    0    0 -.26507502E+03 0.10905198E+03 0.25550065E+02 0.30146859E+03 0.89852147E+02 0.0000E+00 0.0000E+00
       23  1    3    3    0    0 0.28059180E+03 -.10150293E+03 -.38058275E+02 0.31432195E+03 0.91188000E+02 0.0000E+00 0.9000E+01
      -13  1    4    4    0    0 -.14419233E+03 0.35355729E+02 -.26148064E+02 0.15074875E+03 0.10565837E+00 0.0000E+00 0.9000E+01
       13  1    4    4    0    0 -.12088269E+03 0.73696250E+02 0.51698130E+02 0.15071984E+03 0.10565837E+00 0.0000E+00 0.9000E+01
       23  1    3    3    0    0 -.15516781E+02 -.75490444E+01 -.64327864E+02 0.11292070E+03 0.91188000E+02 0.0000E+00 0.9000E+01
#aMCatNLO 1  0  0  1  2 0.15860248D+03 0.00000000D+00  -5  7  0 0.00000000D+00 0.00000000D+00 0.00000000D+00 0.00000000D+00 0.00000000D+00
  <mgrwgt>
 0.3076803621D-04    9    2    0
 0.362324539063878D+03 0.000000000000000D+00 0.000000000000000D+00 0.362324539063878D+03
 0.362324539063878D+03 0.000000000000000D+00 0.000000000000000D+00 -.362324539063878D+03
 0.312048539880472D+03 0.280591797747120D+03 -.101502934720037D+03 -.494339739385531D+01
 0.148821258867316D+03 -.144192357659221D+03 0.353556759071123D+02 -.103105414348147D+02
 0.157046402367270D+03 -.120882659347815D+03 0.736963032490860D+02 0.679691845833184D+02
 0.106732877012699D+03 -.155167807400831D+02 -.754904443616111D+01 -.527152457546484D+02
 0.000000000000000D+00 -.000000000000000D+00 0.000000000000000D+00 0.000000000000000D+00
 0.499374089424153D+03 0.000000000000000D+00 0.000000000000000D+00 0.499374089424153D+03
 0.419850834475241D+03 0.000000000000000D+00 0.000000000000000D+00 -.419850834475241D+03
 0.381809597264277D+03 0.355554948757139D+03 -.104974084685812D+03 -.494339739385531D+01
 0.120460825886274D+03 -.115099618808102D+03 0.340085439081672D+02 -.103105414348147D+02
 0.133588804316449D+03 -.894829686601573D+02 0.722423484221173D+02 0.679691845833184D+02
 0.105943330108584D+03 0.746036368929023D+01 -.861299536438397D+01 -.527152457546484D+02
 0.177422366323809D+03 -.158432724978170D+03 0.733618771991144D+01 0.795232549489121D+02
0.571961623552D-05 0.000000000000D+00 0.000000000000D+00 0.412994665208D-06 0.000000000000D+00  7 3 -3 23 -13 13 23 21 0 0.50144243D-01 0.61965178D-01 0.12070599D+06 0.12070599D+06 0.12070599D+06 0.11150763D+01  1  2  2  1  7  1        3 0.242304859342D-04 0.100000000000D+01
-.317075468993D-06 0.000000000000D+00 -.219648323539D-07 0.412994665208D-06 0.000000000000D+00  7 3 -3 23 -13 13 23 21 2 0.50144243D-01 0.61965178D-01 0.12070599D+06 0.12070599D+06 0.12070599D+06 0.11150763D+01  1  2  3  1  7  1        3 -.167019455406D-05 0.100000000000D+01
0.377512129417D-06 0.000000000000D+00 0.000000000000D+00 0.412994665208D-06 0.000000000000D+00  7 3 -3 23 -13 13 23 21 2 0.50144243D-01 0.61965178D-01 0.12070599D+06 0.12070599D+06 0.12070599D+06 0.11150763D+01  1  2 15  1  7  1        3 0.198854457157D-05 0.100000000000D+01
0.281741193882D-05 0.000000000000D+00 0.000000000000D+00 0.412994665208D-06 0.000000000000D+00  7 3 -3 23 -13 13 23 21 2 0.71896987D-01 0.61965178D-01 0.18805278D+06 0.18805278D+06 0.18805278D+06 0.10998858D+01  1  2 12  1  7  1        3 0.677055837622D-05 0.100000000000D+01
-.385011555478D-05 0.000000000000D+00 0.000000000000D+00 0.412994665208D-06 0.000000000000D+00  7 3 -3 23 -13 13 23 21 2 0.50144243D-01 0.61965178D-01 0.12070599D+06 0.12070599D+06 0.12070599D+06 0.11150763D+01  1  2  4  1  7  1        3 -.202804778703D-04 0.100000000000D+01
-.557980398166D-05 0.000000000000D+00 -.237043777323D-05 0.412994665208D-06 0.000000000000D+00  7 3 -3 23 -13 13 23 21 2 0.77993472D-01 0.61965178D-01 0.12070599D+06 0.12070599D+06 0.12070599D+06 0.11150763D+01  1  2  5  1  7  1        3 -.115709397790D-04 0.100000000000D+01
0.622361036794D-05 0.000000000000D+00 0.215659902687D-05 0.412994665208D-06 0.000000000000D+00  7 3 -3 23 -13 13 23 21 2 0.50144243D-01 0.61965178D-01 0.12070599D+06 0.12070599D+06 0.12070599D+06 0.11150763D+01  1  2  6  1  7  1        3 0.327828582140D-04 0.100000000000D+01
0.124292623134D-06 0.000000000000D+00 0.000000000000D+00 0.412994665208D-06 0.000000000000D+00  7 21 -3 23 -13 13 23 -3 2 0.71896987D-01 0.61965178D-01 0.18805278D+06 0.18805278D+06 0.18805278D+06 0.10998858D+01  1  2 12  3  7  1        3 0.422132121390D-05 0.100000000000D+01
-.193759229635D-06 0.000000000000D+00 -.121463392233D-06 0.412994665208D-06 0.000000000000D+00  7 21 -3 23 -13 13 23 -3 2 0.77993472D-01 0.61965178D-01 0.12070599D+06 0.12070599D+06 0.12070599D+06 0.11150763D+01  1  2  5  3  7  1        3 -.570411989611D-05 0.100000000000D+01
  </mgrwgt>
  </event>
  <event>
  8     66 0.56006291E-06 0.40976936E+03 0.75467711E-02 0.96104675E-01
        1 -1    0    0  501    0 0.00000000E+00 0.00000000E+00 0.27286872E+04 0.27286872E+04 0.32000000E+00 0.0000E+00 0.9000E+01
       -1 -1    0    0    0  501 0.00000000E+00 0.00000000E+00 -.66494484E+02 0.66495254E+02 0.32000000E+00 0.0000E+00 0.9000E+01
       25  2    1    2    0    0 0.36147226E+03 -.31522742E+01 0.12763876E+04 0.13601301E+04 0.30019423E+03 0.0000E+00 0.0000E+00
       23  2    1    2    0    0 -.36147226E+03 0.31522742E+01 0.13858052E+04 0.14350524E+04 0.90814251E+02 0.0000E+00 0.0000E+00
       23  1    3    3    0    0 0.10131229E+03 -.96075420E+02 0.32545043E+03 0.36568825E+03 0.91188000E+02 0.0000E+00 0.9000E+01
      -13  1    4    4    0    0 -.30034512E+03 -.35356802E+01 0.99204512E+03 0.10365198E+04 0.10565837E+00 0.0000E+00 0.9000E+01
       13  1    4    4    0    0 -.61127145E+02 0.66879544E+01 0.39376006E+03 0.39853263E+03 0.10565837E+00 0.0000E+00 0.9000E+01
       23  1    3    3    0    0 0.26015997E+03 0.92923146E+02 0.95093713E+03 0.99444185E+03 0.91188000E+02 0.0000E+00 0.9000E+01
#aMCatNLO 1  0  0  2  2 0.58277712D+02 0.00000000D+00  -5  7  0 0.00000000D+00 0.00000000D+00 0.00000000D+00 0.00000000D+00 0.00000000D+00
  <mgrwgt>
 0.1288608533D-03    4    2    0
 0.425962148396931D+03 0.000000000000000D+00 0.000000000000000D+00 0.425962148396931D+03
 0.425962148396931D+03 0.000000000000000D+00 0.000000000000000D+00 -.425962148396931D+03
 0.182825683434867D+03 0.101312293362695D+03 -.960754197998485D+02 -.749353861890388D+02
 0.300785933781814D+03 -.300345441460775D+03 -.353569397299722D+01 0.158837219460495D+02
 0.771265537524822D+02 -.611268209280936D+02 0.668796820006637D+01 0.465541420102895D+02
 0.291186125824698D+03 0.260159969026174D+03 0.929231455727793D+02 0.124975222326998D+02
 0.000000000000000D+00 -.000000000000000D+00 0.000000000000000D+00 0.000000000000000D+00
 0.475141775322938D+03 0.000000000000000D+00 0.000000000000000D+00 0.475141775322938D+03
 0.444579058310659D+03 0.000000000000000D+00 0.000000000000000D+00 -.444579058310659D+03
 0.191770606937703D+03 0.113577855633887D+03 -.997269920711665D+02 -.749353861890388D+02
 0.281866239703077D+03 -.281267418800122D+03 -.921539923223651D+01 0.158837219460495D+02
 0.731685807146607D+02 -.562056447759473D+02 0.522288816687013D+01 0.465541420102895D+02
 0.307109848984802D+03 0.279750223185741D+03 0.870909442194700D+02 0.124975222326998D+02
 0.658055572933555D+02 -.558550152435587D+02 0.166285589170629D+02 0.305627170122796D+02
0.303563840723D-04 0.000000000000D+00 0.000000000000D+00 0.135115844738D-05 0.000000000000D+00  7 1 -1 23 -13 13 23 21 0 0.41979809D+00 0.10229981D-01 0.16791093D+06 0.16791093D+06 0.16791093D+06 0.11037067D+01  1  2  2  2  7  2       -1 0.205540039681D-03 0.100000000000D+01
-.168338587662D-05 0.000000000000D+00 -.116576507857D-06 0.135115844738D-05 0.000000000000D+00  7 1 -1 23 -13 13 23 21 2 0.41979809D+00 0.10229981D-01 0.16791093D+06 0.16791093D+06 0.16791093D+06 0.11037067D+01  1  2  3  2  7  2       -1 -.138847298613D-04 0.100000000000D+01
0.198780329079D-05 0.000000000000D+00 0.000000000000D+00 0.135115844738D-05 0.000000000000D+00  7 1 -1 23 -13 13 23 21 2 0.41979809D+00 0.10229981D-01 0.16791093D+06 0.16791093D+06 0.16791093D+06 0.11037067D+01  1  2 15  2  7  2       -1 0.163955941970D-04 0.100000000000D+01
-.960100875550D-05 0.000000000000D+00 0.000000000000D+00 0.135115844738D-05 0.000000000000D+00  7 1 -1 23 -13 13 23 21 2 0.41979809D+00 0.10229981D-01 0.16791093D+06 0.16791093D+06 0.16791093D+06 0.11037067D+01  1  2  4  2  7  2       -1 -.791900507289D-04 0.100000000000D+01
  </mgrwgt>
  </event>
  <event>
  9     66 -.56006291E-06 0.20422995E+03 0.75467711E-02 0.10536958E+00
        1 -1    0    0  502    0 0.00000000E+00 0.00000000E+00 0.23177718E+03 0.23177740E+03 0.32000000E+00 0.0000E+00 0.9000E+01
       -1 -1    0    0    0  501 0.00000000E+00 0.00000000E+00 -.50358775E+03 0.50358785E+03 0.32000000E+00 0.0000E+00 0.9000E+01
       25  2    1    2    0    0 0.58987337E+02 -.92744942E+02 0.93273103E+02 0.33305017E+03 0.30023560E+03 0.0000E+00 0.0000E+00
       23  2    1    2    0    0 -.44187187E+02 0.72891071E+02 -.35230945E+03 0.37444100E+03 0.93906869E+02 0.0000E+00 0.0000E+00
       23  1    3    3    0    0 -.51153178E+02 0.48351925E+02 0.58431540E+02 0.12916676E+03 0.91188000E+02 0.0000E+00 0.9000E+01
      -13  1    4    4    0    0 -.54944748E+00 0.12184826E+02 -.23510752E+03 0.23542372E+03 0.10565837E+00 0.0000E+00 0.9000E+01
       13  1    4    4    0    0 -.43637739E+02 0.60706245E+02 -.11720192E+03 0.13901727E+03 0.10565837E+00 0.0000E+00 0.9000E+01
       23  1    3    3    0    0 0.11014051E+03 -.14109687E+03 0.34841563E+02 0.20388341E+03 0.91188000E+02 0.0000E+00 0.9000E+01
       21  1    1    2  502  501 -.14800150E+02 0.19853872E+02 -.12774229E+02 0.27874076E+02 0.75000000E+00 0.0000E+00 0.9000E+01
#aMCatNLO 2  0  0  1  2 0.24763293D+02 0.00000000D+00  -5  7  0 0.00000000D+00 0.00000000D+00 0.00000000D+00 0.00000000D+00 0.00000000D+00
  <mgrwgt>
 -.8530335704D-04    3    2    0
 0.328949353878314D+03 0.000000000000000D+00 0.000000000000000D+00 0.328949353878314D+03
 0.328949353878314D+03 0.000000000000000D+00 0.000000000000000D+00 -.328949353878314D+03
 0.164519679286466D+03 -.548222834143297D+02 0.532738988325975D+02 0.113612862268911D+03
 0.160980566548128D+03 -.416399803870702D+01 0.170336272294275D+02 -.160022684235389D+03
 0.106163742801309D+03 -.459927545897700D+02 0.638654030541302D+02 -.712503831818546D+02
 0.226234719120725D+03 0.104979036042807D+03 -.134172929116155D+03 0.117660205148332D+03
 0.000000000000000D+00 -.000000000000000D+00 0.000000000000000D+00 -.000000000000000D+00
 0.340260512700022D+03 0.000000000000000D+00 0.000000000000000D+00 0.340260512700022D+03
 0.343020724716548D+03 0.000000000000000D+00 0.000000000000000D+00 -.343020724716548D+03
 0.161795210099350D+03 -.511531775453667D+02 0.483519246894109D+02 0.113612862268911D+03
 0.160486852814300D+03 -.549397438399987D+00 0.121847699524675D+02 -.160022684235389D+03
 0.103276952468989D+03 -.436377897713937D+02 0.607063020747305D+02 -.712503831818546D+02
 0.232805572312364D+03 0.110140514976722D+03 -.141096868288429D+03 0.117660205148332D+03
 0.249166497215670D+02 -.148001502215613D+02 0.198538715718196D+02 -.276021201652590D+01
-.643732135380D-05 0.000000000000D+00 0.000000000000D+00 0.150472841559D-06 0.000000000000D+00  7 1 -1 23 -13 13 23 21 2 0.36367104D-01 0.74295659D-01 0.45753734D+05 0.45753734D+05 0.45753734D+05 0.11507012D+01  1  2 13  1  7  1        1 -.243089872955D-03 0.100000000000D+01
-.622478580633D-06 0.000000000000D+00 0.000000000000D+00 0.150472841559D-06 0.000000000000D+00  7 1 -1 23 -13 13 23 21 2 0.34472114D-01 0.74295659D-01 0.41709873D+05 0.41709873D+05 0.41709873D+05 0.11542856D+01  1  2  8  1  7  1        1 -.253707068286D-04 0.100000000000D+01
0.513375024925D-05 0.000000000000D+00 0.000000000000D+00 0.150472841559D-06 0.173503786672D-08  7 1 -1 23 -13 13 23 21 2 0.35657463D-01 0.77473783D-01 0.45753734D+05 0.45753734D+05 0.45753734D+05 0.11507012D+01  1  2  1  1  7  1        1 0.183157222748D-03 0.100000000000D+01
  </mgrwgt>
  </event>
  <event>
  9     66 0.56006291E-06 0.53071664E+03 0.75467711E-02 0.91189063E-01
        1 -1    0    0  501    0 0.00000000E+00 0.00000000E+00 0.22480545E+04 0.22480545E+04 0.32000000E+00 0.0000E+00 0.9000E+01
       21 -1    0    0  502  501 0.00000000E+00 0.00000000E+00 -.33626147E+03 0.33626231E+03 0.75000000E+00 0.0000E+00 0.9000E+01
       25  2    1    2    0    0 -.45675645E+03 -.41065983E+03 0.17621601E+03 0.70588565E+03 0.29992418E+03 0.0000E+00 0.0000E+00
       23  2    1    2    0    0 0.17902711E+03 0.37568378E+03 0.87407387E+03 0.97259196E+03 0.93493256E+02 0.0000E+00 0.0000E+00
       23  1    3    3    0    0 -.13575342E+03 -.38257960E+02 0.11168770E+03 0.20169793E+03 0.91188000E+02 0.0000E+00 0.9000E+01
      -11  1    4    4    0    0 0.16956244E+03 0.29192015E+03 0.75132040E+03 0.82368146E+03 0.51099893E-03 0.0000E+00 0.9000E+01
       11  1    4    4    0    0 0.94646713E+01 0.83763623E+02 0.12275347E+03 0.14891050E+03 0.51099893E-03 0.0000E+00 0.9000E+01
       23  1    3    3    0    0 -.32100303E+03 -.37240187E+03 0.64528313E+02 0.50418772E+03 0.91188000E+02 0.0000E+00 0.9000E+01
        1  1    1    2  502    0 0.27772934E+03 0.34976059E+02 0.86150312E+03 0.90583920E+03 0.32000000E+00 0.0000E+00 0.9000E+01
#aMCatNLO 2  0  0  2  2 0.27992305D+03 0.00000000D+00  -5  7  0 0.00000000D+00 0.00000000D+00 0.00000000D+00 0.00000000D+00 0.00000000D+00
  <mgrwgt>
 0.1189271258D-04    1    2    0
 0.639496159610626D+03 0.000000000000000D+00 0.000000000000000D+00 0.639496159610626D+03
 0.639496159610626D+03 0.000000000000000D+00 0.000000000000000D+00 -.639496159610626D+03
 0.142456041464851D+03 -.102335128657285D+03 -.340494022297187D+02 -.186180572652235D+02
 0.508782845563163D+03 0.272792120850497D+03 0.304920461417718D+03 0.302436695772922D+03
 0.989642860513471D+02 0.300020184694410D+02 0.863500100068794D+02 0.379141737774145D+02
 0.528789146141891D+03 -.200459010662653D+03 -.357221069194879D+03 -.321732812285113D+03
 0.000000000000000D+00 0.000000000000000D+00 0.000000000000000D+00 0.000000000000000D+00
 0.107861968415696D+04 0.000000000000000D+00 0.000000000000000D+00 0.107861968415696D+04
 0.700835631598500D+03 0.000000000000000D+00 0.000000000000000D+00 -.700835631598500D+03
 0.168980903291208D+03 -.135753418906227D+03 -.382579603749560D+02 -.186180572652235D+02
 0.453251310863798D+03 0.169562439175915D+03 0.291920151874486D+03 0.302436695772922D+03
 0.924305640709927D+02 0.946467130739815D+01 0.837636233594322D+02 0.379141737774145D+02
 0.594603529776692D+03 -.321003034547773D+03 -.372401873772320D+03 -.321732812285113D+03
 0.470189007752768D+03 0.277729342970687D+03 0.349760589133576D+02 0.377784052558458D+03
0.126169489916D-05 0.000000000000D+00 0.000000000000D+00 0.707404720884D-06 0.190228217850D-11  7 1 21 23 -11 11 23 1 2 0.34585458D+00 0.51732597D-01 0.46909199D+06 0.46909199D+06 0.46909199D+06 0.10704745D+01  1  2  1  4  7  2       -1 0.118927125795D-04 0.100000000000D+01
  </mgrwgt>
  </event>
  <event>
  8     66 0.56006291E-06 0.53021209E+03 0.75467711E-02 0.87617196E-01
        1 -1    0    0  501    0 0.00000000E+00 0.00000000E+00 0.16398235E+04 0.16398235E+04 0.32000000E+00 0.0000E+00 0.9000E+01
       -1 -1    0    0    0  501 0.00000000E+00 0.00000000E+00 -.54464992E+03 0.54465001E+03 0.32000000E+00 0.0000E+00 0.9000E+01
       25  2    1    2    0    0 0.15354361E+03 0.89385898E+03 0.38887414E+03 0.10313333E+04 0.29977635E+03 0.0000E+00 0.0000E+00
       23  2    1    2    0    0 -.15354361E+03 -.89385898E+03 0.70629939E+03 0.11531401E+04 0.91180316E+02 0.0000E+00 0.0000E+00
       23  1    3    3    0    0 0.15109746E+02 0.48023142E+03 0.96797234E+02 0.49853332E+03 0.91188000E+02 0.0000E+00 0.9000E+01
      -13  1    4    4    0    0 -.36531564E+02 -.38383877E+03 0.25629838E+03 0.46298556E+03 0.10565837E+00 0.0000E+00 0.9000E+01
       13  1    4    4    0    0 -.11701205E+03 -.51002021E+03 0.45000101E+03 0.69015459E+03 0.10565837E+00 0.0000E+00 0.9000E+01
       23  1    3    3    0    0 0.13843387E+03 0.41362756E+03 0.29207690E+03 0.53280002E+03 0.91188000E+02 0.0000E+00 0.9000E+01
#aMCatNLO 1  0  0  2  1 0.10489742D+03 0.00000000D+00  -5  7  0 0.00000000D+00 0.00000000D+00 0.00000000D+00 0.00000000D+00 0.00000000D+00
  <mgrwgt>
 0.2088483401D-03    9    2    0
 0.945055472119610D+03 0.000000000000000D+00 0.000000000000000D+00 0.945055472119610D+03
 0.945055472119610D+03 0.000000000000000D+00 0.000000000000000D+00 -.945055472119610D+03
 0.520087493469808D+03 0.151097463273131D+02 0.480231417876963D+03 -.176989351005968D+03
 0.386584767946078D+03 -.365314562437166D+02 -.383838602485150D+03 0.279492889870770D+02
 0.536897364626700D+03 -.117012155221805D+03 -.510020377202459D+03 0.120192139974732D+03
 0.446541318196635D+03 0.138433865138209D+03 0.413627561810645D+03 0.288479220441586D+02
 0.000000000000000D+00 0.000000000000000D+00 0.000000000000000D+00 -.000000000000000D+00
 0.996163866173637D+03 0.000000000000000D+00 0.000000000000000D+00 0.996163866173637D+03
 0.100191034273016D+04 0.000000000000000D+00 0.000000000000000D+00 -.100191034273016D+04
 0.509018492677780D+03 -.108289752362462D+02 0.468339703067953D+03 -.176989351005968D+03
 0.397900261964479D+03 -.563044816031397D+02 -.392903628219338D+03 0.279492889870770D+02
 0.555422735857847D+03 -.144544194998206D+03 -.522642555374541D+03 0.120192139974732D+03
 0.430678015511352D+03 0.116323462173398D+03 0.403490955589496D+03 0.288479220441586D+02
 0.105054702892338D+03 0.953541896641944D+02 0.437155249364306D+02 -.574647655652095D+01
0.115613377455D-03 0.000000000000D+00 0.000000000000D+00 0.545707487783D-05 0.000000000000D+00  7 1 -1 23 -13 13 23 21 0 0.25228054D+00 0.83792305D-01 0.84962166D+06 0.84962166D+06 0.84962166D+06 0.10526079D+01  1  2  2  2  7  2       -1 0.104331600576D-03 0.100000000000D+01
-.641809609139D-05 0.000000000000D+00 -.443985811129D-06 0.545707487783D-05 0.000000000000D+00  7 1 -1 23 -13 13 23 21 2 0.25228054D+00 0.83792305D-01 0.84962166D+06 0.84962166D+06 0.84962166D+06 0.10526079D+01  1  2  3  2  7  2       -1 -.641722489540D-05 0.100000000000D+01
0.694609175809D-05 0.000000000000D+00 0.000000000000D+00 0.545707487783D-05 0.000000000000D+00  7 1 -1 23 -13 13 23 21 2 0.25228054D+00 0.83792305D-01 0.84962166D+06 0.84962166D+06 0.84962166D+06 0.10526079D+01  1  2 15  2  7  2       -1 0.694514889167D-05 0.100000000000D+01
0.179193032214D-03 0.000000000000D+00 0.000000000000D+00 0.545707487783D-05 0.000000000000D+00  7 1 -1 23 -13 13 23 21 2 0.25228054D+00 0.90972114D-01 0.95164432D+06 0.95164432D+06 0.95164432D+06 0.10492998D+01  1  2 12  2  7  2       -1 0.148219135310D-03 0.100000000000D+01
-.144431105222D-03 0.000000000000D+00 0.000000000000D+00 0.545707487783D-05 0.000000000000D+00  7 1 -1 23 -13 13 23 21 2 0.25228054D+00 0.83792305D-01 0.84962166D+06 0.84962166D+06 0.84962166D+06 0.10526079D+01  1  2  4  2  7  2       -1 -.144411500063D-03 0.100000000000D+01
-.639709804698D-03 0.000000000000D+00 -.134441245899D-03 0.545707487783D-05 0.000000000000D+00  7 1 -1 23 -13 13 23 21 2 0.25228054D+00 0.93337442D-01 0.84962166D+06 0.84962166D+06 0.84962166D+06 0.10526079D+01  1  2  5  2  7  2       -1 -.506992883998D-03 0.100000000000D+01
0.651198849568D-03 0.000000000000D+00 0.133662699431D-03 0.545707487783D-05 0.000000000000D+00  7 1 -1 23 -13 13 23 21 2 0.25228054D+00 0.83792305D-01 0.84962166D+06 0.84962166D+06 0.84962166D+06 0.10526079D+01  1  2  6  2  7  2       -1 0.651110455469D-03 0.100000000000D+01
0.245207539517D-05 0.000000000000D+00 0.000000000000D+00 0.545707487783D-05 0.000000000000D+00  7 1 21 23 -13 13 23 1 2 0.25228054D+00 0.90972114D-01 0.95164432D+06 0.95164432D+06 0.95164432D+06 0.10492998D+01  1  2 12  4  7  2       -1 0.141374317993D-04 0.100000000000D+01
-.105794104095D-04 0.000000000000D+00 -.233069459030D-05 0.545707487783D-05 0.000000000000D+00  7 1 21 23 -13 13 23 1 2 0.25228054D+00 0.93337442D-01 0.84962166D+06 0.84962166D+06 0.84962166D+06 0.10526079D+01  1  2  5  4  7  2       -1 -.580738230275D-04 0.100000000000D+01
  </mgrwgt>
  </event>
  <event>
  8     66 0.56006291E-06 0.79823480E+02 0.75467711E-02 0.10759983E+00
        1 -1    0    0  501    0 0.00000000E+00 0.00000000E+00 0.13646539E+04 0.13646539E+04 0.32000000E+00 0.0000E+00 0.9000E+01
       -1 -1    0    0    0  501 0.00000000E+00 0.00000000E+00 -.42618671E+02 0.42619872E+02 0.32000000E+00 0.0000E+00 0.9000E+01
       25  2    1    2    0    0 0.48494395E+02 -.52703091E+01 0.12305823E+04 0.12676476E+04 0.30036374E+03 0.0000E+00 0.0000E+00
       23  2    1    2    0    0 -.48494395E+02 0.52703091E+01 0.91452937E+02 0.13962613E+03 0.93553909E+02 0.0000E+00 0.0000E+00
       23  1    3    3    0    0 0.30005339E+02 0.47917264E+02 0.16581303E+03 0.19749835E+03 0.91188000E+02 0.0000E+00 0.9000E+01
      -13  1    4    4    0    0 0.16046664E+02 -.26712185E+02 0.14993930E+02 0.34581286E+02 0.10565837E+00 0.0000E+00 0.9000E+01
       13  1    4    4    0    0 -.64541059E+02 0.31982494E+02 0.76459007E+02 0.10504484E+03 0.10565837E+00 0.0000E+00 0.9000E+01
       23  1    3    3    0    0 0.18489055E+02 -.53187573E+02 0.10647692E+04 0.10701493E+04 0.91188000E+02 0.0000E+00 0.9000E+01
#aMCatNLO 1  0  0  1  2 0.42721486D+02 0.00000000D+00  -5  7  0 0.00000000D+00 0.00000000D+00 0.00000000D+00 0.00000000D+00 0.00000000D+00
  <mgrwgt>
 0.1222727844D-03    7    2    0
 0.241165100568632D+03 0.000000000000000D+00 0.000000000000000D+00 0.241165100568632D+03
 0.241165100568632D+03 0.000000000000000D+00 0.000000000000000D+00 -.241165100568632D+03
 0.121749742407190D+03 0.300053493745804D+02 0.479172625161337D+02 -.575444471177402D+02
 0.597988681180218D+02 0.160467067288898D+02 -.267122167274026D+02 -.510378811164986D+02
 0.969157154762326D+02 -.645411277239752D+02 0.319825286583293D+02 -.648399305906996D+02
 0.203865875135820D+03 0.184890716205050D+02 -.531875744470604D+02 0.173422258824938D+03
 0.000000000000000D+00 -.000000000000000D+00 0.000000000000000D+00 0.000000000000000D+00
 0.525858425212343D+03 0.000000000000000D+00 0.000000000000000D+00 0.525858425212343D+03
 0.243717290730206D+03 0.000000000000000D+00 0.000000000000000D+00 -.243717290730206D+03
 0.121723062773341D+03 0.385059560096041D+02 0.413180423619374D+02 -.575444471177402D+02
 0.626065587681317D+02 0.203203683527406D+02 -.300299604051458D+02 -.510378811164986D+02
 0.910423982829161D+02 -.579787603674121D+02 0.268880090813097D+02 -.648399305906996D+02
 0.208846472450886D+03 0.328985056336812D+02 -.643739557764264D+02 0.173422258824938D+03
 0.285357223667274D+03 -.337460696286139D+02 0.261978647383251D+02 0.282141134482138D+03
0.112198338146D-05 0.000000000000D+00 0.000000000000D+00 0.402164118453D-07 0.000000000000D+00  7 1 -1 23 -13 13 23 21 0 0.20994684D+00 0.65568139D-02 0.25226564D+05 0.25226564D+05 0.25226564D+05 0.11743840D+01  1  2  2  1  7  1        1 0.125393967023D-03 0.100000000000D+01
-.491124083031D-07 0.000000000000D+00 -.430871160980D-08 0.402164118453D-07 0.000000000000D+00  7 1 -1 23 -13 13 23 21 2 0.20994684D+00 0.65568139D-02 0.25226564D+05 0.25226564D+05 0.25226564D+05 0.11743840D+01  1  2  3  1  7  1        1 -.757010179453D-05 0.100000000000D+01
0.689784320156D-07 0.000000000000D+00 0.000000000000D+00 0.402164118453D-07 0.000000000000D+00  7 1 -1 23 -13 13 23 21 2 0.20994684D+00 0.65568139D-02 0.25226564D+05 0.25226564D+05 0.25226564D+05 0.11743840D+01  1  2 15  1  7  1        1 0.106322163793D-04 0.100000000000D+01
0.120413120797D-04 0.000000000000D+00 0.000000000000D+00 0.402164118453D-07 0.000000000000D+00  7 1 -1 23 -13 13 23 21 2 0.45752321D+00 0.65568139D-02 0.33584387D+05 0.33584387D+05 0.33584387D+05 0.11628153D+01  1  2 12  1  7  1        1 0.155025123699D-03 0.100000000000D+01
-.122641230869D-04 0.000000000000D+00 -.306129914949D-06 0.402164118453D-07 0.000000000000D+00  7 1 -1 23 -13 13 23 21 2 0.45863454D+00 0.65568139D-02 0.25226564D+05 0.25226564D+05 0.25226564D+05 0.11743840D+01  1  2  5  1  7  1        1 -.161088204712D-03 0.100000000000D+01
0.101603765593D-05 0.000000000000D+00 0.000000000000D+00 0.402164118453D-07 0.000000000000D+00  7 21 -1 23 -13 13 23 -1 2 0.45752321D+00 0.65568139D-02 0.33584387D+05 0.33584387D+05 0.33584387D+05 0.11628153D+01  1  2 12  3  7  1        1 0.337314995255D-05 0.100000000000D+01
-.101897201212D-05 0.000000000000D+00 -.259154620261D-07 0.402164118453D-07 0.000000000000D+00  7 21 -1 23 -13 13 23 -1 2 0.45863454D+00 0.65568139D-02 0.25226564D+05 0.25226564D+05 0.25226564D+05 0.11743840D+01  1  2  5  3  7  1        1 -.349336610065D-05 0.100000000000D+01
  </mgrwgt>
  </event>
  <event>
  8     66 0.56006291E-06 0.42785971E+03 0.75467711E-02 0.89839296E-01
        1 -1    0    0  501    0 0.00000000E+00 0.00000000E+00 0.59851787E+03 0.59851795E+03 0.32000000E+00 0.0000E+00 0.9000E+01
       -1 -1    0    0    0  501 0.00000000E+00 0.00000000E+00 -.55685725E+03 0.55685734E+03 0.32000000E+00 0.0000E+00 0.9000E+01
       25  2    1    2    0    0 -.31084093E+03 -.23235244E+03 -.34527970E+03 0.59951949E+03 0.29932559E+03 0.0000E+00 0.0000E+00
       23  2    1    2    0    0 0.31084093E+03 0.23235244E+03 0.38694032E+03 0.55585581E+03 0.92968422E+02 0.0000E+00 0.0000E+00
       23  1    3    3    0    0 -.16994408E+03 -.26755396E+02 -.25144395E+03 0.31801911E+03 0.91188000E+02 0.0000E+00 0.9000E+01
      -11  1    4    4    0    0 0.40668604E+02 0.68412336E+02 0.50434598E+02 0.94222247E+02 0.51099893E-03 0.0000E+00 0.9000E+01
       11  1    4    4    0    0 0.27017232E+03 0.16394010E+03 0.33650572E+03 0.46163356E+03 0.51099893E-03 0.0000E+00 0.9000E+01
       23  1    3    3    0    0 -.14089684E+03 -.20559704E+03 -.93835755E+02 0.28150038E+03 0.91188000E+02 0.0000E+00 0.9000E+01
#aMCatNLO 1  0  0  2  2 0.57108918D+03 0.00000000D+00  -5  7  0 0.00000000D+00 0.00000000D+00 0.00000000D+00 0.00000000D+00 0.00000000D+00
  <mgrwgt>
 0.1818781659D-03    5    2    0
 0.577311974601599D+03 0.000000000000000D+00 0.000000000000000D+00 0.577311974601599D+03
 0.577311974601599D+03 0.000000000000000D+00 0.000000000000000D+00 -.577311974601599D+03
 0.327298539135801D+03 -.169944084997568D+03 -.267553955642026D+02 -.263082190881427D+03
 0.924638016201403D+02 0.406686036954360D+02 0.684123364560645D+02 0.470677331527073D+02
 0.449792309228258D+03 0.270172324325981D+03 0.163940100564756D+03 0.320068242779574D+03
 0.285069299218998D+03 -.140896843023849D+03 -.205597041456618D+03 -.104053785050854D+03
 0.000000000000000D+00 -.000000000000000D+00 -.000000000000000D+00 -.000000000000000D+00
 0.877672656066667D+03 0.000000000000000D+00 0.000000000000000D+00 0.877672656066667D+03
 0.993103308012215D+03 0.000000000000000D+00 0.000000000000000D+00 -.993103308012215D+03
 0.282186513080577D+03 -.376451129527335D+02 0.261645395980650D+02 -.263082190881427D+03
 0.134399168512975D+03 0.899130234470031D+02 0.881102332732316D+02 0.470677331527073D+02
 0.655990910293118D+03 0.510201153113678D+03 0.259952260449228D+03 0.320068242779574D+03
 0.215561332959220D+03 -.322265519798280D+02 -.162128640551995D+03 -.104053785050854D+03
 0.582638039232991D+03 -.530242511628120D+03 -.212098392768530D+03 -.115430651945548D+03
0.295734910888D-04 0.000000000000D+00 0.000000000000D+00 0.519825638405D-06 0.000000000000D+00  7 1 -1 23 -11 11 23 21 0 0.92079685D-01 0.85670360D-01 0.18306393D+06 0.18306393D+06 0.18306393D+06 0.11007889D+01  1  2  2  2  7  2       -1 0.175406773158D-03 0.100000000000D+01
-.146368060445D-05 0.000000000000D+00 -.113569992660D-06 0.519825638405D-06 0.000000000000D+00  7 1 -1 23 -11 11 23 21 2 0.92079685D-01 0.85670360D-01 0.18306393D+06 0.18306393D+06 0.18306393D+06 0.11007889D+01  1  2  3  2  7  2       -1 -.105195751295D-04 0.100000000000D+01
0.182860417493D-05 0.000000000000D+00 0.000000000000D+00 0.519825638405D-06 0.000000000000D+00  7 1 -1 23 -11 11 23 21 2 0.92079685D-01 0.85670360D-01 0.18306393D+06 0.18306393D+06 0.18306393D+06 0.11007889D+01  1  2 15  2  7  2       -1 0.131423064169D-04 0.100000000000D+01
0.107500705923D-05 0.000000000000D+00 -.843401850759D-05 0.519825638405D-06 0.000000000000D+00  7 1 -1 23 -11 11 23 21 2 0.92079685D-01 0.19932870D+00 0.18306393D+06 0.18306393D+06 0.18306393D+06 0.11007889D+01  1  2  5  2  7  2       -1 0.799555847952D-06 0.100000000000D+01
0.632036660087D-06 0.000000000000D+00 -.776120797870D-06 0.519825638405D-06 0.000000000000D+00  7 1 21 23 -11 11 23 1 2 0.92079685D-01 0.19932870D+00 0.18306393D+06 0.18306393D+06 0.18306393D+06 0.11007889D+01  1  2  5  4  7  2       -1 0.304910561888D-05 0.100000000000D+01
  </mgrwgt>
  </event>
  <event>
  8     66 0.56006291E-06 0.31352724E+03 0.75467711E-02 0.92227251E-01
        1 -1    0    0  501    0 0.00000000E+00 0.00000000E+00 0.17792066E+04 0.17792066E+04 0.32000000E+00 0.0000E+00 0.9000E+01
       -1 -1    0    0    0  501 0.00000000E+00 0.00000000E+00 -.12903845E+03 0.12903884E+03 0.32000000E+00 0.0000E+00 0.9000E+01
       25  2    1    2    0    0 -.50103409E+01 -.41108167E+03 0.71212789E+03 0.87984615E+03 0.31303334E+03 0.0000E+00 0.0000E+00
       23  2    1    2    0    0 0.50103409E+01 0.41108167E+03 0.93804028E+03 0.10283993E+04 0.93125669E+02 0.0000E+00 0.0000E+00
       23  1    3    3    0    0 -.65988567E+02 -.26683464E+02 0.13476653E+03 0.17760565E+03 0.91188000E+02 0.0000E+00 0.9000E+01
      -13  1    4    4    0    0 0.14762166E+02 0.75203240E+02 0.26919626E+03 0.27989300E+03 0.10565837E+00 0.0000E+00 0.9000E+01
       13  1    4    4    0    0 -.97518249E+01 0.33587843E+03 0.66884402E+03 0.74850635E+03 0.10565837E+00 0.0000E+00 0.9000E+01
       23  1    3    3    0    0 0.60978226E+02 -.38439821E+03 0.57736136E+03 0.70224050E+03 0.91188000E+02 0.0000E+00 0.9000E+01
#aMCatNLO 1  0  0  1  2 0.27304943D+03 0.00000000D+00  -5  7  0 0.00000000D+00 0.00000000D+00 0.00000000D+00 0.00000000D+00 0.00000000D+00
  <mgrwgt>
 0.2821157037D-03    9    2    0
 0.479151817516235D+03 0.000000000000000D+00 0.000000000000000D+00 0.479151817516235D+03
 0.479151817516235D+03 0.000000000000000D+00 0.000000000000000D+00 -.479151817516235D+03
 0.121597935068437D+03 -.659885665632913D+02 -.266834643184290D+02 -.374741015075354D+02
 0.937960923736594D+02 0.147621971711275D+02 0.752029045904353D+02 0.540768677015476D+02
 0.338753856933463D+03 -.975185625471353D+01 0.335878767930926D+03 0.429479934349365D+02
 0.404155750656911D+03 0.609782256468773D+02 -.384398208202933D+03 -.595507596289488D+02
 0.000000000000000D+00 0.000000000000000D+00 -.000000000000000D+00 0.000000000000000D+00
 0.699777545525919D+03 0.000000000000000D+00 0.000000000000000D+00 0.699777545525919D+03
 0.590698174202978D+03 0.000000000000000D+00 0.000000000000000D+00 -.590698174202978D+03
 0.131427593996431D+03 -.868927832973839D+02 0.181577716900123D+01 -.374741015075354D+02
 0.112319377848857D+03 -.226645000809159D+01 0.984184851758266D+02 0.540768677015476D+02
 0.431048184325701D+03 -.733506115751813D+02 0.422584541662308D+03 0.429479934349365D+02
 0.321649446218869D+03 0.101435876634466D+01 -.302647968790167D+03 -.595507596289488D+02
 0.294031117339039D+03 0.161495486114312D+03 -.220170835216969D+03 0.109079371322940D+03
0.214210970985D-04 0.000000000000D+00 0.000000000000D+00 0.125558951437D-08 0.000000000000D+00  7 1 -1 23 -13 13 23 21 0 0.27372413D+00 0.19852101D-01 0.21533420D+06 0.21533420D+06 0.21533420D+06 0.10953698D+01  1  2  2  1  7  1        1 0.221353561776D-03 0.100000000000D+01
-.118857518261D-05 0.000000000000D+00 -.822626531627D-07 0.125558951437D-08 0.000000000000D+00  7 1 -1 23 -13 13 23 21 2 0.27372413D+00 0.19852101D-01 0.21533420D+06 0.21533420D+06 0.21533420D+06 0.10953698D+01  1  2  3  1  7  1        1 -.147364536922D-04 0.100000000000D+01
0.137814778289D-05 0.000000000000D+00 0.000000000000D+00 0.125558951437D-08 0.000000000000D+00  7 1 -1 23 -13 13 23 21 2 0.27372413D+00 0.19852101D-01 0.21533420D+06 0.21533420D+06 0.21533420D+06 0.10953698D+01  1  2 15  1  7  1        1 0.170868543116D-04 0.100000000000D+01
0.417859883541D-05 0.000000000000D+00 0.000000000000D+00 0.125558951437D-08 0.000000000000D+00  7 1 -1 23 -13 13 23 21 2 0.41978894D+00 0.19852101D-01 0.38592536D+06 0.38592536D+06 0.38592536D+06 0.10765509D+01  1  2 12  1  7  1        1 0.110137879700D-04 0.100000000000D+01
-.940095154920D-05 0.000000000000D+00 0.000000000000D+00 0.125558951437D-08 0.000000000000D+00  7 1 -1 23 -13 13 23 21 2 0.27372413D+00 0.19852101D-01 0.21533420D+06 0.21533420D+06 0.21533420D+06 0.10953698D+01  1  2  4  1  7  1        1 -.116556940776D-03 0.100000000000D+01
-.140518266006D-04 0.000000000000D+00 -.664758178021D-05 0.125558951437D-08 0.000000000000D+00  7 1 -1 23 -13 13 23 21 2 0.43243998D+00 0.19852101D-01 0.21533420D+06 0.21533420D+06 0.21533420D+06 0.10953698D+01  1  2  5  1  7  1        1 -.345863938954D-04 0.100000000000D+01
0.160259599412D-04 0.000000000000D+00 0.600825880147D-05 0.125558951437D-08 0.000000000000D+00  7 1 -1 23 -13 13 23 21 2 0.27372413D+00 0.19852101D-01 0.21533420D+06 0.21533420D+06 0.21533420D+06 0.10953698D+01  1  2  6  1  7  1        1 0.198696573850D-03 0.100000000000D+01
0.208974128682D-06 0.000000000000D+00 0.000000000000D+00 0.125558951437D-08 0.000000000000D+00  7 21 -1 23 -13 13 23 -1 2 0.41978894D+00 0.19852101D-01 0.38592536D+06 0.38592536D+06 0.38592536D+06 0.10765509D+01  1  2 12  3  7  1        1 0.152938388947D-06 0.100000000000D+01
-.469350336459D-06 0.000000000000D+00 -.349709383497D-06 0.125558951437D-08 0.000000000000D+00  7 21 -1 23 -13 13 23 -1 2 0.43243998D+00 0.19852101D-01 0.21533420D+06 0.21533420D+06 0.21533420D+06 0.10953698D+01  1  2  5  3  7  1        1 -.308224198219D-06 0.100000000000D+01
  </mgrwgt>
  </event>
  <event>
  8     66 0.56006291E-06 0.53484257E+03 0.75467711E-02 0.91876098E-01
        1 -1    0    0  501    0 0.00000000E+00 0.00000000E+00 0.65616552E+03 0.65616560E+03 0.32000000E+00 0.0000E+00 0.9000E+01
       -1 -1    0    0    0  501 0.00000000E+00 0.00000000E+00 -.46031928E+03 0.46031939E+03 0.32000000E+00 0.0000E+00 0.9000E+01
       25  2    1    2    0    0 0.14759901E+03 -.47174203E+03 -.70553968E+01 0.57467247E+03 0.29304036E+03 0.0000E+00 0.0000E+00
       23  2    1    2    0    0 -.14759901E+03 0.47174203E+03 0.20290164E+03 0.54181252E+03 0.89809358E+02 0.0000E+00 0.0000E+00
       23  1    3    3    0    0 0.11038931E+03 -.45152849E+03 0.23550596E+01 0.47369249E+03 0.91188000E+02 0.0000E+00 0.9000E+01
      -13  1    4    4    0    0 -.12054421E+03 0.42145316E+03 0.14817965E+03 0.46272118E+03 0.10565837E+00 0.0000E+00 0.9000E+01
       13  1    4    4    0    0 -.27054797E+02 0.50288873E+02 0.54721988E+02 0.79091339E+02 0.10565837E+00 0.0000E+00 0.9000E+01
       23  1    3    3    0    0 0.37209695E+02 -.20213548E+02 -.94104564E+01 0.10097998E+03 0.91188000E+02 0.0000E+00 0.9000E+01
#aMCatNLO 1  0  0  2  2 0.19535050D+03 0.00000000D+00  -5  7  0 0.00000000D+00 0.00000000D+00 0.00000000D+00 0.00000000D+00 0.00000000D+00
  <mgrwgt>
 0.3441913297D-03    4    2    0
 0.549586887954465D+03 0.000000000000000D+00 0.000000000000000D+00 0.549586887954465D+03
 0.549586887954465D+03 0.000000000000000D+00 0.000000000000000D+00 -.549586887954465D+03
 0.480733197271184D+03 0.110389312980843D+03 -.451528486507580D+03 -.820084207040134D+02
 0.443607197516562D+03 -.120544340779788D+03 0.421453675382641D+03 0.680676656051013D+02
 0.705863178832801D+02 -.270546671028090D+02 0.502883592425963D+02 0.414916158393865D+02
 0.104247063237904D+03 0.372096949017536D+02 -.202135481176574D+02 -.275508607404744D+02
 0.000000000000000D+00 0.000000000000000D+00 -.000000000000000D+00 0.000000000000000D+00
 0.683110144455668D+03 0.000000000000000D+00 0.000000000000000D+00 0.683110144455668D+03
 0.634577040579511D+03 0.000000000000000D+00 0.000000000000000D+00 -.634577040579511D+03
 0.408178876175083D+03 0.736699497476636D+02 -.382285365989026D+03 -.820084207040134D+02
 0.526769584729180D+03 -.160628865002958D+03 0.497042609866283D+03 0.680676656051013D+02
 0.818410549924496D+02 -.333511684537287D+02 0.621619148682290D+02 0.414916158393865D+02
 0.996086241525235D+02 0.287887821297874D+02 -.433390787872749D+01 -.275508607404744D+02
 0.201289044985943D+03 0.915213015792358D+02 -.172585250866758D+03 0.485331038761566D+02
0.708425401472D-04 0.000000000000D+00 0.000000000000D+00 0.593456379979D-08 0.000000000000D+00  7 1 -1 23 -13 13 23 21 0 0.10094856D+00 0.70818365D-01 0.28605657D+06 0.28605657D+06 0.28605657D+06 0.10860844D+01  1  2  2  2  7  2       -1 0.531111832866D-03 0.100000000000D+01
-.393215781302D-05 0.000000000000D+00 -.272054007434D-06 0.593456379979D-08 0.000000000000D+00  7 1 -1 23 -13 13 23 21 2 0.10094856D+00 0.70818365D-01 0.28605657D+06 0.28605657D+06 0.28605657D+06 0.10860844D+01  1  2  3  2  7  2       -1 -.347736227130D-04 0.100000000000D+01
0.438269439360D-05 0.000000000000D+00 0.000000000000D+00 0.593456379979D-08 0.000000000000D+00  7 1 -1 23 -13 13 23 21 2 0.10094856D+00 0.70818365D-01 0.28605657D+06 0.28605657D+06 0.28605657D+06 0.10860844D+01  1  2 15  2  7  2       -1 0.387578954244D-04 0.100000000000D+01
-.215872735515D-04 0.000000000000D+00 0.000000000000D+00 0.593456379979D-08 0.000000000000D+00  7 1 -1 23 -13 13 23 21 2 0.10094856D+00 0.70818365D-01 0.28605657D+06 0.28605657D+06 0.28605657D+06 0.10860844D+01  1  2  4  2  7  2       -1 -.190904775845D-03 0.100000000000D+01
  </mgrwgt>
  </event>
  <event>
  8     66 0.56006291E-06 0.24261962E+03 0.75467711E-02 0.88715893E-01
        1 -1    0    0  501    0 0.00000000E+00 0.00000000E+00 0.16078312E+04 0.16078313E+04 0.32000000E+00 0.0000E+00 0.9000E+01
       -1 -1    0    0    0  501 0.00000000E+00 0.00000000E+00 -.74973826E+02 0.74974508E+02 0.32000000E+00 0.0000E+00 0.9000E+01
       25  2    1    2    0    0 0.12725828E+03 -.11262049E+03 0.14209920E+04 0.14609833E+04 0.29389770E+03 0.0000E+00 0.0000E+00
       23  2    1    2    0    0 -.12725828E+03 0.11262049E+03 0.11186536E+03 0.22182244E+03 0.88392819E+02 0.0000E+00 0.0000E+00
       23  1    3    3    0    0 -.22222719E+02 -.94576350E+02 0.92781360E+03 0.93733231E+03 0.91188000E+02 0.0000E+00 0.9000E+01
      -11  1    4    4    0    0 -.33565937E+02 0.59369549E+02 0.88189395E+02 0.11148446E+03 0.51099893E-03 0.0000E+00 0.9000E+01
       11  1    4    4    0    0 -.93692344E+02 0.53250943E+02 0.23675965E+02 0.11033798E+03 0.51099893E-03 0.0000E+00 0.9000E+01
       23  1    3    3    0    0 0.14948100E+03 -.18044142E+02 0.49317845E+03 0.52365102E+03 0.91188000E+02 0.0000E+00 0.9000E+01
#aMCatNLO 1  0  0  2  2 0.83459356D+03 0.00000000D+00  -5  7  0 0.00000000D+00 0.00000000D+00 0.00000000D+00 0.00000000D+00 0.00000000D+00
  <mgrwgt>
 0.4549779190D-03    3    2    0
 0.347197147945211D+03 0.000000000000000D+00 0.000000000000000D+00 0.347197147945211D+03
 0.347197147945211D+03 0.000000000000000D+00 0.000000000000000D+00 -.347197147945211D+03
 0.223421011697750D+03 -.222227192864988D+02 -.945763500459626D+02 0.179340909676357D+03
 0.754973448556323D+02 -.335659369997579D+02 0.593695487932841D+02 -.323795248522953D+02
 0.215130669393195D+03 -.936923443430645D+02 0.532509428411530D+02 -.186191532061995D+03
 0.180345269943844D+03 0.149481000629321D+03 -.180441415884745D+02 0.392301472379341D+02
 0.000000000000000D+00 -.000000000000000D+00 0.000000000000000D+00 0.000000000000000D+00
 0.109572439998989D+04 0.000000000000000D+00 0.000000000000000D+00 0.109572439998989D+04
 0.857810648798035D+03 0.000000000000000D+00 0.000000000000000D+00 -.857810648798035D+03
 0.379109695998565D+03 0.227199675692614D+03 -.227213678588574D+03 0.179340909676357D+03
 0.489181018420596D+02 0.179368300648133D+02 0.319815131817698D+02 -.323795248522953D+02
 0.206883894765001D+03 0.810039523998008D+02 -.396486947723874D+02 -.186191532061995D+03
 0.450781567577677D+03 0.410740991762507D+03 -.156976442683065D+03 0.392301472379341D+02
 0.867841788604626D+03 -.736881449919736D+03 0.391857302862257D+03 0.237913751191857D+03
0.136533012660D-04 0.000000000000D+00 0.000000000000D+00 0.103260897649D-08 0.000000000000D+00  7 1 -1 23 -11 11 23 21 0 0.24735871D+00 0.11534490D-01 0.58864282D+05 0.58864282D+05 0.58864282D+05 0.11411124D+01  1  2  2  2  7  2       -1 0.446395787714D-03 0.100000000000D+01
-.640055152724D-06 0.000000000000D+00 -.524322718583D-07 0.103260897649D-08 0.000000000000D+00  7 1 -1 23 -11 11 23 21 2 0.24735871D+00 0.11534490D-01 0.58864282D+05 0.58864282D+05 0.58864282D+05 0.11411124D+01  1  2  3  2  7  2       -1 -.272493803644D-04 0.100000000000D+01
0.841639087836D-06 0.000000000000D+00 0.000000000000D+00 0.103260897649D-08 0.000000000000D+00  7 1 -1 23 -11 11 23 21 2 0.24735871D+00 0.11534490D-01 0.58864282D+05 0.58864282D+05 0.58864282D+05 0.11411124D+01  1  2 15  2  7  2       -1 0.358315116070D-04 0.100000000000D+01
  </mgrwgt>
  </event>
  <event>
  8     66 0.56006291E-06 0.92751226E+02 0.75467711E-02 0.10095988E+00
        3 -1    0    0  501    0 0.00000000E+00 0.00000000E+00 0.74165860E+02 0.74167545E+02 0.50000000E+00 0.0000E+00 0.9000E+01
       -3 -1    0    0    0  501 0.00000000E+00 0.00000000E+00 -.67622582E+03 0.67622601E+03 0.50000000E+00 0.0000E+00 0.9000E+01
       25  2    1    2    0    0 -.34310668E+02 -.64168985E+02 -.52732027E+03 0.61157105E+03 0.30109400E+03 0.0000E+00 0.0000E+00
       23  2    1    2    0    0 0.34310668E+02 0.64168985E+02 -.74739692E+02 0.13882251E+03 0.91601235E+02 0.0000E+00 0.0000E+00
       23  1    3    3    0    0 0.66837338E+02 -.10711262E+03 -.35578246E+03 0.38837708E+03 0.91188000E+02 0.0000E+00 0.9000E+01
      -11  1    4    4    0    0 0.13271375E+01 -.20500205E+02 -.32897235E+02 0.38784633E+02 0.51099893E-03 0.0000E+00 0.9000E+01
       11  1    4    4    0    0 0.32983530E+02 0.84669190E+02 -.41842458E+02 0.10003787E+03 0.51099893E-03 0.0000E+00 0.9000E+01
       23  1    3    3    0    0 -.10114801E+03 0.42943640E+02 -.17153781E+03 0.22319397E+03 0.91188000E+02 0.0000E+00 0.9000E+01
#aMCatNLO 1  0  0  2  1 0.15200993D+03 0.00000000D+00  -5  7  0 0.00000000D+00 0.00000000D+00 0.00000000D+00 0.00000000D+00 0.00000000D+00
  <mgrwgt>
 0.6963987628D-04    8    2    0
 0.223949930274125D+03 0.000000000000000D+00 0.000000000000000D+00 0.223949930274125D+03
 0.223949930274125D+03 0.000000000000000D+00 0.000000000000000D+00 -.223949930274125D+03
 0.172434258886314D+03 0.668373380151180D+02 -.107112624985759D+03 -.740133643971504D+02
 0.207582796065961D+02 0.132713750184712D+01 -.205002049414274D+02 -.298101922776252D+01
 0.111355488548150D+03 0.329835303176309D+02 0.846691905845720D+02 0.643681576817018D+02
 0.143351833507190D+03 -.101148005834596D+03 0.429436393426146D+02 0.126262259432111D+02
 0.000000000000000D+00 -.000000000000000D+00 0.000000000000000D+00 -.000000000000000D+00
 0.283956030683128D+03 0.000000000000000D+00 0.000000000000000D+00 0.283956030683128D+03
 0.358214064632514D+03 0.000000000000000D+00 0.000000000000000D+00 -.358214064632514D+03
 0.208407846343353D+03 0.129366667209146D+03 -.113599587936258D+03 -.740133643971504D+02
 0.230871235456644D+02 0.852598345324008D+01 -.212470328312345D+02 -.298101922776252D+01
 0.125762933308856D+03 0.719152966708384D+02 0.806303030867219D+02 0.643681576817018D+02
 0.115733960813033D+03 -.586094821259959D+02 0.385305770113312D+02 0.126262259432111D+02
 0.169178231304735D+03 -.151198465207228D+03 0.156857406694391D+02 -.742580339493861D+02
0.237686489879D-05 0.000000000000D+00 0.000000000000D+00 0.494809069197D-07 0.000000000000D+00  7 3 -3 23 -11 11 23 21 0 0.11410276D-01 0.10403489D+00 0.42014085D+05 0.42014085D+05 0.42014085D+05 0.11540029D+01  1  2  2  2  7  2       -3 0.420741037702D-04 0.100000000000D+01
-.130789367728D-06 0.000000000000D+00 -.912778705424D-08 0.494809069197D-07 0.000000000000D+00  7 3 -3 23 -11 11 23 21 2 0.11410276D-01 0.10403489D+00 0.42014085D+05 0.42014085D+05 0.42014085D+05 0.11540029D+01  1  2  3  2  7  2       -3 -.308316375299D-05 0.100000000000D+01
0.154555468083D-06 0.000000000000D+00 0.000000000000D+00 0.494809069197D-07 0.000000000000D+00  7 3 -3 23 -11 11 23 21 2 0.11410276D-01 0.10403489D+00 0.42014085D+05 0.42014085D+05 0.42014085D+05 0.11540029D+01  1  2 15  2  7  2       -3 0.364341402745D-05 0.100000000000D+01
0.149431465770D-06 0.000000000000D+00 0.000000000000D+00 0.494809069197D-07 0.000000000000D+00  7 3 -3 23 -11 11 23 21 2 0.11410276D-01 0.17358559D+00 0.87856362D+05 0.87856362D+05 0.87856362D+05 0.11263655D+01  1  2 12  2  7  2       -3 0.706534965422D-06 0.100000000000D+01
-.988883503824D-06 0.000000000000D+00 -.711141041428D-06 0.494809069197D-07 0.000000000000D+00  7 3 -3 23 -11 11 23 21 2 0.11410276D-01 0.19412466D+00 0.42014085D+05 0.42014085D+05 0.42014085D+05 0.11540029D+01  1  2  5  2  7  2       -3 -.315177665082D-05 0.100000000000D+01
0.129187487802D-05 0.000000000000D+00 0.592154845391D-06 0.494809069197D-07 0.000000000000D+00  7 3 -3 23 -11 11 23 21 2 0.11410276D-01 0.10403489D+00 0.42014085D+05 0.42014085D+05 0.42014085D+05 0.11540029D+01  1  2  6  2  7  2       -3 0.304540182929D-04 0.100000000000D+01
0.858537401064D-08 0.000000000000D+00 0.000000000000D+00 0.494809069197D-07 0.000000000000D+00  7 3 21 23 -11 11 23 3 2 0.11410276D-01 0.17358559D+00 0.87856362D+05 0.87856362D+05 0.87856362D+05 0.11263655D+01  1  2 12  4  7  2       -3 0.703878362952D-06 0.100000000000D+01
-.274534449402D-07 0.000000000000D+00 -.483212800763D-07 0.494809069197D-07 0.000000000000D+00  7 3 21 23 -11 11 23 3 2 0.11410276D-01 0.19412466D+00 0.42014085D+05 0.42014085D+05 0.42014085D+05 0.11540029D+01  1  2  5  4  7  2       -3 -.170713273522D-05 0.100000000000D+01
  </mgrwgt>
  </event>
  <event>
  8     66 0.56006291E-06 0.16367902E+03 0.75467711E-02 0.99954706E-01
        1 -1    0    0  501    0 0.00000000E+00 0.00000000E+00 0.21529956E+04 0.21529956E+04 0.32000000E+00 0.0000E+00 0.9000E+01
       -1 -1    0    0    0  501 0.00000000E+00 0.00000000E+00 -.44947851E+02 0.44948990E+02 0.32000000E+00 0.0000E+00 0.9000E+01
       25  2    1    2    0    0 0.66823670E+02 -.21684445E+03 0.13559519E+04 0.14071400E+04 0.29991747E+03 0.0000E+00 0.0000E+00
       23  2    1    2    0    0 -.66823670E+02 0.21684445E+03 0.75209585E+03 0.79080462E+03 0.90757168E+02 0.0000E+00 0.0000E+00
       23  1    3    3    0    0 0.89275315E+02 -.38679928E+02 0.25339783E+03 0.28634233E+03 0.91188000E+02 0.0000E+00 0.9000E+01
      -13  1    4    4    0    0 0.12503003E+02 0.61448670E+02 0.12439019E+03 0.13930253E+03 0.10565837E+00 0.0000E+00 0.9000E+01
       13  1    4    4    0    0 -.79326673E+02 0.15539578E+03 0.62770566E+03 0.65150209E+03 0.10565837E+00 0.0000E+00 0.9000E+01
       23  1    3    3    0    0 -.22451646E+02 -.17816452E+03 0.11025540E+04 0.11207976E+04 0.91188000E+02 0.0000E+00 0.9000E+01
#aMCatNLO 1  0  0  1  2 0.63895661D+02 0.00000000D+00  -5  7  0 0.00000000D+00 0.00000000D+00 0.00000000D+00 0.00000000D+00 0.00000000D+00
  <mgrwgt>
 0.2431796990D-03    9    2    0
 0.311084880539681D+03 0.000000000000000D+00 0.000000000000000D+00 0.311084880539681D+03
 0.311084880539681D+03 0.000000000000000D+00 0.000000000000000D+00 -.311084880539681D+03
 0.152996600084230D+03 0.892753152333596D+02 -.386799280281863D+02 -.750099296830249D+02
 0.706538602551729D+02 0.125031274401891D+02 0.614485422893148D+02 -.325532859123343D+02
 0.174762749119220D+03 -.793267971312294D+02 0.155395906101401D+03 0.100692652926047D+02
 0.223756551620738D+03 -.224516455423193D+02 -.178164520362530D+03 0.974939503027545D+02
 0.000000000000000D+00 -.000000000000000D+00 0.000000000000000D+00 0.000000000000000D+00
 0.384422860005826D+03 0.000000000000000D+00 0.000000000000000D+00 0.384422860005826D+03
 0.326955913688846D+03 0.000000000000000D+00 0.000000000000000D+00 -.326955913688846D+03
 0.163713431292254D+03 0.103226103650147D+03 -.469544270079012D+02 -.750099296830249D+02
 0.689105674976356D+02 0.186508133648416D+02 0.578022235730240D+02 -.325532859123343D+02
 0.160533778986965D+03 -.645572904624230D+02 0.146635808520474D+03 0.100692652926047D+02
 0.232284359556173D+03 -.236345877546180D+01 -.190079236286876D+03 0.974939503027545D+02
 0.859366363616453D+02 -.549561677771040D+02 0.325956312012791D+02 0.574669463169799D+02
0.460032230679D-05 0.000000000000D+00 0.000000000000D+00 0.427280753601D-06 0.000000000000D+00  7 1 -1 23 -13 13 23 21 0 0.33123018D+00 0.69151435D-02 0.81775176D+05 0.81775176D+05 0.81775176D+05 0.11289638D+01  1  2  2  1  7  1        1 0.143350228628D-03 0.100000000000D+01
-.253370358355D-06 0.000000000000D+00 -.176664489508D-07 0.427280753601D-06 0.000000000000D+00  7 1 -1 23 -13 13 23 21 2 0.33123018D+00 0.69151435D-02 0.81775176D+05 0.81775176D+05 0.81775176D+05 0.11289638D+01  1  2  3  1  7  1        1 -.100629646657D-04 0.100000000000D+01
0.295340551147D-06 0.000000000000D+00 0.000000000000D+00 0.427280753601D-06 0.000000000000D+00  7 1 -1 23 -13 13 23 21 2 0.33123018D+00 0.69151435D-02 0.81775176D+05 0.81775176D+05 0.81775176D+05 0.11289638D+01  1  2 15  1  7  1        1 0.117298706519D-04 0.100000000000D+01
0.610921245263D-05 0.000000000000D+00 0.000000000000D+00 0.427280753601D-06 0.000000000000D+00  7 1 -1 23 -13 13 23 21 2 0.41633470D+00 0.69151435D-02 0.10278513D+06 0.10278513D+06 0.10278513D+06 0.11207443D+01  1  2 12  1  7  1        1 0.100018064587D-03 0.100000000000D+01
-.628141664469D-05 0.000000000000D+00 0.000000000000D+00 0.427280753601D-06 0.000000000000D+00  7 1 -1 23 -13 13 23 21 2 0.33123018D+00 0.69151435D-02 0.81775176D+05 0.81775176D+05 0.81775176D+05 0.11289638D+01  1  2  4  1  7  1        1 -.249475408869D-03 0.100000000000D+01
-.103735208120D-04 0.000000000000D+00 -.220057562902D-05 0.427280753601D-06 0.000000000000D+00  7 1 -1 23 -13 13 23 21 2 0.41575593D+00 0.69151435D-02 0.81775176D+05 0.81775176D+05 0.81775176D+05 0.11289638D+01  1  2  5  1  7  1        1 -.174900672097D-03 0.100000000000D+01
0.106529747844D-04 0.000000000000D+00 0.214493476527D-05 0.427280753601D-06 0.000000000000D+00  7 1 -1 23 -13 13 23 21 2 0.33123018D+00 0.69151435D-02 0.81775176D+05 0.81775176D+05 0.81775176D+05 0.11289638D+01  1  2  6  1  7  1        1 0.423098066940D-03 0.100000000000D+01
0.193503897780D-06 0.000000000000D+00 0.000000000000D+00 0.427280753601D-06 0.000000000000D+00  7 21 -1 23 -13 13 23 -1 2 0.41633470D+00 0.69151435D-02 0.10278513D+06 0.10278513D+06 0.10278513D+06 0.11207443D+01  1  2 12  3  7  1        1 0.962782549519D-06 0.100000000000D+01
-.295581828900D-06 0.000000000000D+00 -.693834975810D-07 0.427280753601D-06 0.000000000000D+00  7 21 -1 23 -13 13 23 -1 2 0.41575593D+00 0.69151435D-02 0.81775176D+05 0.81775176D+05 0.81775176D+05 0.11289638D+01  1  2  5  3  7  1        1 -.154026876356D-05 0.100000000000D+01
  </mgrwgt>
  </event>
  <event>
  8     66 0.56006291E-06 0.18408662E+03 0.75467711E-02 0.10084284E+00
        1 -1    0    0  501    0 0.00000000E+00 0.00000000E+00 0.31983606E+03 0.31983622E+03 0.32000000E+00 0.0000E+00 0.9000E+01
       -1 -1    0    0    0  501 0.00000000E+00 0.00000000E+00 -.48029224E+03 0.48029235E+03 0.32000000E+00 0.0000E+00 0.9000E+01
       25  2    1    2    0    0 -.12238164E+02 0.66863509E+02 0.23661165E+03 0.38713243E+03 0.29877407E+03 0.0000E+00 0.0000E+00
       23  2    1    2    0    0 0.12238164E+02 -.66863509E+02 -.39706783E+03 0.41299614E+03 0.91007937E+02 0.0000E+00 0.0000E+00
       23  1    3    3    0    0 -.58245887E+02 0.11273559E+03 0.22586984E+03 0.27465311E+03 0.91188000E+02 0.0000E+00 0.9000E+01
      -11  1    4    4    0    0 -.27608604E+02 -.49081585E+02 -.31554165E+03 0.32052733E+03 0.51099893E-03 0.0000E+00 0.9000E+01
       11  1    4    4    0    0 0.39846768E+02 -.17781925E+02 -.81526180E+02 0.92468804E+02 0.51099893E-03 0.0000E+00 0.9000E+01
       23  1    3    3    0    0 0.46007723E+02 -.45872078E+02 0.10741804E+02 0.11247931E+03 0.91188000E+02 0.0000E+00 0.9000E+01
#aMCatNLO 1  0  0  1  2 0.19006143D+03 0.00000000D+00  -5  7  0 0.00000000D+00 0.00000000D+00 0.00000000D+00 0.00000000D+00 0.00000000D+00
  <mgrwgt>
 0.2586758190D-03    6    2    0
 0.391937346112452D+03 0.000000000000000D+00 0.000000000000000D+00 0.391937346112452D+03
 0.391937346112452D+03 0.000000000000000D+00 0.000000000000000D+00 -.391937346112452D+03
 0.326582830704742D+03 -.582458870849273D+02 0.112735587342024D+03 0.286773774866987D+03
 0.262583379389377D+03 -.276086035255111D+02 -.490815847135726D+02 -.256473768999719D+03
 0.776980710461047D+02 0.398467677206658D+02 -.177819247331999D+02 -.642886342931910D+02
 0.117010411084679D+03 0.460077228897726D+02 -.458720778952517D+02 0.339886284259229D+02
 0.000000000000000D+00 0.000000000000000D+00 -.000000000000000D+00 0.000000000000000D+00
 0.735468085665191D+03 0.000000000000000D+00 0.000000000000000D+00 0.735468085665191D+03
 0.430480614931090D+03 0.000000000000000D+00 0.000000000000000D+00 -.430480614931090D+03
 0.365923659876846D+03 -.775897840211742D+02 0.193198087407076D+03 0.286773774866987D+03
 0.260185535314458D+03 -.422111930247257D+02 0.116590645156326D+02 -.256473768999719D+03
 0.734989655174305D+02 0.356233561972667D+02 -.214303736446595D+00 -.642886342931910D+02
 0.106979019012874D+03 0.397509895456895D+02 -.198466907271703D+02 0.339886284259229D+02
 0.359361520874672D+03 0.444266313029437D+02 -.184796157459091D+03 0.304987470734101D+03
0.743725305959D-05 0.000000000000D+00 0.000000000000D+00 0.304665304870D-06 0.000000000000D+00  7 1 -1 23 -11 11 23 21 0 0.49205568D-01 0.73891135D-01 0.33887882D+05 0.33887882D+05 0.33887882D+05 0.11624572D+01  1  2  2  1  7  1        1 0.145926504447D-03 0.100000000000D+01
-.126290766504D-06 0.000000000000D+00 -.285610100225D-07 0.304665304870D-06 0.000000000000D+00  7 1 -1 23 -11 11 23 21 2 0.49205568D-01 0.73891135D-01 0.33887882D+05 0.33887882D+05 0.33887882D+05 0.11624572D+01  1  2  3  1  7  1        1 -.334847600719D-05 0.100000000000D+01
0.448788638585D-06 0.000000000000D+00 0.000000000000D+00 0.304665304870D-06 0.000000000000D+00  7 1 -1 23 -11 11 23 21 2 0.49205568D-01 0.73891135D-01 0.33887882D+05 0.33887882D+05 0.33887882D+05 0.11624572D+01  1  2 15  1  7  1        1 0.118991912885D-04 0.100000000000D+01
-.598609045689D-05 0.000000000000D+00 -.251138955570D-05 0.304665304870D-06 0.000000000000D+00  7 1 -1 23 -11 11 23 21 2 0.97870138D-01 0.73891135D-01 0.33887882D+05 0.33887882D+05 0.33887882D+05 0.11624572D+01  1  2  5  1  7  1        1 -.628876903713D-04 0.100000000000D+01
0.658861216831D-05 0.000000000000D+00 0.201574812091D-05 0.304665304870D-06 0.000000000000D+00  7 1 -1 23 -11 11 23 21 2 0.49205568D-01 0.73891135D-01 0.33887882D+05 0.33887882D+05 0.33887882D+05 0.11624572D+01  1  2  6  1  7  1        1 0.174690599930D-03 0.100000000000D+01
-.295494984037D-06 0.000000000000D+00 -.186904369909D-06 0.304665304870D-06 0.000000000000D+00  7 21 -1 23 -11 11 23 -1 2 0.97870138D-01 0.73891135D-01 0.33887882D+05 0.33887882D+05 0.33887882D+05 0.11624572D+01  1  2  5  3  7  1        1 -.760431026207D-05 0.100000000000D+01
  </mgrwgt>
  </event>
  <event>
  8     66 0.56006291E-06 0.21399412E+03 0.75467711E-02 0.97307188E-01
        1 -1    0    0  501    0 0.00000000E+00 0.00000000E+00 0.49282593E+03 0.49282603E+03 0.32000000E+00 0.0000E+00 0.9000E+01
       -1 -1    0    0    0  501 0.00000000E+00 0.00000000E+00 -.19745532E+03 0.19745558E+03 0.32000000E+00 0.0000E+00 0.9000E+01
       25  2    1    2    0    0 0.11878388E+03 -.72830897E+02 0.36592071E+03 0.49342933E+03 0.30026752E+03 0.0000E+00 0.0000E+00
       23  2    1    2    0    0 -.11878388E+03 0.72830897E+02 -.70550110E+02 0.19685229E+03 0.11983135E+03 0.0000E+00 0.0000E+00
       23  1    3    3    0    0 -.81150735E+00 -.60360426E+02 0.13665141E+02 0.11020901E+03 0.91188000E+02 0.0000E+00 0.9000E+01
      -11  1    4    4    0    0 -.11904706E+03 0.27234511E+02 -.85261016E+02 0.14894080E+03 0.51099893E-03 0.0000E+00 0.9000E+01
       11  1    4    4    0    0 0.26317500E+00 0.45596386E+02 0.14710906E+02 0.47911486E+02 0.51099893E-03 0.0000E+00 0.9000E+01
       23  1    3    3    0    0 0.11959539E+03 -.12470472E+02 0.35225557E+03 0.38322031E+03 0.91188000E+02 0.0000E+00 0.9000E+01
#aMCatNLO 1  0  0  2  1 0.30532289D+03 0.00000000D+00  -5  7  0 0.00000000D+00 0.00000000D+00 0.00000000D+00 0.00000000D+00 0.00000000D+00
  <mgrwgt>
 0.1602769363D-03    5    2    0
 0.311947476836498D+03 0.000000000000000D+00 0.000000000000000D+00 0.311947476836498D+03
 0.311947476836498D+03 0.000000000000000D+00 0.000000000000000D+00 -.311947476836498D+03
 0.115466514130488D+03 -.811507132106613D+00 -.603604257338077D+02 -.370570506496968D+02
 0.205154236737041D+03 -.119047059137784D+03 0.272345123164899D+02 -.164846413065876D+03
 0.460450076959883D+02 0.263174155195493D+00 0.455963853139643D+02 -.640649041114986D+01
 0.257229195109479D+03 0.119595392114696D+03 -.124704718966465D+02 0.208309954126723D+03
 0.000000000000000D+00 -.000000000000000D+00 0.000000000000000D+00 -.000000000000000D+00
 0.431041626787763D+03 0.000000000000000D+00 0.000000000000000D+00 0.431041626787763D+03
 0.625599272327872D+03 0.000000000000000D+00 0.000000000000000D+00 -.625599272327872D+03
 0.140298296760329D+03 0.532110915189265D+02 -.846387350233895D+02 -.370570506496968D+02
 0.169800333381363D+03 -.398492203759689D+02 -.835780779654891D+01 -.164846413065876D+03
 0.422336630479308D+02 0.189093795594303D+02 0.372165895768997D+02 -.640649041114986D+01
 0.342266139775150D+03 0.246220691962783D+03 -.693771789111766D+02 0.208309954126723D+03
 0.362042466150863D+03 -.278491942665170D+03 0.125157132154215D+03 -.194557645540109D+03
0.280618816039D-05 0.000000000000D+00 0.000000000000D+00 0.208820194185D-08 0.000000000000D+00  7 1 -1 23 -11 11 23 21 0 0.75819401D-01 0.30377770D-01 0.45793482D+05 0.45793482D+05 0.45793482D+05 0.11506677D+01  1  2  2  2  7  2       -1 0.149200533624D-03 0.100000000000D+01
-.128974912745D-06 0.000000000000D+00 -.107765014222D-07 0.208820194185D-08 0.000000000000D+00  7 1 -1 23 -11 11 23 21 2 0.75819401D-01 0.30377770D-01 0.45793482D+05 0.45793482D+05 0.45793482D+05 0.11506677D+01  1  2  3  2  7  2       -1 -.907943170937D-05 0.100000000000D+01
0.170600183568D-06 0.000000000000D+00 0.000000000000D+00 0.208820194185D-08 0.000000000000D+00  7 1 -1 23 -11 11 23 21 2 0.75819401D-01 0.30377770D-01 0.45793482D+05 0.45793482D+05 0.45793482D+05 0.11506677D+01  1  2 15  2  7  2       -1 0.120097209864D-04 0.100000000000D+01
0.135354257152D-06 0.000000000000D+00 -.853155230386D-06 0.208820194185D-08 0.000000000000D+00  7 1 -1 23 -11 11 23 21 2 0.75819401D-01 0.80212607D-01 0.45793482D+05 0.45793482D+05 0.45793482D+05 0.11506677D+01  1  2  5  2  7  2       -1 0.167567223494D-05 0.100000000000D+01
0.653371748722D-07 0.000000000000D+00 -.920326675873D-07 0.208820194185D-08 0.000000000000D+00  7 1 21 23 -11 11 23 1 2 0.75819401D-01 0.80212607D-01 0.45793482D+05 0.45793482D+05 0.45793482D+05 0.11506677D+01  1  2  5  4  7  2       -1 0.647044112182D-05 0.100000000000D+01
  </mgrwgt>
  </event>
  <event>
  8     66 0.56006291E-06 0.17693799E+03 0.75467711E-02 0.97133233E-01
        1 -1    0    0  501    0 0.00000000E+00 0.00000000E+00 0.22169867E+03 0.22169890E+03 0.32000000E+00 0.0000E+00 0.9000E+01
       -1 -1    0    0    0  501 0.00000000E+00 0.00000000E+00 -.22308887E+03 0.22308910E+03 0.32000000E+00 0.0000E+00 0.9000E+01
       25  2    1    2    0    0 0.24129398E+02 0.34981598E+02 -.82513684E+02 0.31501885E+03 0.30103559E+03 0.0000E+00 0.0000E+00
       23  2    1    2    0    0 -.24129398E+02 -.34981598E+02 0.81123483E+02 0.12976914E+03 0.91940584E+02 0.0000E+00 0.0000E+00
       23  1    3    3    0    0 -.69446126E+02 0.52903523E+02 0.42597593E+02 0.13323421E+03 0.91188000E+02 0.0000E+00 0.9000E+01
      -11  1    4    4    0    0 0.32483847E+02 -.14091029E+02 0.10619264E+02 0.36966555E+02 0.51099893E-03 0.0000E+00 0.9000E+01
       11  1    4    4    0    0 -.56613245E+02 -.20890569E+02 0.70504219E+02 0.92802588E+02 0.51099893E-03 0.0000E+00 0.9000E+01
       23  1    3    3    0    0 0.93575525E+02 -.17921925E+02 -.12511128E+03 0.18178465E+03 0.91188000E+02 0.0000E+00 0.9000E+01
#aMCatNLO 1  0  0  1  1 0.32265916D+03 0.00000000D+00  -5  7  0 0.00000000D+00 0.00000000D+00 0.00000000D+00 0.00000000D+00 0.00000000D+00
  <mgrwgt>
 0.1863008454D-03    3    2    0
 0.222392910479000D+03 0.000000000000000D+00 0.000000000000000D+00 0.222392910479000D+03
 0.222392910479000D+03 0.000000000000000D+00 0.000000000000000D+00 -.222392910479000D+03
 0.133367996984170D+03 -.694461262289232D+02 0.529035229236930D+02 0.430142312453474D+02
 0.369999264334564D+02 0.324838467839155D+02 -.140910292549764D+02 0.107348567170541D+02
 0.930234060348282D+02 -.566132452728311D+02 -.208905686834229D+02 0.707946231721165D+02
 0.181394491505546D+03 0.935755247178388D+02 -.179219249852938D+02 -.124543711134518D+03
 0.000000000000000D+00 -.000000000000000D+00 0.000000000000000D+00 -.000000000000000D+00
 0.353893948137769D+03 0.000000000000000D+00 0.000000000000000D+00 0.353893948137769D+03
 0.603593250762242D+03 0.000000000000000D+00 0.000000000000000D+00 -.603593250762242D+03
 0.110770407316345D+03 -.408052970919974D+02 -.209651003487856D+02 0.430142312453474D+02
 0.637595620107559D+02 0.443043356608008D+02 -.445776899437694D+02 0.107348567170541D+02
 0.114205355259747D+03 -.323024304237712D+02 -.835914917239815D+02 0.707946231721165D+02
 0.260758403402621D+03 0.145446206644120D+03 -.151703522011724D+03 -.124543711134518D+03
 0.407993470910542D+03 -.116642814789153D+03 0.300837804028261D+03 -.249699302624473D+03
0.149198764154D-05 0.000000000000D+00 0.000000000000D+00 0.366622435414D-07 0.000000000000D+00  7 1 -1 23 -11 11 23 21 0 0.34107523D-01 0.34321400D-01 0.31307051D+05 0.31307051D+05 0.31307051D+05 0.11656214D+01  1  2  2  1  7  1        1 0.183915244424D-03 0.100000000000D+01
-.776195095761D-07 0.000000000000D+00 -.572962539290D-08 0.366622435414D-07 0.000000000000D+00  7 1 -1 23 -11 11 23 21 2 0.34107523D-01 0.34321400D-01 0.31307051D+05 0.31307051D+05 0.31307051D+05 0.11656214D+01  1  2  3  1  7  1        1 -.129998526438D-04 0.100000000000D+01
0.918634539512D-07 0.000000000000D+00 0.000000000000D+00 0.366622435414D-07 0.000000000000D+00  7 1 -1 23 -11 11 23 21 2 0.34107523D-01 0.34321400D-01 0.31307051D+05 0.31307051D+05 0.31307051D+05 0.11656214D+01  1  2 15  1  7  1        1 0.153854536216D-04 0.100000000000D+01
  </mgrwgt>
  </event>
  <event>
  8     66 0.56006291E-06 0.46183761E+03 0.75467711E-02 0.84984165E-01
        1 -1    0    0  501    0 0.00000000E+00 0.00000000E+00 0.59500126E+03 0.59500134E+03 0.32000000E+00 0.0000E+00 0.9000E+01
       -1 -1    0    0    0  501 0.00000000E+00 0.00000000E+00 -.58016562E+03 0.58016570E+03 0.32000000E+00 0.0000E+00 0.9000E+01
       25  2    1    2    0    0 -.59246608E+02 -.40708963E+03 0.36482534E+03 0.62623135E+03 0.29972662E+03 0.0000E+00 0.0000E+00
       23  2    1    2    0    0 0.59246608E+02 0.40708963E+03 -.34998970E+03 0.54893570E+03 0.98007559E+02 0.0000E+00 0.0000E+00
       23  1    3    3    0    0 0.67692386E+02 -.81787855E+02 0.54269505E+02 0.15010644E+03 0.91188000E+02 0.0000E+00 0.9000E+01
      -13  1    4    4    0    0 -.23861408E+02 0.41197944E+02 -.36271330E+02 0.59851967E+02 0.10565837E+00 0.0000E+00 0.9000E+01
       13  1    4    4    0    0 0.83108016E+02 0.36589168E+03 -.31371837E+03 0.48908373E+03 0.10565837E+00 0.0000E+00 0.9000E+01
       23  1    3    3    0    0 -.12693899E+03 -.32530177E+03 0.31055584E+03 0.47612491E+03 0.91188000E+02 0.0000E+00 0.9000E+01
#aMCatNLO 1  0  0  1  1 0.11331691D+04 0.00000000D+00  -5  7  0 0.00000000D+00 0.00000000D+00 0.00000000D+00 0.00000000D+00 0.00000000D+00
  <mgrwgt>
 0.3119880466D-03    3    2    0
 0.587536698746835D+03 0.000000000000000D+00 0.000000000000000D+00 0.587536698746835D+03
 0.587536698746835D+03 0.000000000000000D+00 0.000000000000000D+00 -.587536698746835D+03
 0.149433233349087D+03 0.676923864329165D+02 -.817878547207659D+02 0.523786934196950D+02
 0.603141692910528D+02 -.238615308632587D+02 0.411975664783122D+02 -.370295406182223D+02
 0.493083995247224D+03 0.831081392728740D+02 0.365892060764546D+03 -.319918526229787D+03
 0.472241999606307D+03 -.126938994842532D+03 -.325301772522092D+03 0.304569373428315D+03
 0.000000000000000D+00 0.000000000000000D+00 -.000000000000000D+00 -.000000000000000D+00
 0.101593736056759D+04 0.000000000000000D+00 0.000000000000000D+00 0.101593736056759D+04
 0.242359452800013D+04 0.000000000000000D+00 0.000000000000000D+00 -.242359452800013D+04
 0.105220308476921D+03 0.294937688980194D+01 -.195847481116154D+01 0.523786934196950D+02
 0.129140539023093D+03 -.720284163517447D+02 0.100588265611045D+03 -.370295406182223D+02
 0.908568272217490D+03 -.273247344644169D+03 0.805285247909179D+03 -.319918526229787D+03
 0.489513719128155D+03 -.371455364925906D+03 -.238083705432368D+02 0.304569373428315D+03
 0.180708904972206D+04 0.713781749032017D+03 -.880106668165825D+03 -.140765716743255D+04
0.564937454180D-04 0.000000000000D+00 0.000000000000D+00 0.789789873546D-07 0.000000000000D+00  7 1 -1 23 -13 13 23 21 0 0.91538668D-01 0.89256262D-01 0.21329397D+06 0.21329397D+06 0.21329397D+06 0.10956853D+01  1  2  2  1  7  1        1 0.308194838914D-03 0.100000000000D+01
-.291740862911D-05 0.000000000000D+00 -.216950857550D-06 0.789789873546D-07 0.000000000000D+00  7 1 -1 23 -13 13 23 21 2 0.91538668D-01 0.89256262D-01 0.21329397D+06 0.21329397D+06 0.21329397D+06 0.10956853D+01  1  2  3  1  7  1        1 -.191070622067D-04 0.100000000000D+01
0.349658383876D-05 0.000000000000D+00 0.000000000000D+00 0.789789873546D-07 0.000000000000D+00  7 1 -1 23 -13 13 23 21 2 0.91538668D-01 0.89256262D-01 0.21329397D+06 0.21329397D+06 0.21329397D+06 0.10956853D+01  1  2 15  1  7  1        1 0.229002698667D-04 0.100000000000D+01
  </mgrwgt>
  </event>
  <event>
  8     66 0.56006291E-06 0.13621550E+03 0.75467711E-02 0.99931456E-01
        1 -1    0    0  501    0 0.00000000E+00 0.00000000E+00 0.61044607E+03 0.61044616E+03 0.32000000E+00 0.0000E+00 0.9000E+01
       -1 -1    0    0    0  501 0.00000000E+00 0.00000000E+00 -.31103880E+03 0.31103897E+03 0.32000000E+00 0.0000E+00 0.9000E+01
       25  2    1    2    0    0 -.20901165E+03 0.51935666E+02 0.49512959E+03 0.61686567E+03 0.29830649E+03 0.0000E+00 0.0000E+00
       23  2    1    2    0    0 0.20901165E+03 -.51935666E+02 -.19572232E+03 0.30461945E+03 0.90014440E+02 0.0000E+00 0.0000E+00
       23  1    3    3    0    0 -.48871936E+02 0.98806447E+02 0.34858205E+03 0.37679686E+03 0.91188000E+02 0.0000E+00 0.9000E+01
      -13  1    4    4    0    0 0.14220615E+03 -.74736976E+02 -.11609270E+03 0.19820629E+03 0.10565837E+00 0.0000E+00 0.9000E+01
       13  1    4    4    0    0 0.66805502E+02 0.22801310E+02 -.79629616E+02 0.10641317E+03 0.10565837E+00 0.0000E+00 0.9000E+01
       23  1    3    3    0    0 -.16013972E+03 -.46870782E+02 0.14654754E+03 0.24006881E+03 0.91188000E+02 0.0000E+00 0.9000E+01
#aMCatNLO 1  0  0  2  1 0.77841922D+02 0.00000000D+00  -5  7  0 0.00000000D+00 0.00000000D+00 0.00000000D+00 0.00000000D+00 0.00000000D+00
  <mgrwgt>
 0.2008077222D-03    9    2    0
 0.435743650994847D+03 0.000000000000000D+00 0.000000000000000D+00 0.435743650994847D+03
 0.435743650994847D+03 0.000000000000000D+00 0.000000000000000D+00 -.435743650994847D+03
 0.278655470433235D+03 -.488719361510163D+02 0.988064473911867D+02 0.239128500328069D+03
 0.249462355604432D+03 0.142206253990381D+03 -.747371098571056D+02 -.190848664129310D+03
 0.139875478480379D+03 0.668053979982867D+02 0.228014440903272D+02 -.120757121635956D+03
 0.203493997471649D+03 -.160139715837651D+03 -.468707816244083D+02 0.724772854371970D+02
 0.000000000000000D+00 0.000000000000000D+00 -.000000000000000D+00 -.000000000000000D+00
 0.471716712570290D+03 0.000000000000000D+00 0.000000000000000D+00 0.471716712570290D+03
 0.481722490220390D+03 0.000000000000000D+00 0.000000000000000D+00 -.481722490220390D+03
 0.287912668110441D+03 -.708450630682542D+02 0.111251923507761D+03 0.239128500328069D+03
 0.236113274625510D+03 0.123374247343509D+03 -.640707495419088D+02 -.190848664129310D+03
 0.136243951494223D+03 0.560966996681218D+02 0.288668006419754D+02 -.120757121635956D+03
 0.214686951721605D+03 -.176357964704616D+03 -.376848414672921D+02 0.724772854371970D+02
 0.784823568389023D+02 0.677320807612397D+02 -.383631331405354D+02 -.100057776501005D+02
0.724696857417D-05 0.000000000000D+00 0.000000000000D+00 0.697543475983D-07 0.000000000000D+00  7 1 -1 23 -13 13 23 21 0 0.93914799D-01 0.47852142D-01 0.79650777D+05 0.79650777D+05 0.79650777D+05 0.11299219D+01  1  2  2  2  7  2       -1 0.130207408188D-03 0.100000000000D+01
-.310257391742D-06 0.000000000000D+00 -.278302674955D-07 0.697543475983D-07 0.000000000000D+00  7 1 -1 23 -13 13 23 21 2 0.93914799D-01 0.47852142D-01 0.79650777D+05 0.79650777D+05 0.79650777D+05 0.11299219D+01  1  2  3  2  7  2       -1 -.711702159924D-05 0.100000000000D+01
0.437133256848D-06 0.000000000000D+00 0.000000000000D+00 0.697543475983D-07 0.000000000000D+00  7 1 -1 23 -13 13 23 21 2 0.93914799D-01 0.47852142D-01 0.79650777D+05 0.79650777D+05 0.79650777D+05 0.11299219D+01  1  2 15  2  7  2       -1 0.100274382289D-04 0.100000000000D+01
0.744580964429D-05 0.000000000000D+00 0.000000000000D+00 0.697543475983D-07 0.000000000000D+00  7 1 -1 23 -13 13 23 21 2 0.93914799D-01 0.54693897D-01 0.10316284D+06 0.10316284D+06 0.10316284D+06 0.11206140D+01  1  2 12  2  7  2       -1 0.131180923202D-03 0.100000000000D+01
-.672678020932D-05 0.000000000000D+00 0.000000000000D+00 0.697543475983D-07 0.000000000000D+00  7 1 -1 23 -13 13 23 21 2 0.93914799D-01 0.47852142D-01 0.79650777D+05 0.79650777D+05 0.79650777D+05 0.11299219D+01  1  2  4  2  7  2       -1 -.154306202906D-03 0.100000000000D+01
-.176476207196D-04 0.000000000000D+00 -.573097983737D-05 0.697543475983D-07 0.000000000000D+00  7 1 -1 23 -13 13 23 21 2 0.93914799D-01 0.56808732D-01 0.79650777D+05 0.79650777D+05 0.79650777D+05 0.11299219D+01  1  2  5  2  7  2       -1 -.296911676738D-03 0.100000000000D+01
0.184421263611D-04 0.000000000000D+00 0.564764884999D-05 0.697543475983D-07 0.000000000000D+00  7 1 -1 23 -13 13 23 21 2 0.93914799D-01 0.47852142D-01 0.79650777D+05 0.79650777D+05 0.79650777D+05 0.11299219D+01  1  2  6  2  7  2       -1 0.423045558758D-03 0.100000000000D+01
0.154534833256D-06 0.000000000000D+00 0.000000000000D+00 0.697543475983D-07 0.000000000000D+00  7 1 21 23 -13 13 23 1 2 0.93914799D-01 0.54693897D-01 0.10316284D+06 0.10316284D+06 0.10316284D+06 0.11206140D+01  1  2 12  4  7  2       -1 0.244598170807D-04 0.100000000000D+01
-.397695195879D-06 0.000000000000D+00 -.145558372132D-06 0.697543475983D-07 0.000000000000D+00  7 1 21 23 -13 13 23 1 2 0.93914799D-01 0.56808732D-01 0.79650777D+05 0.79650777D+05 0.79650777D+05 0.11299219D+01  1  2  5  4  7  2       -1 -.597785220214D-04 0.100000000000D+01
  </mgrwgt>
  </event>
  <event>
  8     66 0.56006291E-06 0.27869595E+03 0.75467711E-02 0.92739690E-01
        1 -1    0    0  501    0 0.00000000E+00 0.00000000E+00 0.24654263E+04 0.24654264E+04 0.32000000E+00 0.0000E+00 0.9000E+01
       -1 -1    0    0    0  501 0.00000000E+00 0.00000000E+00 -.39975320E+02 0.39976600E+02 0.32000000E+00 0.0000E+00 0.9000E+01
       25  2    1    2    0    0 -.42951713E+02 0.20662363E+03 0.10838149E+04 0.11441461E+04 0.29979552E+03 0.0000E+00 0.0000E+00
       23  2    1    2    0    0 0.42951713E+02 -.20662363E+03 0.13416361E+04 0.13612569E+04 0.92166297E+02 0.0000E+00 0.0000E+00
       23  1    3    3    0    0 0.59114890E+02 0.17434339E+03 0.44641186E+03 0.49141530E+03 0.91188000E+02 0.0000E+00 0.9000E+01
      -13  1    4    4    0    0 0.12502911E+02 -.86871783E+02 0.84228587E+03 0.84684622E+03 0.10565837E+00 0.0000E+00 0.9000E+01
       13  1    4    4    0    0 0.30448801E+02 -.11975184E+03 0.49935025E+03 0.51441065E+03 0.10565837E+00 0.0000E+00 0.9000E+01
       23  1    3    3    0    0 -.10206660E+03 0.32280236E+02 0.63740302E+03 0.65273078E+03 0.91188000E+02 0.0000E+00 0.9000E+01
#aMCatNLO 1  0  0  1  1 0.46424910D+03 0.00000000D+00  -5  7  0 0.00000000D+00 0.00000000D+00 0.00000000D+00 0.00000000D+00 0.00000000D+00
  <mgrwgt>
 0.2176790997D-03    5    2    0
 0.313939223346722D+03 0.000000000000000D+00 0.000000000000000D+00 0.313939223346722D+03
 0.313939223346722D+03 0.000000000000000D+00 0.000000000000000D+00 -.313939223346722D+03
 0.236420318390222D+03 0.591148902341458D+02 0.174343390287287D+03 -.117000545381094D+03
 0.125450900070980D+03 0.125028880940947D+02 -.868717404292993D+02 0.896376418292567D+02
 0.123680612346986D+03 0.304488246469874D+02 -.119751886614910D+03 0.540819751044881D+01
 0.142326615885257D+03 -.102066602975228D+03 0.322802367569230D+02 0.219547060413887D+02
 0.000000000000000D+00 -.000000000000000D+00 0.000000000000000D+00 0.000000000000000D+00
 0.673167863929812D+03 0.000000000000000D+00 0.000000000000000D+00 0.673167863929812D+03
 0.581010291162482D+03 0.000000000000000D+00 0.000000000000000D+00 -.581010291162482D+03
 0.195740777176088D+03 0.119401070424786D+03 0.453150887391921D+02 -.117000545381094D+03
 0.218125838790861D+03 0.604316105099683D+02 -.189451828090093D+03 0.896376418292567D+02
 0.243566855356525D+03 0.816795977074770D+02 -.229399232226917D+03 0.540819751044881D+01
 0.123436918725050D+03 -.649927698606964D+02 -.470675292405016D+02 0.219547060413887D+02
 0.473307765043769D+03 -.196519508781535D+03 0.420603500818319D+03 0.921575727673303D+02
0.933148336159D-05 0.000000000000D+00 0.000000000000D+00 0.376574153799D-06 0.000000000000D+00  7 1 -1 23 -13 13 23 21 0 0.37929646D+00 0.61501493D-02 0.77671432D+05 0.77671432D+05 0.77671432D+05 0.11308402D+01  1  2  2  1  7  1        1 0.214709159565D-03 0.100000000000D+01
-.509478102671D-06 0.000000000000D+00 -.358353531445D-07 0.376574153799D-06 0.000000000000D+00  7 1 -1 23 -13 13 23 21 2 0.37929646D+00 0.61501493D-02 0.77671432D+05 0.77671432D+05 0.77671432D+05 0.11308402D+01  1  2  3  1  7  1        1 -.149909055614D-04 0.100000000000D+01
0.610670856351D-06 0.000000000000D+00 0.000000000000D+00 0.376574153799D-06 0.000000000000D+00  7 1 -1 23 -13 13 23 21 2 0.37929646D+00 0.61501493D-02 0.77671432D+05 0.77671432D+05 0.77671432D+05 0.11308402D+01  1  2 15  1  7  1        1 0.179684054892D-04 0.100000000000D+01
-.562804380038D-06 0.000000000000D+00 -.198835900741D-05 0.376574153799D-06 0.000000000000D+00  7 1 -1 23 -13 13 23 21 2 0.86254468D+00 0.61501493D-02 0.77671432D+05 0.77671432D+05 0.77671432D+05 0.11308402D+01  1  2  5  1  7  1        1 -.758178550388D-08 0.100000000000D+01
0.755189747656D-07 0.000000000000D+00 -.177570694409D-06 0.376574153799D-06 0.000000000000D+00  7 21 -1 23 -13 13 23 -1 2 0.86254468D+00 0.61501493D-02 0.77671432D+05 0.77671432D+05 0.77671432D+05 0.11308402D+01  1  2  5  3  7  1        1 0.219839896111D-10 0.100000000000D+01
  </mgrwgt>
  </event>
  <event>
  8     66 0.56006291E-06 0.19485136E+03 0.75467711E-02 0.88225747E-01
        3 -1    0    0  501    0 0.00000000E+00 0.00000000E+00 0.31373476E+03 0.31373516E+03 0.50000000E+00 0.0000E+00 0.9000E+01
       -3 -1    0    0    0  501 0.00000000E+00 0.00000000E+00 -.59281994E+03 0.59282015E+03 0.50000000E+00 0.0000E+00 0.9000E+01
       25  2    1    2    0    0 0.47749237E+02 0.66524335E+02 0.22654675E+03 0.38523079E+03 0.30062245E+03 0.0000E+00 0.0000E+00
       23  2    1    2    0    0 -.47749237E+02 -.66524335E+02 -.50563192E+03 0.52132451E+03 0.97005846E+02 0.0000E+00 0.0000E+00
       23  1    3    3    0    0 -.63411417E+02 -.48829845E+02 0.12738288E+03 0.17591763E+03 0.91188000E+02 0.0000E+00 0.9000E+01
      -11  1    4    4    0    0 -.35583102E+02 -.33594576E+02 -.46525078E+03 0.46781731E+03 0.51099893E-03 0.0000E+00 0.9000E+01
       11  1    4    4    0    0 -.12166135E+02 -.32929760E+02 -.40381143E+02 0.53507201E+02 0.51099893E-03 0.0000E+00 0.9000E+01
       23  1    3    3    0    0 0.11116065E+03 0.11535418E+03 0.99163864E+02 0.20931317E+03 0.91188000E+02 0.0000E+00 0.9000E+01
#aMCatNLO 1  0  0  1  1 0.87030401D+03 0.00000000D+00  -5  7  0 0.00000000D+00 0.00000000D+00 0.00000000D+00 0.00000000D+00 0.00000000D+00
  <mgrwgt>
 0.3950068374D-04    3    2    0
 0.431263837047715D+03 0.000000000000000D+00 0.000000000000000D+00 0.431263837047715D+03
 0.431263837047715D+03 0.000000000000000D+00 0.000000000000000D+00 -.431263837047715D+03
 0.226114172730333D+03 -.634114173021236D+02 -.488298453025107D+02 0.190806200446924D+03
 0.341157369858414D+03 -.355831019344705D+02 -.335945755589304D+02 -.337629380176618D+03
 0.431724804785808D+02 -.121661352169905D+02 -.329297597642209D+02 -.251292488233541D+02
 0.252083651028103D+03 0.111160654453585D+03 0.115354180625662D+03 0.171952428553049D+03
 0.000000000000000D+00 -.000000000000000D+00 0.000000000000000D+00 -.000000000000000D+00
 0.813612018974117D+03 0.000000000000000D+00 0.000000000000000D+00 0.813612018974117D+03
 0.155493064498359D+04 0.000000000000000D+00 0.000000000000000D+00 -.155493064498359D+04
 0.281238457443361D+03 0.131654989493139D+03 -.130536493800358D+03 0.190806200446924D+03
 0.464629059499535D+03 0.274224818772333D+03 -.163362521228879D+03 -.337629380176618D+03
 0.628451694209636D+02 0.285954195535096D+02 -.500033814224831D+02 -.251292488233541D+02
 0.416596682689461D+03 0.368254167397997D+03 0.766649806495585D+01 0.171952428553049D+03
 0.114323329490439D+04 -.802729395216979D+03 0.336235898386764D+03 -.741318626009477D+03
0.197746971051D-04 0.000000000000D+00 0.000000000000D+00 0.652542091404D-07 0.000000000000D+00  7 3 -3 23 -11 11 23 21 0 0.48266933D-01 0.91203114D-01 0.37967054D+05 0.37967054D+05 0.37967054D+05 0.11579630D+01  1  2  2  1  7  1        3 0.370479708692D-04 0.100000000000D+01
-.255476841752D-06 0.000000000000D+00 -.759400436810D-07 0.652542091404D-07 0.000000000000D+00  7 3 -3 23 -11 11 23 21 2 0.48266933D-01 0.91203114D-01 0.37967054D+05 0.37967054D+05 0.37967054D+05 0.11579630D+01  1  2  3  1  7  1        3 -.641793751955D-06 0.100000000000D+01
0.123182062292D-05 0.000000000000D+00 0.000000000000D+00 0.652542091404D-07 0.000000000000D+00  7 3 -3 23 -11 11 23 21 2 0.48266933D-01 0.91203114D-01 0.37967054D+05 0.37967054D+05 0.37967054D+05 0.11579630D+01  1  2 15  1  7  1        3 0.309450662493D-05 0.100000000000D+01
  </mgrwgt>
  </event>
  <event>
  8     66 0.56006291E-06 0.26847722E+03 0.75467711E-02 0.99471973E-01
        1 -1    0    0  501    0 0.00000000E+00 0.00000000E+00 0.50154282E+03 0.50154292E+03 0.32000000E+00 0.0000E+00 0.9000E+01
       -1 -1    0    0    0  501 0.00000000E+00 0.00000000E+00 -.22300532E+03 0.22300555E+03 0.32000000E+00 0.0000E+00 0.9000E+01
       25  2    1    2    0    0 -.11067877E+03 -.15734786E+03 -.20288152E+02 0.35718105E+03 0.30026414E+03 0.0000E+00 0.0000E+00
       23  2    1    2    0    0 0.11067877E+03 0.15734786E+03 0.29882565E+03 0.36736742E+03 0.93026393E+02 0.0000E+00 0.0000E+00
       23  1    3    3    0    0 0.63849961E+01 0.23471887E+02 -.70671379E+02 0.11790417E+03 0.91188000E+02 0.0000E+00 0.9000E+01
      -13  1    4    4    0    0 0.12185358E+03 0.12554651E+03 0.27555994E+03 0.32641004E+03 0.10565837E+00 0.0000E+00 0.9000E+01
       13  1    4    4    0    0 -.11174812E+02 0.31801352E+02 0.23265712E+02 0.40957380E+02 0.10565837E+00 0.0000E+00 0.9000E+01
       23  1    3    3    0    0 -.11706376E+03 -.18081975E+03 0.50383227E+02 0.23927688E+03 0.91188000E+02 0.0000E+00 0.9000E+01
#aMCatNLO 1  0  0  1  1 0.12576294D+03 0.00000000D+00  -5  7  0 0.00000000D+00 0.00000000D+00 0.00000000D+00 0.00000000D+00 0.00000000D+00
  <mgrwgt>
 0.2303952454D-03    3    2    0
 0.334435098167822D+03 0.000000000000000D+00 0.000000000000000D+00 0.334435098167822D+03
 0.334435098167822D+03 0.000000000000000D+00 0.000000000000000D+00 -.334435098167822D+03
 0.157148447806626D+03 0.638499574096974D+01 0.234718865326703D+02 -.125653036875426D+03
 0.238830031748216D+03 0.121853749107171D+03 0.125546628698392D+03 0.162571497858168D+03
 0.346779645133756D+02 -.111749826795676D+02 0.318012312710497D+02 0.814632890003308D+01
 0.238213752267427D+03 -.117063762168574D+03 -.180819746502112D+03 -.450647898827757D+02
 0.000000000000000D+00 -.000000000000000D+00 0.000000000000000D+00 -.000000000000000D+00
 0.349169590480318D+03 0.000000000000000D+00 0.000000000000000D+00 0.349169590480318D+03
 0.785862687467759D+03 0.000000000000000D+00 0.000000000000000D+00 -.785862687467759D+03
 0.155563809432861D+03 0.803271694004147D+01 -.562469944154475D+01 -.125653036875426D+03
 0.220742490507727D+03 0.124275295976222D+03 0.827853006863403D+02 0.162571497858168D+03
 0.291970261885580D+02 -.108384171186293D+02 0.258579267937402D+02 0.814632890003308D+01
 0.275087341022031D+03 -.114359112531920D+03 -.228580296483104D+03 -.450647898827757D+02
 0.454441610796901D+03 -.711048326571354D+01 0.125561768444568D+03 -.436693096987441D+03
0.537763567009D-05 0.000000000000D+00 0.000000000000D+00 0.201105844615D-06 0.000000000000D+00  7 1 -1 23 -13 13 23 21 0 0.77160459D-01 0.34308536D-01 0.72080016D+05 0.72080016D+05 0.72080016D+05 0.11335801D+01  1  2  2  1  7  1        1 0.226830517089D-03 0.100000000000D+01
-.281228072075D-06 0.000000000000D+00 -.206515369371D-07 0.201105844615D-06 0.000000000000D+00  7 1 -1 23 -13 13 23 21 2 0.77160459D-01 0.34308536D-01 0.72080016D+05 0.72080016D+05 0.72080016D+05 0.11335801D+01  1  2  3  1  7  1        1 -.152430978841D-04 0.100000000000D+01
0.346995652945D-06 0.000000000000D+00 0.000000000000D+00 0.201105844615D-06 0.000000000000D+00  7 1 -1 23 -13 13 23 21 2 0.77160459D-01 0.34308536D-01 0.72080016D+05 0.72080016D+05 0.72080016D+05 0.11335801D+01  1  2 15  1  7  1        1 0.188078262036D-04 0.100000000000D+01
  </mgrwgt>
  </event>
  <event>
  8     66 0.56006291E-06 0.60874495E+03 0.75467711E-02 0.88139372E-01
        1 -1    0    0  501    0 0.00000000E+00 0.00000000E+00 0.60401363E+03 0.60401371E+03 0.32000000E+00 0.0000E+00 0.9000E+01
       -1 -1    0    0    0  501 0.00000000E+00 0.00000000E+00 -.11011308E+04 0.11011309E+04 0.32000000E+00 0.0000E+00 0.9000E+01
       25  2    1    2    0    0 -.65720630E+03 -.41729131E+03 -.36392356E+03 0.91013123E+03 0.29974380E+03 0.0000E+00 0.0000E+00
       23  2    1    2    0    0 0.65720630E+03 0.41729131E+03 -.13319365E+03 0.79501336E+03 0.90848977E+02 0.0000E+00 0.0000E+00
       23  1    3    3    0    0 -.23685610E+03 -.98648822E+02 -.23462720E+03 0.35944064E+03 0.91188000E+02 0.0000E+00 0.9000E+01
      -13  1    4    4    0    0 0.34500856E+02 0.50216790E+02 -.11066040E+02 0.61923368E+02 0.10565837E+00 0.0000E+00 0.9000E+01
       13  1    4    4    0    0 0.62270544E+03 0.36707452E+03 -.12212761E+03 0.73308999E+03 0.10565837E+00 0.0000E+00 0.9000E+01
       23  1    3    3    0    0 -.42035020E+03 -.31864249E+03 -.12929636E+03 0.55069059E+03 0.91188000E+02 0.0000E+00 0.9000E+01
#aMCatNLO 1  0  0  1  2 0.24340852D+03 0.00000000D+00  -5  7  0 0.00000000D+00 0.00000000D+00 0.00000000D+00 0.00000000D+00 0.00000000D+00
  <mgrwgt>
 0.2281624476D-03    9    2    0
 0.815535492905160D+03 0.000000000000000D+00 0.000000000000000D+00 0.815535492905160D+03
 0.815535492905160D+03 0.000000000000000D+00 0.000000000000000D+00 -.815535492905160D+03
 0.304254720576393D+03 -.236856096931258D+03 -.986488216751540D+02 -.135732394724375D+03
 0.613619547908615D+02 0.345000607250020D+02 0.502163616921613D+02 0.730426752856968D+01
 0.729161502449599D+03 0.622706236445408D+03 0.367074950890171D+03 0.957570894270011D+02
 0.536292807993466D+03 -.420350200239152D+03 -.318642490907178D+03 0.326710377688042D+02
 0.000000000000000D+00 -.000000000000000D+00 0.000000000000000D+00 0.000000000000000D+00
 0.122520808400068D+04 0.000000000000000D+00 0.000000000000000D+00 0.122520808400068D+04
 0.861537118586917D+03 0.000000000000000D+00 0.000000000000000D+00 -.861537118586917D+03
 0.273123933697250D+03 -.194074056320358D+03 -.100962416274616D+03 -.135732394724375D+03
 0.667778100228723D+02 0.439948360887170D+02 0.497028971474382D+02 0.730426752856968D+01
 0.827070349326914D+03 0.738018386955087D+03 0.360839026542896D+03 0.957570894270011D+02
 0.482161093327380D+03 -.344885795997447D+03 -.322723503304253D+03 0.326710377688042D+02
 0.437612016213180D+03 -.243053370725999D+03 0.131439958885353D+02 0.363670965413762D+03
0.199157433869D-03 0.000000000000D+00 0.000000000000D+00 0.423524125029D-05 0.000000000000D+00  7 1 -1 23 -13 13 23 21 0 0.92925184D-01 0.16940475D+00 0.63311427D+06 0.63311427D+06 0.63311427D+06 0.10613399D+01  1  2  2  1  7  1        1 0.195482417717D-03 0.100000000000D+01
-.110561332042D-04 0.000000000000D+00 -.764816985414D-06 0.423524125029D-05 0.000000000000D+00  7 1 -1 23 -13 13 23 21 2 0.92925184D-01 0.16940475D+00 0.63311427D+06 0.63311427D+06 0.63311427D+06 0.10613399D+01  1  2  3  1  7  1        1 -.122242847461D-04 0.100000000000D+01
0.127503187831D-04 0.000000000000D+00 0.000000000000D+00 0.423524125029D-05 0.000000000000D+00  7 1 -1 23 -13 13 23 21 2 0.92925184D-01 0.16940475D+00 0.63311427D+06 0.63311427D+06 0.63311427D+06 0.10613399D+01  1  2 15  1  7  1        1 0.140974719216D-04 0.100000000000D+01
0.324465798316D-03 0.000000000000D+00 0.000000000000D+00 0.423524125029D-05 0.000000000000D+00  7 1 -1 23 -13 13 23 21 2 0.14117076D+00 0.16940475D+00 0.85502958D+06 0.85502958D+06 0.85502958D+06 0.10524220D+01  1  2 12  1  7  1        1 0.178687349042D-03 0.100000000000D+01
-.338009085331D-03 0.000000000000D+00 0.000000000000D+00 0.423524125029D-05 0.000000000000D+00  7 1 -1 23 -13 13 23 21 2 0.92925184D-01 0.16940475D+00 0.63311427D+06 0.63311427D+06 0.63311427D+06 0.10613399D+01  1  2  4  1  7  1        1 -.373721917919D-03 0.100000000000D+01
-.408326273100D-03 0.000000000000D+00 -.795938141545D-04 0.423524125029D-05 0.000000000000D+00  7 1 -1 23 -13 13 23 21 2 0.14353510D+00 0.16940475D+00 0.63311427D+06 0.63311427D+06 0.63311427D+06 0.10613399D+01  1  2  5  1  7  1        1 -.226725509956D-03 0.100000000000D+01
0.410491069085D-03 0.000000000000D+00 0.726209435714D-04 0.423524125029D-05 0.000000000000D+00  7 1 -1 23 -13 13 23 21 2 0.92925184D-01 0.16940475D+00 0.63311427D+06 0.63311427D+06 0.63311427D+06 0.10613399D+01  1  2  6  1  7  1        1 0.453862089172D-03 0.100000000000D+01
0.159590962300D-04 0.000000000000D+00 0.000000000000D+00 0.423524125029D-05 0.000000000000D+00  7 21 -1 23 -13 13 23 -1 2 0.14117076D+00 0.16940475D+00 0.85502958D+06 0.85502958D+06 0.85502958D+06 0.10524220D+01  1  2 12  3  7  1        1 0.124806119284D-04 0.100000000000D+01
-.176429489086D-04 0.000000000000D+00 -.403022788285D-05 0.423524125029D-05 0.000000000000D+00  7 21 -1 23 -13 13 23 -1 2 0.14353510D+00 0.16940475D+00 0.63311427D+06 0.63311427D+06 0.63311427D+06 0.10613399D+01  1  2  5  3  7  1        1 -.137757795440D-04 0.100000000000D+01
  </mgrwgt>
  </event>
  <event>
  8     66 0.56006291E-06 0.13160218E+03 0.75467711E-02 0.10042749E+00
        1 -1    0    0  501    0 0.00000000E+00 0.00000000E+00 0.75589845E+03 0.75589852E+03 0.32000000E+00 0.0000E+00 0.9000E+01
       -1 -1    0    0    0  501 0.00000000E+00 0.00000000E+00 -.13579715E+03 0.13579753E+03 0.32000000E+00 0.0000E+00 0.9000E+01
       25  2    1    2    0    0 -.11342100E+03 0.12525782E+02 0.66657595E+03 0.73939244E+03 0.29892551E+03 0.0000E+00 0.0000E+00
       23  2    1    2    0    0 0.11342100E+03 -.12525782E+02 -.46474655E+02 0.15230361E+03 0.89528080E+02 0.0000E+00 0.0000E+00
       23  1    3    3    0    0 0.15348634E+02 0.74880180E+02 0.44317230E+03 0.45886769E+03 0.91188000E+02 0.0000E+00 0.9000E+01
      -11  1    4    4    0    0 0.11251826E+03 0.17977503E+02 -.30996688E+02 0.11808618E+03 0.51099893E-03 0.0000E+00 0.9000E+01
       11  1    4    4    0    0 0.90273818E+00 -.30503285E+02 -.15477967E+02 0.34217434E+02 0.51099893E-03 0.0000E+00 0.9000E+01
       23  1    3    3    0    0 -.12876964E+03 -.62354398E+02 0.22340365E+03 0.28052475E+03 0.91188000E+02 0.0000E+00 0.9000E+01
#aMCatNLO 1  0  0  2  1 0.15691630D+03 0.00000000D+00  -5  7  0 0.00000000D+00 0.00000000D+00 0.00000000D+00 0.00000000D+00 0.00000000D+00
  <mgrwgt>
 0.3516034914D-03    8    2    0
 0.320388914414159D+03 0.000000000000000D+00 0.000000000000000D+00 0.320388914414159D+03
 0.320388914414159D+03 0.000000000000000D+00 0.000000000000000D+00 -.320388914414159D+03
 0.209680774573532D+03 0.153486335082509D+02 0.748801801033453D+02 0.172650380708750D+03
 0.194323300492020D+03 0.112518263513560D+03 0.179775029646046D+02 -.157410275640323D+03
 0.625949535882528D+02 0.902738179933998D+00 -.305032849397549D+02 -.546521992821711D+02
 0.174178800174513D+03 -.128769635201745D+03 -.623543981281950D+02 0.394120942137441D+02
 0.000000000000000D+00 -.000000000000000D+00 0.000000000000000D+00 -.000000000000000D+00
 0.354417056909897D+03 0.000000000000000D+00 0.000000000000000D+00 0.354417056909897D+03
 0.580479567113375D+03 0.000000000000000D+00 0.000000000000000D+00 -.580479567113375D+03
 0.201633577826803D+03 0.393124185551885D+02 0.314201870093542D+02 0.172650380708750D+03
 0.209514566969107D+03 0.136046457444009D+03 -.246925153037352D+02 -.157410275640323D+03
 0.710924901673485D+02 0.869156720313241D+01 -.446288688112284D+02 -.546521992821711D+02
 0.177470627924905D+03 -.108282017257766D+03 -.995101200900484D+02 0.394120942137441D+02
 0.275185361135109D+03 -.757684259445634D+02 0.137411317195658D+03 -.226062510203479D+03
0.366793200056D-05 0.000000000000D+00 0.000000000000D+00 0.625047236103D-07 0.000000000000D+00  7 1 -1 23 -11 11 23 21 0 0.11629210D+00 0.20891904D-01 0.46896098D+05 0.46896098D+05 0.46896098D+05 0.11497517D+01  1  2  2  2  7  2       -1 0.194013184444D-03 0.100000000000D+01
-.165762336636D-06 0.000000000000D+00 -.140858246708D-07 0.625047236103D-07 0.000000000000D+00  7 1 -1 23 -11 11 23 21 2 0.11629210D+00 0.20891904D-01 0.46896098D+05 0.46896098D+05 0.46896098D+05 0.11497517D+01  1  2  3  2  7  2       -1 -.115905467808D-04 0.100000000000D+01
0.231557793339D-06 0.000000000000D+00 0.000000000000D+00 0.625047236103D-07 0.000000000000D+00  7 1 -1 23 -11 11 23 21 2 0.11629210D+00 0.20891904D-01 0.46896098D+05 0.46896098D+05 0.46896098D+05 0.11497517D+01  1  2 15  2  7  2       -1 0.161911414295D-04 0.100000000000D+01
0.677074395736D-06 0.000000000000D+00 0.000000000000D+00 0.625047236103D-07 0.000000000000D+00  7 1 -1 23 -11 11 23 21 2 0.11629210D+00 0.38163297D-01 0.95433207D+05 0.95433207D+05 0.95433207D+05 0.11233917D+01  1  2 12  2  7  2       -1 0.165249187991D-04 0.100000000000D+01
-.313552227122D-05 0.000000000000D+00 -.116645307700D-05 0.625047236103D-07 0.000000000000D+00  7 1 -1 23 -11 11 23 21 2 0.11629210D+00 0.41117898D-01 0.46896098D+05 0.46896098D+05 0.46896098D+05 0.11497517D+01  1  2  5  2  7  2       -1 -.716955783896D-04 0.100000000000D+01
0.335158508323D-05 0.000000000000D+00 0.942122616293D-06 0.625047236103D-07 0.000000000000D+00  7 1 -1 23 -11 11 23 21 2 0.11629210D+00 0.20891904D-01 0.46896098D+05 0.46896098D+05 0.46896098D+05 0.11497517D+01  1  2  6  2  7  2       -1 0.234351810462D-03 0.100000000000D+01
0.446038568645D-07 0.000000000000D+00 0.000000000000D+00 0.625047236103D-07 0.000000000000D+00  7 1 21 23 -11 11 23 1 2 0.11629210D+00 0.38163297D-01 0.95433207D+05 0.95433207D+05 0.95433207D+05 0.11233917D+01  1  2 12  4  7  2       -1 0.110503230934D-04 0.100000000000D+01
-.160877773964D-06 0.000000000000D+00 -.855311766275D-07 0.625047236103D-07 0.000000000000D+00  7 1 21 23 -11 11 23 1 2 0.11629210D+00 0.41117898D-01 0.46896098D+05 0.46896098D+05 0.46896098D+05 0.11497517D+01  1  2  5  4  7  2       -1 -.372417617033D-04 0.100000000000D+01
  </mgrwgt>
  </event>
  <event>
  9     66 -.56006291E-06 0.25717295E+03 0.75467711E-02 0.10265578E+00
        1 -1    0    0  502    0 0.00000000E+00 0.00000000E+00 0.21830872E+03 0.21830895E+03 0.32000000E+00 0.0000E+00 0.9000E+01
       -1 -1    0    0    0  501 0.00000000E+00 0.00000000E+00 -.11971317E+04 0.11971317E+04 0.32000000E+00 0.0000E+00 0.9000E+01
       25  2    1    2    0    0 -.20173733E+03 -.30905768E+02 0.43713409E+02 0.36495587E+03 0.29938071E+03 0.0000E+00 0.0000E+00
       23  2    1    2    0    0 0.19316999E+03 0.31764295E+02 -.10176410E+04 0.10405519E+04 0.93975198E+02 0.0000E+00 0.0000E+00
       23  1    3    3    0    0 -.19135833E+03 0.18075493E+02 -.56910082E+02 0.22022430E+03 0.91188000E+02 0.0000E+00 0.9000E+01
      -11  1    4    4    0    0 0.73504351E+02 0.11701603E+02 -.18990422E+03 0.20396919E+03 0.51099893E-03 0.0000E+00 0.9000E+01
       11  1    4    4    0    0 0.11966564E+03 0.20062692E+02 -.82773680E+03 0.83658269E+03 0.51099893E-03 0.0000E+00 0.9000E+01
       23  1    3    3    0    0 -.10378996E+02 -.48981261E+02 0.10062349E+03 0.14473156E+03 0.91188000E+02 0.0000E+00 0.9000E+01
       21  1    1    2  502  501 0.85673406E+01 -.85852724E+00 -.48953635E+01 0.99329491E+01 0.75000000E+00 0.0000E+00 0.9000E+01
#aMCatNLO 2  0  0  1  2 0.86102493D+01 0.00000000D+00  -5  7  0 0.00000000D+00 0.00000000D+00 0.00000000D+00 0.00000000D+00 0.00000000D+00
  <mgrwgt>
 -.4164276414D-04    3    2    0
 0.506666282055867D+03 0.000000000000000D+00 0.000000000000000D+00 0.506666282055867D+03
 0.506666282055867D+03 0.000000000000000D+00 0.000000000000000D+00 -.506666282055867D+03
 0.249124247892144D+03 -.189245254340910D+03 0.178637429182336D+02 0.132720608581417D+03
 0.101000407904949D+03 0.743556550441454D+02 0.116162944772987D+02 -.673600821149939D+02
 0.365798671539729D+03 0.122754008741038D+03 0.197532084155686D+02 -.344020249688193D+03
 0.297409236774914D+03 -.786440944427324D+01 -.492332458111009D+02 0.278659723221770D+03
 0.000000000000000D+00 0.000000000000000D+00 -.000000000000000D+00 0.000000000000000D+00
 0.512583225779210D+03 0.000000000000000D+00 0.000000000000000D+00 0.512583225779210D+03
 0.509826661487390D+03 0.000000000000000D+00 0.000000000000000D+00 -.509826661487390D+03
 0.250748372125909D+03 -.191358332429555D+03 0.180754930043883D+02 0.132720608581417D+03
 0.100385246842516D+03 0.735043509371134D+02 0.117016030699989D+02 -.673600821149939D+02
 0.364790773525644D+03 0.119665636851202D+03 0.200626920154719D+02 -.344020249688193D+03
 0.297444751442398D+03 -.103789959171219D+02 -.489812608489121D+02 0.278659723221770D+03
 0.904074333013255D+01 0.856734055836167D+01 -.858527240946983D+00 0.275656429182039D+01
-.109287728904D-04 0.000000000000D+00 0.000000000000D+00 0.193634204456D-06 0.000000000000D+00  7 1 -1 23 -11 11 23 21 2 0.33687562D-01 0.18302688D+00 0.67899188D+05 0.67899188D+05 0.67899188D+05 0.11357863D+01  1  2 13  1  7  1        1 -.476696197438D-04 0.100000000000D+01
-.216858134283D-03 0.000000000000D+00 0.000000000000D+00 0.193634204456D-06 0.000000000000D+00  7 1 -1 23 -11 11 23 21 2 0.33197273D-01 0.18302688D+00 0.66137929D+05 0.66137929D+05 0.66137929D+05 0.11367609D+01  1  2  8  1  7  1        1 -.966823724027D-03 0.100000000000D+01
0.226863543731D-03 0.000000000000D+00 0.000000000000D+00 0.193634204456D-06 0.179709725072D-07  7 1 -1 23 -11 11 23 21 2 0.33584957D-01 0.18416853D+00 0.67899188D+05 0.67899188D+05 0.67899188D+05 0.11357863D+01  1  2  1  1  7  1        1 0.972850579628D-03 0.100000000000D+01
  </mgrwgt>
  </event>
  <event>
  8     66 0.56006291E-06 0.33919448E+03 0.75467711E-02 0.95499015E-01
        1 -1    0    0  501    0 0.00000000E+00 0.00000000E+00 0.26824399E+04 0.26824399E+04 0.32000000E+00 0.0000E+00 0.9000E+01
       -1 -1    0    0    0  501 0.00000000E+00 0.00000000E+00 -.10369263E+03 0.10369312E+03 0.32000000E+00 0.0000E+00 0.9000E+01
       25  2    1    2    0    0 0.25117643E+03 0.26111478E+03 0.22162890E+04 0.22656084E+04 0.29962258E+03 0.0000E+00 0.0000E+00
       23  2    1    2    0    0 -.25117643E+03 -.26111478E+03 0.36245820E+03 0.52052463E+03 0.91101121E+02 0.0000E+00 0.0000E+00
       23  1    3    3    0    0 0.27911933E+03 0.17661823E+03 0.15977033E+04 0.16340357E+04 0.91188000E+02 0.0000E+00 0.9000E+01
      -13  1    4    4    0    0 -.15629666E+03 -.16435842E+03 0.16266629E+03 0.27911050E+03 0.10565837E+00 0.0000E+00 0.9000E+01
       13  1    4    4    0    0 -.94879772E+02 -.96756354E+02 0.19979191E+03 0.24141413E+03 0.10565837E+00 0.0000E+00 0.9000E+01
       23  1    3    3    0    0 -.27942900E+02 0.84496541E+02 0.61858572E+03 0.63157265E+03 0.91188000E+02 0.0000E+00 0.9000E+01
#aMCatNLO 1  0  0  2  1 0.88627999D+02 0.00000000D+00  -5  7  0 0.00000000D+00 0.00000000D+00 0.00000000D+00 0.00000000D+00 0.00000000D+00
  <mgrwgt>
 0.1702484247D-03    9    2    0
 0.527399230739835D+03 0.000000000000000D+00 0.000000000000000D+00 0.527399230739835D+03
 0.527399230739835D+03 0.000000000000000D+00 0.000000000000000D+00 -.527399230739835D+03
 0.410095252166583D+03 0.279119333867979D+03 0.176618234437801D+03 0.225302599254297D+03
 0.339556803758601D+03 -.156296744567226D+03 -.164358511813442D+03 -.252698298789119D+03
 0.149221649103971D+03 -.948796895194213D+02 -.967562634991853D+02 -.624753595562533D+02
 0.155924756450515D+03 -.279428997813320D+02 0.844965408748256D+02 0.898710590910758D+02
 0.000000000000000D+00 0.000000000000000D+00 -.000000000000000D+00 -.000000000000000D+00
 0.540501220223071D+03 0.000000000000000D+00 0.000000000000000D+00 0.540501220223071D+03
 0.703911597447110D+03 0.000000000000000D+00 0.000000000000000D+00 -.703911597447110D+03
 0.400256845473189D+03 0.250841386145541D+03 0.195467717974067D+03 0.225302599254297D+03
 0.344021058260681D+03 -.180150794063363D+03 -.148457905529559D+03 -.252698298789119D+03
 0.151871762142821D+03 -.105386608385438D+03 -.897525729864996D+02 -.624753595562533D+02
 0.162365670163286D+03 -.390499235930218D+02 0.919002486873707D+02 0.898710590910758D+02
 0.185897481630203D+03 0.737459398962817D+02 -.491574881453794D+02 -.163410377224039D+03
0.414867578393D-04 0.000000000000D+00 0.000000000000D+00 0.234850193970D-05 0.000000000000D+00  7 1 -1 23 -13 13 23 21 0 0.41268310D+00 0.15952751D-01 0.17322395D+06 0.17322395D+06 0.17322395D+06 0.11026520D+01  1  2  2  2  7  2       -1 0.150894778812D-03 0.100000000000D+01
-.214769818455D-05 0.000000000000D+00 -.159320073817D-06 0.234850193970D-05 0.000000000000D+00  7 1 -1 23 -13 13 23 21 2 0.41268310D+00 0.15952751D-01 0.17322395D+06 0.17322395D+06 0.17322395D+06 0.11026520D+01  1  2  3  2  7  2       -1 -.949762223352D-05 0.100000000000D+01
0.264948846816D-05 0.000000000000D+00 0.000000000000D+00 0.234850193970D-05 0.000000000000D+00  7 1 -1 23 -13 13 23 21 2 0.41268310D+00 0.15952751D-01 0.17322395D+06 0.17322395D+06 0.17322395D+06 0.11026520D+01  1  2 15  2  7  2       -1 0.117166558894D-04 0.100000000000D+01
0.133089185055D-03 0.000000000000D+00 0.000000000000D+00 0.234850193970D-05 0.000000000000D+00  7 1 -1 23 -13 13 23 21 2 0.41268310D+00 0.21441708D-01 0.21462032D+06 0.21462032D+06 0.21462032D+06 0.10954798D+01  1  2 12  2  7  2       -1 0.357082531692D-03 0.100000000000D+01
-.133822559407D-03 0.000000000000D+00 0.000000000000D+00 0.234850193970D-05 0.000000000000D+00  7 1 -1 23 -13 13 23 21 2 0.41268310D+00 0.15952751D-01 0.17322395D+06 0.17322395D+06 0.17322395D+06 0.11026520D+01  1  2  4  2  7  2       -1 -.591794566254D-03 0.100000000000D+01
-.155259800306D-03 0.000000000000D+00 -.205361802237D-04 0.234850193970D-05 0.000000000000D+00  7 1 -1 23 -13 13 23 21 2 0.41268310D+00 0.21830860D-01 0.17322395D+06 0.17322395D+06 0.17322395D+06 0.11026520D+01  1  2  5  2  7  2       -1 -.414907989986D-03 0.100000000000D+01
0.154984214538D-03 0.000000000000D+00 0.195655988141D-04 0.234850193970D-05 0.000000000000D+00  7 1 -1 23 -13 13 23 21 2 0.41268310D+00 0.15952751D-01 0.17322395D+06 0.17322395D+06 0.17322395D+06 0.11026520D+01  1  2  6  2  7  2       -1 0.685376340321D-03 0.100000000000D+01
0.509126645702D-05 0.000000000000D+00 0.000000000000D+00 0.234850193970D-05 0.000000000000D+00  7 1 21 23 -13 13 23 1 2 0.41268310D+00 0.21441708D-01 0.21462032D+06 0.21462032D+06 0.21462032D+06 0.10954798D+01  1  2 12  4  7  2       -1 0.159659257743D-03 0.100000000000D+01
-.570487113682D-05 0.000000000000D+00 -.819815957719D-06 0.234850193970D-05 0.000000000000D+00  7 1 21 23 -13 13 23 1 2 0.41268310D+00 0.21830860D-01 0.17322395D+06 0.17322395D+06 0.17322395D+06 0.11026520D+01  1  2  5  4  7  2       -1 -.178280961251D-03 0.100000000000D+01
  </mgrwgt>
  </event>
  <event>
  8     66 0.56006291E-06 0.24475983E+03 0.75467711E-02 0.88407027E-01
        1 -1    0    0  501    0 0.00000000E+00 0.00000000E+00 0.30822116E+03 0.30822133E+03 0.32000000E+00 0.0000E+00 0.9000E+01
       -1 -1    0    0    0  501 0.00000000E+00 0.00000000E+00 -.32022853E+03 0.32022869E+03 0.32000000E+00 0.0000E+00 0.9000E+01
       25  2    1    2    0    0 0.18749974E+03 -.27540155E+02 0.13353489E+03 0.37209372E+03 0.29104563E+03 0.0000E+00 0.0000E+00
       23  2    1    2    0    0 -.18749974E+03 0.27540155E+02 -.14554226E+03 0.25635630E+03 0.92851439E+02 0.0000E+00 0.0000E+00
       23  1    3    3    0    0 0.18938413E+02 -.94792215E+01 -.49994804E+02 0.10612846E+03 0.91188000E+02 0.0000E+00 0.9000E+01
      -13  1    4    4    0    0 -.12166816E+03 0.53151572E+02 -.12605472E+03 0.18307931E+03 0.10565837E+00 0.0000E+00 0.9000E+01
       13  1    4    4    0    0 -.65831585E+02 -.25611417E+02 -.19487547E+02 0.73276995E+02 0.10565837E+00 0.0000E+00 0.9000E+01
       23  1    3    3    0    0 0.16856133E+03 -.18060934E+02 0.18352970E+03 0.26596526E+03 0.91188000E+02 0.0000E+00 0.9000E+01
#aMCatNLO 1  0  0  1  1 0.83614696D+03 0.00000000D+00  -5  7  0 0.00000000D+00 0.00000000D+00 0.00000000D+00 0.00000000D+00 0.00000000D+00
  <mgrwgt>
 0.3208785226D-03    5    2    0
 0.314167652847958D+03 0.000000000000000D+00 0.000000000000000D+00 0.314167652847958D+03
 0.314167652847958D+03 0.000000000000000D+00 0.000000000000000D+00 -.314167652847958D+03
 0.105192448281169D+03 0.189384149828324D+02 -.947922156532083D+01 -.479758337899399D+02
 0.180703990850437D+03 -.121668229607512D+03 0.531516733052803D+02 -.122579255334243D+03
 0.729178303314821D+02 -.658315129838914D+02 -.256115179940523D+02 -.180906612522283D+02
 0.269521036232828D+03 0.168561327608571D+03 -.180609337459072D+02 0.188645750376411D+03
 0.000000000000000D+00 -.000000000000000D+00 -.000000000000000D+00 0.000000000000000D+00
 0.159582364620366D+04 0.000000000000000D+00 0.000000000000000D+00 0.159582364620366D+04
 0.685874412428237D+03 0.000000000000000D+00 0.000000000000000D+00 -.685874412428237D+03
 0.189103632543941D+03 0.141327565493883D+03 0.719011203045281D+02 -.479758337899399D+02
 0.205137667151730D+03 0.387920545466749D+02 0.159846692647062D+03 -.122579255334243D+03
 0.295573897424677D+02 -.232150598591322D+02 0.272548336670284D+01 -.180906612522283D+02
 0.622120524334152D+03 0.539369028656382D+03 0.228500606662195D+03 0.188645750376411D+03
 0.123577884485961D+04 -.696273588837808D+03 -.462973902980488D+03 0.909949233775426D+03
0.709172673970D-05 0.000000000000D+00 0.000000000000D+00 0.933204616732D-09 0.000000000000D+00  7 1 -1 23 -13 13 23 21 0 0.47418666D-01 0.49265954D-01 0.59907374D+05 0.59907374D+05 0.59907374D+05 0.11404530D+01  1  2  2  1  7  1        1 0.306457329176D-03 0.100000000000D+01
-.364129494310D-06 0.000000000000D+00 -.272340979750D-07 0.933204616732D-09 0.000000000000D+00  7 1 -1 23 -13 13 23 21 2 0.47418666D-01 0.49265954D-01 0.59907374D+05 0.59907374D+05 0.59907374D+05 0.11404530D+01  1  2  3  1  7  1        1 -.204657980448D-04 0.100000000000D+01
0.441754573241D-06 0.000000000000D+00 0.000000000000D+00 0.933204616732D-09 0.000000000000D+00  7 1 -1 23 -13 13 23 21 2 0.47418666D-01 0.49265954D-01 0.59907374D+05 0.59907374D+05 0.59907374D+05 0.11404530D+01  1  2 15  1  7  1        1 0.248286942491D-04 0.100000000000D+01
0.789384607022D-05 0.000000000000D+00 -.436379304796D-05 0.933204616732D-09 0.000000000000D+00  7 1 -1 23 -13 13 23 21 2 0.37088341D+00 0.49265954D-01 0.59907374D+05 0.59907374D+05 0.59907374D+05 0.11404530D+01  1  2  5  1  7  1        1 0.936458925744D-05 0.100000000000D+01
0.147029485260D-05 0.000000000000D+00 -.109107991844D-05 0.933204616732D-09 0.000000000000D+00  7 21 -1 23 -13 13 23 -1 2 0.37088341D+00 0.49265954D-01 0.59907374D+05 0.59907374D+05 0.59907374D+05 0.11404530D+01  1  2  5  3  7  1        1 0.693708010600D-06 0.100000000000D+01
  </mgrwgt>
  </event>
  <event>
  8     66 0.56006291E-06 0.68462570E+02 0.75467711E-02 0.10320380E+00
        1 -1    0    0  501    0 0.00000000E+00 0.00000000E+00 0.74195371E+03 0.74195378E+03 0.32000000E+00 0.0000E+00 0.9000E+01
       -1 -1    0    0    0  501 0.00000000E+00 0.00000000E+00 -.77789584E+02 0.77790242E+02 0.32000000E+00 0.0000E+00 0.9000E+01
       25  2    1    2    0    0 -.10578287E+02 0.81145988E+02 0.61841356E+03 0.69238902E+03 0.30045076E+03 0.0000E+00 0.0000E+00
       23  2    1    2    0    0 0.10578287E+02 -.81145988E+02 0.45750574E+02 0.12735500E+03 0.86195189E+02 0.0000E+00 0.0000E+00
       23  1    3    3    0    0 0.23853606E+02 -.14745981E+02 0.50732271E+03 0.51621510E+03 0.91188000E+02 0.0000E+00 0.9000E+01
      -13  1    4    4    0    0 -.16971824E+02 -.88021883E+02 0.28202703E+02 0.93974987E+02 0.10565837E+00 0.0000E+00 0.9000E+01
       13  1    4    4    0    0 0.27550111E+02 0.68758951E+01 0.17547871E+02 0.33380017E+02 0.10565837E+00 0.0000E+00 0.9000E+01
       23  1    3    3    0    0 -.34431893E+02 0.95891969E+02 0.11109084E+03 0.17617392E+03 0.91188000E+02 0.0000E+00 0.9000E+01
#aMCatNLO 1  0  0  1  2 0.13623067D+03 0.00000000D+00  -5  7  0 0.00000000D+00 0.00000000D+00 0.00000000D+00 0.00000000D+00 0.00000000D+00
  <mgrwgt>
 0.3674546992D-03    8    2    0
 0.240242728797098D+03 0.000000000000000D+00 0.000000000000000D+00 0.240242728797098D+03
 0.240242728797098D+03 0.000000000000000D+00 0.000000000000000D+00 -.240242728797098D+03
 0.179440800722129D+03 0.238536048274470D+02 -.147459745126489D+02 0.151977996408056D+03
 0.121344518007682D+03 -.169718777319176D+02 -.880220230710899D+02 -.817836834047104D+02
 0.326926308048112D+02 0.275501663462585D+02 0.687602330948200D+01 -.162023685515617D+02
 0.147007508059574D+03 -.344318934417878D+02 0.958919742742568D+02 -.539919444517838D+02
 0.000000000000000D+00 0.000000000000000D+00 -.000000000000000D+00 0.000000000000000D+00
 0.424136651744002D+03 0.000000000000000D+00 0.000000000000000D+00 0.424136651744002D+03
 0.276312443605770D+03 0.000000000000000D+00 0.000000000000000D+00 -.276312443605770D+03
 0.180245822392201D+03 0.650117372499413D+01 0.321516483843589D+02 0.151977996408056D+03
 0.104391557184221D+03 -.278621067267850D+02 -.585894986226191D+02 -.817836834047104D+02
 0.330990644508356D+02 0.243761649081391D+02 0.154542520107296D+02 -.162023685515617D+02
 0.181688295235738D+03 -.502892284490291D+02 0.138748869249394D+03 -.539919444517838D+02
 0.201024356086776D+03 0.472739965426809D+02 -.127765271021863D+03 0.147824208138232D+03
0.159292008885D-05 0.000000000000D+00 0.000000000000D+00 0.109822394567D-07 0.000000000000D+00  7 1 -1 23 -13 13 23 21 0 0.11414678D+00 0.11967684D-01 0.30655623D+05 0.30655623D+05 0.30655623D+05 0.11664658D+01  1  2  2  1  7  1        1 0.206798432072D-03 0.100000000000D+01
-.777265116374D-07 0.000000000000D+00 -.611723256667D-08 0.109822394567D-07 0.000000000000D+00  7 1 -1 23 -13 13 23 21 2 0.11414678D+00 0.11967684D-01 0.30655623D+05 0.30655623D+05 0.30655623D+05 0.11664658D+01  1  2  3  1  7  1        1 -.137298708438D-04 0.100000000000D+01
0.951432752266D-07 0.000000000000D+00 0.000000000000D+00 0.109822394567D-07 0.000000000000D+00  7 1 -1 23 -13 13 23 21 2 0.11414678D+00 0.11967684D-01 0.30655623D+05 0.30655623D+05 0.30655623D+05 0.11664658D+01  1  2 15  1  7  1        1 0.168064261858D-04 0.100000000000D+01
0.131605554057D-06 0.000000000000D+00 0.000000000000D+00 0.109822394567D-07 0.000000000000D+00  7 1 -1 23 -13 13 23 21 2 0.20445748D+00 0.11967684D-01 0.62589773D+05 0.62589773D+05 0.62589773D+05 0.11388140D+01  1  2 12  1  7  1        1 0.804778824639D-05 0.100000000000D+01
-.102707952994D-05 0.000000000000D+00 -.513316699078D-06 0.109822394567D-07 0.000000000000D+00  7 1 -1 23 -13 13 23 21 2 0.21606293D+00 0.11967684D-01 0.30655623D+05 0.30655623D+05 0.30655623D+05 0.11664658D+01  1  2  5  1  7  1        1 -.593730495965D-04 0.100000000000D+01
0.119274422783D-05 0.000000000000D+00 0.424026275195D-06 0.109822394567D-07 0.000000000000D+00  7 1 -1 23 -13 13 23 21 2 0.11414678D+00 0.11967684D-01 0.30655623D+05 0.30655623D+05 0.30655623D+05 0.11664658D+01  1  2  6  1  7  1        1 0.210690327570D-03 0.100000000000D+01
0.842255331371D-08 0.000000000000D+00 0.000000000000D+00 0.109822394567D-07 0.000000000000D+00  7 21 -1 23 -13 13 23 -1 2 0.20445748D+00 0.11967684D-01 0.62589773D+05 0.62589773D+05 0.62589773D+05 0.11388140D+01  1  2 12  3  7  1        1 0.505130916902D-06 0.100000000000D+01
-.420589275219D-07 0.000000000000D+00 -.356067880199D-07 0.109822394567D-07 0.000000000000D+00  7 21 -1 23 -13 13 23 -1 2 0.21606293D+00 0.11967684D-01 0.30655623D+05 0.30655623D+05 0.30655623D+05 0.11664658D+01  1  2  5  3  7  1        1 -.229048535519D-05 0.100000000000D+01
  </mgrwgt>
  </event>
  <event>
  8     66 0.56006291E-06 0.32924617E+03 0.75467711E-02 0.91580031E-01
        1 -1    0    0  501    0 0.00000000E+00 0.00000000E+00 0.85913119E+03 0.85913125E+03 0.32000000E+00 0.0000E+00 0.9000E+01
       -1 -1    0    0    0  501 0.00000000E+00 0.00000000E+00 -.53603321E+03 0.53603330E+03 0.32000000E+00 0.0000E+00 0.9000E+01
       25  2    1    2    0    0 -.54911162E+03 0.55578074E+02 0.50620328E+03 0.80681428E+03 0.30015832E+03 0.0000E+00 0.0000E+00
       23  2    1    2    0    0 0.54911162E+03 -.55578074E+02 -.18310530E+03 0.58835028E+03 0.89532138E+02 0.0000E+00 0.0000E+00
       23  1    3    3    0    0 -.54480482E+02 -.27957205E+02 0.42969431E+02 0.11794639E+03 0.91188000E+02 0.0000E+00 0.9000E+01
      -11  1    4    4    0    0 0.34689048E+03 -.56914484E+02 -.76539740E+02 0.35976464E+03 0.51099893E-03 0.0000E+00 0.9000E+01
       11  1    4    4    0    0 0.20222114E+03 0.13364101E+01 -.10656556E+03 0.22858564E+03 0.51099893E-03 0.0000E+00 0.9000E+01
       23  1    3    3    0    0 -.49463114E+03 0.83535279E+02 0.46323385E+03 0.68886788E+03 0.91188000E+02 0.0000E+00 0.9000E+01
#aMCatNLO 1  0  0  1  2 0.13775168D+03 0.00000000D+00  -5  7  0 0.00000000D+00 0.00000000D+00 0.00000000D+00 0.00000000D+00 0.00000000D+00
  <mgrwgt>
 0.3237575244D-03    9    2    0
 0.678618418158161D+03 0.000000000000000D+00 0.000000000000000D+00 0.678618418158161D+03
 0.678618418158161D+03 0.000000000000000D+00 0.000000000000000D+00 -.678618418158161D+03
 0.111013263422993D+03 -.544804824790182D+02 -.279572049172297D+02 0.160923905586519D+02
 0.388038918693966D+03 0.346890484694644D+03 -.569144840692607D+02 -.164322656845084D+03
 0.260341957191075D+03 0.202221140012707D+03 0.133641005299124D+01 -.163959626781141D+03
 0.597842697008289D+03 -.494631142228332D+03 0.835352789334992D+02 0.312189893067572D+03
 0.000000000000000D+00 -.000000000000000D+00 -.000000000000000D+00 0.000000000000000D+00
 0.772798696290753D+03 0.000000000000000D+00 0.000000000000000D+00 0.772798696290753D+03
 0.734411175050965D+03 0.000000000000000D+00 0.000000000000000D+00 -.734411175050965D+03
 0.106151100995773D+03 -.483699417073118D+02 -.188198991483464D+02 0.160923905586519D+02
 0.404802347486900D+03 0.369199342298681D+03 -.235552674469908D+02 -.164322656845084D+03
 0.273201544498031D+03 0.217233913076447D+03 0.237855357600670D+02 -.163959626781141D+03
 0.580054432172593D+03 -.461487636147121D+03 0.133095925139989D+03 0.312189893067572D+03
 0.143000446188421D+03 -.765756775206953D+02 -.114506294304718D+03 0.383875212397878D+02
0.532611805570D-04 0.000000000000D+00 0.000000000000D+00 0.128377564839D-05 0.000000000000D+00  7 1 -1 23 -11 11 23 21 0 0.13217404D+00 0.82466659D-01 0.34424678D+06 0.34424678D+06 0.34424678D+06 0.10801589D+01  1  2  2  1  7  1        1 0.191181881126D-03 0.100000000000D+01
-.288278911873D-05 0.000000000000D+00 -.204536957330D-06 0.128377564839D-05 0.000000000000D+00  7 1 -1 23 -11 11 23 21 2 0.13217404D+00 0.82466659D-01 0.34424678D+06 0.34424678D+06 0.34424678D+06 0.10801589D+01  1  2  3  1  7  1        1 -.120732474573D-04 0.100000000000D+01
0.339748400069D-05 0.000000000000D+00 0.000000000000D+00 0.128377564839D-05 0.000000000000D+00  7 1 -1 23 -11 11 23 21 2 0.13217404D+00 0.82466659D-01 0.34424678D+06 0.34424678D+06 0.34424678D+06 0.10801589D+01  1  2 15  1  7  1        1 0.142288122313D-04 0.100000000000D+01
0.595599172941D-04 0.000000000000D+00 0.000000000000D+00 0.128377564839D-05 0.000000000000D+00  7 1 -1 23 -11 11 23 21 2 0.15534013D+00 0.82466659D-01 0.43562310D+06 0.43562310D+06 0.43562310D+06 0.10727668D+01  1  2 12  1  7  1        1 0.184625331617D-03 0.100000000000D+01
-.562062361485D-04 0.000000000000D+00 0.000000000000D+00 0.128377564839D-05 0.000000000000D+00  7 1 -1 23 -11 11 23 21 2 0.13217404D+00 0.82466659D-01 0.34424678D+06 0.34424678D+06 0.34424678D+06 0.10801589D+01  1  2  4  1  7  1        1 -.235394185880D-03 0.100000000000D+01
-.146502214860D-03 0.000000000000D+00 -.395755496613D-04 0.128377564839D-05 0.000000000000D+00  7 1 -1 23 -11 11 23 21 2 0.15893304D+00 0.82466659D-01 0.34424678D+06 0.34424678D+06 0.34424678D+06 0.10801589D+01  1  2  5  1  7  1        1 -.446953530460D-03 0.100000000000D+01
0.151873290668D-03 0.000000000000D+00 0.389123614321D-04 0.128377564839D-05 0.000000000000D+00  7 1 -1 23 -11 11 23 21 2 0.13217404D+00 0.82466659D-01 0.34424678D+06 0.34424678D+06 0.34424678D+06 0.10801589D+01  1  2  6  1  7  1        1 0.636052012439D-03 0.100000000000D+01
0.144174437041D-05 0.000000000000D+00 0.000000000000D+00 0.128377564839D-05 0.000000000000D+00  7 21 -1 23 -11 11 23 -1 2 0.15534013D+00 0.82466659D-01 0.43562310D+06 0.43562310D+06 0.43562310D+06 0.10727668D+01  1  2 12  3  7  1        1 0.577564711627D-05 0.100000000000D+01
-.354093471391D-05 0.000000000000D+00 -.106346157932D-05 0.128377564839D-05 0.000000000000D+00  7 21 -1 23 -11 11 23 -1 2 0.15893304D+00 0.82466659D-01 0.34424678D+06 0.34424678D+06 0.34424678D+06 0.10801589D+01  1  2  5  3  7  1        1 -.136851963020D-04 0.100000000000D+01
  </mgrwgt>
  </event>
  <event>
  8     66 0.56006291E-06 0.46690221E+03 0.75467711E-02 0.83192325E-01
        1 -1    0    0  501    0 0.00000000E+00 0.00000000E+00 0.60849103E+03 0.60849112E+03 0.32000000E+00 0.0000E+00 0.9000E+01
       -1 -1    0    0    0  501 0.00000000E+00 0.00000000E+00 -.44626633E+03 0.44626645E+03 0.32000000E+00 0.0000E+00 0.9000E+01
       25  2    1    2    0    0 -.41610879E+03 0.14002921E+03 -.91167766E+02 0.53938048E+03 0.29977497E+03 0.0000E+00 0.0000E+00
       23  2    1    2    0    0 0.41610879E+03 -.14002921E+03 0.25339247E+03 0.51537709E+03 0.93011251E+02 0.0000E+00 0.0000E+00
       23  1    3    3    0    0 -.23363396E+03 0.15231267E+02 0.57554880E+02 0.25776857E+03 0.91188000E+02 0.0000E+00 0.9000E+01
      -13  1    4    4    0    0 0.10596913E+03 -.65012479E+02 0.36542688E+02 0.12958186E+03 0.10565837E+00 0.0000E+00 0.9000E+01
       13  1    4    4    0    0 0.31013966E+03 -.75016729E+02 0.21684978E+03 0.38579523E+03 0.10565837E+00 0.0000E+00 0.9000E+01
       23  1    3    3    0    0 -.18247483E+03 0.12479794E+03 -.14872265E+03 0.28161191E+03 0.91188000E+02 0.0000E+00 0.9000E+01
#aMCatNLO 1  0  0  2  1 0.14391490D+04 0.00000000D+00  -5  7  0 0.00000000D+00 0.00000000D+00 0.00000000D+00 0.00000000D+00 0.00000000D+00
  <mgrwgt>
 0.1811239298D-03    5    2    0
 0.521103796320207D+03 0.000000000000000D+00 0.000000000000000D+00 0.521103796320207D+03
 0.521103796320207D+03 0.000000000000000D+00 0.000000000000000D+00 -.521103796320207D+03
 0.251913849871789D+03 -.233633964102576D+03 0.152312672463517D+02 0.181250028693125D+02
 0.125453902494844D+03 0.105968868206476D+03 -.650124660402949D+02 0.168124918314894D+02
 0.356687435778937D+03 0.310139924077693D+03 -.750167421269754D+02 0.159410296832705D+03
 0.308152404494845D+03 -.182474828181592D+03 0.124797940920919D+03 -.194347791533507D+03
 0.000000000000000D+00 -.000000000000000D+00 -.000000000000000D+00 -.000000000000000D+00
 0.100941961964564D+04 0.000000000000000D+00 0.000000000000000D+00 0.100941961964564D+04
 0.516862155278116D+04 0.000000000000000D+00 0.000000000000000D+00 -.516862155278116D+04
 0.206562304763059D+03 -.615576175377942D+02 0.173881794329036D+03 0.181250028693125D+02
 0.260619737993970D+03 0.250870933207417D+03 0.685839837141400D+02 0.168124918314894D+02
 0.852771702639181D+03 0.764076966941208D+03 0.343503016982038D+03 0.159410296832705D+03
 0.456938643387873D+03 0.104680939851609D+03 0.389549110170954D+03 -.194347791533507D+03
 0.440114878364271D+04 -.105807122246244D+04 -.975517905196168D+03 -.415920193313552D+04
0.199376189557D-04 0.000000000000D+00 0.000000000000D+00 0.649692275509D-06 0.000000000000D+00  7 1 -1 23 -13 13 23 21 0 0.93614021D-01 0.68656374D-01 0.21799767D+06 0.21799767D+06 0.21799767D+06 0.10949628D+01  1  2  2  2  7  2       -1 0.179128903199D-03 0.100000000000D+01
-.109140050233D-05 0.000000000000D+00 -.765657064855D-07 0.649692275509D-06 0.000000000000D+00  7 1 -1 23 -13 13 23 21 2 0.93614021D-01 0.68656374D-01 0.21799767D+06 0.21799767D+06 0.21799767D+06 0.10949628D+01  1  2  3  2  7  2       -1 -.117564243837D-04 0.100000000000D+01
0.127668745916D-05 0.000000000000D+00 0.000000000000D+00 0.649692275509D-06 0.000000000000D+00  7 1 -1 23 -13 13 23 21 2 0.93614021D-01 0.68656374D-01 0.21799767D+06 0.21799767D+06 0.21799767D+06 0.10949628D+01  1  2 15  2  7  2       -1 0.137523114046D-04 0.100000000000D+01
-.496176077016D-06 0.000000000000D+00 -.144383198107D-04 0.649692275509D-06 0.000000000000D+00  7 1 -1 23 -13 13 23 21 2 0.93614021D-01 0.74478963D+00 0.21799767D+06 0.21799767D+06 0.21799767D+06 0.10949628D+01  1  2  5  2  7  2       -1 -.189665006654D-09 0.100000000000D+01
-.263997092310D-05 0.000000000000D+00 -.405811307791D-05 0.649692275509D-06 0.000000000000D+00  7 1 21 23 -13 13 23 1 2 0.93614021D-01 0.74478963D+00 0.21799767D+06 0.21799767D+06 0.21799767D+06 0.10949628D+01  1  2  5  4  7  2       -1 -.670782288856D-09 0.100000000000D+01
  </mgrwgt>
  </event>
  <event>
  9     66 0.56006291E-06 0.21527829E+03 0.75467711E-02 0.98077738E-01
        1 -1    0    0  501    0 0.00000000E+00 0.00000000E+00 0.63935618E+03 0.63935626E+03 0.32000000E+00 0.0000E+00 0.9000E+01
       21 -1    0    0  502  501 0.00000000E+00 0.00000000E+00 -.22886283E+03 0.22886406E+03 0.75000000E+00 0.0000E+00 0.9000E+01
       25  2    1    2    0    0 -.20174999E+02 -.11345613E+03 0.19497133E+03 0.37600651E+03 0.30014622E+03 0.0000E+00 0.0000E+00
       23  2    1    2    0    0 0.12088636E+03 -.11502061E+03 0.57847348E+02 0.19690752E+03 0.87080433E+02 0.0000E+00 0.0000E+00
       23  1    3    3    0    0 -.11996841E+03 -.66388432E+02 0.15790849E+03 0.22814510E+03 0.91188000E+02 0.0000E+00 0.9000E+01
      -13  1    4    4    0    0 0.90525191E+02 -.26125443E+02 0.26442784E+02 0.97860007E+02 0.10565837E+00 0.0000E+00 0.9000E+01
       13  1    4    4    0    0 0.30361169E+02 -.88895169E+02 0.31404564E+02 0.99047511E+02 0.10565837E+00 0.0000E+00 0.9000E+01
       23  1    3    3    0    0 0.99793407E+02 -.47067695E+02 0.37062842E+02 0.14786141E+03 0.91188000E+02 0.0000E+00 0.9000E+01
        1  1    1    2  502    0 -.10071136E+03 0.22847674E+03 0.15767467E+03 0.29530629E+03 0.32000000E+00 0.0000E+00 0.9000E+01
#aMCatNLO 2  0  0  2  1 0.24968860D+03 0.00000000D+00  -5  7  0 0.00000000D+00 0.00000000D+00 0.00000000D+00 0.00000000D+00 0.00000000D+00
  <mgrwgt>
 0.4133658014D-04    1    2    0
 0.224704694964540D+03 0.000000000000000D+00 0.000000000000000D+00 0.224704694964540D+03
 0.224704694964540D+03 0.000000000000000D+00 0.000000000000000D+00 -.224704694964540D+03
 0.195143434487144D+03 -.158823090954645D+03 0.217583897597775D+02 0.637770094478596D+02
 0.763094459051296D+02 0.725096803099625D+02 0.147453255371058D+02 -.186561831707269D+02
 0.566028132324777D+02 0.145220544867144D+02 -.529622569407513D+02 -.137108620829434D+02
 0.121353696304329D+03 0.717913561579682D+02 0.164585416438680D+02 -.314099641941892D+02
 0.000000000000000D+00 -.000000000000000D+00 0.000000000000000D+00 0.000000000000000D+00
 0.398073375119422D+03 0.000000000000000D+00 0.000000000000000D+00 0.398073375119422D+03
 0.367583871354704D+03 0.000000000000000D+00 0.000000000000000D+00 -.367583871354704D+03
 0.176585973660181D+03 -.119968429489533D+03 -.663884307783863D+02 0.637770094478596D+02
 0.960490360962290D+02 0.905252860759427D+02 -.261254042147432D+02 -.186561831707269D+02
 0.949323243055815D+02 0.303611200544753D+02 -.888952239889205D+02 -.137108620829434D+02
 0.146546659255745D+03 0.997933850357705D+02 -.470676794354853D+02 -.314099641941892D+02
 0.251543253156390D+03 -.100711361676655D+03 0.228476738417535D+03 0.304895037647186D+02
0.114954248755D-06 0.000000000000D+00 0.000000000000D+00 0.731184885177D-08 0.213407950195D-12  7 1 21 23 -13 13 23 1 2 0.98362563D-01 0.35209757D-01 0.13899958D+06 0.13899958D+06 0.13899958D+06 0.11101717D+01  1  2  1  4  7  2       -1 0.413365801405D-04 0.100000000000D+01
  </mgrwgt>
  </event>
  <event>
  7     66 0.56006291E-06 0.94290309E+02 0.75467711E-02 0.10499807E+00
        1 -1    0    0  501    0 0.00000000E+00 0.00000000E+00 0.41097862E+03 0.41097874E+03 0.32000000E+00 0.0000E+00 0.9000E+01
       -1 -1    0    0    0  501 0.00000000E+00 0.00000000E+00 -.19194641E+03 0.19194667E+03 0.32000000E+00 0.0000E+00 0.9000E+01
       25  2    1    2    0    0 -.33608162E+02 0.11082832E+03 0.26142813E+03 0.41480275E+03 0.30050663E+03 0.0000E+00 0.0000E+00
       23  1    3    3    0    0 -.51593971E+02 0.50553391E+02 0.27933161E+03 0.30258715E+03 0.91188000E+02 0.0000E+00 0.9000E+01
      -13  1    1    2    0    0 -.53309524E+02 -.63819712E+02 -.82065324E+01 0.83559675E+02 0.10565837E+00 0.0000E+00 0.9000E+01
       13  1    1    2    0    0 0.86917686E+02 -.47008610E+02 -.34189382E+02 0.10456299E+03 0.10565837E+00 0.0000E+00 0.9000E+01
       23  1    3    3    0    0 0.17985809E+02 0.60274931E+02 -.17903479E+02 0.11221561E+03 0.91188000E+02 0.0000E+00 0.9000E+01
#aMCatNLO 1  0  0  2  1 0.29768269D+02 0.00000000D+00  -5  7  0 0.00000000D+00 0.00000000D+00 0.00000000D+00 0.00000000D+00 0.00000000D+00
  <mgrwgt>
 0.9453223755D-04    9    2    0
 0.280866492913158D+03 0.000000000000000D+00 0.000000000000000D+00 0.280866492913158D+03
 0.280866492913158D+03 0.000000000000000D+00 0.000000000000000D+00 -.280866492913158D+03
 0.215859678433093D+03 -.515942566417827D+02 0.505543367706646D+02 0.181830803618359D+03
 0.928863167894184D+02 -.533073639730761D+02 -.638198558198684D+02 -.413910472937976D+02
 0.125561594775331D+03 0.869159818510299D+02 -.470099692048559D+02 -.774686322117169D+02
 0.127425395828475D+03 0.179856387638290D+02 0.602754882540596D+02 -.629711241128449D+02
 0.000000000000000D+00 -.000000000000000D+00 -.000000000000000D+00 -.000000000000000D+00
 0.282409455382693D+03 0.000000000000000D+00 0.000000000000000D+00 0.282409455382693D+03
 0.474093548286470D+03 0.000000000000000D+00 0.000000000000000D+00 -.474093548286470D+03
 0.214466527594102D+03 -.408392301434490D+02 0.543171819138640D+02 0.181830803618359D+03
 0.892333040180023D+02 -.487556975390628D+02 -.622273710466003D+02 -.413910472937976D+02
 0.129262660317254D+03 0.932847355489297D+02 -.447817428100545D+02 -.774686322117169D+02
 0.129558705161405D+03 0.244083729061739D+02 0.625226007067651D+02 -.629711241128449D+02
 0.193981806578400D+03 -.280981807725919D+02 -.983066876397427D+01 -.191684092903776D+03
0.134391311485D-05 0.000000000000D+00 0.000000000000D+00 0.170153960306D-09 0.000000000000D+00  7 1 -1 23 -13 13 23 21 0 0.63227510D-01 0.29530246D-01 0.41836343D+05 0.41836343D+05 0.41836343D+05 0.11541678D+01  1  2  2  2  7  2       -1 0.955812619200D-04 0.100000000000D+01
-.655328023767D-07 0.000000000000D+00 -.516098022148D-08 0.170153960306D-09 0.000000000000D+00  7 1 -1 23 -13 13 23 21 2 0.63227510D-01 0.29530246D-01 0.41836343D+05 0.41836343D+05 0.41836343D+05 0.11541678D+01  1  2  3  2  7  2       -1 -.620866470135D-05 0.100000000000D+01
0.864945618194D-07 0.000000000000D+00 0.000000000000D+00 0.170153960306D-09 0.000000000000D+00  7 1 -1 23 -13 13 23 21 2 0.63227510D-01 0.29530246D-01 0.41836343D+05 0.41836343D+05 0.41836343D+05 0.11541678D+01  1  2 15  2  7  2       -1 0.819460962068D-05 0.100000000000D+01
0.237059068314D-04 0.000000000000D+00 0.000000000000D+00 0.170153960306D-09 0.000000000000D+00  7 1 -1 23 -13 13 23 21 2 0.63227510D-01 0.49877992D-01 0.48234958D+05 0.48234958D+05 0.48234958D+05 0.11486708D+01  1  2 12  2  7  2       -1 0.908321070041D-03 0.100000000000D+01
-.209701818071D-04 0.000000000000D+00 0.000000000000D+00 0.170153960306D-09 0.000000000000D+00  7 1 -1 23 -13 13 23 21 2 0.63227510D-01 0.29530246D-01 0.41836343D+05 0.41836343D+05 0.41836343D+05 0.11541678D+01  1  2  4  2  7  2       -1 -.198674286532D-02 0.100000000000D+01
-.236338079992D-04 0.000000000000D+00 -.469822885561D-06 0.170153960306D-09 0.000000000000D+00  7 1 -1 23 -13 13 23 21 2 0.63227510D-01 0.49956439D-01 0.41836343D+05 0.41836343D+05 0.41836343D+05 0.11541678D+01  1  2  5  2  7  2       -1 -.913657092019D-03 0.100000000000D+01
0.209731614371D-04 0.000000000000D+00 0.411615509123D-06 0.170153960306D-09 0.000000000000D+00  7 1 -1 23 -13 13 23 21 2 0.63227510D-01 0.29530246D-01 0.41836343D+05 0.41836343D+05 0.41836343D+05 0.11541678D+01  1  2  6  2  7  2       -1 0.198702515942D-02 0.100000000000D+01
0.138815729948D-05 0.000000000000D+00 0.000000000000D+00 0.170153960306D-09 0.000000000000D+00  7 1 21 23 -13 13 23 1 2 0.63227510D-01 0.49877992D-01 0.48234958D+05 0.48234958D+05 0.48234958D+05 0.11486708D+01  1  2 12  4  7  2       -1 0.505022284317D-03 0.100000000000D+01
-.136491647033D-05 0.000000000000D+00 -.275786197003D-07 0.170153960306D-09 0.000000000000D+00  7 1 21 23 -13 13 23 1 2 0.63227510D-01 0.49956439D-01 0.41836343D+05 0.41836343D+05 0.41836343D+05 0.11541678D+01  1  2  5  4  7  2       -1 -.503003525728D-03 0.100000000000D+01
  </mgrwgt>
  </event>
  <event>
  9     66 0.56006291E-06 0.31803355E+03 0.75467711E-02 0.95201867E-01
        3 -1    0    0  501    0 0.00000000E+00 0.00000000E+00 0.10659241E+04 0.10659243E+04 0.50000000E+00 0.0000E+00 0.9000E+01
       -3 -1    0    0    0  502 0.00000000E+00 0.00000000E+00 -.25187202E+03 0.25187252E+03 0.50000000E+00 0.0000E+00 0.9000E+01
       25  2    1    2    0    0 0.22101521E+03 -.43715623E+02 0.22838163E+03 0.43823669E+03 0.29855393E+03 0.0000E+00 0.0000E+00
       23  2    1    2    0    0 -.23124651E+03 -.21802449E+03 0.50798235E+03 0.60634117E+03 0.92703454E+02 0.0000E+00 0.0000E+00
       23  1    3    3    0    0 0.64304492E+01 0.66541256E+02 0.44609836E+02 0.12154990E+03 0.91188000E+02 0.0000E+00 0.9000E+01
      -13  1    4    4    0    0 -.88752764E+02 -.85900334E+02 0.11896312E+03 0.17148806E+03 0.10565837E+00 0.0000E+00 0.9000E+01
       13  1    4    4    0    0 -.14249374E+03 -.13212415E+03 0.38901923E+03 0.43485311E+03 0.10565837E+00 0.0000E+00 0.9000E+01
       23  1    3    3    0    0 0.21458476E+03 -.11025688E+03 0.18377179E+03 0.31668679E+03 0.91188000E+02 0.0000E+00 0.9000E+01
       21  1    1    2  501  502 0.10231302E+02 0.26174011E+03 0.77688147E+02 0.27321891E+03 0.75000000E+00 0.0000E+00 0.9000E+01
#aMCatNLO 2  0  0  2  1 0.26194000D+03 0.00000000D+00  -5  7  0 0.00000000D+00 0.00000000D+00 0.00000000D+00 0.00000000D+00 0.00000000D+00
  <mgrwgt>
 0.1866718545D-05    2    2    0
 0.346517834731614D+03 0.000000000000000D+00 0.000000000000000D+00 0.346517834731614D+03
 0.346517834731614D+03 0.000000000000000D+00 0.000000000000000D+00 -.346517834731614D+03
 0.161032933186793D+03 0.848587824344588D+01 0.119123826753286D+03 -.579125029404946D+02
 0.983221763697378D+02 -.871696315497580D+02 -.454019215884579D+02 -.271499864397632D+01
 0.190088606908844D+03 -.139521686130195D+03 -.560903418099056D+02 0.116280914734880D+03
 0.243591952997852D+03 0.218205439436507D+03 -.176315633549225D+02 -.556534131504095D+02
 0.000000000000000D+00 0.000000000000000D+00 0.000000000000000D+00 -.000000000000000D+00
 0.443432218377824D+03 0.000000000000000D+00 0.000000000000000D+00 0.443432218377824D+03
 0.605450733785109D+03 0.000000000000000D+00 0.000000000000000D+00 -.605450733785109D+03
 0.127036210731671D+03 0.643044947464386D+01 0.665412564938676D+02 -.579125029404946D+02
 0.123544602463700D+03 -.887526937057824D+02 -.859002732256682D+02 -.271499864397632D+01
 0.226456500105575D+03 -.142493815615550D+03 -.132124213601471D+03 0.116280914734880D+03
 0.263847970393781D+03 0.214584757947367D+03 -.110256879142742D+03 -.556534131504095D+02
 0.307997668468207D+03 0.102313018993214D+02 0.261740109476014D+03 -.162018515407285D+03
-.149818375608D-06 0.000000000000D+00 0.000000000000D+00 0.592057073763D-07 0.000000000000D+00  7 3 -3 23 -13 13 23 21 2 0.12814776D+00 0.39949729D-01 0.22598472D+06 0.22598472D+06 0.22598472D+06 0.10937742D+01  1  2 13  2  7  2       -3 -.223492541396D-06 0.100000000000D+01
0.268074761260D-05 0.000000000000D+00 0.000000000000D+00 0.592057073763D-07 0.601828215573D-11  7 3 -3 23 -13 13 23 21 2 0.16398822D+00 0.38749552D-01 0.22598472D+06 0.22598472D+06 0.22598472D+06 0.10937742D+01  1  2  1  2  7  2       -3 0.209021108668D-05 0.100000000000D+01
  </mgrwgt>
  </event>
  <event>
  8     66 0.56006291E-06 0.43556689E+03 0.75467711E-02 0.88119011E-01
        1 -1    0    0  501    0 0.00000000E+00 0.00000000E+00 0.18099570E+04 0.18099570E+04 0.32000000E+00 0.0000E+00 0.9000E+01
       -1 -1    0    0    0  501 0.00000000E+00 0.00000000E+00 -.11770378E+03 0.11770422E+03 0.32000000E+00 0.0000E+00 0.9000E+01
       25  2    1    2    0    0 -.32307245E+03 -.23975580E+03 0.80805622E+03 0.95201384E+03 0.30251753E+03 0.0000E+00 0.0000E+00
       23  2    1    2    0    0 0.32307245E+03 0.23975580E+03 0.88419695E+03 0.97564736E+03 0.90691041E+02 0.0000E+00 0.0000E+00
       23  1    3    3    0    0 -.83866966E+02 -.13403107E+03 0.14391088E+03 0.23242975E+03 0.91188000E+02 0.0000E+00 0.9000E+01
      -11  1    4    4    0    0 0.13135292E+03 0.46279087E+02 0.27152625E+03 0.30515872E+03 0.51099893E-03 0.0000E+00 0.9000E+01
       11  1    4    4    0    0 0.19171953E+03 0.19347671E+03 0.61267071E+03 0.67048864E+03 0.51099893E-03 0.0000E+00 0.9000E+01
       23  1    3    3    0    0 -.23920549E+03 -.10572472E+03 0.66414534E+03 0.71958409E+03 0.91188000E+02 0.0000E+00 0.9000E+01
#aMCatNLO 1  0  0  1  2 0.72711070D+03 0.00000000D+00  -5  7  0 0.00000000D+00 0.00000000D+00 0.00000000D+00 0.00000000D+00 0.00000000D+00
  <mgrwgt>
 0.6913505255D-04    5    2    0
 0.461561728258265D+03 0.000000000000000D+00 0.000000000000000D+00 0.461561728258265D+03
 0.461561728258265D+03 0.000000000000000D+00 0.000000000000000D+00 -.461561728258265D+03
 0.221543686937249D+03 -.838669661332873D+02 -.134031074143085D+03 -.125572118853663D+03
 0.139473735993551D+03 0.131352918448654D+03 0.462790868160081D+02 0.758814671025707D+01
 0.276973772136478D+03 0.191719533541287D+03 0.193476711564543D+03 0.502479153039366D+02
 0.285132261449254D+03 -.239205485856653D+03 -.105724724237466D+03 0.677360568394693D+02
 0.000000000000000D+00 -.000000000000000D+00 0.000000000000000D+00 0.000000000000000D+00
 0.142364705090171D+04 0.000000000000000D+00 0.000000000000000D+00 0.142364705090171D+04
 0.745629394737901D+03 0.000000000000000D+00 0.000000000000000D+00 -.745629394737901D+03
 0.245814988291676D+03 0.724712705704132D+02 -.176321623839358D+03 -.125572118853663D+03
 0.267897642186936D+03 0.267624536638041D+03 0.941669305527950D+01 0.758814671025707D+01
 0.458552863344993D+03 0.437763831710039D+03 0.126920065931454D+03 0.502479153039366D+02
 0.202828921126533D+03 -.759754124523591D+02 -.149879562342194D+03 0.677360568394693D+02
 0.994182030689477D+03 -.701884226466134D+03 0.189864427194819D+03 0.678017656163813D+03
0.595351877435D-05 0.000000000000D+00 0.000000000000D+00 0.211926194248D-07 0.000000000000D+00  7 1 -1 23 -11 11 23 21 0 0.27845495D+00 0.18108310D-01 0.18971852D+06 0.18971852D+06 0.18971852D+06 0.10995901D+01  1  2  2  1  7  1        1 0.683900928713D-04 0.100000000000D+01
-.329399746390D-06 0.000000000000D+00 -.228630796910D-07 0.211926194248D-07 0.000000000000D+00  7 1 -1 23 -11 11 23 21 2 0.27845495D+00 0.18108310D-01 0.18971852D+06 0.18971852D+06 0.18971852D+06 0.10995901D+01  1  2  3  1  7  1        1 -.457513954501D-05 0.100000000000D+01
0.383065298012D-06 0.000000000000D+00 0.000000000000D+00 0.211926194248D-07 0.000000000000D+00  7 1 -1 23 -11 11 23 21 2 0.27845495D+00 0.18108310D-01 0.18971852D+06 0.18971852D+06 0.18971852D+06 0.10995901D+01  1  2 15  1  7  1        1 0.532051773707D-05 0.100000000000D+01
-.389709264667D-06 0.000000000000D+00 -.155076502726D-05 0.211926194248D-07 0.000000000000D+00  7 1 -1 23 -11 11 23 21 2 0.88372115D+00 0.18108310D-01 0.18971852D+06 0.18971852D+06 0.18971852D+06 0.10995901D+01  1  2  5  1  7  1        1 -.418825404909D-09 0.100000000000D+01
0.167538554082D-07 0.000000000000D+00 -.205938636816D-06 0.211926194248D-07 0.000000000000D+00  7 21 -1 23 -11 11 23 -1 2 0.88372115D+00 0.18108310D-01 0.18971852D+06 0.18971852D+06 0.18971852D+06 0.10995901D+01  1  2  5  3  7  1        1 0.316644071313D-12 0.100000000000D+01
  </mgrwgt>
  </event>
  <event>
  8     66 0.56006291E-06 0.10272684E+03 0.75467711E-02 0.10545485E+00
        1 -1    0    0  501    0 0.00000000E+00 0.00000000E+00 0.19023679E+04 0.19023679E+04 0.32000000E+00 0.0000E+00 0.9000E+01
       -1 -1    0    0    0  501 0.00000000E+00 0.00000000E+00 -.21629410E+02 0.21631777E+02 0.32000000E+00 0.0000E+00 0.9000E+01
       25  2    1    2    0    0 0.16397083E+02 0.25527113E+02 0.15365246E+04 0.15657170E+04 0.29940189E+03 0.0000E+00 0.0000E+00
       23  2    1    2    0    0 -.16397083E+02 -.25527113E+02 0.34421390E+03 0.35828268E+03 0.94671908E+02 0.0000E+00 0.0000E+00
       23  1    3    3    0    0 -.14654307E+02 -.10328770E+03 0.63308990E+03 0.64807498E+03 0.91188000E+02 0.0000E+00 0.9000E+01
      -11  1    4    4    0    0 -.11801079E+02 -.61657956E+02 0.20626701E+03 0.21560855E+03 0.51099893E-03 0.0000E+00 0.9000E+01
       11  1    4    4    0    0 -.45960041E+01 0.36130843E+02 0.13794690E+03 0.14267413E+03 0.51099893E-03 0.0000E+00 0.9000E+01
       23  1    3    3    0    0 0.31051390E+02 0.12881482E+03 0.90343468E+03 0.91764204E+03 0.91188000E+02 0.0000E+00 0.9000E+01
#aMCatNLO 1  0  0  1  2 0.25808227D+02 0.00000000D+00  -5  7  0 0.00000000D+00 0.00000000D+00 0.00000000D+00 0.00000000D+00 0.00000000D+00
  <mgrwgt>
 0.7153590730D-03    9    2    0
 0.202853143254554D+03 0.000000000000000D+00 0.000000000000000D+00 0.202853143254554D+03
 0.202853143254554D+03 0.000000000000000D+00 0.000000000000000D+00 -.202853143254554D+03
 0.138571956753596D+03 -.146543060792127D+02 -.103287703053852D+03 -.195897057572469D+01
 0.662954706044251D+02 -.118010795394760D+02 -.616579571909943D+02 -.213100975924250D+02
 0.371277103482679D+02 -.459600457896061D+01 0.361308422632646D+02 -.720457180977113D+01
 0.163711148802819D+03 0.310513901976493D+02 0.128814817981582D+03 0.304736399779208D+02
 0.000000000000000D+00 -.000000000000000D+00 -.000000000000000D+00 0.000000000000000D+00
 0.221727655891560D+03 0.000000000000000D+00 0.000000000000000D+00 0.221727655891560D+03
 0.212281345836743D+03 0.000000000000000D+00 0.000000000000000D+00 -.212281345836743D+03
 0.136709179782487D+03 -.606129360155299D+01 -.101654176731503D+03 -.195897057572469D+01
 0.649594762465811D+02 -.770390306658893D+01 -.608790864942309D+02 -.213100975924250D+02
 0.373447694798395D+02 -.227131587541298D+01 0.365727641385540D+02 -.720457180977113D+01
 0.167512902649443D+03 0.413906834846676D+02 0.130780311198628D+03 0.304736399779208D+02
 0.274826735699525D+02 -.253541709411127D+02 -.481981211144785D+01 0.944631005481719D+01
0.215277466767D-05 0.000000000000D+00 0.000000000000D+00 0.656565702783D-08 0.000000000000D+00  7 1 -1 23 -11 11 23 21 0 0.29267217D+00 0.33277856D-02 0.39721916D+05 0.39721916D+05 0.39721916D+05 0.11561912D+01  1  2  2  1  7  1        1 0.289909189811D-03 0.100000000000D+01
-.119553276832D-06 0.000000000000D+00 -.826722156245D-08 0.656565702783D-08 0.000000000000D+00  7 1 -1 23 -11 11 23 21 2 0.29267217D+00 0.33277856D-02 0.39721916D+05 0.39721916D+05 0.39721916D+05 0.11561912D+01  1  2  3  1  7  1        1 -.215220781776D-04 0.100000000000D+01
0.138711062492D-06 0.000000000000D+00 0.000000000000D+00 0.656565702783D-08 0.000000000000D+00  7 1 -1 23 -11 11 23 21 2 0.29267217D+00 0.33277856D-02 0.39721916D+05 0.39721916D+05 0.39721916D+05 0.11561912D+01  1  2 15  1  7  1        1 0.249708783410D-04 0.100000000000D+01
0.363225622408D-05 0.000000000000D+00 0.000000000000D+00 0.656565702783D-08 0.000000000000D+00  7 1 -1 23 -11 11 23 21 2 0.32621784D+00 0.33277856D-02 0.45204908D+05 0.45204908D+05 0.45204908D+05 0.11511667D+01  1  2 12  1  7  1        1 0.467629227566D-03 0.100000000000D+01
-.341457459153D-05 0.000000000000D+00 0.000000000000D+00 0.656565702783D-08 0.000000000000D+00  7 1 -1 23 -11 11 23 21 2 0.29267217D+00 0.33277856D-02 0.39721916D+05 0.39721916D+05 0.39721916D+05 0.11561912D+01  1  2  4  1  7  1        1 -.614694496456D-03 0.100000000000D+01
-.108436903111D-04 0.000000000000D+00 -.209672492554D-05 0.656565702783D-08 0.000000000000D+00  7 1 -1 23 -11 11 23 21 2 0.32648058D+00 0.33277856D-02 0.39721916D+05 0.39721916D+05 0.39721916D+05 0.11561912D+01  1  2  5  1  7  1        1 -.140676739483D-02 0.100000000000D+01
0.110194564904D-04 0.000000000000D+00 0.208425877194D-05 0.656565702783D-08 0.000000000000D+00  7 1 -1 23 -11 11 23 21 2 0.29267217D+00 0.33277856D-02 0.39721916D+05 0.39721916D+05 0.39721916D+05 0.11561912D+01  1  2  6  1  7  1        1 0.198373152409D-02 0.100000000000D+01
0.632844094776D-07 0.000000000000D+00 0.000000000000D+00 0.656565702783D-08 0.000000000000D+00  7 21 -1 23 -11 11 23 -1 2 0.32621784D+00 0.33277856D-02 0.45204908D+05 0.45204908D+05 0.45204908D+05 0.11511667D+01  1  2 12  3  7  1        1 0.412374433840D-05 0.100000000000D+01
-.181961165646D-06 0.000000000000D+00 -.367621867961D-07 0.656565702783D-08 0.000000000000D+00  7 21 -1 23 -11 11 23 -1 2 0.32648058D+00 0.33277856D-02 0.39721916D+05 0.39721916D+05 0.39721916D+05 0.11561912D+01  1  2  5  3  7  1        1 -.120215216482D-04 0.100000000000D+01
  </mgrwgt>
  </event>
  <event>
  8     66 0.56006291E-06 0.30676413E+03 0.75467711E-02 0.94979731E-01
        1 -1    0    0  501    0 0.00000000E+00 0.00000000E+00 0.53369831E+03 0.53369841E+03 0.32000000E+00 0.0000E+00 0.9000E+01
       -1 -1    0    0    0  501 0.00000000E+00 0.00000000E+00 -.30402770E+03 0.30402787E+03 0.32000000E+00 0.0000E+00 0.9000E+01
       25  2    1    2    0    0 0.14738911E+03 0.19876243E+03 0.37297300E+03 0.53728729E+03 0.29721830E+03 0.0000E+00 0.0000E+00
       23  2    1    2    0    0 -.14738911E+03 -.19876243E+03 -.14330239E+03 0.30043899E+03 0.92184362E+02 0.0000E+00 0.0000E+00
       23  1    3    3    0    0 0.18214335E+03 0.11633013E+03 0.32505009E+03 0.40085124E+03 0.91188000E+02 0.0000E+00 0.9000E+01
      -11  1    4    4    0    0 -.68246297E+02 -.12796159E+03 -.35893109E+02 0.14939893E+03 0.51099893E-03 0.0000E+00 0.9000E+01
       11  1    4    4    0    0 -.79142816E+02 -.70800833E+02 -.10740928E+03 0.15104005E+03 0.51099893E-03 0.0000E+00 0.9000E+01
       23  1    3    3    0    0 -.34754239E+02 0.82432291E+02 0.47922915E+02 0.13643605E+03 0.91188000E+02 0.0000E+00 0.9000E+01
#aMCatNLO 1  0  0  1  2 0.28513845D+03 0.00000000D+00  -5  7  0 0.00000000D+00 0.00000000D+00 0.00000000D+00 0.00000000D+00 0.00000000D+00
  <mgrwgt>
 0.3163177086D-03    3    2    0
 0.402814077594998D+03 0.000000000000000D+00 0.000000000000000D+00 0.402814077594998D+03
 0.402814077594998D+03 0.000000000000000D+00 0.000000000000000D+00 -.402814077594998D+03
 0.324155950187111D+03 0.182143352002153D+03 0.116330134261896D+03 0.223725116787852D+03
 0.165583841645109D+03 -.682462969411248D+02 -.127961592338654D+03 -.799142193475754D+02
 0.187678367576636D+03 -.791428159990968D+02 -.708008329663690D+02 -.154747621575365D+03
 0.128209995781139D+03 -.347542390619312D+02 0.824322910431269D+02 0.109367241350882D+02
 0.000000000000000D+00 -.000000000000000D+00 0.000000000000000D+00 -.000000000000000D+00
 0.453683487889802D+03 0.000000000000000D+00 0.000000000000000D+00 0.453683487889802D+03
 0.119770105449965D+04 0.000000000000000D+00 0.000000000000000D+00 -.119770105449965D+04
 0.346439796553411D+03 0.247374063862036D+03 0.214108836485544D+02 0.223725116787852D+03
 0.199294153859594D+03 -.327536003284984D+02 -.179608126136319D+03 -.799142193475754D+02
 0.203874020810373D+03 -.410554270631141D+02 -.126222984780195D+03 -.154747621575365D+03
 0.104991735689697D+03 -.120700585780278D+02 0.494238299836348D+02 0.109367241350882D+02
 0.796784835476374D+03 -.161494977892396D+03 0.234996397284325D+03 -.744017566609844D+03
0.138211586676D-04 0.000000000000D+00 0.000000000000D+00 0.251909869749D-07 0.000000000000D+00  7 1 -1 23 -11 11 23 21 0 0.82107453D-01 0.46773513D-01 0.94104234D+05 0.94104234D+05 0.94104234D+05 0.11238942D+01  1  2  2  1  7  1        1 0.311672540181D-03 0.100000000000D+01
-.698570625856D-06 0.000000000000D+00 -.530768884782D-07 0.251909869749D-07 0.000000000000D+00  7 1 -1 23 -11 11 23 21 2 0.82107453D-01 0.46773513D-01 0.94104234D+05 0.94104234D+05 0.94104234D+05 0.11238942D+01  1  2  3  1  7  1        1 -.198982666091D-04 0.100000000000D+01
0.861649064035D-06 0.000000000000D+00 0.000000000000D+00 0.251909869749D-07 0.000000000000D+00  7 1 -1 23 -11 11 23 21 2 0.82107453D-01 0.46773513D-01 0.94104234D+05 0.94104234D+05 0.94104234D+05 0.11238942D+01  1  2 15  1  7  1        1 0.245434350730D-04 0.100000000000D+01
  </mgrwgt>
  </event>
  <event>
  8     66 0.56006291E-06 0.28476994E+03 0.75467711E-02 0.97032262E-01
        1 -1    0    0  501    0 0.00000000E+00 0.00000000E+00 0.17515285E+04 0.17515286E+04 0.32000000E+00 0.0000E+00 0.9000E+01
       -1 -1    0    0    0  501 0.00000000E+00 0.00000000E+00 -.95014725E+02 0.95015264E+02 0.32000000E+00 0.0000E+00 0.9000E+01
       25  2    1    2    0    0 0.89229597E+02 0.19067365E+03 0.15516945E+04 0.15944166E+04 0.30015012E+03 0.0000E+00 0.0000E+00
       23  2    1    2    0    0 -.89229597E+02 -.19067365E+03 0.10481931E+03 0.25212723E+03 0.90899335E+02 0.0000E+00 0.0000E+00
       23  1    3    3    0    0 0.43706015E+02 0.22189820E+03 0.83639130E+03 0.87121449E+03 0.91188000E+02 0.0000E+00 0.9000E+01
      -13  1    4    4    0    0 -.83330434E+02 -.10899633E+03 0.10059542E+03 0.17012822E+03 0.10565837E+00 0.0000E+00 0.9000E+01
       13  1    4    4    0    0 -.58991634E+01 -.81677321E+02 0.42238859E+01 0.81999008E+02 0.10565837E+00 0.0000E+00 0.9000E+01
       23  1    3    3    0    0 0.45523582E+02 -.31224541E+02 0.71530320E+03 0.72320211E+03 0.91188000E+02 0.0000E+00 0.9000E+01
#aMCatNLO 1  0  0  1  1 0.19253596D+03 0.00000000D+00  -5  7  0 0.00000000D+00 0.00000000D+00 0.00000000D+00 0.00000000D+00 0.00000000D+00
  <mgrwgt>
 0.2672617345D-03    3    2    0
 0.407947945468319D+03 0.000000000000000D+00 0.000000000000000D+00 0.407947945468319D+03
 0.407947945468319D+03 0.000000000000000D+00 0.000000000000000D+00 -.407947945468319D+03
 0.273615785992274D+03 0.437060153699067D+02 0.221898195677218D+03 0.124102062738096D+03
 0.180796986539833D+03 -.833305385367528D+02 -.108996370152233D+03 -.117742783144857D+03
 0.177005220961697D+03 -.589905891606251D+01 -.816772844171805D+02 -.156923135839936D+03
 0.184477897442833D+03 0.455235820829086D+02 -.312245411078051D+02 0.150563856246697D+03
 0.000000000000000D+00 -.000000000000000D+00 0.000000000000000D+00 -.000000000000000D+00
 0.437013927134750D+03 0.000000000000000D+00 0.000000000000000D+00 0.437013927134750D+03
 0.938017629102409D+03 0.000000000000000D+00 0.000000000000000D+00 -.938017629102409D+03
 0.237148690243428D+03 0.672775591386430D+02 0.167322018875787D+03 0.124102062738096D+03
 0.201578691232380D+03 -.656840782912509D+02 -.149853954353200D+03 -.117742783144857D+03
 0.199009410791025D+03 0.114538420048591D+02 -.121855178490204D+03 -.156923135839936D+03
 0.200568759941291D+03 0.632933067991340D+02 -.723675246705433D+02 0.150563856246697D+03
 0.536726004029036D+03 -.763406296513851D+02 0.176754638638161D+03 -.501003701967660D+03
0.145085112753D-04 0.000000000000D+00 0.000000000000D+00 0.107503897831D-05 0.000000000000D+00  7 1 -1 23 -13 13 23 21 0 0.26946597D+00 0.14617694D-01 0.81093916D+05 0.81093916D+05 0.81093916D+05 0.11292680D+01  1  2  2  1  7  1        1 0.262704447403D-03 0.100000000000D+01
-.679400889224D-06 0.000000000000D+00 -.557165034760D-07 0.107503897831D-05 0.000000000000D+00  7 1 -1 23 -13 13 23 21 2 0.26946597D+00 0.14617694D-01 0.81093916D+05 0.81093916D+05 0.81093916D+05 0.11292680D+01  1  2  3  1  7  1        1 -.156878972362D-04 0.100000000000D+01
0.876764809308D-06 0.000000000000D+00 0.000000000000D+00 0.107503897831D-05 0.000000000000D+00  7 1 -1 23 -13 13 23 21 2 0.26946597D+00 0.14617694D-01 0.81093916D+05 0.81093916D+05 0.81093916D+05 0.11292680D+01  1  2 15  1  7  1        1 0.202451843189D-04 0.100000000000D+01
  </mgrwgt>
  </event>
  <event>
  8     66 0.56006291E-06 0.14818150E+03 0.75467711E-02 0.10688204E+00
        1 -1    0    0  501    0 0.00000000E+00 0.00000000E+00 0.10621099E+03 0.10621147E+03 0.32000000E+00 0.0000E+00 0.9000E+01
       -1 -1    0    0    0  501 0.00000000E+00 0.00000000E+00 -.60069201E+03 0.60069210E+03 0.32000000E+00 0.0000E+00 0.9000E+01
       25  2    1    2    0    0 -.81836776E+02 -.14911293E+01 -.49458306E+03 0.58394207E+03 0.29946026E+03 0.0000E+00 0.0000E+00
       23  2    1    2    0    0 0.81836776E+02 0.14911293E+01 0.10203505E+00 0.12296150E+03 0.91760768E+02 0.0000E+00 0.0000E+00
       23  1    3    3    0    0 -.63693474E+02 -.47013702E+02 -.55644800E+02 0.13296143E+03 0.91188000E+02 0.0000E+00 0.9000E+01
      -11  1    4    4    0    0 -.20328025E+02 0.19291331E+01 -.35733823E+01 0.20729669E+02 0.51099893E-03 0.0000E+00 0.9000E+01
       11  1    4    4    0    0 0.10216480E+03 -.43800383E+00 0.36754173E+01 0.10223183E+03 0.51099893E-03 0.0000E+00 0.9000E+01
       23  1    3    3    0    0 -.18143302E+02 0.45522573E+02 -.43893826E+03 0.45098064E+03 0.91188000E+02 0.0000E+00 0.9000E+01
#aMCatNLO 1  0  0  2  1 0.37807191D+02 0.00000000D+00  -5  7  0 0.00000000D+00 0.00000000D+00 0.00000000D+00 0.00000000D+00 0.00000000D+00
  <mgrwgt>
 0.2465410301D-03    9    2    0
 0.252587195174639D+03 0.000000000000000D+00 0.000000000000000D+00 0.252587195174639D+03
 0.252587195174639D+03 0.000000000000000D+00 0.000000000000000D+00 -.252587195174639D+03
 0.131589432570500D+03 -.636934740488691D+02 -.470137022082010D+02 0.522817424010603D+02
 0.255098194798855D+02 -.203280244771233D+02 0.192913311168445D+01 0.152905446662708D+02
 0.146653256297825D+03 0.102164800828272D+03 -.438003830861008D+00 0.105210927222980D+03
 0.201421882001068D+03 -.181433023022798D+02 0.455225729273776D+02 -.172783214290312D+03
 0.000000000000000D+00 0.000000000000000D+00 0.000000000000000D+00 -.000000000000000D+00
 0.269896918501703D+03 0.000000000000000D+00 0.000000000000000D+00 0.269896918501703D+03
 0.274816111147809D+03 0.000000000000000D+00 0.000000000000000D+00 -.274816111147809D+03
 0.137044600677749D+03 -.736838763006740D+02 -.479924683230603D+02 0.522817424010603D+02
 0.270811807643337D+02 -.222838646992704D+02 0.173751819095685D+01 0.152905446662708D+02
 0.139457012661028D+03 0.915244637097449D+02 -.148044448137759D+01 0.105210927222980D+03
 0.203004363572859D+03 -.331837676730132D+02 0.440490488904522D+02 -.172783214290312D+03
 0.381258719735407D+02 0.376270449632126D+02 0.368634572302887D+01 -.491919264610601D+01
0.257610082676D-05 0.000000000000D+00 0.000000000000D+00 0.210019296194D-06 0.000000000000D+00  7 1 -1 23 -11 11 23 21 0 0.16340195D-01 0.92414200D-01 0.30078722D+05 0.30078722D+05 0.30078722D+05 0.11672303D+01  1  2  2  2  7  2       -1 0.132762766356D-03 0.100000000000D+01
-.118519949941D-06 0.000000000000D+00 -.989290547767D-08 0.210019296194D-06 0.000000000000D+00  7 1 -1 23 -11 11 23 21 2 0.16340195D-01 0.92414200D-01 0.30078722D+05 0.30078722D+05 0.30078722D+05 0.11672303D+01  1  2  3  2  7  2       -1 -.832181444614D-05 0.100000000000D+01
0.160741156018D-06 0.000000000000D+00 0.000000000000D+00 0.210019296194D-06 0.000000000000D+00  7 1 -1 23 -11 11 23 21 2 0.16340195D-01 0.92414200D-01 0.30078722D+05 0.30078722D+05 0.30078722D+05 0.11672303D+01  1  2 15  2  7  2       -1 0.112863536891D-04 0.100000000000D+01
0.323529514487D-05 0.000000000000D+00 0.000000000000D+00 0.210019296194D-06 0.000000000000D+00  7 1 -1 23 -11 11 23 21 2 0.16340195D-01 0.10346906D+00 0.37045312D+05 0.37045312D+05 0.37045312D+05 0.11589302D+01  1  2 12  2  7  2       -1 0.175336764760D-03 0.100000000000D+01
-.281342744693D-05 0.000000000000D+00 0.000000000000D+00 0.210019296194D-06 0.000000000000D+00  7 1 -1 23 -11 11 23 21 2 0.16340195D-01 0.92414200D-01 0.30078722D+05 0.30078722D+05 0.30078722D+05 0.11672303D+01  1  2  4  2  7  2       -1 -.197543292777D-03 0.100000000000D+01
-.866812692668D-05 0.000000000000D+00 -.237380216928D-05 0.210019296194D-06 0.000000000000D+00  7 1 -1 23 -11 11 23 21 2 0.16340195D-01 0.10601588D+00 0.30078722D+05 0.30078722D+05 0.30078722D+05 0.11672303D+01  1  2  5  2  7  2       -1 -.452380813018D-03 0.100000000000D+01
0.893194064595D-05 0.000000000000D+00 0.235159930712D-05 0.210019296194D-06 0.000000000000D+00  7 1 -1 23 -11 11 23 21 2 0.16340195D-01 0.92414200D-01 0.30078722D+05 0.30078722D+05 0.30078722D+05 0.11672303D+01  1  2  6  2  7  2       -1 0.627151401403D-03 0.100000000000D+01
0.583431833970D-07 0.000000000000D+00 0.000000000000D+00 0.210019296194D-06 0.000000000000D+00  7 1 21 23 -11 11 23 1 2 0.16340195D-01 0.10346906D+00 0.37045312D+05 0.37045312D+05 0.37045312D+05 0.11589302D+01  1  2 12  4  7  2       -1 0.232004588254D-04 0.100000000000D+01
-.169923507331D-06 0.000000000000D+00 -.503803885992D-07 0.210019296194D-06 0.000000000000D+00  7 1 21 23 -11 11 23 1 2 0.16340195D-01 0.10601588D+00 0.30078722D+05 0.30078722D+05 0.30078722D+05 0.11672303D+01  1  2  5  4  7  2       -1 -.649507946584D-04 0.100000000000D+01
  </mgrwgt>
  </event>
  <event>
  9     66 0.56006291E-06 0.30081743E+03 0.75467711E-02 0.98468083E-01
        3 -1    0    0  501    0 0.00000000E+00 0.00000000E+00 0.18118312E+03 0.18118381E+03 0.50000000E+00 0.0000E+00 0.9000E+01
       21 -1    0    0  502  501 0.00000000E+00 0.00000000E+00 -.99725016E+03 0.99725044E+03 0.75000000E+00 0.0000E+00 0.9000E+01
       25  2    1    2    0    0 0.27739854E+03 0.92355995E+02 -.24291906E+03 0.48816939E+03 0.30630067E+03 0.0000E+00 0.0000E+00
       23  2    1    2    0    0 -.16966008E+03 -.74714516E+02 -.15583940E+03 0.25891177E+03 0.91556443E+02 0.0000E+00 0.0000E+00
       23  1    3    3    0    0 0.17552007E+03 0.15957311E+03 -.83135751E+02 0.26739049E+03 0.91188000E+02 0.0000E+00 0.9000E+01
      -13  1    4    4    0    0 -.58458335E+01 0.17611385E+02 -.17035083E+02 0.25190075E+02 0.10565837E+00 0.0000E+00 0.9000E+01
       13  1    4    4    0    0 -.16381425E+03 -.92325902E+02 -.13880432E+03 0.23372169E+03 0.10565837E+00 0.0000E+00 0.9000E+01
       23  1    3    3    0    0 0.10187848E+03 -.67217112E+02 -.15978331E+03 0.22077890E+03 0.91188000E+02 0.0000E+00 0.9000E+01
        3  1    1    2  502    0 -.10773847E+03 -.17641479E+02 -.41730857E+03 0.43135310E+03 0.50000000E+00 0.0000E+00 0.9000E+01
#aMCatNLO 2  0  0  2  1 0.10917325D+03 0.00000000D+00  -5  7  0 0.00000000D+00 0.00000000D+00 0.00000000D+00 0.00000000D+00 0.00000000D+00
  <mgrwgt>
 0.7657000433D-05    2    2    0
 0.311128246467276D+03 0.000000000000000D+00 0.000000000000000D+00 0.311128246467276D+03
 0.311128246467276D+03 0.000000000000000D+00 0.000000000000000D+00 -.311128246467276D+03
 0.232839586581716D+03 0.132857875923687D+03 0.152587449397090D+03 0.704618820858569D+02
 0.198392603391599D+02 -.918555067394577D+01 0.170646392134139D+02 -.424499683596517D+01
 0.222637618928069D+03 -.199160707812931D+03 -.981137681266918D+02 -.166195766911832D+02
 0.146940027085607D+03 0.754883825631899D+02 -.715383204838118D+02 -.495973085587086D+02
 0.000000000000000D+00 -.000000000000000D+00 -.000000000000000D+00 -.000000000000000D+00
 0.328616687298019D+03 0.000000000000000D+00 0.000000000000000D+00 0.328616687298019D+03
 0.549835743682414D+03 0.000000000000000D+00 0.000000000000000D+00 -.549835743682414D+03
 0.263725232785328D+03 0.175520065824343D+03 0.159573107789542D+03 0.704618820858569D+02
 0.190356856307365D+02 -.584562351305773D+01 0.176115307409226D+02 -.424499683596517D+01
 0.188773635384856D+03 -.163814456177268D+03 -.923260474317307D+02 -.166195766911832D+02
 0.160226430882245D+03 0.101878479585448D+03 -.672171123327431D+02 -.495973085587086D+02
 0.246691446297267D+03 -.107738465719465D+03 -.176414787659904D+02 -.221219056384395D+03
-.675704408294D-06 0.000000000000D+00 0.000000000000D+00 0.453986845848D-08 0.000000000000D+00  7 3 21 23 -13 13 23 3 2 0.26390952D-01 0.15419245D+00 0.13041671D+06 0.13041671D+06 0.13041671D+06 0.11123787D+01  1  2 13  4  7  2       -3 -.178222677558D-04 0.100000000000D+01
0.105213308113D-05 0.000000000000D+00 0.000000000000D+00 0.453986845848D-08 0.231297051508D-12  7 3 21 23 -13 13 23 3 2 0.27874381D-01 0.15342306D+00 0.13041671D+06 0.13041671D+06 0.13041671D+06 0.11123787D+01  1  2  1  4  7  2       -3 0.254792681887D-04 0.100000000000D+01
  </mgrwgt>
  </event>
  <event>
  8     66 0.56006291E-06 0.16360285E+03 0.75467711E-02 0.93832589E-01
        1 -1    0    0  501    0 0.00000000E+00 0.00000000E+00 0.96244774E+03 0.96244780E+03 0.32000000E+00 0.0000E+00 0.9000E+01
       -1 -1    0    0    0  501 0.00000000E+00 0.00000000E+00 -.95176811E+02 0.95177349E+02 0.32000000E+00 0.0000E+00 0.9000E+01
       25  2    1    2    0    0 0.25608742E+02 -.39425683E+02 0.16352133E+03 0.34655510E+03 0.30191226E+03 0.0000E+00 0.0000E+00
       23  2    1    2    0    0 -.25608742E+02 0.39425683E+02 0.70374960E+03 0.71107005E+03 0.90260325E+02 0.0000E+00 0.0000E+00
       23  1    3    3    0    0 -.47631811E+02 -.83260190E+02 0.17690820E+03 0.22093622E+03 0.91188000E+02 0.0000E+00 0.9000E+01
      -13  1    4    4    0    0 0.11800718E+02 -.41617046E+01 0.47680702E+03 0.47697120E+03 0.10565837E+00 0.0000E+00 0.9000E+01
       13  1    4    4    0    0 -.37409460E+02 0.43587387E+02 0.22694257E+03 0.23409885E+03 0.10565837E+00 0.0000E+00 0.9000E+01
       23  1    3    3    0    0 0.73240554E+02 0.43834507E+02 -.13386870E+02 0.12561888E+03 0.91188000E+02 0.0000E+00 0.9000E+01
#aMCatNLO 1  0  0  2  2 0.49009039D+03 0.00000000D+00  -5  7  0 0.00000000D+00 0.00000000D+00 0.00000000D+00 0.00000000D+00 0.00000000D+00
  <mgrwgt>
 0.2009178874D-03    3    2    0
 0.302659906939514D+03 0.000000000000000D+00 0.000000000000000D+00 0.302659906939514D+03
 0.302659906939514D+03 0.000000000000000D+00 0.000000000000000D+00 -.302659906939514D+03
 0.132558612479192D+03 -.476318062950110D+02 -.832601854374532D+02 -.744895619560275D+01
 0.150227893370490D+03 0.118007844251588D+02 -.416176884371205D+01 0.149705848628494D+03
 0.838698433330692D+02 -.374095276508151D+02 0.435874532140531D+02 0.611131064827277D+02
 0.238663464696277D+03 0.732405495206672D+02 0.438345010671122D+02 -.203369998915619D+03
 0.000000000000000D+00 0.000000000000000D+00 0.000000000000000D+00 0.000000000000000D+00
 0.100155053392615D+04 0.000000000000000D+00 0.000000000000000D+00 0.100155053392615D+04
 0.487518653416650D+03 0.000000000000000D+00 0.000000000000000D+00 -.487518653416650D+03
 0.242626678292438D+03 -.658734868940271D+02 -.214843316049721D+03 -.744895619560275D+01
 0.195319057847143D+03 -.499986653616213D+01 -.125350287511990D+03 0.149705848628494D+03
 0.771160206314946D+02 -.452367340569045D+02 -.128727132312031D+02 0.611131064827277D+02
 0.263783970245562D+03 0.488113252108505D+02 -.132381379682844D+03 -.203369998915619D+03
 0.710223460326158D+03 0.672987622762432D+02 0.485447696475758D+03 0.514031880509496D+03
0.303685524318D-05 0.000000000000D+00 0.000000000000D+00 0.313019398349D-07 0.000000000000D+00  7 1 -1 23 -13 13 23 21 0 0.14806893D+00 0.14642632D-01 0.26765894D+05 0.26765894D+05 0.26765894D+05 0.11719604D+01  1  2  2  2  7  2       -1 0.191959438678D-03 0.100000000000D+01
-.910858217731D-07 0.000000000000D+00 -.116623237562D-07 0.313019398349D-07 0.000000000000D+00  7 1 -1 23 -13 13 23 21 2 0.14806893D+00 0.14642632D-01 0.26765894D+05 0.26765894D+05 0.26765894D+05 0.11719604D+01  1  2  3  2  7  2       -1 -.790791527635D-05 0.100000000000D+01
0.194272013584D-06 0.000000000000D+00 0.000000000000D+00 0.313019398349D-07 0.000000000000D+00  7 1 -1 23 -13 13 23 21 2 0.14806893D+00 0.14642632D-01 0.26765894D+05 0.26765894D+05 0.26765894D+05 0.11719604D+01  1  2 15  2  7  2       -1 0.168663639860D-04 0.100000000000D+01
  </mgrwgt>
  </event>
  <event>
  9     66 0.56006291E-06 0.30262717E+03 0.75467711E-02 0.99909358E-01
        1 -1    0    0  502    0 0.00000000E+00 0.00000000E+00 0.20304141E+03 0.20304167E+03 0.32000000E+00 0.0000E+00 0.9000E+01
       -1 -1    0    0    0  501 0.00000000E+00 0.00000000E+00 -.87645279E+03 0.87645285E+03 0.32000000E+00 0.0000E+00 0.9000E+01
       25  2    1    2    0    0 -.17833894E+03 0.11717610E+03 -.66142758E+03 0.75672673E+03 0.29935578E+03 0.0000E+00 0.0000E+00
       23  2    1    2    0    0 0.16885072E+03 -.15287170E+03 0.50952153E+02 0.24979040E+03 0.88987636E+02 0.0000E+00 0.0000E+00
       23  1    3    3    0    0 -.19255819E+03 -.64313983E+01 -.39629281E+03 0.44998140E+03 0.91188000E+02 0.0000E+00 0.9000E+01
      -11  1    4    4    0    0 0.65775318E+01 0.81978217E+01 0.15038901E+02 0.18347663E+02 0.51099893E-03 0.0000E+00 0.9000E+01
       11  1    4    4    0    0 0.16227319E+03 -.16106952E+03 0.35913252E+02 0.23144274E+03 0.51099893E-03 0.0000E+00 0.9000E+01
       23  1    3    3    0    0 0.14219244E+02 0.12360750E+03 -.26513477E+03 0.30674533E+03 0.91188000E+02 0.0000E+00 0.9000E+01
       21  1    1    2  502  501 0.94882215E+01 0.35695600E+02 -.62935958E+02 0.72977391E+02 0.75000000E+00 0.0000E+00 0.9000E+01
#aMCatNLO 2  0  0  1  2 0.36935108D+02 0.00000000D+00  -5  7  0 0.00000000D+00 0.00000000D+00 0.00000000D+00 0.00000000D+00 0.00000000D+00
  <mgrwgt>
 0.1135865528D-03    1    2    0
 0.399697474973454D+03 0.000000000000000D+00 0.000000000000000D+00 0.399697474973454D+03
 0.399697474973454D+03 0.000000000000000D+00 0.000000000000000D+00 -.399697474973454D+03
 0.261360618985849D+03 -.189444093784536D+03 0.528411927933571D+01 -.155168087009745D+03
 0.350304331629846D+02 0.699024224450395D+01 0.975047807747488D+01 0.329119421822864D+02
 0.313568966571473D+03 0.166022256297702D+03 -.146965174343743D+03 0.221728087396782D+03
 0.189434931226602D+03 0.164315952423300D+02 0.131930576986932D+03 -.994719425693232D+02
 0.000000000000000D+00 0.000000000000000D+00 0.000000000000000D+00 -.000000000000000D+00
 0.410265646892129D+03 0.000000000000000D+00 0.000000000000000D+00 0.410265646892129D+03
 0.433752211990645D+03 0.000000000000000D+00 0.000000000000000D+00 -.433752211990645D+03
 0.263652052586627D+03 -.192558186993437D+03 -.643139834548006D+01 -.155168087009745D+03
 0.345494448961206D+02 0.657753177583838D+01 0.819782167150193D+01 0.329119421822864D+02
 0.318495406324079D+03 0.162273189888834D+03 -.161069522108335D+03 0.221728087396782D+03
 0.183550862965355D+03 0.142192438237805D+02 0.123607498550418D+03 -.994719425693232D+02
 0.437700921105928D+02 0.948822150498456D+01 0.356956002318957D+02 -.234865650985156D+02
0.100085164297D-04 0.000000000000D+00 0.000000000000D+00 0.194026617039D-06 0.955830048601D-09  7 1 -1 23 -11 11 23 21 2 0.31236923D-01 0.13483787D+00 0.10352330D+06 0.10352330D+06 0.10352330D+06 0.11204901D+01  1  2  1  1  7  1        1 0.113586552825D-03 0.100000000000D+01
  </mgrwgt>
  </event>
  <event>
  8     66 0.56006291E-06 0.30355417E+03 0.75467711E-02 0.89190433E-01
        1 -1    0    0  501    0 0.00000000E+00 0.00000000E+00 0.13999568E+04 0.13999569E+04 0.32000000E+00 0.0000E+00 0.9000E+01
       -1 -1    0    0    0  501 0.00000000E+00 0.00000000E+00 -.10793603E+04 0.10793604E+04 0.32000000E+00 0.0000E+00 0.9000E+01
       25  2    1    2    0    0 -.35520742E+03 -.43829178E+03 -.91660525E+03 0.11169422E+04 0.29853433E+03 0.0000E+00 0.0000E+00
       23  2    1    2    0    0 0.35520742E+03 0.43829178E+03 0.12372017E+04 0.13623750E+04 0.84413450E+02 0.0000E+00 0.0000E+00
       23  1    3    3    0    0 -.35688625E+03 -.31347152E+03 -.69304593E+03 0.84513910E+03 0.91188000E+02 0.0000E+00 0.9000E+01
      -11  1    4    4    0    0 0.47050977E+01 0.22983263E+02 0.89315983E+02 0.92345618E+02 0.51099893E-03 0.0000E+00 0.9000E+01
       11  1    4    4    0    0 0.35050233E+03 0.41530852E+03 0.11478858E+04 0.12700294E+04 0.51099893E-03 0.0000E+00 0.9000E+01
       23  1    3    3    0    0 0.16788239E+01 -.12482027E+03 -.22355932E+03 0.27180313E+03 0.91188000E+02 0.0000E+00 0.9000E+01
#aMCatNLO 1  0  0  2  1 0.42775004D+03 0.00000000D+00  -5  7  0 0.00000000D+00 0.00000000D+00 0.00000000D+00 0.00000000D+00 0.00000000D+00
  <mgrwgt>
 0.7015958308D-03    9    2    0
 0.122925099351277D+04 0.000000000000000D+00 0.000000000000000D+00 0.122925099351277D+04
 0.122925099351277D+04 0.000000000000000D+00 0.000000000000000D+00 -.122925099351277D+04
 0.942669991969539D+03 -.356886247004341D+03 -.313471515044400D+03 -.809122536066556D+03
 0.814803875103774D+02 0.470509766541673D+01 0.229832626089244D+02 0.780300278396040D+02
 0.113109437061187D+04 0.350502325402911D+03 0.415308520492693D+03 0.991988622879912D+03
 0.303257236933753D+03 0.167882393601330D+01 -.124820268057218D+03 -.260896114652960D+03
 0.000000000000000D+00 -.000000000000000D+00 0.000000000000000D+00 -.000000000000000D+00
 0.133760339765689D+04 0.000000000000000D+00 0.000000000000000D+00 0.133760339765689D+04
 0.175661713218607D+04 0.000000000000000D+00 0.000000000000000D+00 -.175661713218607D+04
 0.101017575057976D+04 -.353664521338712D+03 -.482060083071457D+03 -.809122536066556D+03
 0.787220312658550D+02 0.496939311539603D+01 0.915303742139952D+01 0.780300278396040D+02
 0.107700652599316D+04 0.354145160664238D+03 0.224683854085635D+03 0.991988622879912D+03
 0.329531949668355D+03 0.272277385944514D+01 -.179448762519352D+03 -.260896114652960D+03
 0.598784272335832D+03 -.817280630036715D+01 0.427671954083774D+03 -.419013734529185D+03
0.359014005592D-02 0.000000000000D+00 0.000000000000D+00 0.103933041352D-06 0.000000000000D+00  7 1 -1 23 -11 11 23 21 0 0.21537798D+00 0.16605544D+00 0.36311285D+06 0.36311285D+06 0.36311285D+06 0.10784698D+01  1  2  2  2  7  2       -1 0.896028743522D-03 0.100000000000D+01
-.761959335771D-04 0.000000000000D+00 -.137870831203D-04 0.103933041352D-06 0.000000000000D+00  7 1 -1 23 -11 11 23 21 2 0.21537798D+00 0.16605544D+00 0.36311285D+06 0.36311285D+06 0.36311285D+06 0.10784698D+01  1  2  3  2  7  2       -1 -.221186369967D-04 0.100000000000D+01
0.216367875249D-03 0.000000000000D+00 0.000000000000D+00 0.103933041352D-06 0.000000000000D+00  7 1 -1 23 -11 11 23 21 2 0.21537798D+00 0.16605544D+00 0.36311285D+06 0.36311285D+06 0.36311285D+06 0.10784698D+01  1  2 15  2  7  2       -1 0.628086338168D-04 0.100000000000D+01
0.659218527831D-03 0.000000000000D+00 0.000000000000D+00 0.103933041352D-06 0.000000000000D+00  7 1 -1 23 -11 11 23 21 2 0.21537798D+00 0.24215913D+00 0.69195145D+06 0.69195145D+06 0.69195145D+06 0.10586784D+01  1  2 12  2  7  2       -1 0.415871673652D-04 0.100000000000D+01
-.348396726040D-02 0.000000000000D+00 0.000000000000D+00 0.103933041352D-06 0.000000000000D+00  7 1 -1 23 -11 11 23 21 2 0.21537798D+00 0.16605544D+00 0.36311285D+06 0.36311285D+06 0.36311285D+06 0.10784698D+01  1  2  4  2  7  2       -1 -.101134802769D-02 0.100000000000D+01
-.294831968865D-02 0.000000000000D+00 -.127747492959D-02 0.103933041352D-06 0.000000000000D+00  7 1 -1 23 -11 11 23 21 2 0.21537798D+00 0.24649727D+00 0.36311285D+06 0.36311285D+06 0.36311285D+06 0.10784698D+01  1  2  5  2  7  2       -1 -.188719893599D-03 0.100000000000D+01
0.328674223443D-02 0.000000000000D+00 0.118389519013D-02 0.103933041352D-06 0.000000000000D+00  7 1 -1 23 -11 11 23 21 2 0.21537798D+00 0.16605544D+00 0.36311285D+06 0.36311285D+06 0.36311285D+06 0.10784698D+01  1  2  6  2  7  2       -1 0.954096301102D-03 0.100000000000D+01
0.300667787066D-04 0.000000000000D+00 0.000000000000D+00 0.103933041352D-06 0.000000000000D+00  7 1 21 23 -11 11 23 1 2 0.21537798D+00 0.24215913D+00 0.69195145D+06 0.69195145D+06 0.69195145D+06 0.10586784D+01  1  2 12  4  7  2       -1 0.130920292723D-04 0.100000000000D+01
-.961917851695D-04 0.000000000000D+00 -.602526599924D-04 0.103933041352D-06 0.000000000000D+00  7 1 21 23 -11 11 23 1 2 0.21537798D+00 0.24649727D+00 0.36311285D+06 0.36311285D+06 0.36311285D+06 0.10784698D+01  1  2  5  4  7  2       -1 -.438304859839D-04 0.100000000000D+01
  </mgrwgt>
  </event>
  <event>
  9     66 0.56006291E-06 0.38739247E+03 0.75467711E-02 0.90549754E-01
        1 -1    0    0  501    0 0.00000000E+00 0.00000000E+00 0.61044330E+03 0.61044338E+03 0.32000000E+00 0.0000E+00 0.9000E+01
       21 -1    0    0  502  501 0.00000000E+00 0.00000000E+00 -.92780194E+03 0.92780225E+03 0.75000000E+00 0.0000E+00 0.9000E+01
       25  2    1    2    0    0 -.11664752E+03 -.93346019E+02 -.18879439E+03 0.38490561E+03 0.30031465E+03 0.0000E+00 0.0000E+00
       23  2    1    2    0    0 0.58711443E+03 -.14736374E+03 -.12514576E+03 0.62485908E+03 0.91476699E+02 0.0000E+00 0.0000E+00
       23  1    3    3    0    0 0.28663080E+02 -.10838990E+03 -.23900586E+02 0.14648014E+03 0.91188000E+02 0.0000E+00 0.9000E+01
      -13  1    4    4    0    0 0.36094302E+03 -.13226318E+03 -.60489194E+02 0.38914312E+03 0.10565837E+00 0.0000E+00 0.9000E+01
       13  1    4    4    0    0 0.22617141E+03 -.15100561E+02 -.64656562E+02 0.23571597E+03 0.10565837E+00 0.0000E+00 0.9000E+01
       23  1    3    3    0    0 -.14531060E+03 0.15043880E+02 -.16489380E+03 0.23842547E+03 0.91188000E+02 0.0000E+00 0.9000E+01
        1  1    1    2  502    0 -.47046691E+03 0.24070976E+03 -.34185070E+01 0.52848093E+03 0.32000000E+00 0.0000E+00 0.9000E+01
#aMCatNLO 2  0  0  2  1 0.52846978D+03 0.00000000D+00  -5  7  0 0.00000000D+00 0.00000000D+00 0.00000000D+00 0.00000000D+00 0.00000000D+00
  <mgrwgt>
 0.1030546429D-04    1    2    0
 0.400557742223214D+03 0.000000000000000D+00 0.000000000000000D+00 0.400557742223214D+03
 0.400557742223214D+03 0.000000000000000D+00 0.000000000000000D+00 -.400557742223214D+03
 0.125863981130757D+03 -.440546171702783D+02 -.711846061850655D+02 0.227691227398210D+02
 0.215080467877671D+03 0.199369818264319D+03 -.495959093483188D+02 0.636516221603499D+02
 0.134410417341774D+03 0.129646639027831D+03 0.342854531677909D+02 0.907837980347985D+01
 0.325760618096225D+03 -.284961840121872D+03 0.864950623655934D+02 -.954991247036507D+02
 0.000000000000000D+00 -.000000000000000D+00 0.000000000000000D+00 0.000000000000000D+00
 0.841959383694713D+03 0.000000000000000D+00 0.000000000000000D+00 0.841959383694713D+03
 0.672681738810218D+03 0.000000000000000D+00 0.000000000000000D+00 -.672681738810218D+03
 0.146299783546840D+03 0.286630796105384D+02 -.108389899154632D+03 0.227691227398210D+02
 0.389647418536919D+03 0.360943197186719D+03 -.132263336467332D+03 0.636516221603499D+02
 0.226856489101477D+03 0.226171234764534D+03 -.151004050501546D+02 0.907837980347985D+01
 0.196918313304221D+03 -.145310597083245D+03 0.150438800422979D+02 -.954991247036507D+02
 0.554919118015473D+03 -.470466914478546D+03 0.240709760629821D+03 0.169277644884496D+03
0.896105269558D-06 0.000000000000D+00 0.000000000000D+00 0.266828247333D-06 0.210141559829D-11  7 1 21 23 -13 13 23 1 2 0.93914377D-01 0.14273878D+00 0.53019242D+06 0.53019242D+06 0.53019242D+06 0.10667154D+01  1  2  1  4  7  2       -1 0.103054642871D-04 0.100000000000D+01
  </mgrwgt>
  </event>
  <event>
  8     66 0.56006291E-06 0.22239018E+03 0.75467711E-02 0.93990410E-01
        1 -1    0    0  501    0 0.00000000E+00 0.00000000E+00 0.13180109E+04 0.13180110E+04 0.32000000E+00 0.0000E+00 0.9000E+01
       -1 -1    0    0    0  501 0.00000000E+00 0.00000000E+00 -.13621878E+03 0.13621915E+03 0.32000000E+00 0.0000E+00 0.9000E+01
       25  2    1    2    0    0 0.11159438E+03 -.34434117E+03 0.55502022E+03 0.72673404E+03 0.29844727E+03 0.0000E+00 0.0000E+00
       23  2    1    2    0    0 -.11159438E+03 0.34434117E+03 0.62677191E+03 0.72749607E+03 0.73371325E+02 0.0000E+00 0.0000E+00
       23  1    3    3    0    0 0.11153966E+03 -.51525772E+02 0.25699643E+03 0.29909600E+03 0.91188000E+02 0.0000E+00 0.9000E+01
      -11  1    4    4    0    0 -.70082818E+02 0.11090062E+03 0.19761037E+03 0.23719277E+03 0.51099893E-03 0.0000E+00 0.9000E+01
       11  1    4    4    0    0 -.41511561E+02 0.23344054E+03 0.42916154E+03 0.49030330E+03 0.51099893E-03 0.0000E+00 0.9000E+01
       23  1    3    3    0    0 0.54717342E-01 -.29281540E+03 0.29802379E+03 0.42763803E+03 0.91188000E+02 0.0000E+00 0.9000E+01
#aMCatNLO 1  0  0  1  2 0.20633792D+03 0.00000000D+00  -5  7  0 0.00000000D+00 0.00000000D+00 0.00000000D+00 0.00000000D+00 0.00000000D+00
  <mgrwgt>
 0.6710694398D-03    8    2    0
 0.423719409565303D+03 0.000000000000000D+00 0.000000000000000D+00 0.423719409565303D+03
 0.423719409565303D+03 0.000000000000000D+00 0.000000000000000D+00 -.423719409565303D+03
 0.154864335412763D+03 0.111539661710553D+03 -.515257715435955D+02 0.239104531778302D+02
 0.131453124451231D+03 -.700828181874986D+02 0.110900624855468D+03 0.832910136543903D+01
 0.242889611368803D+03 -.415115608654955D+02 0.233440543266917D+03 0.527035708908338D+02
 0.318231747897809D+03 0.547173424409948D-01 -.292815396578789D+03 -.849431254341031D+02
 0.000000000000000D+00 0.000000000000000D+00 -.000000000000000D+00 0.000000000000000D+00
 0.792445101886490D+03 0.000000000000000D+00 0.000000000000000D+00 0.792445101886490D+03
 0.465967916227247D+03 0.000000000000000D+00 0.000000000000000D+00 -.465967916227247D+03
 0.131675292186073D+03 0.880550601700336D+02 -.264145383372532D+02 0.239104531778302D+02
 0.166671041467784D+03 -.945168809552839D+02 0.137027082538032D+03 0.832910136543903D+01
 0.298403022770104D+03 -.858755531554823D+02 0.280877352208985D+03 0.527035708908338D+02
 0.275447804593177D+03 -.486028727083300D+02 -.240787599176505D+03 -.849431254341031D+02
 0.386215857096598D+03 0.140940246649063D+03 -.150702297233259D+03 0.326477185659243D+03
0.150686203304D-04 0.000000000000D+00 0.000000000000D+00 0.191060795416D-09 0.000000000000D+00  7 1 -1 23 -11 11 23 21 0 0.20277094D+00 0.20956767D-01 0.17138969D+06 0.17138969D+06 0.17138969D+06 0.11030121D+01  1  2  2  1  7  1        1 0.292262738979D-03 0.100000000000D+01
-.836596598034D-06 0.000000000000D+00 -.578674697275D-07 0.191060795416D-09 0.000000000000D+00  7 1 -1 23 -11 11 23 21 2 0.20277094D+00 0.20956767D-01 0.17138969D+06 0.17138969D+06 0.17138969D+06 0.11030121D+01  1  2  3  1  7  1        1 -.197413377079D-04 0.100000000000D+01
0.967947442046D-06 0.000000000000D+00 0.000000000000D+00 0.191060795416D-09 0.000000000000D+00  7 1 -1 23 -11 11 23 21 2 0.20277094D+00 0.20956767D-01 0.17138969D+06 0.17138969D+06 0.17138969D+06 0.11030121D+01  1  2 15  1  7  1        1 0.228408499172D-04 0.100000000000D+01
0.107930490816D-04 0.000000000000D+00 0.000000000000D+00 0.191060795416D-09 0.000000000000D+00  7 1 -1 23 -11 11 23 21 2 0.38137368D+00 0.20956767D-01 0.27985265D+06 0.27985265D+06 0.27985265D+06 0.10867927D+01  1  2 12  1  7  1        1 0.404539657931D-04 0.100000000000D+01
-.169297554305D-04 0.000000000000D+00 -.433579432402D-05 0.191060795416D-09 0.000000000000D+00  7 1 -1 23 -11 11 23 21 2 0.38951114D+00 0.20956767D-01 0.17138969D+06 0.17138969D+06 0.17138969D+06 0.11030121D+01  1  2  5  1  7  1        1 -.616526721828D-04 0.100000000000D+01
0.168291136069D-04 0.000000000000D+00 0.355171775631D-05 0.191060795416D-09 0.000000000000D+00  7 1 -1 23 -11 11 23 21 2 0.20277094D+00 0.20956767D-01 0.17138969D+06 0.17138969D+06 0.17138969D+06 0.11030121D+01  1  2  6  1  7  1        1 0.397119968953D-03 0.100000000000D+01
0.741825592582D-06 0.000000000000D+00 0.000000000000D+00 0.191060795416D-09 0.000000000000D+00  7 21 -1 23 -11 11 23 -1 2 0.38137368D+00 0.20956767D-01 0.27985265D+06 0.27985265D+06 0.27985265D+06 0.10867927D+01  1  2 12  3  7  1        1 0.962505675823D-06 0.100000000000D+01
-.948803571622D-06 0.000000000000D+00 -.307168595226D-06 0.191060795416D-09 0.000000000000D+00  7 21 -1 23 -11 11 23 -1 2 0.38951114D+00 0.20956767D-01 0.17138969D+06 0.17138969D+06 0.17138969D+06 0.11030121D+01  1  2  5  3  7  1        1 -.117657965363D-05 0.100000000000D+01
  </mgrwgt>
  </event>
  <event>
  8     66 0.56006291E-06 0.73949806E+02 0.75467711E-02 0.10289621E+00
        1 -1    0    0  501    0 0.00000000E+00 0.00000000E+00 0.20284023E+03 0.20284049E+03 0.32000000E+00 0.0000E+00 0.9000E+01
       -1 -1    0    0    0  501 0.00000000E+00 0.00000000E+00 -.29371637E+03 0.29371654E+03 0.32000000E+00 0.0000E+00 0.9000E+01
       25  2    1    2    0    0 -.67520775E+02 0.90105837E+02 -.13109114E+03 0.34610745E+03 0.29987892E+03 0.0000E+00 0.0000E+00
       23  2    1    2    0    0 0.67520775E+02 -.90105837E+02 0.40215001E+02 0.15044958E+03 0.91322027E+02 0.0000E+00 0.0000E+00
       23  1    3    3    0    0 0.77330403E+02 -.43798144E+01 -.80347187E+02 0.14411834E+03 0.91188000E+02 0.0000E+00 0.9000E+01
      -13  1    4    4    0    0 -.13729141E+02 -.50456304E+02 0.20933791E+01 0.52332794E+02 0.10565837E+00 0.0000E+00 0.9000E+01
       13  1    4    4    0    0 0.81249916E+02 -.39649533E+02 0.38121622E+02 0.98116786E+02 0.10565837E+00 0.0000E+00 0.9000E+01
       23  1    3    3    0    0 -.14485118E+03 0.94485651E+02 -.50743949E+02 0.20198911E+03 0.91188000E+02 0.0000E+00 0.9000E+01
#aMCatNLO 1  0  0  2  1 0.51620635D+02 0.00000000D+00  -5  7  0 0.00000000D+00 0.00000000D+00 0.00000000D+00 0.00000000D+00 0.00000000D+00
  <mgrwgt>
 0.1417154268D-03    9    2    0
 0.244085237938904D+03 0.000000000000000D+00 0.000000000000000D+00 0.244085237938904D+03
 0.244085237938904D+03 0.000000000000000D+00 0.000000000000000D+00 -.244085237938904D+03
 0.131637073453651D+03 0.773304010369556D+02 -.437981237724419D+01 -.548989442744191D+02
 0.536214700611913D+02 -.137292605474618D+02 -.504563162095256D+02 0.118713778015660D+02
 0.106899050345292D+03 0.812500396599179D+02 -.396495255175216D+02 0.570416790270278D+02
 0.196012882017673D+03 -.144851180149412D+03 0.944856541042914D+02 -.140141125541747D+02
 0.000000000000000D+00 -.000000000000000D+00 -.000000000000000D+00 -.000000000000000D+00
 0.248759056071284D+03 0.000000000000000D+00 0.000000000000000D+00 0.248759056071284D+03
 0.446525564114066D+03 0.000000000000000D+00 0.000000000000000D+00 -.446525564114066D+03
 0.133469392784751D+03 0.799852160618747D+02 0.934337173720911D+01 -.548989442744191D+02
 0.484063988523163D+02 -.127075385080285D+02 -.451748636302201D+02 0.118713778015660D+02
 0.105010532967375D+03 0.833721332990708D+02 -.286800675911289D+02 0.570416790270278D+02
 0.204005825936469D+03 -.140845334154051D+03 0.115192543892275D+03 -.140141125541747D+02
 0.204392469644437D+03 -.980447669886606D+01 -.506809844081352D+02 -.197766508042782D+03
0.151687936978D-05 0.000000000000D+00 0.000000000000D+00 0.219221332852D-06 0.000000000000D+00  7 1 -1 23 -13 13 23 21 0 0.31206223D-01 0.45187167D-01 0.52407406D+05 0.52407406D+05 0.52407406D+05 0.11455033D+01  1  2  2  2  7  2       -1 0.131235966061D-03 0.100000000000D+01
-.838498729936D-07 0.000000000000D+00 -.582521618345D-08 0.219221332852D-06 0.000000000000D+00  7 1 -1 23 -13 13 23 21 2 0.31206223D-01 0.45187167D-01 0.52407406D+05 0.52407406D+05 0.52407406D+05 0.11455033D+01  1  2  3  2  7  2       -1 -.951912343603D-05 0.100000000000D+01
0.100173307857D-06 0.000000000000D+00 0.000000000000D+00 0.219221332852D-06 0.000000000000D+00  7 1 -1 23 -13 13 23 21 2 0.31206223D-01 0.45187167D-01 0.52407406D+05 0.52407406D+05 0.52407406D+05 0.11455033D+01  1  2 15  2  7  2       -1 0.113722543451D-04 0.100000000000D+01
0.829549660031D-05 0.000000000000D+00 0.000000000000D+00 0.219221332852D-06 0.000000000000D+00  7 1 -1 23 -13 13 23 21 2 0.31206223D-01 0.82763575D-01 0.65509356D+05 0.65509356D+05 0.65509356D+05 0.11371156D+01  1  2 12  2  7  2       -1 0.298934425613D-03 0.100000000000D+01
-.728108231009D-05 0.000000000000D+00 0.000000000000D+00 0.219221332852D-06 0.000000000000D+00  7 1 -1 23 -13 13 23 21 2 0.31206223D-01 0.45187167D-01 0.52407406D+05 0.52407406D+05 0.52407406D+05 0.11455033D+01  1  2  4  2  7  2       -1 -.826590652831D-03 0.100000000000D+01
-.846508789882D-05 0.000000000000D+00 -.487217073728D-06 0.219221332852D-06 0.000000000000D+00  7 1 -1 23 -13 13 23 21 2 0.31206223D-01 0.83323536D-01 0.52407406D+05 0.52407406D+05 0.52407406D+05 0.11455033D+01  1  2  5  2  7  2       -1 -.306447480652D-03 0.100000000000D+01
0.741079265089D-05 0.000000000000D+00 0.408349586020D-06 0.219221332852D-06 0.000000000000D+00  7 1 -1 23 -13 13 23 21 2 0.31206223D-01 0.45187167D-01 0.52407406D+05 0.52407406D+05 0.52407406D+05 0.11455033D+01  1  2  6  2  7  2       -1 0.841316122303D-03 0.100000000000D+01
0.548619128843D-06 0.000000000000D+00 0.000000000000D+00 0.219221332852D-06 0.000000000000D+00  7 1 21 23 -13 13 23 1 2 0.31206223D-01 0.82763575D-01 0.65509356D+05 0.65509356D+05 0.65509356D+05 0.11371156D+01  1  2 12  4  7  2       -1 0.154466235625D-03 0.100000000000D+01
-.538562776956D-06 0.000000000000D+00 -.325406554224D-07 0.219221332852D-06 0.000000000000D+00  7 1 21 23 -13 13 23 1 2 0.31206223D-01 0.83323536D-01 0.52407406D+05 0.52407406D+05 0.52407406D+05 0.11455033D+01  1  2  5  4  7  2       -1 -.153052320201D-03 0.100000000000D+01
  </mgrwgt>
  </event>
  <event>
  8     66 0.56006291E-06 0.39865986E+03 0.75467711E-02 0.88547712E-01
        1 -1    0    0  501    0 0.00000000E+00 0.00000000E+00 0.33336693E+03 0.33336709E+03 0.32000000E+00 0.0000E+00 0.9000E+01
       -1 -1    0    0    0  501 0.00000000E+00 0.00000000E+00 -.11540859E+04 0.11540860E+04 0.32000000E+00 0.0000E+00 0.9000E+01
       25  2    1    2    0    0 0.32225364E+03 -.11180826E+03 0.13107733E+03 0.47234651E+03 0.29930164E+03 0.0000E+00 0.0000E+00
       23  2    1    2    0    0 -.32225364E+03 0.11180826E+03 -.95179631E+03 0.10151065E+04 0.90424371E+02 0.0000E+00 0.0000E+00
       23  1    3    3    0    0 0.26735113E+03 0.20959526E+02 0.91177586E+02 0.29756433E+03 0.91188000E+02 0.0000E+00 0.9000E+01
      -13  1    4    4    0    0 -.14504289E+03 0.73477692E+02 -.33769029E+03 0.37479481E+03 0.10565837E+00 0.0000E+00 0.9000E+01
       13  1    4    4    0    0 -.17721075E+03 0.38330564E+02 -.61410602E+03 0.64031172E+03 0.10565837E+00 0.0000E+00 0.9000E+01
       23  1    3    3    0    0 0.54902505E+02 -.13276778E+03 0.39899739E+02 0.17478218E+03 0.91188000E+02 0.0000E+00 0.9000E+01
#aMCatNLO 1  0  0  1  2 0.78600183D+03 0.00000000D+00  -5  7  0 0.00000000D+00 0.00000000D+00 0.00000000D+00 0.00000000D+00 0.00000000D+00
  <mgrwgt>
 0.1709916854D-03    5    2    0
 0.620269479762067D+03 0.000000000000000D+00 0.000000000000000D+00 0.620269479762067D+03
 0.620269479762067D+03 0.000000000000000D+00 0.000000000000000D+00 -.620269479762067D+03
 0.417112373508206D+03 0.267351131217428D+03 0.209595264797413D+02 0.306188751713965D+03
 0.225982927467631D+03 -.145042842852925D+03 0.734777403063411D+02 -.156945464806907D+03
 0.361476255585425D+03 -.177210793775376D+03 0.383305161188802D+02 -.312717427489452D+03
 0.235967402962872D+03 0.549025054108727D+02 -.132767782904963D+03 0.163474140582394D+03
 0.000000000000000D+00 -.000000000000000D+00 -.000000000000000D+00 0.000000000000000D+00
 0.120956830803631D+04 0.000000000000000D+00 0.000000000000000D+00 0.120956830803631D+04
 0.105925935557556D+04 0.000000000000000D+00 0.000000000000000D+00 -.105925935557556D+04
 0.663639787114687D+03 0.580498626918235D+03 0.370446779917860D+02 0.306188751713965D+03
 0.178135073676650D+03 -.279498176092734D+02 0.794923470903830D+02 -.156945464806907D+03
 0.317038610828418D+03 0.193886107456402D+02 0.484290519600217D+02 -.312717427489452D+03
 0.309769445222242D+03 0.213029533556089D+03 -.124645421267764D+03 0.163474140582394D+03
 0.800244746769872D+03 -.784966953610692D+03 -.403206557744270D+02 0.150308952460743D+03
0.725127776944D-04 0.000000000000D+00 0.000000000000D+00 0.903007057180D-06 0.000000000000D+00  7 1 -1 23 -13 13 23 21 0 0.51287235D-01 0.17755169D+00 0.15892968D+06 0.15892968D+06 0.15892968D+06 0.11055755D+01  1  2  2  1  7  1        1 0.150199154202D-03 0.100000000000D+01
-.307138747168D-05 0.000000000000D+00 -.278468159399D-06 0.903007057180D-06 0.000000000000D+00  7 1 -1 23 -13 13 23 21 2 0.51287235D-01 0.17755169D+00 0.15892968D+06 0.15892968D+06 0.15892968D+06 0.11055755D+01  1  2  3  1  7  1        1 -.777614533492D-05 0.100000000000D+01
0.444297276788D-05 0.000000000000D+00 0.000000000000D+00 0.903007057180D-06 0.000000000000D+00  7 1 -1 23 -13 13 23 21 2 0.51287235D-01 0.17755169D+00 0.15892968D+06 0.15892968D+06 0.15892968D+06 0.11055755D+01  1  2 15  1  7  1        1 0.112487279058D-04 0.100000000000D+01
0.304168277506D-04 0.000000000000D+00 -.247213002332D-04 0.903007057180D-06 0.000000000000D+00  7 1 -1 23 -13 13 23 21 2 0.16067107D+00 0.17755169D+00 0.15892968D+06 0.15892968D+06 0.15892968D+06 0.11055755D+01  1  2  5  1  7  1        1 0.142374715194D-04 0.100000000000D+01
0.511165587093D-05 0.000000000000D+00 -.323827326805D-05 0.903007057180D-06 0.000000000000D+00  7 21 -1 23 -13 13 23 -1 2 0.16067107D+00 0.17755169D+00 0.15892968D+06 0.15892968D+06 0.15892968D+06 0.11055755D+01  1  2  5  3  7  1        1 0.308247714784D-05 0.100000000000D+01
  </mgrwgt>
  </event>
  <event>
  9     66 -.56006291E-06 0.41577153E+03 0.75467711E-02 0.96454681E-01
        1 -1    0    0  501    0 0.00000000E+00 0.00000000E+00 0.19800688E+04 0.19800688E+04 0.32000000E+00 0.0000E+00 0.9000E+01
       -1 -1    0    0    0  502 0.00000000E+00 0.00000000E+00 -.13702296E+03 0.13702333E+03 0.32000000E+00 0.0000E+00 0.9000E+01
       25  2    1    2    0    0 -.33110683E+03 0.11895374E+03 0.38015358E+03 0.59846103E+03 0.29976181E+03 0.0000E+00 0.0000E+00
       23  2    1    2    0    0 0.35113959E+03 -.12558260E+03 0.14134186E+04 0.14648403E+04 0.94524071E+02 0.0000E+00 0.0000E+00
       23  1    3    3    0    0 -.94884239E+02 0.15560066E+03 0.20010833E+03 0.28561019E+03 0.91188000E+02 0.0000E+00 0.9000E+01
      -11  1    4    4    0    0 0.15903461E+02 -.69830366E+01 0.18776830E+02 0.25578355E+02 0.51099893E-03 0.0000E+00 0.9000E+01
       11  1    4    4    0    0 0.33523612E+03 -.11859956E+03 0.13946418E+04 0.14392619E+04 0.51099893E-03 0.0000E+00 0.9000E+01
       23  1    3    3    0    0 -.23622259E+03 -.36646924E+02 0.18004525E+03 0.31285085E+03 0.91188000E+02 0.0000E+00 0.9000E+01
       21  1    1    2  501  502 -.20032760E+02 0.66288601E+01 0.49473633E+02 0.53790856E+02 0.75000000E+00 0.0000E+00 0.9000E+01
#aMCatNLO 2  0  0  2  1 0.21101025D+02 0.00000000D+00  -5  7  0 0.00000000D+00 0.00000000D+00 0.00000000D+00 0.00000000D+00 0.00000000D+00
  <mgrwgt>
 -.1141192232D-03    3    2    0
 0.509869038812327D+03 0.000000000000000D+00 0.000000000000000D+00 0.509869038812327D+03
 0.509869038812327D+03 0.000000000000000D+00 0.000000000000000D+00 -.509869038812327D+03
 0.228807168975609D+03 -.993499599587110D+02 0.157078372269950D+03 -.974342837601759D+02
 0.183707687272085D+02 0.155391313341814D+02 -.686247937473074D+01 -.699477789776319D+01
 0.451820266745299D+03 0.326289775052789D+03 -.115639204122536D+03 0.290351701575348D+03
 0.320739873176536D+03 -.242478946428260D+03 -.345766887726832D+02 -.185922639917409D+03
 0.000000000000000D+00 -.000000000000000D+00 0.000000000000000D+00 0.000000000000000D+00
 0.523625925254110D+03 0.000000000000000D+00 0.000000000000000D+00 0.523625925254110D+03
 0.518134358498076D+03 0.000000000000000D+00 0.000000000000000D+00 -.518134358498076D+03
 0.225883322840805D+03 -.948842392878493D+02 0.155600660912834D+03 -.974342837601759D+02
 0.187245775614731D+02 0.159034614833613D+02 -.698303657901261D+01 -.699477789776319D+01
 0.459078670488668D+03 0.335236124902379D+03 -.118599560076667D+03 0.290351701575348D+03
 0.316269800838590D+03 -.236222586728667D+03 -.366469243435316D+02 -.185922639917409D+03
 0.218039120226507D+02 -.200327603692240D+02 0.662886008637725D+01 0.549156675603351D+01
-.225981945561D-04 0.000000000000D+00 0.000000000000D+00 0.431573994564D-06 0.000000000000D+00  7 1 -1 23 -11 11 23 21 2 0.29661908D+00 0.21354163D-01 0.18220342D+06 0.18220342D+06 0.18220342D+06 0.11009474D+01  1  2 13  2  7  2       -1 -.201883159743D-03 0.100000000000D+01
-.260527186294D-04 0.000000000000D+00 0.000000000000D+00 0.431573994564D-06 0.000000000000D+00  7 1 -1 23 -11 11 23 21 2 0.29661908D+00 0.20743951D-01 0.17286596D+06 0.17286596D+06 0.17286596D+06 0.11027219D+01  1  2  8  2  7  2       -1 -.245257365640D-03 0.100000000000D+01
0.395101049093D-04 0.000000000000D+00 0.000000000000D+00 0.431573994564D-06 0.626786827080D-08  7 1 -1 23 -11 11 23 21 2 0.30462223D+00 0.21080225D-01 0.18220342D+06 0.18220342D+06 0.18220342D+06 0.11009474D+01  1  2  1  2  7  2       -1 0.333021302219D-03 0.100000000000D+01
  </mgrwgt>
  </event>
  <event>
  8     66 0.56006291E-06 0.51374640E+03 0.75467711E-02 0.75275023E-01
        1 -1    0    0  501    0 0.00000000E+00 0.00000000E+00 0.10215009E+04 0.10215009E+04 0.32000000E+00 0.0000E+00 0.9000E+01
       -1 -1    0    0    0  501 0.00000000E+00 0.00000000E+00 -.42002473E+03 0.42002485E+03 0.32000000E+00 0.0000E+00 0.9000E+01
       25  2    1    2    0    0 -.46821087E+03 -.54835312E+02 -.12373834E+03 0.57189649E+03 0.29920912E+03 0.0000E+00 0.0000E+00
       23  2    1    2    0    0 0.46821087E+03 0.54835312E+02 0.72521447E+03 0.86962926E+03 0.89948319E+02 0.0000E+00 0.0000E+00
       23  1    3    3    0    0 -.55201738E+02 0.45747386E+02 0.11577842E+02 0.11657338E+03 0.91188000E+02 0.0000E+00 0.9000E+01
      -11  1    4    4    0    0 -.26014867E+01 -.62892526E+00 -.56971944E+00 0.27363955E+01 0.51099893E-03 0.0000E+00 0.9000E+01
       11  1    4    4    0    0 0.47081235E+03 0.55464237E+02 0.72578419E+03 0.86689287E+03 0.51099893E-03 0.0000E+00 0.9000E+01
       23  1    3    3    0    0 -.41300913E+03 -.10058270E+03 -.13531618E+03 0.45532311E+03 0.91188000E+02 0.0000E+00 0.9000E+01
#aMCatNLO 1  0  0  2  1 0.42635381D+04 0.00000000D+00  -5  7  0 0.00000000D+00 0.00000000D+00 0.00000000D+00 0.00000000D+00 0.00000000D+00
  <mgrwgt>
 0.3470380323D-03    5    2    0
 0.655023467063443D+03 0.000000000000000D+00 0.000000000000000D+00 0.655023467063443D+03
 0.655023467063443D+03 0.000000000000000D+00 0.000000000000000D+00 -.655023467063443D+03
 0.122957224553903D+03 -.552017380768405D+02 0.457473864773896D+02 -.407820115955951D+02
 0.327259820865473D+01 -.260148669784499D+01 -.628925259563474D+00 -.188324693391725D+01
 0.620669769408020D+03 0.470812351743439D+03 0.554642369723895D+02 0.400612544136961D+03
 0.563147341956309D+03 -.413009126968753D+03 -.100582698190216D+03 -.357947285607448D+03
 0.000000000000000D+00 -.000000000000000D+00 -.000000000000000D+00 -.000000000000000D+00
 0.286170819545098D+04 0.000000000000000D+00 0.000000000000000D+00 0.286170819545098D+04
 0.942554342594080D+04 0.000000000000000D+00 0.000000000000000D+00 -.942554342594080D+04
 0.427965612221876D+03 0.191789966150819D+03 0.369313891309993D+03 -.407820115955951D+02
 0.437791044350046D+01 0.828416809628091D+00 0.386435071218015D+01 -.188324693391725D+01
 0.318637269158941D+04 0.217759929673900D+04 0.229140607968746D+04 0.400612544136961D+03
 0.841550646935100D+03 0.216750118866723D+03 0.724420711127455D+03 -.357947285607448D+03
 0.782698476020189D+04 -.258696779856617D+04 -.338900503283709D+04 -.656383523048982D+04
0.780643835554D-04 0.000000000000D+00 0.000000000000D+00 0.111651073720D-05 0.000000000000D+00  7 1 -1 23 -11 11 23 21 0 0.15715399D+00 0.64619202D-01 0.26393536D+06 0.26393536D+06 0.26393536D+06 0.10886913D+01  1  2  2  2  7  2       -1 0.342610605421D-03 0.100000000000D+01
-.402569224793D-05 0.000000000000D+00 -.299787787677D-06 0.111651073720D-05 0.000000000000D+00  7 1 -1 23 -11 11 23 21 2 0.15715399D+00 0.64619202D-01 0.26393536D+06 0.26393536D+06 0.26393536D+06 0.10886913D+01  1  2  3  2  7  2       -1 -.209410251695D-04 0.100000000000D+01
0.487663596381D-05 0.000000000000D+00 0.000000000000D+00 0.111651073720D-05 0.000000000000D+00  7 1 -1 23 -11 11 23 21 2 0.15715399D+00 0.64619202D-01 0.26393536D+06 0.26393536D+06 0.26393536D+06 0.10886913D+01  1  2 15  2  7  2       -1 0.253675020770D-04 0.100000000000D+01
0.181872612589D-03 0.000000000000D+00 -.761451263601D-04 0.111651073720D-05 0.000000000000D+00  7 1 -1 23 -11 11 23 21 2 0.15715399D+00 0.97054053D+00 0.26393536D+06 0.26393536D+06 0.26393536D+06 0.10886913D+01  1  2  5  2  7  2       -1 0.949628424361D-09 0.100000000000D+01
0.386439897077D-04 0.000000000000D+00 -.232373662175D-04 0.111651073720D-05 0.000000000000D+00  7 1 21 23 -11 11 23 1 2 0.15715399D+00 0.97054053D+00 0.26393536D+06 0.26393536D+06 0.26393536D+06 0.10886913D+01  1  2  5  4  7  2       -1 0.387440970583D-12 0.100000000000D+01
  </mgrwgt>
  </event>
  <event>
  9     66 0.56006291E-06 0.21061777E+03 0.75467711E-02 0.10384750E+00
        1 -1    0    0  502    0 0.00000000E+00 0.00000000E+00 0.49386717E+03 0.49386727E+03 0.32000000E+00 0.0000E+00 0.9000E+01
       -1 -1    0    0    0  501 0.00000000E+00 0.00000000E+00 -.20279259E+03 0.20279284E+03 0.32000000E+00 0.0000E+00 0.9000E+01
       25  2    1    2    0    0 -.89937453E+02 0.11161631E+03 0.35995080E+03 0.48974704E+03 0.29956742E+03 0.0000E+00 0.0000E+00
       23  2    1    2    0    0 0.47103510E+02 -.83988661E+02 -.78530466E+02 0.15503051E+03 0.92707000E+02 0.0000E+00 0.0000E+00
       23  1    3    3    0    0 -.83376342E+01 -.41028814E+02 0.27561102E+02 0.10405645E+03 0.91188000E+02 0.0000E+00 0.9000E+01
      -11  1    4    4    0    0 -.72219851E+01 0.15420936E+02 -.23675359E+02 0.29163075E+02 0.51099893E-03 0.0000E+00 0.9000E+01
       11  1    4    4    0    0 0.54325495E+02 -.99409597E+02 -.54855107E+02 0.12586743E+03 0.51099893E-03 0.0000E+00 0.9000E+01
       23  1    3    3    0    0 -.81599819E+02 0.15264513E+03 0.33238970E+03 0.38569059E+03 0.91188000E+02 0.0000E+00 0.9000E+01
       21  1    1    2  502  501 0.42833943E+02 -.27627650E+02 0.96542430E+01 0.51882566E+02 0.75000000E+00 0.0000E+00 0.9000E+01
#aMCatNLO 2  0  0  1  1 0.50970911D+02 0.00000000D+00  -5  7  0 0.00000000D+00 0.00000000D+00 0.00000000D+00 0.00000000D+00 0.00000000D+00
  <mgrwgt>
 0.7742762207D-04    1    2    0
 0.288938853737086D+03 0.000000000000000D+00 0.000000000000000D+00 0.288938853737086D+03
 0.288938853737086D+03 0.000000000000000D+00 0.000000000000000D+00 -.288938853737086D+03
 0.104024441777283D+03 -.706370324256401D+00 -.459509363873257D+02 -.198455443152421D+02
 0.427963099121226D+02 -.401517875397047D+01 0.133525636913334D+02 -.404612348370263D+02
 0.175932144461501D+03 0.669921625918340D+02 -.107579525598297D+03 -.122027928271102D+03
 0.255124811323264D+03 -.622706135136072D+02 0.140177898294290D+03 0.182334707423370D+03
 0.000000000000000D+00 0.000000000000000D+00 -.000000000000000D+00 -.000000000000000D+00
 0.309329718704666D+03 0.000000000000000D+00 0.000000000000000D+00 0.309329718704666D+03
 0.323767906050472D+03 0.000000000000000D+00 0.000000000000000D+00 -.323767906050472D+03
 0.102283804851140D+03 -.833763423034597D+01 -.410288144734749D+02 -.198455443152421D+02
 0.438984492475662D+02 -.722198506071999D+01 0.154209355613366D+02 -.404612348370263D+02
 0.166506283949055D+03 0.543254948192454D+02 -.994095967652539D+02 -.122027928271102D+03
 0.267432723895425D+03 -.815998188291456D+02 0.152645126034247D+03 0.182334707423370D+03
 0.529763628119521D+02 0.428339433009661D+02 -.276276503568544D+02 -.144381873458063D+02
0.117176764698D-05 0.000000000000D+00 0.000000000000D+00 0.132770806042D-06 0.359529809499D-09  7 1 -1 23 -11 11 23 21 2 0.75978951D-01 0.31198624D-01 0.56944911D+05 0.56944911D+05 0.56944911D+05 0.11423599D+01  1  2  1  1  7  1        1 0.774276220746D-04 0.100000000000D+01
  </mgrwgt>
  </event>
  <event>
  8     66 0.56006291E-06 0.19444308E+03 0.75467711E-02 0.10111662E+00
        3 -1    0    0  501    0 0.00000000E+00 0.00000000E+00 0.13742698E+03 0.13742789E+03 0.50000000E+00 0.0000E+00 0.9000E+01
       -3 -1    0    0    0  501 0.00000000E+00 0.00000000E+00 -.42750189E+03 0.42750218E+03 0.50000000E+00 0.0000E+00 0.9000E+01
       25  2    1    2    0    0 0.40167697E+02 0.28693108E+01 -.33846388E+03 0.45352720E+03 0.29917795E+03 0.0000E+00 0.0000E+00
       23  2    1    2    0    0 -.40167697E+02 -.28693108E+01 0.48388967E+02 0.11140287E+03 0.91909906E+02 0.0000E+00 0.0000E+00
       23  1    3    3    0    0 -.98500340E+01 0.10848930E+03 -.22809958E+03 0.26872220E+03 0.91188000E+02 0.0000E+00 0.9000E+01
      -13  1    4    4    0    0 -.59143404E+02 -.29339746E+02 0.41896235E+02 0.78192510E+02 0.10565837E+00 0.0000E+00 0.9000E+01
       13  1    4    4    0    0 0.18975706E+02 0.26470435E+02 0.64927320E+01 0.33210361E+02 0.10565837E+00 0.0000E+00 0.9000E+01
       23  1    3    3    0    0 0.50017731E+02 -.10561999E+03 -.11036429E+03 0.18480499E+03 0.91188000E+02 0.0000E+00 0.9000E+01
#aMCatNLO 1  0  0  2  2 0.15775976D+03 0.00000000D+00  -5  7  0 0.00000000D+00 0.00000000D+00 0.00000000D+00 0.00000000D+00 0.00000000D+00
  <mgrwgt>
 0.4928581075D-04    3    2    0
 0.242385296660658D+03 0.000000000000000D+00 0.000000000000000D+00 0.242385296660658D+03
 0.242385296660658D+03 0.000000000000000D+00 0.000000000000000D+00 -.242385296660658D+03
 0.176667665963592D+03 -.985003180636860D+01 0.108489304038056D+03 -.105020286782007D+03
 0.116191854177089D+03 -.591435009193590D+02 -.293398118361582D+02 0.956125970650861D+02
 0.425868655535043D+02 0.189757993933514D+02 0.264705007491370D+02 0.274385266577029D+02
 0.149324207627131D+03 0.500177333323763D+02 -.105619992951035D+03 -.180308369407817D+02
 0.000000000000000D+00 0.000000000000000D+00 0.000000000000000D+00 0.000000000000000D+00
 0.515211675570786D+03 0.000000000000000D+00 0.000000000000000D+00 0.515211675570786D+03
 0.278799379546739D+03 0.000000000000000D+00 0.000000000000000D+00 -.278799379546739D+03
 0.188095351643388D+03 -.676907508146097D+02 0.107020145693365D+03 -.105020286782007D+03
 0.141673159829168D+03 -.100033331020673D+03 -.303784164063712D+02 0.956125970650861D+02
 0.383931527029155D+02 0.613474299464976D+01 0.261443370104027D+02 0.274385266577029D+02
 0.141633070336605D+03 0.388044049904401D+01 -.106791883444961D+03 -.180308369407817D+02
 0.284216320605448D+03 0.157708898341589D+03 0.400581714756427D+01 0.236412296024047D+03
0.262726505429D-05 0.000000000000D+00 0.000000000000D+00 0.636820738507D-07 0.000000000000D+00  7 3 -3 23 -13 13 23 21 0 0.21142705D-01 0.65769613D-01 0.37808113D+05 0.37808113D+05 0.37808113D+05 0.11581279D+01  1  2  2  2  7  2       -3 0.486152740158D-04 0.100000000000D+01
-.137339450564D-06 0.000000000000D+00 -.100893895833D-07 0.636820738507D-07 0.000000000000D+00  7 3 -3 23 -13 13 23 21 2 0.21142705D-01 0.65769613D-01 0.37808113D+05 0.37808113D+05 0.37808113D+05 0.11581279D+01  1  2  3  2  7  2       -3 -.340860923300D-05 0.100000000000D+01
0.164356670721D-06 0.000000000000D+00 0.000000000000D+00 0.636820738507D-07 0.000000000000D+00  7 3 -3 23 -13 13 23 21 2 0.21142705D-01 0.65769613D-01 0.37808113D+05 0.37808113D+05 0.37808113D+05 0.11581279D+01  1  2 15  2  7  2       -3 0.407914596297D-05 0.100000000000D+01
  </mgrwgt>
  </event>
  <event>
  8     66 0.56006291E-06 0.19105795E+03 0.75467711E-02 0.91310194E-01
        1 -1    0    0  501    0 0.00000000E+00 0.00000000E+00 0.59802081E+03 0.59802090E+03 0.32000000E+00 0.0000E+00 0.9000E+01
       -1 -1    0    0    0  501 0.00000000E+00 0.00000000E+00 -.10864620E+03 0.10864667E+03 0.32000000E+00 0.0000E+00 0.9000E+01
       25  2    1    2    0    0 0.29215507E+01 -.51563178E+02 0.13131615E+03 0.33165428E+03 0.30013886E+03 0.0000E+00 0.0000E+00
       23  2    1    2    0    0 -.29215507E+01 0.51563178E+02 0.35805847E+03 0.37501328E+03 0.98801832E+02 0.0000E+00 0.0000E+00
       23  1    3    3    0    0 0.30325089E+02 -.14275392E+03 0.63805182E+02 0.18353377E+03 0.91188000E+02 0.0000E+00 0.9000E+01
      -11  1    4    4    0    0 0.11819732E+02 0.60034767E+02 0.10607807E+03 0.12245993E+03 0.51099893E-03 0.0000E+00 0.9000E+01
       11  1    4    4    0    0 -.14741283E+02 -.84715889E+01 0.25198040E+03 0.25255335E+03 0.51099893E-03 0.0000E+00 0.9000E+01
       23  1    3    3    0    0 -.27403538E+02 0.91190738E+02 0.67510970E+02 0.14812052E+03 0.91188000E+02 0.0000E+00 0.9000E+01
#aMCatNLO 1  0  0  2  1 0.62103036D+03 0.00000000D+00  -5  7  0 0.00000000D+00 0.00000000D+00 0.00000000D+00 0.00000000D+00 0.00000000D+00
  <mgrwgt>
 0.1790027536D-03    3    2    0
 0.254897790859695D+03 0.000000000000000D+00 0.000000000000000D+00 0.254897790859695D+03
 0.254897790859695D+03 0.000000000000000D+00 0.000000000000000D+00 -.254897790859695D+03
 0.193161197628636D+03 0.303250889176653D+02 -.142753915694567D+03 -.877365685523033D+02
 0.679224219569748D+02 0.118197322912349D+02 0.600347664193821D+02 0.294885766702142D+02
 0.108197191842528D+03 -.147412830318601D+02 -.847158855100387D+01 0.106852978828884D+03
 0.140514770291252D+03 -.274035381770402D+02 0.911907378261887D+02 -.486049869467949D+02
 0.000000000000000D+00 0.000000000000000D+00 0.000000000000000D+00 0.000000000000000D+00
 0.773175524022809D+03 0.000000000000000D+00 0.000000000000000D+00 0.773175524022809D+03
 0.661321368429118D+03 0.000000000000000D+00 0.000000000000000D+00 -.661321368429118D+03
 0.459611233382836D+03 -.610428669457865D+02 -.437610897306498D+03 -.877365685523033D+02
 0.329316484800343D+02 -.229671904550387D+01 0.144790330893834D+02 0.294885766702142D+02
 0.185699311981197D+03 -.558777059475469D+02 -.141224492789755D+03 0.106852978828884D+03
 0.125231668525599D+03 -.645998224243153D+02 -.288467960847360D+02 -.486049869467949D+02
 0.631023030082260D+03 0.183817114363153D+03 0.593203153091606D+03 0.111854155593690D+03
0.166244746338D-05 0.000000000000D+00 0.000000000000D+00 0.125607376326D-07 0.000000000000D+00  7 1 -1 23 -11 11 23 21 0 0.92003245D-01 0.16714842D-01 0.36503141D+05 0.36503141D+05 0.36503141D+05 0.11595117D+01  1  2  2  2  7  2       -1 0.176393990862D-03 0.100000000000D+01
-.830255729383D-07 0.000000000000D+00 -.638423599184D-08 0.125607376326D-07 0.000000000000D+00  7 1 -1 23 -11 11 23 21 2 0.92003245D-01 0.16714842D-01 0.36503141D+05 0.36503141D+05 0.36503141D+05 0.11595117D+01  1  2  3  2  7  2       -1 -.118439890600D-04 0.100000000000D+01
0.101312825908D-06 0.000000000000D+00 0.000000000000D+00 0.125607376326D-07 0.000000000000D+00  7 1 -1 23 -11 11 23 21 2 0.92003245D-01 0.16714842D-01 0.36503141D+05 0.36503141D+05 0.36503141D+05 0.11595117D+01  1  2 15  2  7  2       -1 0.144527518357D-04 0.100000000000D+01
  </mgrwgt>
  </event>
  <event>
  8     66 0.56006291E-06 0.25250110E+03 0.75467711E-02 0.93463762E-01
        1 -1    0    0  501    0 0.00000000E+00 0.00000000E+00 0.78699682E+02 0.78700333E+02 0.32000000E+00 0.0000E+00 0.9000E+01
       -1 -1    0    0    0  501 0.00000000E+00 0.00000000E+00 -.11230005E+04 0.11230005E+04 0.32000000E+00 0.0000E+00 0.9000E+01
       25  2    1    2    0    0 -.19717489E+03 0.57926232E+02 -.57540094E+03 0.68146484E+03 0.30178586E+03 0.0000E+00 0.0000E+00
       23  2    1    2    0    0 0.19717489E+03 -.57926232E+02 -.46889986E+03 0.52023602E+03 0.92439441E+02 0.0000E+00 0.0000E+00
       23  1    3    3    0    0 -.16842527E+03 0.28203016E+02 -.15129206E+03 0.24569701E+03 0.91188000E+02 0.0000E+00 0.9000E+01
      -13  1    4    4    0    0 0.17632349E+03 -.66893864E+02 -.45748198E+03 0.49482778E+03 0.10565837E+00 0.0000E+00 0.9000E+01
       13  1    4    4    0    0 0.20851400E+02 0.89676323E+01 -.11417884E+02 0.25408238E+02 0.10565837E+00 0.0000E+00 0.9000E+01
       23  1    3    3    0    0 -.28749619E+02 0.29723215E+02 -.42410888E+03 0.43576783E+03 0.91188000E+02 0.0000E+00 0.9000E+01
#aMCatNLO 1  0  0  2  2 0.44093325D+03 0.00000000D+00  -5  7  0 0.00000000D+00 0.00000000D+00 0.00000000D+00 0.00000000D+00 0.00000000D+00
  <mgrwgt>
 0.2433484914D-03    3    2    0
 0.297288074866965D+03 0.000000000000000D+00 0.000000000000000D+00 0.297288074866965D+03
 0.297288074866965D+03 0.000000000000000D+00 0.000000000000000D+00 -.297288074866965D+03
 0.230853340575853D+03 -.168425273747631D+03 0.282030168804404D+02 0.125759812789729D+03
 0.196587609798294D+03 0.176323694872628D+03 -.668939620498914D+02 -.555143296270282D+02
 0.312983747892574D+02 0.208511982424708D+02 0.896772977515345D+01 0.215498403470149D+02
 0.135836824570525D+03 -.287496193674680D+02 0.297232153942976D+02 -.917953235097161D+02
 0.000000000000000D+00 0.000000000000000D+00 0.000000000000000D+00 0.000000000000000D+00
 0.828085467464692D+03 0.000000000000000D+00 0.000000000000000D+00 0.828085467464692D+03
 0.476248490113646D+03 0.000000000000000D+00 0.000000000000000D+00 -.476248490113646D+03
 0.412149782172709D+03 -.380825563698506D+03 0.266186235898681D+02 0.125759812789729D+03
 0.114359741908013D+03 0.736098738579479D+02 -.676601525711112D+02 -.555143296270282D+02
 0.234533832354612D+02 0.276529963896146D+01 0.883281858266874D+01 0.215498403470149D+02
 0.190268764516564D+03 -.136470591826545D+03 0.289196741841723D+02 -.917953235097161D+02
 0.564102285745591D+03 0.440920982028142D+03 0.328903621440208D+01 0.351836977351045D+03
0.155152588356D-04 0.000000000000D+00 0.000000000000D+00 0.263672357798D-07 0.000000000000D+00  7 1 -1 23 -13 13 23 21 0 0.12107697D-01 0.17276936D+00 0.63756805D+05 0.63756805D+05 0.63756805D+05 0.11381248D+01  1  2  2  2  7  2       -1 0.240283572245D-03 0.100000000000D+01
-.834016276083D-06 0.000000000000D+00 -.595826791904D-07 0.263672357798D-07 0.000000000000D+00  7 1 -1 23 -13 13 23 21 2 0.12107697D-01 0.17276936D+00 0.63756805D+05 0.63756805D+05 0.63756805D+05 0.11381248D+01  1  2  3  2  7  2       -1 -.167309027237D-04 0.100000000000D+01
0.986798975881D-06 0.000000000000D+00 0.000000000000D+00 0.263672357798D-07 0.000000000000D+00  7 1 -1 23 -13 13 23 21 2 0.12107697D-01 0.17276936D+00 0.63756805D+05 0.63756805D+05 0.63756805D+05 0.11381248D+01  1  2 15  2  7  2       -1 0.197958219123D-04 0.100000000000D+01
  </mgrwgt>
  </event>
  <event>
  8     66 0.56006291E-06 0.24410769E+03 0.75467711E-02 0.96052363E-01
        1 -1    0    0  501    0 0.00000000E+00 0.00000000E+00 0.33679814E+03 0.33679829E+03 0.32000000E+00 0.0000E+00 0.9000E+01
       -1 -1    0    0    0  501 0.00000000E+00 0.00000000E+00 -.27941721E+03 0.27941739E+03 0.32000000E+00 0.0000E+00 0.9000E+01
       25  2    1    2    0    0 -.78163218E+02 -.12986933E+03 0.19815211E+03 0.39021736E+03 0.30004965E+03 0.0000E+00 0.0000E+00
       23  2    1    2    0    0 0.78163218E+02 0.12986933E+03 -.14077118E+03 0.22599833E+03 0.91012016E+02 0.0000E+00 0.0000E+00
       23  1    3    3    0    0 -.15849768E+03 -.78481704E+02 0.15212017E+03 0.25047293E+03 0.91188000E+02 0.0000E+00 0.9000E+01
      -11  1    4    4    0    0 0.16421550E+02 0.37251935E+01 -.63513127E+02 0.65707394E+02 0.51099893E-03 0.0000E+00 0.9000E+01
       11  1    4    4    0    0 0.61741668E+02 0.12614413E+03 -.77258058E+02 0.16029093E+03 0.51099893E-03 0.0000E+00 0.9000E+01
       23  1    3    3    0    0 0.80334460E+02 -.51387622E+02 0.46031946E+02 0.13974443E+03 0.91188000E+02 0.0000E+00 0.9000E+01
#aMCatNLO 1  0  0  1  2 0.30472467D+03 0.00000000D+00  -5  7  0 0.00000000D+00 0.00000000D+00 0.00000000D+00 0.00000000D+00 0.00000000D+00
  <mgrwgt>
 0.1906687861D-03    3    2    0
 0.306769130318184D+03 0.000000000000000D+00 0.000000000000000D+00 0.306769130318184D+03
 0.306769130318184D+03 0.000000000000000D+00 0.000000000000000D+00 -.306769130318184D+03
 0.237338989769685D+03 -.158497677408867D+03 -.784817039313292D+02 0.129358622151461D+03
 0.719341759940302D+02 0.164215497109153D+02 0.372519345918501D+01 -.699355511504964D+02
 0.168215957683732D+03 0.617416678900808D+02 0.126144132841785D+03 -.925863522080881D+02
 0.136049137188921D+03 0.803344598078706D+02 -.513876223696405D+02 0.331632812071235D+02
 0.000000000000000D+00 -.000000000000000D+00 0.000000000000000D+00 -.000000000000000D+00
 0.432877013137486D+03 0.000000000000000D+00 0.000000000000000D+00 0.432877013137486D+03
 0.599446465527592D+03 0.000000000000000D+00 0.000000000000000D+00 -.599446465527592D+03
 0.230573589796411D+03 -.751092059648949D+02 -.149912918129167D+03 0.129358622151461D+03
 0.853084672765696D+02 0.444443561939217D+02 -.202793608592991D+02 -.699355511504964D+02
 0.170351457563082D+03 0.122079048142497D+03 0.744586629163345D+02 -.925863522080881D+02
 0.198811245378158D+03 0.140011195738557D+03 -.102507179222974D+03 0.331632812071235D+02
 0.347278718650857D+03 -.231425394110081D+03 0.198240795295105D+03 -.166569452390105D+03
0.383258848101D-05 0.000000000000D+00 0.000000000000D+00 0.627715132769D-06 0.000000000000D+00  7 1 -1 23 -11 11 23 21 0 0.51815124D-01 0.42987289D-01 0.59588564D+05 0.59588564D+05 0.59588564D+05 0.11406532D+01  1  2  2  1  7  1        1 0.187487321586D-03 0.100000000000D+01
-.199406451032D-06 0.000000000000D+00 -.147181489108D-07 0.627715132769D-06 0.000000000000D+00  7 1 -1 23 -11 11 23 21 2 0.51815124D-01 0.42987289D-01 0.59588564D+05 0.59588564D+05 0.59588564D+05 0.11406532D+01  1  2  3  1  7  1        1 -.126918860175D-04 0.100000000000D+01
0.249391500506D-06 0.000000000000D+00 0.000000000000D+00 0.627715132769D-06 0.000000000000D+00  7 1 -1 23 -11 11 23 21 2 0.51815124D-01 0.42987289D-01 0.59588564D+05 0.59588564D+05 0.59588564D+05 0.11406532D+01  1  2 15  1  7  1        1 0.158733505449D-04 0.100000000000D+01
  </mgrwgt>
  </event>
  <event>
  8     66 0.56006291E-06 0.94698245E+03 0.75467711E-02 0.85668212E-01
        1 -1    0    0  501    0 0.00000000E+00 0.00000000E+00 0.18723028E+04 0.18723028E+04 0.32000000E+00 0.0000E+00 0.9000E+01
       -1 -1    0    0    0  501 0.00000000E+00 0.00000000E+00 -.47944052E+03 0.47944063E+03 0.32000000E+00 0.0000E+00 0.9000E+01
       25  2    1    2    0    0 -.57633677E+01 -.92153084E+03 0.72751375E+03 0.12118220E+04 0.29997332E+03 0.0000E+00 0.0000E+00
       23  2    1    2    0    0 0.57633677E+01 0.92153084E+03 0.66534852E+03 0.11399215E+04 0.86486732E+02 0.0000E+00 0.0000E+00
       23  1    3    3    0    0 0.11432954E+03 -.39660553E+03 0.30300060E+03 0.52008827E+03 0.91188000E+02 0.0000E+00 0.9000E+01
      -11  1    4    4    0    0 -.14037860E+02 0.27715464E+02 0.15931787E+02 0.34914614E+02 0.51099893E-03 0.0000E+00 0.9000E+01
       11  1    4    4    0    0 0.19801227E+02 0.89381538E+03 0.64941674E+03 0.11050068E+04 0.51099893E-03 0.0000E+00 0.9000E+01
       23  1    3    3    0    0 -.12009291E+03 -.52492531E+03 0.42451316E+03 0.69173374E+03 0.91188000E+02 0.0000E+00 0.9000E+01
#aMCatNLO 1  0  0  2  1 0.44983632D+03 0.00000000D+00  -5  7  0 0.00000000D+00 0.00000000D+00 0.00000000D+00 0.00000000D+00 0.00000000D+00
  <mgrwgt>
 0.4198083805D-03    4    2    0
 0.947448146929073D+03 0.000000000000000D+00 0.000000000000000D+00 0.947448146929073D+03
 0.947448146929073D+03 0.000000000000000D+00 0.000000000000000D+00 -.947448146929073D+03
 0.422754574534631D+03 0.114329540257532D+03 -.396605532151791D+03 -.624396004569446D+01
 0.316214830149173D+02 -.140378597490693D+02 0.277154642453758D+02 -.589149585347035D+01
 0.894056597624709D+03 0.198012274675281D+02 0.893815379105528D+03 -.625933075418154D+01
 0.546463638683890D+03 -.120092907975991D+03 -.524925311199113D+03 0.183947866533463D+02
 0.000000000000000D+00 0.000000000000000D+00 -.000000000000000D+00 0.000000000000000D+00
 0.126847074215767D+04 0.000000000000000D+00 0.000000000000000D+00 0.126847074215767D+04
 0.114544424242799D+04 0.000000000000000D+00 0.000000000000000D+00 -.114544424242799D+04
 0.337484058770942D+03 0.779414609358565D+02 -.315382910460666D+03 -.624396004569446D+01
 0.398672282401318D+02 -.174595970586326D+02 0.353531983660530D+02 -.589149585347035D+01
 0.111062346616589D+04 -.761508249276743D+02 0.110799203798568D+04 -.625933075418154D+01
 0.459583892775663D+03 -.168246390017479D+03 -.417440878718048D+03 0.183947866533463D+02
 0.466356338633037D+03 0.183915351067930D+03 -.410521447173023D+03 0.123026499729688D+03
0.665355842192D-03 0.000000000000D+00 0.000000000000D+00 0.524856564908D-06 0.000000000000D+00  7 1 -1 23 -11 11 23 21 0 0.28804659D+00 0.73760091D-01 0.89677577D+06 0.89677577D+06 0.89677577D+06 0.10510282D+01  1  2  2  2  7  2       -1 0.542657848343D-03 0.100000000000D+01
-.369642025917D-04 0.000000000000D+00 -.255514162623D-05 0.524856564908D-06 0.000000000000D+00  7 1 -1 23 -11 11 23 21 2 0.28804659D+00 0.73760091D-01 0.89677577D+06 0.89677577D+06 0.89677577D+06 0.10510282D+01  1  2  3  2  7  2       -1 -.333029126177D-04 0.100000000000D+01
0.426077128812D-04 0.000000000000D+00 0.000000000000D+00 0.524856564908D-06 0.000000000000D+00  7 1 -1 23 -11 11 23 21 2 0.28804659D+00 0.73760091D-01 0.89677577D+06 0.89677577D+06 0.89677577D+06 0.10510282D+01  1  2 15  2  7  2       -1 0.383874353952D-04 0.100000000000D+01
-.141998929725D-03 0.000000000000D+00 0.000000000000D+00 0.524856564908D-06 0.000000000000D+00  7 1 -1 23 -11 11 23 21 2 0.28804659D+00 0.73760091D-01 0.89677577D+06 0.89677577D+06 0.89677577D+06 0.10510282D+01  1  2  4  2  7  2       -1 -.127933990642D-03 0.100000000000D+01
  </mgrwgt>
  </event>
  <event>
  8     66 0.56006291E-06 0.79982532E+03 0.75467711E-02 0.85886303E-01
        1 -1    0    0  501    0 0.00000000E+00 0.00000000E+00 0.36660297E+03 0.36660311E+03 0.32000000E+00 0.0000E+00 0.9000E+01
       -1 -1    0    0    0  501 0.00000000E+00 0.00000000E+00 -.19251913E+04 0.19251913E+04 0.32000000E+00 0.0000E+00 0.9000E+01
       25  2    1    2    0    0 0.66681124E+03 0.39491760E+03 -.47728931E+03 0.95829041E+03 0.29986378E+03 0.0000E+00 0.0000E+00
       23  2    1    2    0    0 -.66681124E+03 -.39491760E+03 -.10812990E+04 0.13335040E+04 0.91805498E+02 0.0000E+00 0.0000E+00
       23  1    3    3    0    0 0.21601304E+03 0.24282454E+03 -.26613364E+03 0.42984620E+03 0.91188000E+02 0.0000E+00 0.9000E+01
      -11  1    4    4    0    0 -.40096153E+03 -.27386033E+03 -.72813178E+03 0.87518313E+03 0.51099893E-03 0.0000E+00 0.9000E+01
       11  1    4    4    0    0 -.26584971E+03 -.12105728E+03 -.35316721E+03 0.45832086E+03 0.51099893E-03 0.0000E+00 0.9000E+01
       23  1    3    3    0    0 0.45079820E+03 0.15209306E+03 -.21115567E+03 0.52844421E+03 0.91188000E+02 0.0000E+00 0.9000E+01
#aMCatNLO 1  0  0  2  1 0.62873153D+03 0.00000000D+00  -5  7  0 0.00000000D+00 0.00000000D+00 0.00000000D+00 0.00000000D+00 0.00000000D+00
  <mgrwgt>
 0.1392002708D-03    6    2    0
 0.840107747440430D+03 0.000000000000000D+00 0.000000000000000D+00 0.840107747440430D+03
 0.840107747440430D+03 0.000000000000000D+00 0.000000000000000D+00 -.840107747440430D+03
 0.339436427924670D+03 0.216013040335005D+03 0.242824543442957D+03 0.357273671742920D+02
 0.518315738621887D+03 -.400961531751366D+03 -.273860325258734D+03 -.181332780290633D+03
 0.297542131612363D+03 -.265849708454710D+03 -.121057277239643D+03 -.565719738589575D+02
 0.524921196721940D+03 0.450798199871072D+03 0.152093059055419D+03 0.202177386975299D+03
 0.000000000000000D+00 0.000000000000000D+00 -.000000000000000D+00 -.000000000000000D+00
 0.120767031728942D+04 0.000000000000000D+00 0.000000000000000D+00 0.120767031728942D+04
 0.121510275604529D+04 0.000000000000000D+00 0.000000000000000D+00 -.121510275604529D+04
 0.333834561966048D+03 0.108492437460092D+03 0.300138650739661D+03 0.357273671742920D+02
 0.637612859697511D+03 -.585561999672653D+03 -.175458616725057D+03 -.181332780290633D+03
 0.384169608782320D+03 -.374718289478882D+03 -.630246270570686D+02 -.565719738589575D+02
 0.438380585063910D+03 0.296960013043946D+03 0.234096862144190D+03 0.202177386975299D+03
 0.628775457824917D+03 0.554827838647498D+03 -.295752269101726D+03 -.743243875586833D+01
0.531544610943D-03 0.000000000000D+00 0.000000000000D+00 0.382411309114D-05 0.000000000000D+00  7 1 -1 23 -11 11 23 21 0 0.56400470D-01 0.29618328D+00 0.63972054D+06 0.63972054D+06 0.63972054D+06 0.10610280D+01  1  2  2  2  7  2       -1 0.915612861485D-04 0.100000000000D+01
-.294435674638D-04 0.000000000000D+00 -.204127126493D-05 0.382411309114D-05 0.000000000000D+00  7 1 -1 23 -11 11 23 21 2 0.56400470D-01 0.29618328D+00 0.63972054D+06 0.63972054D+06 0.63972054D+06 0.10610280D+01  1  2  3  2  7  2       -1 -.570973919203D-05 0.100000000000D+01
0.332369181972D-04 0.000000000000D+00 0.000000000000D+00 0.382411309114D-05 0.000000000000D+00  7 1 -1 23 -11 11 23 21 2 0.56400470D-01 0.29618328D+00 0.63972054D+06 0.63972054D+06 0.63972054D+06 0.10610280D+01  1  2 15  2  7  2       -1 0.644535125324D-05 0.100000000000D+01
-.193094041097D-03 0.000000000000D+00 -.136547489348D-03 0.382411309114D-05 0.000000000000D+00  7 1 -1 23 -11 11 23 21 2 0.56400470D-01 0.49446817D+00 0.63972054D+06 0.63972054D+06 0.63972054D+06 0.10610280D+01  1  2  5  2  7  2       -1 -.514827056769D-06 0.100000000000D+01
0.246188907973D-03 0.000000000000D+00 0.120387805622D-03 0.382411309114D-05 0.000000000000D+00  7 1 -1 23 -11 11 23 21 2 0.56400470D-01 0.29618328D+00 0.63972054D+06 0.63972054D+06 0.63972054D+06 0.10610280D+01  1  2  6  2  7  2       -1 0.477413091407D-04 0.100000000000D+01
-.477325935318D-05 0.000000000000D+00 -.785202278785D-05 0.382411309114D-05 0.000000000000D+00  7 1 21 23 -11 11 23 1 2 0.56400470D-01 0.49446817D+00 0.63972054D+06 0.63972054D+06 0.63972054D+06 0.10610280D+01  1  2  5  4  7  2       -1 -.323109537080D-06 0.100000000000D+01
  </mgrwgt>
  </event>
  <event>
  8     66 0.56006291E-06 0.10839556E+03 0.75467711E-02 0.10791588E+00
        1 -1    0    0  501    0 0.00000000E+00 0.00000000E+00 0.90346868E+03 0.90346874E+03 0.32000000E+00 0.0000E+00 0.9000E+01
       -1 -1    0    0    0  501 0.00000000E+00 0.00000000E+00 -.59521981E+02 0.59522841E+02 0.32000000E+00 0.0000E+00 0.9000E+01
       25  2    1    2    0    0 -.66021106E+01 0.30309680E+02 0.80682162E+03 0.86136325E+03 0.30003874E+03 0.0000E+00 0.0000E+00
       23  2    1    2    0    0 0.66021106E+01 -.30309680E+02 0.37125081E+02 0.10162834E+03 0.89374394E+02 0.0000E+00 0.0000E+00
       23  1    3    3    0    0 -.77179129E+02 0.70865837E+02 0.63794321E+03 0.65289002E+03 0.91188000E+02 0.0000E+00 0.9000E+01
      -11  1    4    4    0    0 -.38268776E+02 -.12376415E+02 -.75723107E+00 0.40227456E+02 0.51099893E-03 0.0000E+00 0.9000E+01
       11  1    4    4    0    0 0.44870886E+02 -.17933265E+02 0.37882312E+02 0.61400879E+02 0.51099893E-03 0.0000E+00 0.9000E+01
       23  1    3    3    0    0 0.70577018E+02 -.40556157E+02 0.16887841E+03 0.20847323E+03 0.91188000E+02 0.0000E+00 0.9000E+01
#aMCatNLO 1  0  0  1  2 0.79433905D+01 0.00000000D+00  -5  7  0 0.00000000D+00 0.00000000D+00 0.00000000D+00 0.00000000D+00 0.00000000D+00
  <mgrwgt>
 0.2060843736D-03   11    2    0
 0.231898010506868D+03 0.000000000000000D+00 0.000000000000000D+00 0.231898010506868D+03
 0.231898010506868D+03 0.000000000000000D+00 0.000000000000000D+00 -.231898010506868D+03
 0.194778562845981D+03 -.771791286473388D+02 0.708658372703282D+02 0.136546154869183D+03
 0.849031959339187D+02 -.382687756203875D+02 -.123764152849916D+02 -.747721728787071D+02
 0.585556502459758D+02 0.448708862462288D+02 -.179332645660467D+02 -.330721297350384D+02
 0.125558611987860D+03 0.705770180214975D+02 -.405561574192899D+02 -.287018522554373D+02
 0.000000000000000D+00 0.000000000000000D+00 -.000000000000000D+00 0.000000000000000D+00
 0.236159986558495D+03 0.000000000000000D+00 0.000000000000000D+00 0.236159986558495D+03
 0.235662976361810D+03 0.000000000000000D+00 0.000000000000000D+00 -.235662976361810D+03
 0.196323126286359D+03 -.804750621386783D+02 0.714592928531123D+02 0.136546154869183D+03
 0.855231374583868D+02 -.397050104300096D+02 -.121178112906455D+02 -.747721728787071D+02
 0.577534732326744D+02 0.438907137077975D+02 -.177567777326345D+02 -.330721297350384D+02
 0.124264301897123D+03 0.684716839570902D+02 -.401770774841422D+02 -.287018522554373D+02
 0.795892404576129D+01 0.781767490380017D+01 -.140762634569019D+01 0.497010196685204D+00
0.480115778366D-06 0.000000000000D+00 0.000000000000D+00 0.846062361027D-07 0.000000000000D+00  7 1 -1 23 -11 11 23 21 0 0.13899525D+00 0.91572984D-02 0.30568759D+05 0.30568759D+05 0.30568759D+05 0.11665799D+01  1  2  2  1  7  1        1 0.688282477268D-04 0.100000000000D+01
-.240862030241D-07 0.000000000000D+00 -.184377100631D-08 0.846062361027D-07 0.000000000000D+00  7 1 -1 23 -11 11 23 21 2 0.13899525D+00 0.91572984D-02 0.30568759D+05 0.30568759D+05 0.30568759D+05 0.11665799D+01  1  2  3  1  7  1        1 -.469913641323D-05 0.100000000000D+01
0.293182012650D-07 0.000000000000D+00 0.000000000000D+00 0.846062361027D-07 0.000000000000D+00  7 1 -1 23 -11 11 23 21 2 0.13899525D+00 0.91572984D-02 0.30568759D+05 0.30568759D+05 0.30568759D+05 0.11665799D+01  1  2 15  1  7  1        1 0.571988150218D-05 0.100000000000D+01
0.556509043456D-06 0.000000000000D+00 0.000000000000D+00 0.846062361027D-07 0.000000000000D+00  7 1 -1 23 -11 11 23 21 2 0.14265871D+00 0.91572984D-02 0.32178462D+05 0.32178462D+05 0.32178462D+05 0.11645218D+01  1  2 12  1  7  1        1 0.103710436875D-03 0.100000000000D+01
-.455167108560D-06 0.000000000000D+00 0.000000000000D+00 0.846062361027D-07 0.000000000000D+00  7 1 -1 23 -11 11 23 21 2 0.13899525D+00 0.91572984D-02 0.30568759D+05 0.30568759D+05 0.30568759D+05 0.11665799D+01  1  2  4  1  7  1        1 -.888015571323D-04 0.100000000000D+01
-.134465393439D-04 0.000000000000D+00 -.197434570929D-05 0.846062361027D-07 0.000000000000D+00  7 1 -1 23 -11 11 23 21 2 0.14324845D+00 0.91572984D-02 0.30568759D+05 0.30568759D+05 0.30568759D+05 0.11665799D+01  1  2  5  1  7  1        1 -.249745239347D-02 0.100000000000D+01
0.135008110858D-04 0.000000000000D+00 0.197344923759D-05 0.846062361027D-07 0.000000000000D+00  7 1 -1 23 -11 11 23 21 2 0.13899525D+00 0.91572984D-02 0.30568759D+05 0.30568759D+05 0.30568759D+05 0.11665799D+01  1  2  6  1  7  1        1 0.263396239408D-02 0.100000000000D+01
0.125379703072D-07 0.000000000000D+00 0.000000000000D+00 0.846062361027D-07 0.970156225111D-08  7 1 -1 23 -11 11 23 21 2 0.14154980D+00 0.93059711D-02 0.32178462D+05 0.32178462D+05 0.32178462D+05 0.11645218D+01  1  2 11  1  7  1        1 0.230982644822D-05 0.100000000000D+01
0.126889026990D-07 0.000000000000D+00 0.000000000000D+00 0.846062361027D-07 0.000000000000D+00  7 21 -1 23 -11 11 23 -1 2 0.14265871D+00 0.91572984D-02 0.32178462D+05 0.32178462D+05 0.32178462D+05 0.11645218D+01  1  2 12  3  7  1        1 0.377446601546D-05 0.100000000000D+01
-.720226595057D-07 0.000000000000D+00 -.106701140572D-07 0.846062361027D-07 0.000000000000D+00  7 21 -1 23 -11 11 23 -1 2 0.14324845D+00 0.91572984D-02 0.30568759D+05 0.30568759D+05 0.30568759D+05 0.11665799D+01  1  2  5  3  7  1        1 -.212904795201D-04 0.100000000000D+01
0.764281996512D-10 0.000000000000D+00 0.000000000000D+00 0.846062361027D-07 0.322880310018D-10  7 21 -1 23 -11 11 23 -1 2 0.14154980D+00 0.93059711D-02 0.32178462D+05 0.32178462D+05 0.32178462D+05 0.11645218D+01  1  2 11  3  7  1        1 0.226875347213D-07 0.100000000000D+01
  </mgrwgt>
  </event>
  <event>
  8     66 0.56006291E-06 0.24049585E+03 0.75467711E-02 0.92204837E-01
        1 -1    0    0  501    0 0.00000000E+00 0.00000000E+00 0.11235763E+04 0.11235763E+04 0.32000000E+00 0.0000E+00 0.9000E+01
       -1 -1    0    0    0  501 0.00000000E+00 0.00000000E+00 -.35831288E+03 0.35831302E+03 0.32000000E+00 0.0000E+00 0.9000E+01
       25  2    1    2    0    0 -.18383672E+03 0.39507387E+03 -.71437042E+02 0.53411151E+03 0.30048719E+03 0.0000E+00 0.0000E+00
       23  2    1    2    0    0 0.18383672E+03 -.39507387E+03 0.83670044E+03 0.94777783E+03 0.91301033E+02 0.0000E+00 0.0000E+00
       23  1    3    3    0    0 -.17663896E+03 0.12614147E+03 -.83478082E+02 0.24979358E+03 0.91188000E+02 0.0000E+00 0.9000E+01
      -11  1    4    4    0    0 0.12198772E+03 -.17693894E+03 0.34750314E+03 0.40859127E+03 0.51099893E-03 0.0000E+00 0.9000E+01
       11  1    4    4    0    0 0.61849005E+02 -.21813494E+03 0.48919730E+03 0.53918656E+03 0.51099893E-03 0.0000E+00 0.9000E+01
       23  1    3    3    0    0 -.71977614E+01 0.26893241E+03 0.12041040E+02 0.28431793E+03 0.91188000E+02 0.0000E+00 0.9000E+01
#aMCatNLO 1  0  0  1  2 0.26779594D+03 0.00000000D+00  -5  7  0 0.00000000D+00 0.00000000D+00 0.00000000D+00 0.00000000D+00 0.00000000D+00
  <mgrwgt>
 0.3135620879D-03    8    2    0
 0.634501369415210D+03 0.000000000000000D+00 0.000000000000000D+00 0.634501369415210D+03
 0.634501369415210D+03 0.000000000000000D+00 0.000000000000000D+00 -.634501369415210D+03
 0.342039580746365D+03 -.176638958786937D+03 0.126141465505240D+03 -.248118585301477D+03
 0.267576733938479D+03 0.121987715279747D+03 -.176938938039585D+03 0.159401750528138D+03
 0.334632872435675D+03 0.618490049021980D+02 -.218134936886971D+03 0.246111781953802D+03
 0.324753551709900D+03 -.719776139500819D+01 0.268932409421316D+03 -.157394947180464D+03
 0.000000000000000D+00 0.000000000000000D+00 -.000000000000000D+00 0.000000000000000D+00
 0.121011551319424D+04 0.000000000000000D+00 0.000000000000000D+00 0.121011551319424D+04
 0.680397634462624D+03 0.000000000000000D+00 0.000000000000000D+00 -.680397634462624D+03
 0.390742711673459D+03 -.213096707627367D+03 0.193369015636679D+03 -.248118585301477D+03
 0.228374508481725D+03 0.973129025552940D+02 -.131438947991447D+03 0.159401750528138D+03
 0.295315374810325D+03 0.305075065907110D+02 -.160341677128888D+03 0.246111781953802D+03
 0.382518681901440D+03 -.423863211098748D+02 0.333819593559822D+03 -.157394947180464D+03
 0.593561870789913D+03 0.127662619591237D+03 -.235407984076165D+03 0.529717878731614D+03
0.251668781841D-04 0.000000000000D+00 0.000000000000D+00 0.170582115769D-05 0.000000000000D+00  7 1 -1 23 -11 11 23 21 0 0.17285790D+00 0.55125072D-01 0.23094915D+06 0.23094915D+06 0.23094915D+06 0.10930583D+01  1  2  2  1  7  1        1 0.125898030366D-03 0.100000000000D+01
-.126690972687D-05 0.000000000000D+00 -.966474388180D-07 0.170582115769D-05 0.000000000000D+00  7 1 -1 23 -11 11 23 21 2 0.17285790D+00 0.55125072D-01 0.23094915D+06 0.23094915D+06 0.23094915D+06 0.10930583D+01  1  2  3  1  7  1        1 -.757219677117D-05 0.100000000000D+01
0.157008788294D-05 0.000000000000D+00 0.000000000000D+00 0.170582115769D-05 0.000000000000D+00  7 1 -1 23 -11 11 23 21 2 0.17285790D+00 0.55125072D-01 0.23094915D+06 0.23094915D+06 0.23094915D+06 0.10930583D+01  1  2 15  1  7  1        1 0.938426325528D-05 0.100000000000D+01
0.198602344166D-04 0.000000000000D+00 0.000000000000D+00 0.170582115769D-05 0.000000000000D+00  7 1 -1 23 -11 11 23 21 2 0.33065892D+00 0.55125072D-01 0.38753647D+06 0.38753647D+06 0.38753647D+06 0.10764201D+01  1  2 12  1  7  1        1 0.226373283546D-04 0.100000000000D+01
-.357293170505D-04 0.000000000000D+00 -.746456910161D-05 0.170582115769D-05 0.000000000000D+00  7 1 -1 23 -11 11 23 21 2 0.33644541D+00 0.55125072D-01 0.23094915D+06 0.23094915D+06 0.23094915D+06 0.10930583D+01  1  2  5  1  7  1        1 -.409561753853D-04 0.100000000000D+01
0.342228700844D-04 0.000000000000D+00 0.606839322358D-05 0.170582115769D-05 0.000000000000D+00  7 1 -1 23 -11 11 23 21 2 0.17285790D+00 0.55125072D-01 0.23094915D+06 0.23094915D+06 0.23094915D+06 0.10930583D+01  1  2  6  1  7  1        1 0.204546780924D-03 0.100000000000D+01
0.139858443377D-05 0.000000000000D+00 0.000000000000D+00 0.170582115769D-05 0.000000000000D+00  7 21 -1 23 -11 11 23 -1 2 0.33065892D+00 0.55125072D-01 0.38753647D+06 0.38753647D+06 0.38753647D+06 0.10764201D+01  1  2 12  3  7  1        1 0.705086953941D-06 0.100000000000D+01
-.214181133050D-05 0.000000000000D+00 -.538809791185D-06 0.170582115769D-05 0.000000000000D+00  7 21 -1 23 -11 11 23 -1 2 0.33644541D+00 0.55125072D-01 0.23094915D+06 0.23094915D+06 0.23094915D+06 0.10930583D+01  1  2  5  3  7  1        1 -.108102979780D-05 0.100000000000D+01
  </mgrwgt>
  </event>
  <event>
  8     66 0.56006291E-06 0.45041200E+03 0.75467711E-02 0.87453543E-01
        3 -1    0    0  501    0 0.00000000E+00 0.00000000E+00 0.10517104E+04 0.10517105E+04 0.50000000E+00 0.0000E+00 0.9000E+01
       -3 -1    0    0    0  501 0.00000000E+00 0.00000000E+00 -.35309827E+03 0.35309862E+03 0.50000000E+00 0.0000E+00 0.9000E+01
       25  2    1    2    0    0 0.38923050E+03 -.13783300E+03 0.81906528E+03 0.96530763E+03 0.30075336E+03 0.0000E+00 0.0000E+00
       23  2    1    2    0    0 -.38923050E+03 0.13783300E+03 -.12045317E+03 0.43950148E+03 0.90300981E+02 0.0000E+00 0.0000E+00
       23  1    3    3    0    0 0.85847434E+02 -.11437894E+03 0.43500400E+03 0.46690047E+03 0.91188000E+02 0.0000E+00 0.9000E+01
      -11  1    4    4    0    0 -.37035676E+03 0.12564655E+03 -.13383035E+03 0.41335427E+03 0.51099893E-03 0.0000E+00 0.9000E+01
       11  1    4    4    0    0 -.18873743E+02 0.12186452E+02 0.13377188E+02 0.26147217E+02 0.51099893E-03 0.0000E+00 0.9000E+01
       23  1    3    3    0    0 0.30338307E+03 -.23454061E+02 0.38406128E+03 0.49840716E+03 0.91188000E+02 0.0000E+00 0.9000E+01
#aMCatNLO 1  0  0  1  1 0.81429029D+03 0.00000000D+00  -5  7  0 0.00000000D+00 0.00000000D+00 0.00000000D+00 0.00000000D+00 0.00000000D+00
  <mgrwgt>
 0.1620679701D-04    5    2    0
 0.609391043741130D+03 0.000000000000000D+00 0.000000000000000D+00 0.609391043741130D+03
 0.609391043741130D+03 0.000000000000000D+00 0.000000000000000D+00 -.609391043741130D+03
 0.288818637611761D+03 0.858474340035390D+02 -.114378939024094D+03 0.233770465351473D+03
 0.553158235271142D+03 -.370356761904348D+03 0.125646547914892D+03 -.391194129757951D+03
 0.224702865088138D+02 -.188737427469985D+02 0.121864518961693D+02 0.431277973760466D+00
 0.354334928090544D+03 0.303383070647807D+03 -.234540607869673D+02 0.156992386432717D+03
 0.000000000000000D+00 0.000000000000000D+00 -.000000000000000D+00 0.000000000000000D+00
 0.119415960291361D+04 0.000000000000000D+00 0.000000000000000D+00 0.119415960291361D+04
 0.109225773609231D+04 0.000000000000000D+00 0.000000000000000D+00 -.109225773609231D+04
 0.253492373382672D+03 -.357941621952268D+02 -.364410500364758D+01 0.233770465351473D+03
 0.904748895001421D+03 -.697368655154911D+03 0.423337542224455D+03 -.391194129757951D+03
 0.418298035627800D+02 -.332963995499476D+02 0.253159286304168D+02 0.431277973760466D+00
 0.265704646261916D+03 0.164306780471928D+03 0.103152218562084D+03 0.156992386432717D+03
 0.820641620797131D+03 0.602152436428158D+03 -.548161584413308D+03 0.101901866821305D+03
0.463710994344D-04 0.000000000000D+00 0.000000000000D+00 0.143130911581D-05 0.000000000000D+00  7 3 -3 23 -11 11 23 21 0 0.16180163D+00 0.54322847D-01 0.20287097D+06 0.20287097D+06 0.20287097D+06 0.10973503D+01  1  2  2  1  7  1        3 0.157761097541D-04 0.100000000000D+01
-.228993546185D-05 0.000000000000D+00 -.178077231619D-06 0.143130911581D-05 0.000000000000D+00  7 3 -3 23 -11 11 23 21 2 0.16180163D+00 0.54322847D-01 0.20287097D+06 0.20287097D+06 0.20287097D+06 0.10973503D+01  1  2  3  1  7  1        3 -.938137164305D-06 0.100000000000D+01
0.296113597335D-05 0.000000000000D+00 0.000000000000D+00 0.143130911581D-05 0.000000000000D+00  7 3 -3 23 -11 11 23 21 2 0.16180163D+00 0.54322847D-01 0.20287097D+06 0.20287097D+06 0.20287097D+06 0.10973503D+01  1  2 15  1  7  1        3 0.121311353592D-05 0.100000000000D+01
0.730877947889D-05 0.000000000000D+00 -.133728283156D-04 0.143130911581D-05 0.000000000000D+00  7 3 -3 23 -11 11 23 21 2 0.42398647D+00 0.54322847D-01 0.20287097D+06 0.20287097D+06 0.20287097D+06 0.10973503D+01  1  2  5  1  7  1        3 0.304722189238D-07 0.100000000000D+01
0.158164857939D-05 0.000000000000D+00 -.142929240332D-05 0.143130911581D-05 0.000000000000D+00  7 21 -3 23 -11 11 23 -3 2 0.42398647D+00 0.54322847D-01 0.20287097D+06 0.20287097D+06 0.20287097D+06 0.10973503D+01  1  2  5  3  7  1        3 0.125238661476D-06 0.100000000000D+01
  </mgrwgt>
  </event>
  <event>
  8     66 0.56006291E-06 0.24284809E+03 0.75467711E-02 0.98183182E-01
        1 -1    0    0  501    0 0.00000000E+00 0.00000000E+00 0.73551437E+03 0.73551444E+03 0.32000000E+00 0.0000E+00 0.9000E+01
       -1 -1    0    0    0  501 0.00000000E+00 0.00000000E+00 -.57716588E+03 0.57716597E+03 0.32000000E+00 0.0000E+00 0.9000E+01
       25  2    1    2    0    0 0.14759645E+03 0.11128246E+03 -.50654809E+03 0.61672929E+03 0.29932516E+03 0.0000E+00 0.0000E+00
       23  2    1    2    0    0 -.14759645E+03 -.11128246E+03 0.66489658E+03 0.69595112E+03 0.89955561E+02 0.0000E+00 0.0000E+00
       23  1    3    3    0    0 0.12164210E+03 0.82471281E+01 -.43212332E+03 0.45816005E+03 0.91188000E+02 0.0000E+00 0.9000E+01
      -13  1    4    4    0    0 -.42034048E+01 -.26529539E+02 0.20631045E+03 0.20805168E+03 0.10565837E+00 0.0000E+00 0.9000E+01
       13  1    4    4    0    0 -.14339304E+03 -.84752916E+02 0.45858612E+03 0.48789944E+03 0.10565837E+00 0.0000E+00 0.9000E+01
       23  1    3    3    0    0 0.25954351E+02 0.10303533E+03 -.74424772E+02 0.15856924E+03 0.91188000E+02 0.0000E+00 0.9000E+01
#aMCatNLO 1  0  0  2  1 0.22330502D+03 0.00000000D+00  -5  7  0 0.00000000D+00 0.00000000D+00 0.00000000D+00 0.00000000D+00 0.00000000D+00
  <mgrwgt>
 0.5027795618D-03    3    2    0
 0.651547315078282D+03 0.000000000000000D+00 0.000000000000000D+00 0.651547315078282D+03
 0.651547315078282D+03 0.000000000000000D+00 0.000000000000000D+00 -.651547315078282D+03
 0.514040789926192D+03 0.121642098607185D+03 0.824712812051371D+01 -.490976442498158D+03
 0.184511510867964D+03 -.420321277469245D+01 -.265294588611197D+02 0.182545935199022D+03
 0.435762729848944D+03 -.143393236643636D+03 -.847529962999699D+02 0.402671660324442D+03
 0.168779599513465D+03 0.259543508111436D+02 0.103035327040576D+03 -.942411530253065D+02
 0.000000000000000D+00 -.000000000000000D+00 -.000000000000000D+00 0.000000000000000D+00
 0.162168333022010D+04 0.000000000000000D+00 0.000000000000000D+00 0.162168333022010D+04
 0.674021849171019D+03 0.000000000000000D+00 0.000000000000000D+00 -.674021849171019D+03
 0.542182883978271D+03 0.209308320892146D+03 0.279139401045145D+02 -.490976442498158D+03
 0.185503122519616D+03 0.265078817601742D+02 -.196398118990684D+02 0.182545935199022D+03
 0.414958877789492D+03 -.727836191919097D+02 -.689126186209658D+02 0.402671660324442D+03
 0.179444654398929D+03 0.548568509185783D+02 0.109519238639194D+03 -.942411530253065D+02
 0.973615640704806D+03 -.217889434378989D+03 -.488807482236743D+02 0.947661481049076D+03
0.108525807905D-03 0.000000000000D+00 0.000000000000D+00 0.103049581259D-05 0.000000000000D+00  7 1 -1 23 -13 13 23 21 0 0.11315607D+00 0.88794763D-01 0.58975194D+05 0.58975194D+05 0.58975194D+05 0.11410416D+01  1  2  2  2  7  2       -1 0.461115897492D-03 0.100000000000D+01
0.111082732656D-05 0.000000000000D+00 -.416767677856D-06 0.103049581259D-05 0.000000000000D+00  7 1 -1 23 -13 13 23 21 2 0.11315607D+00 0.88794763D-01 0.58975194D+05 0.58975194D+05 0.58975194D+05 0.11410416D+01  1  2  3  2  7  2       -1 0.614506686124D-05 0.100000000000D+01
0.642060201646D-05 0.000000000000D+00 0.000000000000D+00 0.103049581259D-05 0.000000000000D+00  7 1 -1 23 -13 13 23 21 2 0.11315607D+00 0.88794763D-01 0.58975194D+05 0.58975194D+05 0.58975194D+05 0.11410416D+01  1  2 15  2  7  2       -1 0.355185974790D-04 0.100000000000D+01
  </mgrwgt>
  </event>
  <event>
  8     66 0.56006291E-06 0.19802871E+03 0.75467711E-02 0.95247861E-01
        1 -1    0    0  501    0 0.00000000E+00 0.00000000E+00 0.10258987E+03 0.10259036E+03 0.32000000E+00 0.0000E+00 0.9000E+01
       -1 -1    0    0    0  501 0.00000000E+00 0.00000000E+00 -.48420719E+03 0.48420729E+03 0.32000000E+00 0.0000E+00 0.9000E+01
       25  2    1    2    0    0 0.34225622E+01 0.92964064E+02 -.24465709E+03 0.39808743E+03 0.29993746E+03 0.0000E+00 0.0000E+00
       23  2    1    2    0    0 -.34225622E+01 -.92964064E+02 -.13696023E+03 0.18871022E+03 0.90550613E+02 0.0000E+00 0.0000E+00
       23  1    3    3    0    0 0.16183059E+02 0.14752932E+03 -.23228908E+03 0.29034507E+03 0.91188000E+02 0.0000E+00 0.9000E+01
      -13  1    4    4    0    0 0.15182482E+02 -.94923009E+02 -.69283102E+02 0.11849491E+03 0.10565837E+00 0.0000E+00 0.9000E+01
       13  1    4    4    0    0 -.18605044E+02 0.19589447E+01 -.67677127E+02 0.70215310E+02 0.10565837E+00 0.0000E+00 0.9000E+01
       23  1    3    3    0    0 -.12760497E+02 -.54565253E+02 -.12368009E+02 0.10774236E+03 0.91188000E+02 0.0000E+00 0.9000E+01
#aMCatNLO 1  0  0  1  1 0.38770543D+03 0.00000000D+00  -5  7  0 0.00000000D+00 0.00000000D+00 0.00000000D+00 0.00000000D+00 0.00000000D+00
  <mgrwgt>
 0.3560126090D-03    5    2    0
 0.222878728121862D+03 0.000000000000000D+00 0.000000000000000D+00 0.222878728121862D+03
 0.222878728121862D+03 0.000000000000000D+00 0.000000000000000D+00 -.222878728121862D+03
 0.183346961905350D+03 0.161830599448012D+02 0.147529334165616D+03 -.572194130291016D+02
 0.966735289405630D+02 0.151825186970666D+02 -.949231491778640D+02 0.102400231441189D+02
 0.344926852693712D+02 -.186050819454276D+02 0.195905642759340D+01 -.289785845204580D+02
 0.131244280128440D+03 -.127604966964401D+02 -.545652414153456D+02 0.759579744054407D+02
 0.000000000000000D+00 0.000000000000000D+00 -.000000000000000D+00 0.000000000000000D+00
 0.640676347078609D+03 0.000000000000000D+00 0.000000000000000D+00 0.640676347078609D+03
 0.404220714675174D+03 0.000000000000000D+00 0.000000000000000D+00 -.404220714675174D+03
 0.253581767715461D+03 -.144262850810317D+03 0.178613074052219D+03 -.572194130291016D+02
 0.994571019020380D+02 -.568391991694303D+02 -.809701332747953D+02 0.102400231441189D+02
 0.619249323274108D+02 -.540108848130483D+02 0.881834477987294D+01 -.289785845204580D+02
 0.175811288996141D+03 -.125515294220008D+03 -.327208654465590D+02 0.759579744054407D+02
 0.454121970812732D+03 0.380628229012804D+03 -.737404201107378D+02 0.236455632403435D+03
0.372020132433D-05 0.000000000000D+00 0.000000000000D+00 0.452078429645D-06 0.000000000000D+00  7 1 -1 23 -13 13 23 21 0 0.15783103D-01 0.74493460D-01 0.39215369D+05 0.39215369D+05 0.39215369D+05 0.11566936D+01  1  2  2  1  7  1        1 0.309475556393D-03 0.100000000000D+01
-.203166078517D-06 0.000000000000D+00 -.142865526369D-07 0.452078429645D-06 0.000000000000D+00  7 1 -1 23 -13 13 23 21 2 0.15783103D-01 0.74493460D-01 0.39215369D+05 0.39215369D+05 0.39215369D+05 0.11566936D+01  1  2  3  1  7  1        1 -.226124584037D-04 0.100000000000D+01
0.239416995121D-06 0.000000000000D+00 0.000000000000D+00 0.452078429645D-06 0.000000000000D+00  7 1 -1 23 -13 13 23 21 2 0.15783103D-01 0.74493460D-01 0.39215369D+05 0.39215369D+05 0.39215369D+05 0.11566936D+01  1  2 15  1  7  1        1 0.266471986014D-04 0.100000000000D+01
0.198406635645D-05 0.000000000000D+00 -.167355841083D-05 0.452078429645D-06 0.000000000000D+00  7 1 -1 23 -13 13 23 21 2 0.77999407D-01 0.74493460D-01 0.39215369D+05 0.39215369D+05 0.39215369D+05 0.11566936D+01  1  2  5  1  7  1        1 0.277602821610D-04 0.100000000000D+01
0.342273243026D-06 0.000000000000D+00 -.325663571489D-06 0.452078429645D-06 0.000000000000D+00  7 21 -1 23 -13 13 23 -1 2 0.77999407D-01 0.74493460D-01 0.39215369D+05 0.39215369D+05 0.39215369D+05 0.11566936D+01  1  2  5  3  7  1        1 0.147420302372D-04 0.100000000000D+01
  </mgrwgt>
  </event>
  <event>
  8     66 0.56006291E-06 0.47734295E+03 0.75467711E-02 0.77889263E-01
        1 -1    0    0  501    0 0.00000000E+00 0.00000000E+00 0.15320303E+04 0.15320304E+04 0.32000000E+00 0.0000E+00 0.9000E+01
       -1 -1    0    0    0  501 0.00000000E+00 0.00000000E+00 -.40377196E+03 0.40377208E+03 0.32000000E+00 0.0000E+00 0.9000E+01
       25  2    1    2    0    0 -.41917315E+03 -.78684656E+02 0.13494419E+04 0.14469331E+04 0.30120488E+03 0.0000E+00 0.0000E+00
       23  2    1    2    0    0 0.41917315E+03 0.78684656E+02 -.22118357E+03 0.48886937E+03 0.90408447E+02 0.0000E+00 0.0000E+00
       23  1    3    3    0    0 -.57556856E+02 0.60295305E+02 0.34984691E+03 0.37102079E+03 0.91188000E+02 0.0000E+00 0.9000E+01
      -13  1    4    4    0    0 0.77167177E+02 0.45388393E+02 -.69118156E+02 0.11310265E+03 0.10565837E+00 0.0000E+00 0.9000E+01
       13  1    4    4    0    0 0.34200597E+03 0.33296264E+02 -.15206541E+03 0.37576672E+03 0.10565837E+00 0.0000E+00 0.9000E+01
       23  1    3    3    0    0 -.36161629E+03 -.13897996E+03 0.99959502E+03 0.10759123E+04 0.91188000E+02 0.0000E+00 0.9000E+01
#aMCatNLO 1  0  0  1  1 0.30039861D+04 0.00000000D+00  -5  7  0 0.00000000D+00 0.00000000D+00 0.00000000D+00 0.00000000D+00 0.00000000D+00
  <mgrwgt>
 0.2676916827D-03    3    2    0
 0.786505584947119D+03 0.000000000000000D+00 0.000000000000000D+00 0.786505584947119D+03
 0.786505584947119D+03 0.000000000000000D+00 0.000000000000000D+00 -.786505584947119D+03
 0.205659855663725D+03 -.575568559986015D+02 0.602953054979473D+02 0.164415356186974D+03
 0.188763253024125D+03 0.771668148377252D+02 0.453884093525758D+02 -.166182853136215D+03
 0.571502629535081D+03 0.342006330264757D+03 0.332962470671921D+02 -.456659923307910D+03
 0.607085431671307D+03 -.361616289103881D+03 -.138979961917715D+03 0.458427420257151D+03
 0.000000000000000D+00 -.000000000000000D+00 -.000000000000000D+00 -.000000000000000D+00
 0.236253416026495D+04 0.000000000000000D+00 0.000000000000000D+00 0.236253416026495D+04
 0.507734884915103D+04 0.000000000000000D+00 0.000000000000000D+00 -.507734884915103D+04
 0.375115263318273D+03 0.276147017822029D+03 0.170606637116636D+03 0.164415356186974D+03
 0.574038066151192D+03 0.515459962812924D+03 0.190273454404462D+03 -.166182853136215D+03
 0.187206312626063D+04 0.174603920287434D+04 0.497422521781117D+03 -.456659923307910D+03
 0.569697384955263D+03 0.314543848820367D+03 0.845359486047729D+02 0.458427420257151D+03
 0.404896916873062D+04 -.285219003232966D+04 -.942838561906987D+03 -.271481468888609D+04
0.124804341105D-03 0.000000000000D+00 0.000000000000D+00 0.651794231520D-06 0.000000000000D+00  7 1 -1 23 -13 13 23 21 0 0.23569698D+00 0.62118775D-01 0.22785629D+06 0.22785629D+06 0.22785629D+06 0.10935023D+01  1  2  2  1  7  1        1 0.260814892697D-03 0.100000000000D+01
-.483137352613D-05 0.000000000000D+00 -.479281531583D-06 0.651794231520D-06 0.000000000000D+00  7 1 -1 23 -13 13 23 21 2 0.23569698D+00 0.62118775D-01 0.22785629D+06 0.22785629D+06 0.22785629D+06 0.10935023D+01  1  2  3  1  7  1        1 -.120729303747D-04 0.100000000000D+01
0.758334345708D-05 0.000000000000D+00 0.000000000000D+00 0.651794231520D-06 0.000000000000D+00  7 1 -1 23 -13 13 23 21 2 0.23569698D+00 0.62118775D-01 0.22785629D+06 0.22785629D+06 0.22785629D+06 0.10935023D+01  1  2 15  1  7  1        1 0.189497204201D-04 0.100000000000D+01
  </mgrwgt>
  </event>
  <event>
  9     66 -.56006291E-06 0.45932972E+03 0.75467711E-02 0.95156606E-01
        1 -1    0    0  501    0 0.00000000E+00 0.00000000E+00 0.33017093E+03 0.33017109E+03 0.32000000E+00 0.0000E+00 0.9000E+01
       -1 -1    0    0    0  502 0.00000000E+00 0.00000000E+00 -.70249781E+03 0.70249789E+03 0.32000000E+00 0.0000E+00 0.9000E+01
       25  2    1    2    0    0 0.39679871E+03 -.50851625E+00 -.20673650E+03 0.53871595E+03 0.30004236E+03 0.0000E+00 0.0000E+00
       23  2    1    2    0    0 -.42004243E+03 -.25568397E+02 -.15187062E+03 0.45641543E+03 0.90338123E+02 0.0000E+00 0.0000E+00
       23  1    3    3    0    0 0.39147443E+03 0.24457521E+02 -.16364169E+03 0.43467718E+03 0.91188000E+02 0.0000E+00 0.9000E+01
      -11  1    4    4    0    0 -.54684663E+02 -.14892535E+02 0.84225649E+01 0.57298687E+02 0.51099893E-03 0.0000E+00 0.9000E+01
       11  1    4    4    0    0 -.36535777E+03 -.10675862E+02 -.16029318E+03 0.39911675E+03 0.51099893E-03 0.0000E+00 0.9000E+01
       23  1    3    3    0    0 0.53242823E+01 -.24966038E+02 -.43094805E+02 0.10403876E+03 0.91188000E+02 0.0000E+00 0.9000E+01
       21  1    1    2  501  502 0.23243720E+02 0.26076913E+02 -.13719768E+02 0.37537588E+02 0.75000000E+00 0.0000E+00 0.9000E+01
#aMCatNLO 2  0  0  2  1 0.34932448D+02 0.00000000D+00  -5  7  0 0.00000000D+00 0.00000000D+00 0.00000000D+00 0.00000000D+00 0.00000000D+00
  <mgrwgt>
 -.8008048227D-04    3    2    0
 0.463806838518808D+03 0.000000000000000D+00 0.000000000000000D+00 0.463806838518808D+03
 0.463806838518808D+03 0.000000000000000D+00 0.000000000000000D+00 -.463806838518808D+03
 0.413550319286020D+03 0.401698271667846D+03 0.359275535144154D+02 -.750497668906248D+01
 0.629364231976284D+02 -.530863583348193D+02 -.130994121621841D+02 0.311646807245535D+02
 0.356744049271399D+03 -.356306637871850D+03 -.521480904357636D+00 -.176528908872882D+02
 0.943828852825688D+02 0.769472453882403D+01 -.223066604478737D+02 -.600681314820275D+01
 0.000000000000000D+00 0.000000000000000D+00 0.000000000000000D+00 -.000000000000000D+00
 0.481498857255422D+03 0.000000000000000D+00 0.000000000000000D+00 0.481498857255422D+03
 0.481705395848162D+03 0.000000000000000D+00 0.000000000000000D+00 -.481705395848162D+03
 0.402767893475747D+03 0.391474430390855D+03 0.244575212550825D+02 -.750497668906248D+01
 0.646794963346423D+02 -.546846626300291D+02 -.148925348574225D+02 0.311646807245535D+02
 0.365939747881446D+03 -.365357770530702D+03 -.106758622927091D+02 -.176528908872882D+02
 0.948840564001512D+02 0.532428230135528D+01 -.249660375054815D+02 -.600681314820275D+01
 0.349330590115978D+02 0.232437204685203D+02 0.260769134005307D+02 -.206538592739565D+00
-.329385633306D-04 0.000000000000D+00 0.000000000000D+00 0.123116841987D-05 0.000000000000D+00  7 1 -1 23 -11 11 23 21 2 0.48928723D-01 0.10998559D+00 0.22777431D+06 0.22777431D+06 0.22777431D+06 0.10935141D+01  1  2 13  2  7  2       -1 -.318450715398D-03 0.100000000000D+01
-.364141967498D-05 0.000000000000D+00 0.000000000000D+00 0.123116841987D-05 0.000000000000D+00  7 1 -1 23 -11 11 23 21 2 0.48928723D-01 0.10405997D+00 0.21098379D+06 0.21098379D+06 0.21098379D+06 0.10960465D+01  1  2  8  2  7  2       -1 -.402912216090D-04 0.100000000000D+01
0.290842180262D-04 0.000000000000D+00 0.000000000000D+00 0.123116841987D-05 0.644420864063D-08  7 1 -1 23 -11 11 23 21 2 0.50795121D-01 0.10807570D+00 0.22777431D+06 0.22777431D+06 0.22777431D+06 0.10935141D+01  1  2  1  2  7  2       -1 0.278661454738D-03 0.100000000000D+01
  </mgrwgt>
  </event>
  <event>
  8     66 0.56006291E-06 0.13832298E+03 0.75467711E-02 0.11189069E+00
        1 -1    0    0  501    0 0.00000000E+00 0.00000000E+00 0.11697145E+04 0.11697145E+04 0.32000000E+00 0.0000E+00 0.9000E+01
       -1 -1    0    0    0  501 0.00000000E+00 0.00000000E+00 -.70472486E+02 0.70473213E+02 0.32000000E+00 0.0000E+00 0.9000E+01
       25  2    1    2    0    0 0.17031227E+02 -.35653111E+02 0.27349170E+03 0.40763642E+03 0.29968072E+03 0.0000E+00 0.0000E+00
       23  2    1    2    0    0 -.17031227E+02 0.35653111E+02 0.82575027E+03 0.83255130E+03 0.98574562E+02 0.0000E+00 0.0000E+00
       23  1    3    3    0    0 -.44988606E+02 -.29981408E+02 0.27758062E+03 0.29713484E+03 0.91188000E+02 0.0000E+00 0.9000E+01
      -13  1    4    4    0    0 0.42063710E+01 0.38547320E+02 0.11279881E+03 0.11927771E+03 0.10565837E+00 0.0000E+00 0.9000E+01
       13  1    4    4    0    0 -.21237598E+02 -.28942091E+01 0.71295146E+03 0.71327359E+03 0.10565837E+00 0.0000E+00 0.9000E+01
       23  1    3    3    0    0 0.62019832E+02 -.56717026E+01 -.40889237E+01 0.11050158E+03 0.91188000E+02 0.0000E+00 0.9000E+01
#aMCatNLO 1  0  0  1  1 0.49214453D+00 0.00000000D+00  -5  7  0 0.00000000D+00 0.00000000D+00 0.00000000D+00 0.00000000D+00 0.00000000D+00
  <mgrwgt>
 0.1261376520D-03    6    2    0
 0.287111761844850D+03 0.000000000000000D+00 0.000000000000000D+00 0.287111761844850D+03
 0.287111761844850D+03 0.000000000000000D+00 0.000000000000000D+00 -.287111761844850D+03
 0.110365916535586D+03 -.449886047118115D+02 -.299814096958274D+02 0.307005652631219D+02
 0.416797059601327D+02 0.420639404888184D+01 0.385473441483490D+02 0.152841878141233D+02
 0.175693009331784D+03 -.212376230430740D+02 -.289422861765104D+01 0.174380676498996D+03
 0.246484891862197D+03 0.620198337060036D+02 -.567170583487047D+01 -.220365429576241D+03
 0.000000000000000D+00 -.000000000000000D+00 0.000000000000000D+00 -.000000000000000D+00
 0.287145698002721D+03 0.000000000000000D+00 0.000000000000000D+00 0.287145698002721D+03
 0.288901707429763D+03 0.000000000000000D+00 0.000000000000000D+00 -.288901707429763D+03
 0.110330990307397D+03 -.448948013716868D+02 -.299934689646344D+02 0.307005652631219D+02
 0.416790843857301D+02 0.424182423716605D+01 0.385427892768078D+02 0.152841878141233D+02
 0.175675336791409D+03 -.210882801050514D+02 -.291342800470537D+01 0.174380676498996D+03
 0.246538323104042D+03 0.622293845555572D+02 -.569864549416348D+01 -.220365429576241D+03
 0.182367084390601D+01 -.488127315985023D+00 0.627531866955202D-01 -.175600942704237D+01
0.166698220303D-05 0.000000000000D+00 0.000000000000D+00 0.212822857416D-07 0.000000000000D+00  7 1 -1 23 -13 13 23 21 0 0.17995613D+00 0.10841980D-01 0.19133246D+05 0.19133246D+05 0.19133246D+05 0.11859050D+01  1  2  2  1  7  1        1 0.118769043486D-03 0.100000000000D+01
-.325592945398D-07 0.000000000000D+00 -.640165058612D-08 0.212822857416D-07 0.000000000000D+00  7 1 -1 23 -13 13 23 21 2 0.17995613D+00 0.10841980D-01 0.19133246D+05 0.19133246D+05 0.19133246D+05 0.11859050D+01  1  2  3  1  7  1        1 -.326247428720D-05 0.100000000000D+01
0.104770120471D-06 0.000000000000D+00 0.000000000000D+00 0.212822857416D-07 0.000000000000D+00  7 1 -1 23 -13 13 23 21 2 0.17995613D+00 0.10841980D-01 0.19133246D+05 0.19133246D+05 0.19133246D+05 0.11859050D+01  1  2 15  1  7  1        1 0.104980721768D-04 0.100000000000D+01
-.265958663240D-05 0.000000000000D+00 0.000000000000D+00 0.212822857416D-07 0.000000000000D+00  7 1 -1 23 -13 13 23 21 2 0.17995613D+00 0.10841980D-01 0.19133246D+05 0.19133246D+05 0.19133246D+05 0.11859050D+01  1  2  4  1  7  1        1 -.266493274054D-03 0.100000000000D+01
0.265963481538D-05 0.000000000000D+00 0.000000000000D+00 0.212822857416D-07 0.658936168509D-06  7 1 -1 23 -13 13 23 21 2 0.17997740D+00 0.10909573D-01 0.19192630D+05 0.19192630D+05 0.19192630D+05 0.11857739D+01  1  2 11  1  7  1        1 0.263886497227D-03 0.100000000000D+01
0.225968886691D-07 0.000000000000D+00 0.000000000000D+00 0.212822857416D-07 0.146436553499D-10  7 21 -1 23 -13 13 23 -1 2 0.17997740D+00 0.10909573D-01 0.19192630D+05 0.19192630D+05 0.19192630D+05 0.11857739D+01  1  2 11  3  7  1        1 0.273978748961D-05 0.100000000000D+01
  </mgrwgt>
  </event>
  <event>
  8     66 0.56006291E-06 0.18882120E+03 0.75467711E-02 0.85054380E-01
        1 -1    0    0  501    0 0.00000000E+00 0.00000000E+00 0.60114200E+02 0.60115052E+02 0.32000000E+00 0.0000E+00 0.9000E+01
       -1 -1    0    0    0  501 0.00000000E+00 0.00000000E+00 -.83255286E+03 0.83255292E+03 0.32000000E+00 0.0000E+00 0.9000E+01
       25  2    1    2    0    0 0.50624240E+02 0.67575264E+02 -.45589454E+03 0.55254151E+03 0.30055458E+03 0.0000E+00 0.0000E+00
       23  2    1    2    0    0 -.50624240E+02 -.67575264E+02 -.31654412E+03 0.34012647E+03 0.91414468E+02 0.0000E+00 0.0000E+00
       23  1    3    3    0    0 0.13144172E+03 0.55744265E+02 -.35703747E+03 0.39519028E+03 0.91188000E+02 0.0000E+00 0.9000E+01
      -13  1    4    4    0    0 -.55663584E+01 -.17905557E+02 -.22940235E+03 0.23016742E+03 0.10565837E+00 0.0000E+00 0.9000E+01
       13  1    4    4    0    0 -.45057882E+02 -.49669707E+02 -.87141770E+02 0.10995905E+03 0.10565837E+00 0.0000E+00 0.9000E+01
       23  1    3    3    0    0 -.80817480E+02 0.11830999E+02 -.98857075E+02 0.15735123E+03 0.91188000E+02 0.0000E+00 0.9000E+01
#aMCatNLO 1  0  0  1  2 0.12508510D+04 0.00000000D+00  -5  7  0 0.00000000D+00 0.00000000D+00 0.00000000D+00 0.00000000D+00 0.00000000D+00
  <mgrwgt>
 0.2427391890D-03    5    2    0
 0.223715571159641D+03 0.000000000000000D+00 0.000000000000000D+00 0.223715571159641D+03
 0.223715571159641D+03 0.000000000000000D+00 0.000000000000000D+00 -.223715571159641D+03
 0.172058108888678D+03 0.131441712153081D+03 0.557442738496847D+02 -.300731396695826D+02
 0.631691465044406D+02 -.556631431384638D+01 -.179055255628064D+02 -.603220471252314D+02
 0.689385510742950D+02 -.450579420736190D+02 -.496697601429644D+02 0.159756254229360D+02
 0.143265335851869D+03 -.808174557656152D+02 0.118310118560861D+02 0.744195613718779D+02
 0.000000000000000D+00 0.000000000000000D+00 -.000000000000000D+00 0.000000000000000D+00
 0.437003587648933D+04 0.000000000000000D+00 0.000000000000000D+00 0.437003587648933D+04
 0.769785781474028D+03 0.000000000000000D+00 0.000000000000000D+00 -.769785781474028D+03
 0.290078627204377D+03 -.140192871130781D+03 0.235099816612642D+03 -.300731396695826D+02
 0.172959439849735D+03 -.144357899458050D+03 0.737361195603271D+02 -.603220471252314D+02
 0.233291621996391D+03 -.222702696766599D+03 0.676259501887942D+02 0.159756254229360D+02
 0.632136692168246D+03 -.536583012382810D+03 0.312765001157127D+03 0.744195613718779D+02
 0.381135527674461D+04 0.104383647973824D+04 -.689226887518890D+03 0.360025009501531D+04
0.456833382915D-05 0.000000000000D+00 0.000000000000D+00 0.143259216650D-06 0.000000000000D+00  7 1 -1 23 -13 13 23 21 0 0.92484087D-02 0.12808513D+00 0.35653444D+05 0.35653444D+05 0.35653444D+05 0.11604424D+01  1  2  2  1  7  1        1 0.235528132017D-03 0.100000000000D+01
-.244922919770D-06 0.000000000000D+00 -.175436047739D-07 0.143259216650D-06 0.000000000000D+00  7 1 -1 23 -13 13 23 21 2 0.92484087D-02 0.12808513D+00 0.35653444D+05 0.35653444D+05 0.35653444D+05 0.11604424D+01  1  2  3  1  7  1        1 -.170044097482D-04 0.100000000000D+01
0.298862233725D-06 0.000000000000D+00 0.000000000000D+00 0.143259216650D-06 0.000000000000D+00  7 1 -1 23 -13 13 23 21 2 0.92484087D-02 0.12808513D+00 0.35653444D+05 0.35653444D+05 0.35653444D+05 0.11604424D+01  1  2 15  1  7  1        1 0.207492866952D-04 0.100000000000D+01
0.338038709274D-04 0.000000000000D+00 -.153588553401D-04 0.143259216650D-06 0.000000000000D+00  7 1 -1 23 -13 13 23 21 2 0.43317444D+00 0.12808513D+00 0.35653444D+05 0.35653444D+05 0.35653444D+05 0.11604424D+01  1  2  5  1  7  1        1 0.326743956572D-05 0.100000000000D+01
0.694922866982D-05 0.000000000000D+00 -.539859357867D-05 0.143259216650D-06 0.000000000000D+00  7 21 -1 23 -13 13 23 -1 2 0.43317444D+00 0.12808513D+00 0.35653444D+05 0.35653444D+05 0.35653444D+05 0.11604424D+01  1  2  5  3  7  1        1 0.198740514782D-06 0.100000000000D+01
  </mgrwgt>
  </event>
  <event>
  8     66 0.56006291E-06 0.27889496E+03 0.75467711E-02 0.99747073E-01
        1 -1    0    0  501    0 0.00000000E+00 0.00000000E+00 0.39511713E+03 0.39511726E+03 0.32000000E+00 0.0000E+00 0.9000E+01
       -1 -1    0    0    0  501 0.00000000E+00 0.00000000E+00 -.22325988E+03 0.22326011E+03 0.32000000E+00 0.0000E+00 0.9000E+01
       25  2    1    2    0    0 -.70144546E+02 0.17782149E+03 0.17789479E+02 0.35637857E+03 0.30024737E+03 0.0000E+00 0.0000E+00
       23  2    1    2    0    0 0.70144546E+02 -.17782149E+03 0.15406777E+03 0.26199879E+03 0.91464483E+02 0.0000E+00 0.0000E+00
       23  1    3    3    0    0 -.10766463E+03 0.20452090E+03 -.15461178E+02 0.24894732E+03 0.91188000E+02 0.0000E+00 0.9000E+01
      -13  1    4    4    0    0 -.11842037E+02 -.55069969E+00 0.25633607E+02 0.28242346E+02 0.10565837E+00 0.0000E+00 0.9000E+01
       13  1    4    4    0    0 0.81986583E+02 -.17727079E+03 0.12843416E+03 0.23375645E+03 0.10565837E+00 0.0000E+00 0.9000E+01
       23  1    3    3    0    0 0.37520084E+02 -.26699412E+02 0.33250657E+02 0.10743125E+03 0.91188000E+02 0.0000E+00 0.9000E+01
#aMCatNLO 1  0  0  1  2 0.86284392D+02 0.00000000D+00  -5  7  0 0.00000000D+00 0.00000000D+00 0.00000000D+00 0.00000000D+00 0.00000000D+00
  <mgrwgt>
 0.2419592449D-03    4    2    0
 0.297008269233451D+03 0.000000000000000D+00 0.000000000000000D+00 0.297008269233451D+03
 0.297008269233451D+03 0.000000000000000D+00 0.000000000000000D+00 -.297008269233451D+03
 0.263629871824295D+03 -.107664629479512D+03 0.204520896773327D+03 -.881191711046343D+02
 0.219841689630813D+02 -.118421619954221D+02 -.550464131774618D+00 0.185138832639486D+02
 0.206185336362556D+03 0.819867082837478D+02 -.177271021845755D+03 0.660723649455478D+02
 0.102217161316969D+03 0.375200831911864D+02 -.266994107957970D+02 0.353292289513788D+01
 0.000000000000000D+00 0.000000000000000D+00 0.000000000000000D+00 -.000000000000000D+00
 0.318948961212766D+03 0.000000000000000D+00 0.000000000000000D+00 0.318948961212766D+03
 0.399003104495426D+03 0.000000000000000D+00 0.000000000000000D+00 -.399003104495426D+03
 0.262200315142940D+03 -.138806187467474D+03 0.182761067849895D+03 -.881191711046343D+02
 0.236707120048310D+02 -.145460085191370D+02 -.243974782830636D+01 0.185138832639486D+02
 0.213335702576465D+03 0.571411610232524D+02 -.194631580945156D+03 0.660723649455478D+02
 0.101043754909410D+03 0.254822394799723D+02 -.351107247019377D+02 0.353292289513788D+01
 0.117701581074545D+03 0.707287954833864D+02 0.494209856255057D+02 -.800541432826598D+02
0.511979993137D-05 0.000000000000D+00 0.000000000000D+00 0.527080804533D-06 0.000000000000D+00  7 1 -1 23 -13 13 23 21 0 0.60787278D-01 0.34347701D-01 0.77782401D+05 0.77782401D+05 0.77782401D+05 0.11307880D+01  1  2  2  1  7  1        1 0.297311444358D-03 0.100000000000D+01
-.283064009641D-06 0.000000000000D+00 -.196613798107D-07 0.527080804533D-06 0.000000000000D+00  7 1 -1 23 -13 13 23 21 2 0.60787278D-01 0.34347701D-01 0.77782401D+05 0.77782401D+05 0.77782401D+05 0.11307880D+01  1  2  3  1  7  1        1 -.210186919415D-04 0.100000000000D+01
0.326371562521D-06 0.000000000000D+00 0.000000000000D+00 0.527080804533D-06 0.000000000000D+00  7 1 -1 23 -13 13 23 21 2 0.60787278D-01 0.34347701D-01 0.77782401D+05 0.77782401D+05 0.77782401D+05 0.11307880D+01  1  2 15  1  7  1        1 0.242344596891D-04 0.100000000000D+01
-.788749541160D-06 0.000000000000D+00 0.000000000000D+00 0.527080804533D-06 0.000000000000D+00  7 1 -1 23 -13 13 23 21 2 0.60787278D-01 0.34347701D-01 0.77782401D+05 0.77782401D+05 0.77782401D+05 0.11307880D+01  1  2  4  1  7  1        1 -.585679671734D-04 0.100000000000D+01
  </mgrwgt>
  </event>
  <event>
  9     66 0.56006291E-06 0.23593746E+03 0.75467711E-02 0.10031815E+00
        3 -1    0    0  502    0 0.00000000E+00 0.00000000E+00 0.33309469E+03 0.33309507E+03 0.50000000E+00 0.0000E+00 0.9000E+01
       -3 -1    0    0    0  501 0.00000000E+00 0.00000000E+00 -.39895021E+03 0.39895053E+03 0.50000000E+00 0.0000E+00 0.9000E+01
       25  2    1    2    0    0 0.19438454E+03 0.55308546E+02 0.94762528E+02 0.37401914E+03 0.30010997E+03 0.0000E+00 0.0000E+00
       23  2    1    2    0    0 -.12295150E+03 0.56219750E+02 -.15404459E+03 0.22541796E+03 0.93839168E+02 0.0000E+00 0.0000E+00
       23  1    3    3    0    0 0.18179443E+03 -.39176939E+02 0.12049159E+03 0.23961953E+03 0.91188000E+02 0.0000E+00 0.9000E+01
      -13  1    4    4    0    0 -.90825155E+02 0.46881260E+01 -.47060043E+02 0.10240042E+03 0.10565837E+00 0.0000E+00 0.9000E+01
       13  1    4    4    0    0 -.32126344E+02 0.51531624E+02 -.10698455E+03 0.12301754E+03 0.10565837E+00 0.0000E+00 0.9000E+01
       23  1    3    3    0    0 0.12590108E+02 0.94485484E+02 -.25729059E+02 0.13439960E+03 0.91188000E+02 0.0000E+00 0.9000E+01
       21  1    1    2  502  501 -.71433038E+02 -.11152830E+03 -.65734579E+01 0.13260849E+03 0.75000000E+00 0.0000E+00 0.9000E+01
#aMCatNLO 2  0  0  1  2 0.13244335D+03 0.00000000D+00  -5  7  0 0.00000000D+00 0.00000000D+00 0.00000000D+00 0.00000000D+00 0.00000000D+00
  <mgrwgt>
 0.4851102267D-05    1    2    0
 0.290804588091054D+03 0.000000000000000D+00 0.000000000000000D+00 0.290804588091054D+03
 0.290804588091054D+03 0.000000000000000D+00 0.000000000000000D+00 -.290804588091054D+03
 0.244430528605376D+03 0.151647024387342D+03 -.862460397110766D+02 0.144899387848687D+03
 0.110998684109929D+03 -.103511410562776D+03 -.151188486178072D+02 -.371149050101442D+02
 0.109947819009095D+03 -.456438872493462D+02 0.304266514178356D+02 -.952857667499365D+02
 0.116232144457707D+03 -.249172657522003D+01 0.709382369110481D+02 -.124987160886058D+02
 0.000000000000000D+00 -.000000000000000D+00 -.000000000000000D+00 0.000000000000000D+00
 0.367839049231313D+03 0.000000000000000D+00 0.000000000000000D+00 0.367839049231313D+03
 0.361265823026065D+03 0.000000000000000D+00 0.000000000000000D+00 -.361265823026065D+03
 0.252774863630558D+03 0.181794431273775D+03 -.391769383485706D+02 0.144899387848687D+03
 0.982278790573879D+02 -.908252280922084D+02 0.468806913335442D+01 -.371149050101442D+02
 0.112991101334191D+03 -.321262737090209D+02 0.515316812569055D+02 -.952857667499365D+02
 0.132504666934789D+03 0.125901087744763D+02 0.944854839257473D+02 -.124987160886058D+02
 0.132606361300452D+03 -.714330382470222D+02 -.111528295967437D+03 0.657322620524829D+01
0.929685772322D-06 0.000000000000D+00 0.000000000000D+00 0.809239032203D-07 0.325581548534D-10  7 3 -3 23 -13 13 23 21 2 0.51245241D-01 0.61376830D-01 0.97079143D+05 0.97079143D+05 0.97079143D+05 0.11227800D+01  1  2  1  1  7  1        3 0.485110226687D-05 0.100000000000D+01
  </mgrwgt>
  </event>
  <event>
  8     66 0.56006291E-06 0.10217238E+03 0.75467711E-02 0.11009324E+00
        1 -1    0    0  501    0 0.00000000E+00 0.00000000E+00 0.34906860E+02 0.34908327E+02 0.32000000E+00 0.0000E+00 0.9000E+01
       -1 -1    0    0    0  501 0.00000000E+00 0.00000000E+00 -.13280521E+04 0.13280522E+04 0.32000000E+00 0.0000E+00 0.9000E+01
       25  2    1    2    0    0 0.20180072E+02 -.19333463E+02 -.11577183E+04 0.11964783E+04 0.30077838E+03 0.0000E+00 0.0000E+00
       23  2    1    2    0    0 -.20180072E+02 0.19333463E+02 -.13542700E+03 0.16648222E+03 0.92708367E+02 0.0000E+00 0.0000E+00
       23  1    3    3    0    0 0.11073777E+03 0.94511019E+01 -.84527225E+03 0.85741040E+03 0.91188000E+02 0.0000E+00 0.9000E+01
      -11  1    4    4    0    0 -.15882624E+02 0.75757578E+01 0.10185839E+02 0.20332269E+02 0.51099893E-03 0.0000E+00 0.9000E+01
       11  1    4    4    0    0 -.42974479E+01 0.11757706E+02 -.14561283E+03 0.14614995E+03 0.51099893E-03 0.0000E+00 0.9000E+01
       23  1    3    3    0    0 -.90557702E+02 -.28784565E+02 -.31244604E+03 0.33906788E+03 0.91188000E+02 0.0000E+00 0.9000E+01
#aMCatNLO 1  0  0  2  1 0.60482335D+01 0.00000000D+00  -5  7  0 0.00000000D+00 0.00000000D+00 0.00000000D+00 0.00000000D+00 0.00000000D+00
  <mgrwgt>
 0.6074861053D-03   11    2    0
 0.215311764881164D+03 0.000000000000000D+00 0.000000000000000D+00 0.215311764881164D+03
 0.215311764881164D+03 0.000000000000000D+00 0.000000000000000D+00 -.215311764881164D+03
 0.175458831136112D+03 0.110737774011465D+03 0.945110167286832D+01 -.100590119613237D+03
 0.949410468102108D+02 -.158826240203962D+02 0.757575826241722D+01 0.932960476675983D+02
 0.253076419176203D+02 -.429744799251790D+01 0.117577055479644D+02 -.219946593615237D+02
 0.134916009898385D+03 -.905577019985507D+02 -.287845654832499D+02 0.292887313071627D+02
 0.000000000000000D+00 -.000000000000000D+00 0.000000000000000D+00 -.000000000000000D+00
 0.215946125213420D+03 0.000000000000000D+00 0.000000000000000D+00 0.215946125213420D+03
 0.230248876053757D+03 0.000000000000000D+00 0.000000000000000D+00 -.230248876053757D+03
 0.176545293250635D+03 0.112577833881933D+03 0.780053713530041D+01 -.100590119613237D+03
 0.947133039045193D+02 -.148912283638317D+02 0.668645974572920D+01 0.932960476675983D+02
 0.251549366511050D+02 -.403366083960766D+01 0.115210840515405D+02 -.219946593615237D+02
 0.134252468465978D+03 -.891506556569886D+02 -.300467096294111D+02 0.292887313071627D+02
 0.155289989949403D+02 -.450228902150464D+01 0.403862869684101D+01 -.143027508403365D+02
0.756162844129D-05 0.000000000000D+00 0.000000000000D+00 0.319628675684D-07 0.000000000000D+00  7 1 -1 23 -11 11 23 21 0 0.53704020D-02 0.20431583D+00 0.23344105D+05 0.23344105D+05 0.23344105D+05 0.11775809D+01  1  2  2  2  7  2       -1 0.198005643726D-03 0.100000000000D+01
-.359986011499D-06 0.000000000000D+00 -.290386442371D-07 0.319628675684D-07 0.000000000000D+00  7 1 -1 23 -11 11 23 21 2 0.53704020D-02 0.20431583D+00 0.23344105D+05 0.23344105D+05 0.23344105D+05 0.11775809D+01  1  2  3  2  7  2       -1 -.130716188575D-04 0.100000000000D+01
0.492336668244D-06 0.000000000000D+00 0.000000000000D+00 0.319628675684D-07 0.000000000000D+00  7 1 -1 23 -11 11 23 21 2 0.53704020D-02 0.20431583D+00 0.23344105D+05 0.23344105D+05 0.23344105D+05 0.11775809D+01  1  2 15  2  7  2       -1 0.178774648772D-04 0.100000000000D+01
0.927007960821D-04 0.000000000000D+00 0.000000000000D+00 0.319628675684D-07 0.000000000000D+00  7 1 -1 23 -11 11 23 21 2 0.53704020D-02 0.21877920D+00 0.24130976D+05 0.24130976D+05 0.24130976D+05 0.11762110D+01  1  2 12  2  7  2       -1 0.258220351290D-02 0.100000000000D+01
-.123459949896D-03 0.000000000000D+00 0.000000000000D+00 0.319628675684D-07 0.000000000000D+00  7 1 -1 23 -11 11 23 21 2 0.53704020D-02 0.20431583D+00 0.23344105D+05 0.23344105D+05 0.23344105D+05 0.11775809D+01  1  2  4  2  7  2       -1 -.448301144394D-02 0.100000000000D+01
-.186783527308D-03 0.000000000000D+00 -.117967183851D-04 0.319628675684D-07 0.000000000000D+00  7 1 -1 23 -11 11 23 21 2 0.53704020D-02 0.21874630D+00 0.23344105D+05 0.23344105D+05 0.23344105D+05 0.11775809D+01  1  2  5  2  7  2       -1 -.522154659080D-02 0.100000000000D+01
0.187179958626D-03 0.000000000000D+00 0.117693001728D-04 0.319628675684D-07 0.000000000000D+00  7 1 -1 23 -11 11 23 21 2 0.53704020D-02 0.20431583D+00 0.23344105D+05 0.23344105D+05 0.23344105D+05 0.11775809D+01  1  2  6  2  7  2       -1 0.679677820460D-02 0.100000000000D+01
0.297344369438D-04 0.000000000000D+00 0.000000000000D+00 0.319628675684D-07 0.646058697761D-08  7 1 -1 23 -11 11 23 21 2 0.53862244D-02 0.21849011D+00 0.24130976D+05 0.24130976D+05 0.24130976D+05 0.11762110D+01  1  2 11  2  7  2       -1 0.829349238877D-03 0.100000000000D+01
0.132267187788D-05 0.000000000000D+00 0.000000000000D+00 0.319628675684D-07 0.000000000000D+00  7 1 21 23 -11 11 23 1 2 0.53704020D-02 0.21877920D+00 0.24130976D+05 0.24130976D+05 0.24130976D+05 0.11762110D+01  1  2 12  4  7  2       -1 0.263743868283D-03 0.100000000000D+01
-.215326384949D-05 0.000000000000D+00 -.136651411581D-06 0.319628675684D-07 0.000000000000D+00  7 1 21 23 -11 11 23 1 2 0.53704020D-02 0.21874630D+00 0.23344105D+05 0.23344105D+05 0.23344105D+05 0.11775809D+01  1  2  5  4  7  2       -1 -.431294054114D-03 0.100000000000D+01
0.343058700227D-06 0.000000000000D+00 0.000000000000D+00 0.319628675684D-07 0.738608017096D-10  7 1 21 23 -11 11 23 1 2 0.53862244D-02 0.21849011D+00 0.24130976D+05 0.24130976D+05 0.24130976D+05 0.11762110D+01  1  2 11  4  7  2       -1 0.684518797114D-04 0.100000000000D+01
  </mgrwgt>
  </event>
  <event>
  8     66 0.56006291E-06 0.11175825E+04 0.75467711E-02 0.79150603E-01
        1 -1    0    0  501    0 0.00000000E+00 0.00000000E+00 0.98094854E+03 0.98094860E+03 0.32000000E+00 0.0000E+00 0.9000E+01
       -1 -1    0    0    0  501 0.00000000E+00 0.00000000E+00 -.13746258E+04 0.13746259E+04 0.32000000E+00 0.0000E+00 0.9000E+01
       25  2    1    2    0    0 -.90448156E+03 0.61961477E+03 -.51662586E+03 0.12484919E+04 0.29970061E+03 0.0000E+00 0.0000E+00
       23  2    1    2    0    0 0.90448156E+03 -.61961477E+03 0.12294858E+03 0.11070825E+04 0.92228128E+02 0.0000E+00 0.0000E+00
       23  1    3    3    0    0 -.25453710E+03 0.30841220E+03 -.17918118E+03 0.44758057E+03 0.91188000E+02 0.0000E+00 0.9000E+01
      -11  1    4    4    0    0 0.20580522E+03 -.10590413E+03 0.50148950E+02 0.23682566E+03 0.51099893E-03 0.0000E+00 0.9000E+01
       11  1    4    4    0    0 0.69867633E+03 -.51371064E+03 0.72799630E+02 0.87025687E+03 0.51099893E-03 0.0000E+00 0.9000E+01
       23  1    3    3    0    0 -.64994445E+03 0.31120258E+03 -.33744468E+03 0.80091135E+03 0.91188000E+02 0.0000E+00 0.9000E+01
#aMCatNLO 1  0  0  1  1 0.20833004D+04 0.00000000D+00  -5  7  0 0.00000000D+00 0.00000000D+00 0.00000000D+00 0.00000000D+00 0.00000000D+00
  <mgrwgt>
 0.3313132706D-03    3    2    0
 0.116122233183914D+04 0.000000000000000D+00 0.000000000000000D+00 0.116122233183914D+04
 0.116122233183914D+04 0.000000000000000D+00 0.000000000000000D+00 -.116122233183914D+04
 0.423592354309607D+03 -.254537104210254D+03 0.308412197662322D+03 -.105867890311044D+03
 0.248704730014728D+03 0.205805223998449D+03 -.105904131161760D+03 0.910086122821327D+02
 0.895011387568361D+03 0.698676331432689D+03 -.513710641562992D+03 0.221355245064897D+03
 0.755136191785582D+03 -.649944451220884D+03 0.311202575062430D+03 -.206495967035986D+03
 0.000000000000000D+00 0.000000000000000D+00 0.000000000000000D+00 -.000000000000000D+00
 0.240668076911668D+04 0.000000000000000D+00 0.000000000000000D+00 0.240668076911668D+04
 0.284141338771661D+04 0.000000000000000D+00 0.000000000000000D+00 -.284141338771661D+04
 0.502669263123831D+03 -.481514160791179D+03 0.360172112206165D+02 -.105867890311044D+03
 0.288906179472745D+03 0.740656166082838D+02 -.264004730003940D+03 0.910086122821327D+02
 0.115515104384403D+04 0.196291448548111D+03 -.111662234296252D+04 0.221355245064897D+03
 0.117319172258409D+04 -.112247422670617D+04 -.255880035512908D+03 -.206495967035986D+03
 0.212817594780858D+04 0.133363132234096D+04 0.160048989725875D+04 -.434732618599928D+03
0.169006675637D-02 0.000000000000D+00 0.000000000000D+00 0.470857332452D-05 0.000000000000D+00  7 1 -1 23 -11 11 23 21 0 0.15091517D+00 0.21148090D+00 0.12489906D+07 0.12489906D+07 0.12489906D+07 0.10414962D+01  1  2  2  1  7  1        1 0.328218309914D-03 0.100000000000D+01
-.937250913388D-04 0.000000000000D+00 -.649030134925D-05 0.470857332452D-05 0.000000000000D+00  7 1 -1 23 -11 11 23 21 2 0.15091517D+00 0.21148090D+00 0.12489906D+07 0.12489906D+07 0.12489906D+07 0.10414962D+01  1  2  3  1  7  1        1 -.197437745416D-04 0.100000000000D+01
0.108417088093D-03 0.000000000000D+00 0.000000000000D+00 0.470857332452D-05 0.000000000000D+00  7 1 -1 23 -11 11 23 21 2 0.15091517D+00 0.21148090D+00 0.12489906D+07 0.12489906D+07 0.12489906D+07 0.10414962D+01  1  2 15  1  7  1        1 0.228387352115D-04 0.100000000000D+01
  </mgrwgt>
  </event>
  <event>
  8     66 0.56006291E-06 0.33750666E+03 0.75467711E-02 0.90948179E-01
        1 -1    0    0  501    0 0.00000000E+00 0.00000000E+00 0.15041437E+04 0.15041437E+04 0.32000000E+00 0.0000E+00 0.9000E+01
       -1 -1    0    0    0  501 0.00000000E+00 0.00000000E+00 -.65466167E+03 0.65466174E+03 0.32000000E+00 0.0000E+00 0.9000E+01
       25  2    1    2    0    0 -.47280887E+03 0.90159889E+01 -.48463353E+03 0.74061274E+03 0.30001344E+03 0.0000E+00 0.0000E+00
       23  2    1    2    0    0 0.47280887E+03 -.90159889E+01 0.13341155E+04 0.14181927E+04 0.88186045E+02 0.0000E+00 0.0000E+00
       23  1    3    3    0    0 -.39991102E+03 0.45565513E+02 -.45589974E+03 0.61495111E+03 0.91188000E+02 0.0000E+00 0.9000E+01
      -13  1    4    4    0    0 0.33285377E+02 -.33923662E+00 0.43588255E+02 0.54845041E+02 0.10565837E+00 0.0000E+00 0.9000E+01
       13  1    4    4    0    0 0.43952350E+03 -.86767522E+01 0.12905273E+04 0.13633477E+04 0.10565837E+00 0.0000E+00 0.9000E+01
       23  1    3    3    0    0 -.72897851E+02 -.36549524E+02 -.28733781E+02 0.12566163E+03 0.91188000E+02 0.0000E+00 0.9000E+01
#aMCatNLO 1  0  0  1  2 0.36095716D+03 0.00000000D+00  -5  7  0 0.00000000D+00 0.00000000D+00 0.00000000D+00 0.00000000D+00 0.00000000D+00
  <mgrwgt>
 0.1939236497D-03    9    2    0
 0.992323191333474D+03 0.000000000000000D+00 0.000000000000000D+00 0.992323191333474D+03
 0.992323191333474D+03 0.000000000000000D+00 0.000000000000000D+00 -.992323191333474D+03
 0.864052379598788D+03 -.399911021846540D+03 0.455655132927533D+02 -.759122007288916D+03
 0.409996471341725D+02 0.332847942366956D+02 -.339224648599912D+00 0.239369685713390D+02
 0.930606683225938D+03 0.439524078636303D+03 -.867676421851192D+01 0.820226856989203D+03
 0.148987672708049D+03 -.728978510264593D+02 -.365495244256415D+02 -.850418182716260D+02
 0.000000000000000D+00 -.000000000000000D+00 0.000000000000000D+00 0.000000000000000D+00
 0.149119325698118D+04 0.000000000000000D+00 0.000000000000000D+00 0.149119325698118D+04
 0.107609695469633D+04 0.000000000000000D+00 0.000000000000000D+00 -.107609695469633D+04
 0.811020188031932D+03 -.268874277322806D+03 -.296461649313253D+02 -.759122007288916D+03
 0.469532321529746D+02 0.401651283762357D+02 -.428835723166331D+01 0.239369685713390D+02
 0.101598833008945D+04 0.591801346129120D+03 -.960799493719501D+02 0.820226856989203D+03
 0.143242091333770D+03 -.500374462458225D+02 -.496708013215432D+02 -.850418182716260D+02
 0.550086370069392D+03 -.313054750936727D+03 0.179685272856482D+03 0.415096302284850D+03
0.340935195038D-03 0.000000000000D+00 0.000000000000D+00 0.298244535534D-05 0.000000000000D+00  7 1 -1 23 -13 13 23 21 0 0.23140673D+00 0.10071719D+00 0.25397943D+06 0.25397943D+06 0.25397943D+06 0.10899435D+01  1  2  2  1  7  1        1 0.274846659407D-03 0.100000000000D+01
-.836885803194D-05 0.000000000000D+00 -.130928091924D-05 0.298244535534D-05 0.000000000000D+00  7 1 -1 23 -13 13 23 21 2 0.23140673D+00 0.10071719D+00 0.25397943D+06 0.25397943D+06 0.25397943D+06 0.10899435D+01  1  2  3  1  7  1        1 -.801480228101D-05 0.100000000000D+01
0.210261825479D-04 0.000000000000D+00 0.000000000000D+00 0.298244535534D-05 0.000000000000D+00  7 1 -1 23 -13 13 23 21 2 0.23140673D+00 0.10071719D+00 0.25397943D+06 0.25397943D+06 0.25397943D+06 0.10899435D+01  1  2 15  1  7  1        1 0.201366417261D-04 0.100000000000D+01
0.649589063880D-04 0.000000000000D+00 0.000000000000D+00 0.298244535534D-05 0.000000000000D+00  7 1 -1 23 -13 13 23 21 2 0.35357263D+00 0.10071719D+00 0.49113920D+06 0.49113920D+06 0.49113920D+06 0.10690596D+01  1  2 12  1  7  1        1 0.167639291744D-04 0.100000000000D+01
-.357124853555D-03 0.000000000000D+00 0.000000000000D+00 0.298244535534D-05 0.000000000000D+00  7 1 -1 23 -13 13 23 21 2 0.23140673D+00 0.10071719D+00 0.25397943D+06 0.25397943D+06 0.25397943D+06 0.10899435D+01  1  2  4  1  7  1        1 -.342016208179D-03 0.100000000000D+01
-.299906801724D-03 0.000000000000D+00 -.115520516934D-03 0.298244535534D-05 0.000000000000D+00  7 1 -1 23 -13 13 23 21 2 0.35729331D+00 0.10071719D+00 0.25397943D+06 0.25397943D+06 0.25397943D+06 0.10899435D+01  1  2  5  1  7  1        1 -.817426827492D-04 0.100000000000D+01
0.328689207553D-03 0.000000000000D+00 0.105417719105D-03 0.298244535534D-05 0.000000000000D+00  7 1 -1 23 -13 13 23 21 2 0.23140673D+00 0.10071719D+00 0.25397943D+06 0.25397943D+06 0.25397943D+06 0.10899435D+01  1  2  6  1  7  1        1 0.314783570278D-03 0.100000000000D+01
0.322755534256D-05 0.000000000000D+00 0.000000000000D+00 0.298244535534D-05 0.000000000000D+00  7 21 -1 23 -13 13 23 -1 2 0.35357263D+00 0.10071719D+00 0.49113920D+06 0.49113920D+06 0.49113920D+06 0.10690596D+01  1  2 12  3  7  1        1 0.323693782878D-06 0.100000000000D+01
-.107789322147D-04 0.000000000000D+00 -.584529172361D-05 0.298244535534D-05 0.000000000000D+00  7 21 -1 23 -13 13 23 -1 2 0.35729331D+00 0.10071719D+00 0.25397943D+06 0.25397943D+06 0.25397943D+06 0.10899435D+01  1  2  5  3  7  1        1 -.115715145868D-05 0.100000000000D+01
  </mgrwgt>
  </event>
  <event>
  8     66 0.56006291E-06 0.46483548E+03 0.75467711E-02 0.90080253E-01
        1 -1    0    0  501    0 0.00000000E+00 0.00000000E+00 0.89743001E+03 0.89743006E+03 0.32000000E+00 0.0000E+00 0.9000E+01
       -1 -1    0    0    0  501 0.00000000E+00 0.00000000E+00 -.62078811E+03 0.62078819E+03 0.32000000E+00 0.0000E+00 0.9000E+01
       25  2    1    2    0    0 -.40135772E+03 -.11603194E+03 -.44454741E+03 0.67985251E+03 0.30004266E+03 0.0000E+00 0.0000E+00
       23  2    1    2    0    0 0.40135772E+03 0.11603194E+03 0.72118930E+03 0.83836575E+03 0.90507910E+02 0.0000E+00 0.0000E+00
       23  1    3    3    0    0 -.93646150E+02 0.61854671E+02 -.94646754E+02 0.17282610E+03 0.91188000E+02 0.0000E+00 0.9000E+01
      -13  1    4    4    0    0 0.11261284E+03 0.40381526E+02 0.29226300E+03 0.31580056E+03 0.10565837E+00 0.0000E+00 0.9000E+01
       13  1    4    4    0    0 0.28874489E+03 0.75650410E+02 0.42892630E+03 0.52256519E+03 0.10565837E+00 0.0000E+00 0.9000E+01
       23  1    3    3    0    0 -.30771157E+03 -.17788661E+03 -.34990066E+03 0.50702641E+03 0.91188000E+02 0.0000E+00 0.9000E+01
#aMCatNLO 1  0  0  1  1 0.47477158D+03 0.00000000D+00  -5  7  0 0.00000000D+00 0.00000000D+00 0.00000000D+00 0.00000000D+00 0.00000000D+00
  <mgrwgt>
 0.3561442081D-03    4    2    0
 0.746400686476136D+03 0.000000000000000D+00 0.000000000000000D+00 0.746400686476136D+03
 0.746400686476136D+03 0.000000000000000D+00 0.000000000000000D+00 -.746400686476136D+03
 0.193308368890608D+03 -.936461496272583D+02 0.618546706450211D+02 -.128285901479985D+03
 0.267015835566713D+03 0.112612597993968D+03 0.403814776790268D+02 0.238715721050997D+03
 0.451975337418394D+03 0.288745126104266D+03 0.756504580793108D+02 0.339389107040713D+03
 0.580501831076557D+03 -.307711574470976D+03 -.177886606403359D+03 -.449818926611725D+03
 0.000000000000000D+00 -.000000000000000D+00 0.000000000000000D+00 -.000000000000000D+00
 0.929019804393579D+03 0.000000000000000D+00 0.000000000000000D+00 0.929019804393579D+03
 0.116979825769164D+04 0.000000000000000D+00 0.000000000000000D+00 -.116979825769164D+04
 0.171461244914869D+03 -.669637252839838D+02 0.119287107985516D+02 -.128285901479985D+03
 0.285749604465643D+03 0.153046673298019D+03 -.352754414257770D+02 0.238715721050997D+03
 0.496348993516761D+03 0.358113821454415D+03 -.541465444005807D+02 0.339389107040713D+03
 0.612921562050668D+03 -.220414200480849D+03 -.341230279094476D+03 -.449818926611725D+03
 0.532336657137278D+03 -.223782568987601D+03 0.418723554122282D+03 -.240778453298059D+03
0.171277710597D-03 0.000000000000D+00 0.000000000000D+00 0.480711555163D-05 0.000000000000D+00  7 1 -1 23 -13 13 23 21 0 0.13806617D+00 0.95505874D-01 0.21607202D+06 0.21607202D+06 0.21607202D+06 0.10952565D+01  1  2  2  1  7  1        1 0.427685926332D-03 0.100000000000D+01
-.692068276867D-05 0.000000000000D+00 -.657751507149D-06 0.480711555163D-05 0.000000000000D+00  7 1 -1 23 -13 13 23 21 2 0.13806617D+00 0.95505874D-01 0.21607202D+06 0.21607202D+06 0.21607202D+06 0.10952565D+01  1  2  3  1  7  1        1 -.207302591971D-04 0.100000000000D+01
0.106415220657D-04 0.000000000000D+00 0.000000000000D+00 0.480711555163D-05 0.000000000000D+00  7 1 -1 23 -13 13 23 21 2 0.13806617D+00 0.95505874D-01 0.21607202D+06 0.21607202D+06 0.21607202D+06 0.10952565D+01  1  2 15  1  7  1        1 0.318756859760D-04 0.100000000000D+01
-.276046475924D-04 0.000000000000D+00 0.000000000000D+00 0.480711555163D-05 0.000000000000D+00  7 1 -1 23 -13 13 23 21 2 0.13806617D+00 0.95505874D-01 0.21607202D+06 0.21607202D+06 0.21607202D+06 0.10952565D+01  1  2  4  1  7  1        1 -.826871450062D-04 0.100000000000D+01
  </mgrwgt>
  </event>
  <event>
  8     66 0.56006291E-06 0.40459777E+03 0.75467711E-02 0.96741538E-01
        1 -1    0    0  501    0 0.00000000E+00 0.00000000E+00 0.82696427E+03 0.82696433E+03 0.32000000E+00 0.0000E+00 0.9000E+01
       -1 -1    0    0    0  501 0.00000000E+00 0.00000000E+00 -.23932366E+03 0.23932387E+03 0.32000000E+00 0.0000E+00 0.9000E+01
       25  2    1    2    0    0 0.36851313E+03 0.84445962E+02 0.43072101E+03 0.64700466E+03 0.30026887E+03 0.0000E+00 0.0000E+00
       23  2    1    2    0    0 -.36851313E+03 -.84445962E+02 0.15691961E+03 0.41928354E+03 0.90784800E+02 0.0000E+00 0.0000E+00
       23  1    3    3    0    0 0.20716135E+03 0.41067971E+02 0.72225710E+02 0.24111037E+03 0.91188000E+02 0.0000E+00 0.9000E+01
      -13  1    4    4    0    0 -.10481420E+03 -.67290894E+02 0.50050025E+02 0.13423523E+03 0.10565837E+00 0.0000E+00 0.9000E+01
       13  1    4    4    0    0 -.26369893E+03 -.17155068E+02 0.10686958E+03 0.28504831E+03 0.10565837E+00 0.0000E+00 0.9000E+01
       23  1    3    3    0    0 0.16135178E+03 0.43377991E+02 0.35849530E+03 0.40589429E+03 0.91188000E+02 0.0000E+00 0.9000E+01
#aMCatNLO 1  0  0  1  1 0.23441428D+02 0.00000000D+00  -5  7  0 0.00000000D+00 0.00000000D+00 0.00000000D+00 0.00000000D+00 0.00000000D+00
  <mgrwgt>
 0.4699125196D-04    4    2    0
 0.444873305848510D+03 0.000000000000000D+00 0.000000000000000D+00 0.444873305848510D+03
 0.444873305848510D+03 0.000000000000000D+00 0.000000000000000D+00 -.444873305848510D+03
 0.241248885142391D+03 0.207161353015691D+03 0.410679713644510D+02 -.726867854782658D+02
 0.127813736138194D+03 -.104813980434330D+03 -.672909622164943D+02 -.286758967618131D+02
 0.271024264359673D+03 -.263699147654651D+03 -.171549998000867D+02 -.601881830575706D+02
 0.249659726056761D+03 0.161351775073290D+03 0.433779906521299D+02 0.161550865297650D+03
 0.000000000000000D+00 -.000000000000000D+00 0.000000000000000D+00 -.000000000000000D+00
 0.447070429576171D+03 0.000000000000000D+00 0.000000000000000D+00 0.447070429576171D+03
 0.512277690540803D+03 0.000000000000000D+00 0.000000000000000D+00 -.512277690540803D+03
 0.242750076059883D+03 0.209953015142014D+03 0.353371013623463D+02 -.726867854782658D+02
 0.128242578797779D+03 -.103337070825191D+03 -.703228394967077D+02 -.286758967618131D+02
 0.268482120303848D+03 -.260587323742399D+03 -.235431146591183D+02 -.601881830575706D+02
 0.250580579044826D+03 0.164237115798699D+03 0.374548123229263D+02 0.161550865297650D+03
 0.692927659106390D+02 -.102657363731221D+02 0.210740404705534D+02 -.652072609646322D+02
0.300517798138D-05 0.000000000000D+00 0.000000000000D+00 0.250462815408D-06 0.000000000000D+00  7 1 -1 23 -13 13 23 21 0 0.12722529D+00 0.36819045D-01 0.16369935D+06 0.16369935D+06 0.16369935D+06 0.11045691D+01  1  2  2  1  7  1        1 0.529914637608D-04 0.100000000000D+01
-.165126332475D-06 0.000000000000D+00 -.115406747300D-07 0.250462815408D-06 0.000000000000D+00  7 1 -1 23 -13 13 23 21 2 0.12722529D+00 0.36819045D-01 0.16369935D+06 0.16369935D+06 0.16369935D+06 0.11045691D+01  1  2  3  1  7  1        1 -.355253035048D-05 0.100000000000D+01
0.190158026995D-06 0.000000000000D+00 0.000000000000D+00 0.250462815408D-06 0.000000000000D+00  7 1 -1 23 -13 13 23 21 2 0.12722529D+00 0.36819045D-01 0.16369935D+06 0.16369935D+06 0.16369935D+06 0.11045691D+01  1  2 15  1  7  1        1 0.409106259530D-05 0.100000000000D+01
-.303929513935D-06 0.000000000000D+00 0.000000000000D+00 0.250462815408D-06 0.000000000000D+00  7 1 -1 23 -13 13 23 21 2 0.12722529D+00 0.36819045D-01 0.16369935D+06 0.16369935D+06 0.16369935D+06 0.11045691D+01  1  2  4  1  7  1        1 -.653874404209D-05 0.100000000000D+01
  </mgrwgt>
  </event>
  <event>
  9     66 0.56006291E-06 0.28105890E+03 0.75467711E-02 0.10033192E+00
        1 -1    0    0  501    0 0.00000000E+00 0.00000000E+00 0.15026221E+04 0.15026221E+04 0.32000000E+00 0.0000E+00 0.9000E+01
       21 -1    0    0  502  501 0.00000000E+00 0.00000000E+00 -.78672830E+02 0.78676405E+02 0.75000000E+00 0.0000E+00 0.9000E+01
       25  2    1    2    0    0 -.70810773E+02 -.22677645E+03 0.94015428E+03 0.10150631E+04 0.30003552E+03 0.0000E+00 0.0000E+00
       23  2    1    2    0    0 0.42662614E+02 0.17711985E+03 0.23549373E+03 0.31145766E+03 0.91416826E+02 0.0000E+00 0.0000E+00
       23  1    3    3    0    0 -.13913183E+03 -.71883748E+02 0.34625004E+03 0.39080594E+03 0.91188000E+02 0.0000E+00 0.9000E+01
      -13  1    4    4    0    0 0.26873725E+01 -.48707189E+01 -.48260059E+01 0.73652814E+01 0.10565837E+00 0.0000E+00 0.9000E+01
       13  1    4    4    0    0 0.39975241E+02 0.18199057E+03 0.24031973E+03 0.30409238E+03 0.10565837E+00 0.0000E+00 0.9000E+01
       23  1    3    3    0    0 0.68321052E+02 -.15489270E+03 0.59390424E+03 0.62425717E+03 0.91188000E+02 0.0000E+00 0.9000E+01
        1  1    1    2  502    0 0.28148159E+02 0.49656593E+02 0.24830124E+03 0.25477775E+03 0.32000000E+00 0.0000E+00 0.9000E+01
#aMCatNLO 2  0  0  2  2 0.57079735D+02 0.00000000D+00  -5  7  0 0.00000000D+00 0.00000000D+00 0.00000000D+00 0.00000000D+00 0.00000000D+00
  <mgrwgt>
 0.4924477510D-04    1    2    0
 0.305880285544039D+03 0.000000000000000D+00 0.000000000000000D+00 0.305880285544039D+03
 0.305880285544039D+03 0.000000000000000D+00 0.000000000000000D+00 -.305880285544039D+03
 0.169769377580781D+03 -.131074538286719D+03 -.576697663745627D+02 -.231688136522436D+00
 0.249730204935438D+02 0.383761614809261D+01 -.284171784921592D+01 -.245122233699089D+02
 0.214161972147764D+03 0.494069531863474D+02 0.198629358020894D+03 -.630133432160915D+02
 0.202856200865989D+03 0.778299689522790D+02 -.138117873797116D+03 0.877572547225228D+02
 0.000000000000000D+00 0.000000000000000D+00 0.000000000000000D+00 0.000000000000000D+00
 0.368975002090557D+03 0.000000000000000D+00 0.000000000000000D+00 0.368975002090557D+03
 0.320396064494717D+03 0.000000000000000D+00 0.000000000000000D+00 -.320396064494717D+03
 0.181218771567001D+03 -.139131825439527D+03 -.718837484743615D+02 -.231688136522436D+00
 0.251355748962361D+02 0.268732277534018D+01 -.487096778157333D+01 -.245122233699089D+02
 0.196696120882578D+03 0.399752910557642D+02 0.181990820241000D+03 -.630133432160915D+02
 0.211367218328987D+03 0.683210523635691D+02 -.154892697334750D+03 0.877572547225228D+02
 0.749533809104709D+02 0.281481592448535D+02 0.496565933496851D+02 0.485789375958400D+02
0.820632162147D-07 0.000000000000D+00 0.000000000000D+00 0.614623622924D-06 0.120602088420D-10  7 1 21 23 -13 13 23 1 2 0.23117266D+00 0.12103777D-01 0.96870085D+05 0.96870085D+05 0.96870085D+05 0.11228571D+01  1  2  1  4  7  2       -1 0.492447750989D-04 0.100000000000D+01
  </mgrwgt>
  </event>
  <event>
  7     66 0.56006291E-06 0.19800270E+03 0.75467711E-02 0.10073283E+00
        3 -1    0    0  501    0 0.00000000E+00 0.00000000E+00 0.41293118E+03 0.41293148E+03 0.50000000E+00 0.0000E+00 0.9000E+01
       -3 -1    0    0    0  501 0.00000000E+00 0.00000000E+00 -.25045791E+03 0.25045841E+03 0.50000000E+00 0.0000E+00 0.9000E+01
       25  2    1    2    0    0 0.17407546E+03 -.13052214E+03 0.14890858E+03 0.39808482E+03 0.29826073E+03 0.0000E+00 0.0000E+00
       23  1    3    3    0    0 -.22208556E+02 0.31312234E+02 0.39857894E+02 0.10666573E+03 0.91188000E+02 0.0000E+00 0.9000E+01
      -13  1    1    2    0    0 -.82230123E+02 0.59009477E+02 0.82012620E+02 0.13026892E+03 0.10565837E+00 0.0000E+00 0.9000E+01
       13  1    1    2    0    0 -.91845341E+02 0.71512664E+02 -.68447934E+02 0.13503614E+03 0.10565837E+00 0.0000E+00 0.9000E+01
       23  1    3    3    0    0 0.19628402E+03 -.16183437E+03 0.10905069E+03 0.29141909E+03 0.91188000E+02 0.0000E+00 0.9000E+01
#aMCatNLO 1  0  0  1  2 0.15725184D+02 0.00000000D+00  -5  7  0 0.00000000D+00 0.00000000D+00 0.00000000D+00 0.00000000D+00 0.00000000D+00
  <mgrwgt>
 0.2397554817D-04    9    2    0
 0.321593135071520D+03 0.000000000000000D+00 0.000000000000000D+00 0.321593135071520D+03
 0.321593135071520D+03 0.000000000000000D+00 0.000000000000000D+00 -.321593135071520D+03
 0.999476364097217D+02 -.222078803456542D+02 0.313117268086744D+02 0.141656095774932D+02
 0.113642643832613D+03 -.822306853750014D+02 0.590100409157337D+02 0.516776542728780D+02
 0.156567637033375D+03 -.918473015360200D+02 0.715139916970624D+02 -.104705525920644D+03
 0.273028352867331D+03 0.196285867256676D+03 -.161835759421470D+03 0.388622620702724D+02
 0.000000000000000D+00 -.000000000000000D+00 -.000000000000000D+00 0.000000000000000D+00
 0.341364832076056D+03 0.000000000000000D+00 0.000000000000000D+00 0.341364832076056D+03
 0.324831217702368D+03 0.000000000000000D+00 0.000000000000000D+00 -.324831217702368D+03
 0.100653457235931D+03 -.218420421485027D+02 0.337361498933478D+02 0.141656095774932D+02
 0.114803208209213D+03 -.818140664167551D+02 0.617709899575491D+02 0.516776542728780D+02
 0.158008233029930D+03 -.912736064126294D+02 0.753158902181636D+02 -.104705525920644D+03
 0.269913574514784D+03 0.197276035815887D+03 -.155273876240976D+03 0.388622620702724D+02
 0.228175767885664D+02 -.234632083800021D+01 -.155491538280848D+02 0.165336143736887D+02
0.307380032095D-05 0.000000000000D+00 0.000000000000D+00 0.507067458114D-10 0.000000000000D+00  7 3 -3 23 -13 13 23 21 0 0.63527935D-01 0.38532048D-01 0.86085126D+05 0.86085126D+05 0.86085126D+05 0.11271014D+01  1  2  2  1  7  1        3 0.213702339565D-04 0.100000000000D+01
-.169019198333D-06 0.000000000000D+00 -.118042025827D-07 0.507067458114D-10 0.000000000000D+00  7 3 -3 23 -13 13 23 21 2 0.63527935D-01 0.38532048D-01 0.86085126D+05 0.86085126D+05 0.86085126D+05 0.11271014D+01  1  2  3  1  7  1        3 -.149277937328D-05 0.100000000000D+01
0.197124687132D-06 0.000000000000D+00 0.000000000000D+00 0.507067458114D-10 0.000000000000D+00  7 3 -3 23 -13 13 23 21 2 0.63527935D-01 0.38532048D-01 0.86085126D+05 0.86085126D+05 0.86085126D+05 0.11271014D+01  1  2 15  1  7  1        3 0.174100735193D-05 0.100000000000D+01
0.191527701453D-04 0.000000000000D+00 0.000000000000D+00 0.507067458114D-10 0.000000000000D+00  7 3 -3 23 -13 13 23 21 2 0.67741338D-01 0.38532048D-01 0.91001233D+05 0.91001233D+05 0.91001233D+05 0.11250983D+01  1  2 12  1  7  1        3 0.147156030383D-03 0.100000000000D+01
-.194865645368D-04 0.000000000000D+00 0.000000000000D+00 0.507067458114D-10 0.000000000000D+00  7 3 -3 23 -13 13 23 21 2 0.63527935D-01 0.38532048D-01 0.86085126D+05 0.86085126D+05 0.86085126D+05 0.11271014D+01  1  2  4  1  7  1        3 -.172105547084D-03 0.100000000000D+01
-.509061019293D-04 0.000000000000D+00 -.634828387589D-05 0.507067458114D-10 0.000000000000D+00  7 3 -3 23 -13 13 23 21 2 0.67901711D-01 0.38532048D-01 0.86085126D+05 0.86085126D+05 0.86085126D+05 0.11271014D+01  1  2  5  1  7  1        3 -.390418048467D-03 0.100000000000D+01
0.512292315294D-04 0.000000000000D+00 0.633423854225D-05 0.507067458114D-10 0.000000000000D+00  7 3 -3 23 -13 13 23 21 2 0.63527935D-01 0.38532048D-01 0.86085126D+05 0.86085126D+05 0.86085126D+05 0.11271014D+01  1  2  6  1  7  1        3 0.452457122566D-03 0.100000000000D+01
0.259478665112D-06 0.000000000000D+00 0.000000000000D+00 0.507067458114D-10 0.000000000000D+00  7 21 -3 23 -13 13 23 -3 2 0.67741338D-01 0.38532048D-01 0.91001233D+05 0.91001233D+05 0.91001233D+05 0.11250983D+01  1  2 12  3  7  1        3 0.293003429350D-04 0.100000000000D+01
-.566967526979D-06 0.000000000000D+00 -.719133059950D-07 0.507067458114D-10 0.000000000000D+00  7 21 -3 23 -13 13 23 -3 2 0.67901711D-01 0.38532048D-01 0.86085126D+05 0.86085126D+05 0.86085126D+05 0.11271014D+01  1  2  5  3  7  1        3 -.640328141001D-04 0.100000000000D+01
  </mgrwgt>
  </event>
  <event>
  8     66 0.56006291E-06 0.15023014E+03 0.75467711E-02 0.98180901E-01
        1 -1    0    0  501    0 0.00000000E+00 0.00000000E+00 0.10608247E+04 0.10608247E+04 0.32000000E+00 0.0000E+00 0.9000E+01
       -1 -1    0    0    0  501 0.00000000E+00 0.00000000E+00 -.27283425E+03 0.27283444E+03 0.32000000E+00 0.0000E+00 0.9000E+01
       25  2    1    2    0    0 0.11252642E+03 -.30390546E+03 -.36538627E+02 0.44265945E+03 0.29931855E+03 0.0000E+00 0.0000E+00
       23  2    1    2    0    0 -.11252642E+03 0.30390546E+03 0.82452905E+03 0.89099971E+03 0.94929480E+02 0.0000E+00 0.0000E+00
       23  1    3    3    0    0 0.85881180E+02 -.51326381E+02 0.70165959E+02 0.15247455E+03 0.91188000E+02 0.0000E+00 0.9000E+01
      -13  1    4    4    0    0 -.26264456E+02 0.31627131E+02 0.45799750E+02 0.61544499E+02 0.10565837E+00 0.0000E+00 0.9000E+01
       13  1    4    4    0    0 -.86261967E+02 0.27227833E+03 0.77872930E+03 0.82945521E+03 0.10565837E+00 0.0000E+00 0.9000E+01
       23  1    3    3    0    0 0.26645243E+02 -.25257907E+03 -.10670459E+03 0.29018490E+03 0.91188000E+02 0.0000E+00 0.9000E+01
#aMCatNLO 1  0  0  2  1 0.73795429D+01 0.00000000D+00  -5  7  0 0.00000000D+00 0.00000000D+00 0.00000000D+00 0.00000000D+00 0.00000000D+00
  <mgrwgt>
 0.2589309035D-03   11    2    0
 0.537986488070995D+03 0.000000000000000D+00 0.000000000000000D+00 0.537986488070995D+03
 0.537986488070995D+03 0.000000000000000D+00 0.000000000000000D+00 -.537986488070995D+03
 0.137604732262462D+03 0.858811802783172D+02 -.513263815008542D+02 -.246948665324554D+02
 0.427418416985703D+02 -.262643815283932D+02 0.316268324660366D+02 0.116957583286376D+02
 0.457799472681494D+03 -.862620416676223D+02 0.272278623739593D+03 0.357775863368758D+03
 0.437826929499464D+03 0.266452429176983D+02 -.252579074704775D+03 -.344776755164941D+03
 0.000000000000000D+00 -.000000000000000D+00 -.000000000000000D+00 -.000000000000000D+00
 0.541471946939507D+03 0.000000000000000D+00 0.000000000000000D+00 0.541471946939507D+03
 0.541919433086863D+03 0.000000000000000D+00 0.000000000000000D+00 -.541919433086863D+03
 0.137310310942943D+03 0.859659107359417D+02 -.503874578197010D+02 -.246948665324554D+02
 0.429426913200216D+02 -.262379730437597D+02 0.319194728258426D+02 0.116957583286376D+02
 0.459616926929965D+03 -.859792884560666D+02 0.275411897106630D+03 0.357775863368758D+03
 0.436128352888054D+03 0.269146011534524D+02 -.249594235092745D+03 -.344776755164941D+03
 0.739309794538508D+01 -.663250389567797D+00 -.734967702002741D+01 -.447486147356933D+00
0.184371367776D-04 0.000000000000D+00 0.000000000000D+00 0.186637750000D-06 0.000000000000D+00  7 1 -1 23 -13 13 23 21 0 0.16320381D+00 0.41974518D-01 0.13393848D+06 0.13393848D+06 0.13393848D+06 0.11114544D+01  1  2  2  2  7  2       -1 0.170819237982D-03 0.100000000000D+01
-.839433993200D-06 0.000000000000D+00 -.708034598357D-07 0.186637750000D-06 0.000000000000D+00  7 1 -1 23 -13 13 23 21 2 0.16320381D+00 0.41974518D-01 0.13393848D+06 0.13393848D+06 0.13393848D+06 0.11114544D+01  1  2  3  2  7  2       -1 -.960756110245D-05 0.100000000000D+01
0.113463753551D-05 0.000000000000D+00 0.000000000000D+00 0.186637750000D-06 0.000000000000D+00  7 1 -1 23 -13 13 23 21 2 0.16320381D+00 0.41974518D-01 0.13393848D+06 0.13393848D+06 0.13393848D+06 0.11114544D+01  1  2 15  2  7  2       -1 0.129862497109D-04 0.100000000000D+01
0.562581231747D-05 0.000000000000D+00 0.000000000000D+00 0.186637750000D-06 0.000000000000D+00  7 1 -1 23 -13 13 23 21 2 0.16320381D+00 0.42416408D-01 0.13667092D+06 0.13667092D+06 0.13667092D+06 0.11107554D+01  1  2 12  2  7  2       -1 0.630949185490D-04 0.100000000000D+01
-.828234826465D-05 0.000000000000D+00 0.000000000000D+00 0.186637750000D-06 0.000000000000D+00  7 1 -1 23 -13 13 23 21 2 0.16320381D+00 0.41974518D-01 0.13393848D+06 0.13393848D+06 0.13393848D+06 0.11114544D+01  1  2  4  2  7  2       -1 -.947938344991D-04 0.100000000000D+01
-.139784486045D-02 0.000000000000D+00 -.170203870708D-03 0.186637750000D-06 0.000000000000D+00  7 1 -1 23 -13 13 23 21 2 0.16320381D+00 0.42544311D-01 0.13393848D+06 0.13393848D+06 0.13393848D+06 0.11114544D+01  1  2  5  2  7  2       -1 -.156249857094D-01 0.100000000000D+01
0.140002799306D-02 0.000000000000D+00 0.170188400155D-03 0.186637750000D-06 0.000000000000D+00  7 1 -1 23 -13 13 23 21 2 0.16320381D+00 0.41974518D-01 0.13393848D+06 0.13393848D+06 0.13393848D+06 0.11114544D+01  1  2  6  2  7  2       -1 0.160237190743D-01 0.100000000000D+01
0.383868655098D-05 0.000000000000D+00 0.000000000000D+00 0.186637750000D-06 0.225523711956D-07  7 1 -1 23 -13 13 23 21 2 0.16426116D+00 0.42281373D-01 0.13667092D+06 0.13667092D+06 0.13667092D+06 0.11107554D+01  1  2 11  2  7  2       -1 0.427919587832D-04 0.100000000000D+01
0.446256225466D-06 0.000000000000D+00 0.000000000000D+00 0.186637750000D-06 0.000000000000D+00  7 1 21 23 -13 13 23 1 2 0.16320381D+00 0.42416408D-01 0.13667092D+06 0.13667092D+06 0.13667092D+06 0.11107554D+01  1  2 12  4  7  2       -1 0.486254414894D-04 0.100000000000D+01
-.345212981776D-05 0.000000000000D+00 -.421726159632D-06 0.186637750000D-06 0.000000000000D+00  7 1 21 23 -13 13 23 1 2 0.16320381D+00 0.42544311D-01 0.13393848D+06 0.13393848D+06 0.13393848D+06 0.11114544D+01  1  2  5  4  7  2       -1 -.374749858980D-03 0.100000000000D+01
0.950937970179D-08 0.000000000000D+00 0.000000000000D+00 0.186637750000D-06 0.304490358542D-10  7 1 21 23 -13 13 23 1 2 0.16426116D+00 0.42281373D-01 0.13667092D+06 0.13667092D+06 0.13667092D+06 0.11107554D+01  1  2 11  4  7  2       -1 0.103098661518D-05 0.100000000000D+01
  </mgrwgt>
  </event>
  <event>
  8     66 0.56006291E-06 0.16684325E+03 0.75467711E-02 0.96374808E-01
        1 -1    0    0  501    0 0.00000000E+00 0.00000000E+00 0.42969397E+03 0.42969408E+03 0.32000000E+00 0.0000E+00 0.9000E+01
       -1 -1    0    0    0  501 0.00000000E+00 0.00000000E+00 -.68871757E+03 0.68871765E+03 0.32000000E+00 0.0000E+00 0.9000E+01
       25  2    1    2    0    0 0.12274860E+02 0.64977854E+02 0.36979789E+03 0.48030036E+03 0.29927440E+03 0.0000E+00 0.0000E+00
       23  2    1    2    0    0 -.12274860E+02 -.64977854E+02 -.62882150E+03 0.63811137E+03 0.86004936E+02 0.0000E+00 0.0000E+00
       23  1    3    3    0    0 -.51055757E+01 -.48887537E+02 0.26557943E+02 0.10694220E+03 0.91188000E+02 0.0000E+00 0.9000E+01
      -13  1    4    4    0    0 -.31359035E+02 -.30323581E+02 -.52810329E+03 0.52990188E+03 0.10565837E+00 0.0000E+00 0.9000E+01
       13  1    4    4    0    0 0.19084175E+02 -.34654274E+02 -.10071821E+03 0.10820949E+03 0.10565837E+00 0.0000E+00 0.9000E+01
       23  1    3    3    0    0 0.17380436E+02 0.11386539E+03 0.34323995E+03 0.37335816E+03 0.91188000E+02 0.0000E+00 0.9000E+01
#aMCatNLO 1  0  0  2  1 0.36915388D+03 0.00000000D+00  -5  7  0 0.00000000D+00 0.00000000D+00 0.00000000D+00 0.00000000D+00 0.00000000D+00
  <mgrwgt>
 0.2557059949D-03    5    2    0
 0.544001740435139D+03 0.000000000000000D+00 0.000000000000000D+00 0.544001740435139D+03
 0.544001740435139D+03 0.000000000000000D+00 0.000000000000000D+00 -.544001740435139D+03
 0.116253804919799D+03 -.510557566837062D+01 -.488875374334995D+02 0.527601894908775D+02
 0.418985615376670D+03 -.313591112829972D+02 -.303235741143842D+02 -.416708570688241D+03
 0.872550706451679D+02 0.190842512629615D+02 -.346542800034717D+02 -.777709430601582D+02
 0.465508989928641D+03 0.173804356884063D+02 0.113865391551355D+03 0.441719324257522D+03
 0.000000000000000D+00 0.000000000000000D+00 0.000000000000000D+00 -.000000000000000D+00
 0.632494595850413D+03 0.000000000000000D+00 0.000000000000000D+00 0.632494595850413D+03
 0.116152206601538D+04 0.000000000000000D+00 0.000000000000000D+00 -.116152206601538D+04
 0.137194207750496D+03 -.297168766407595D+02 -.827059184332706D+02 0.527601894908775D+02
 0.457025538677002D+03 -.116424975246316D+03 -.147212551288473D+03 -.416708570688241D+03
 0.978375554307835D+02 0.111066259627479D+01 -.593517825916163D+02 -.777709430601582D+02
 0.456866613085037D+03 -.721876904775285D+02 -.921014271289992D+01 0.441719324257522D+03
 0.645092746922477D+03 0.217218879768329D+03 0.298480395026260D+03 -.529027470164968D+03
0.354397059257D-04 0.000000000000D+00 0.000000000000D+00 0.862925298625D-07 0.000000000000D+00  7 1 -1 23 -13 13 23 21 0 0.66106779D-01 0.10595656D+00 0.27836669D+05 0.27836669D+05 0.27836669D+05 0.11703638D+01  1  2  2  2  7  2       -1 0.225670908902D-03 0.100000000000D+01
0.137507060782D-05 0.000000000000D+00 -.136097802243D-06 0.862925298625D-07 0.000000000000D+00  7 1 -1 23 -13 13 23 21 2 0.66106779D-01 0.10595656D+00 0.27836669D+05 0.27836669D+05 0.27836669D+05 0.11703638D+01  1  2  3  2  7  2       -1 0.119936726967D-04 0.100000000000D+01
0.203859006209D-05 0.000000000000D+00 0.000000000000D+00 0.862925298625D-07 0.000000000000D+00  7 1 -1 23 -13 13 23 21 2 0.66106779D-01 0.10595656D+00 0.27836669D+05 0.27836669D+05 0.27836669D+05 0.11703638D+01  1  2 15  2  7  2       -1 0.177810374451D-04 0.100000000000D+01
-.260340450555D-05 0.000000000000D+00 -.989955258296D-05 0.862925298625D-07 0.000000000000D+00  7 1 -1 23 -13 13 23 21 2 0.66106779D-01 0.24161997D+00 0.27836669D+05 0.27836669D+05 0.27836669D+05 0.11703638D+01  1  2  5  2  7  2       -1 -.180938138028D-05 0.100000000000D+01
0.392926259216D-06 0.000000000000D+00 -.887309767261D-06 0.862925298625D-07 0.000000000000D+00  7 1 21 23 -13 13 23 1 2 0.66106779D-01 0.24161997D+00 0.27836669D+05 0.27836669D+05 0.27836669D+05 0.11703638D+01  1  2  5  4  7  2       -1 0.206975728504D-05 0.100000000000D+01
  </mgrwgt>
  </event>
  <event>
  8     66 0.56006291E-06 0.27183969E+03 0.75467711E-02 0.93329019E-01
        1 -1    0    0  501    0 0.00000000E+00 0.00000000E+00 0.33922357E+04 0.33922357E+04 0.32000000E+00 0.0000E+00 0.9000E+01
       -1 -1    0    0    0  501 0.00000000E+00 0.00000000E+00 -.32472085E+02 0.32473661E+02 0.32000000E+00 0.0000E+00 0.9000E+01
       25  2    1    2    0    0 -.24537523E+02 -.20599380E+03 0.27393262E+04 0.27635587E+04 0.30052114E+03 0.0000E+00 0.0000E+00
       23  2    1    2    0    0 0.24537523E+02 0.20599380E+03 0.62043740E+03 0.66115069E+03 0.95614497E+02 0.0000E+00 0.0000E+00
       23  1    3    3    0    0 0.28488063E+02 -.14730830E+01 0.15006009E+04 0.15036396E+04 0.91188000E+02 0.0000E+00 0.9000E+01
      -11  1    4    4    0    0 0.44467193E+02 0.17910926E+03 0.43204341E+03 0.46980737E+03 0.51099893E-03 0.0000E+00 0.9000E+01
       11  1    4    4    0    0 -.19929671E+02 0.26884544E+02 0.18839399E+03 0.19134332E+03 0.51099893E-03 0.0000E+00 0.9000E+01
       23  1    3    3    0    0 -.53025585E+02 -.20452072E+03 0.12387253E+04 0.12599191E+04 0.91188000E+02 0.0000E+00 0.9000E+01
#aMCatNLO 1  0  0  2  1 0.42247701D+03 0.00000000D+00  -5  7  0 0.00000000D+00 0.00000000D+00 0.00000000D+00 0.00000000D+00 0.00000000D+00
  <mgrwgt>
 0.1946743235D-03    5    2    0
 0.331897107657344D+03 0.000000000000000D+00 0.000000000000000D+00 0.331897107657344D+03
 0.331897107657344D+03 0.000000000000000D+00 0.000000000000000D+00 -.331897107657344D+03
 0.162496654156700D+03 0.284880628771751D+02 -.147308298808973D+01 0.131438851060631D+03
 0.237106586086364D+03 0.444671932482193D+02 0.179109258987997D+03 -.148869322679075D+03
 0.336489644104222D+02 -.199296707385226D+02 0.268845443683291D+02 0.350461185515264D+01
 0.230542010661202D+03 -.530255853868717D+02 -.204520720368236D+03 0.139258597632920D+02
 0.000000000000000D+00 0.000000000000000D+00 -.000000000000000D+00 -.000000000000000D+00
 0.476555890767146D+03 0.000000000000000D+00 0.000000000000000D+00 0.476555890767146D+03
 0.930134138871653D+03 0.000000000000000D+00 0.000000000000000D+00 -.930134138871653D+03
 0.184784066832140D+03 -.103776123618696D+02 0.919023046748721D+02 0.131438851060631D+03
 0.375424102828582D+03 -.240837437618475D+02 0.343803948546454D+03 -.148869322679075D+03
 0.605575014640154D+02 -.304727204582671D+02 0.522143848683604D+02 0.350461185515264D+01
 0.166069497240430D+03 -.974120806068811D+02 -.978814770596602D+02 0.139258597632920D+02
 0.619854861273631D+03 0.162346157188865D+03 -.390039161030026D+03 -.453578248104507D+03
0.260676751376D-04 0.000000000000D+00 0.000000000000D+00 0.459016517842D-07 0.000000000000D+00  7 1 -1 23 -11 11 23 21 0 0.52188254D+00 0.49958278D-02 0.73896815D+05 0.73896815D+05 0.73896815D+05 0.11326649D+01  1  2  2  2  7  2       -1 0.173410995612D-03 0.100000000000D+01
-.137804463039D-05 0.000000000000D+00 -.100106736305D-06 0.459016517842D-07 0.000000000000D+00  7 1 -1 23 -11 11 23 21 2 0.52188254D+00 0.49958278D-02 0.73896815D+05 0.73896815D+05 0.73896815D+05 0.11326649D+01  1  2  3  2  7  2       -1 -.117608993685D-04 0.100000000000D+01
0.164495529727D-05 0.000000000000D+00 0.000000000000D+00 0.459016517842D-07 0.000000000000D+00  7 1 -1 23 -11 11 23 21 2 0.52188254D+00 0.49958278D-02 0.73896815D+05 0.73896815D+05 0.73896815D+05 0.11326649D+01  1  2 15  2  7  2       -1 0.140388440913D-04 0.100000000000D+01
0.138904731170D-04 0.000000000000D+00 -.126830771175D-04 0.459016517842D-07 0.000000000000D+00  7 1 -1 23 -11 11 23 21 2 0.52188254D+00 0.30942050D-01 0.73896815D+05 0.73896815D+05 0.73896815D+05 0.11326649D+01  1  2  5  2  7  2       -1 0.694192701099D-05 0.100000000000D+01
0.221434309716D-05 0.000000000000D+00 -.283442078064D-05 0.459016517842D-07 0.000000000000D+00  7 1 21 23 -11 11 23 1 2 0.52188254D+00 0.30942050D-01 0.73896815D+05 0.73896815D+05 0.73896815D+05 0.11326649D+01  1  2  5  4  7  2       -1 0.120434561319D-04 0.100000000000D+01
  </mgrwgt>
  </event>
  <event>
  8     66 0.56006291E-06 0.11863447E+04 0.75467711E-02 0.84461762E-01
        1 -1    0    0  501    0 0.00000000E+00 0.00000000E+00 0.40827999E+04 0.40827999E+04 0.32000000E+00 0.0000E+00 0.9000E+01
       -1 -1    0    0    0  501 0.00000000E+00 0.00000000E+00 -.37425259E+03 0.37425273E+03 0.32000000E+00 0.0000E+00 0.9000E+01
       25  2    1    2    0    0 0.83418652E+03 0.81718190E+03 0.12668398E+04 0.17491665E+04 0.30173987E+03 0.0000E+00 0.0000E+00
       23  2    1    2    0    0 -.83418652E+03 -.81718190E+03 0.24417076E+04 0.27078862E+04 0.84014258E+02 0.0000E+00 0.0000E+00
       23  1    3    3    0    0 0.49709774E+03 0.63143781E+03 0.89490354E+03 0.12062286E+04 0.91188000E+02 0.0000E+00 0.9000E+01
      -13  1    4    4    0    0 -.37742114E+03 -.39623129E+03 0.10573978E+04 0.11906032E+04 0.10565837E+00 0.0000E+00 0.9000E+01
       13  1    4    4    0    0 -.45676538E+03 -.42095061E+03 0.13843098E+04 0.15172830E+04 0.10565837E+00 0.0000E+00 0.9000E+01
       23  1    3    3    0    0 0.33708878E+03 0.18574410E+03 0.37193624E+03 0.54293787E+03 0.91188000E+02 0.0000E+00 0.9000E+01
#aMCatNLO 1  0  0  2  1 0.33999494D+03 0.00000000D+00  -5  7  0 0.00000000D+00 0.00000000D+00 0.00000000D+00 0.00000000D+00 0.00000000D+00
  <mgrwgt>
 0.2019540964D-03    4    2    0
 0.123612247938592D+04 0.000000000000000D+00 0.000000000000000D+00 0.123612247938592D+04
 0.123612247938592D+04 0.000000000000000D+00 0.000000000000000D+00 -.123612247938592D+04
 0.832212155990980D+03 0.497097736915645D+03 0.631437807362982D+03 -.196066204688949D+03
 0.560288798549959D+03 -.377421014807248D+03 -.396231253220652D+03 0.120323353234586D+03
 0.658847388365591D+03 -.456765501042436D+03 -.420950651534216D+03 0.219649054599675D+03
 0.420896615865307D+03 0.337088778934038D+03 0.185744097391886D+03 -.143906203145312D+03
 0.000000000000000D+00 -.000000000000000D+00 -.000000000000000D+00 0.000000000000000D+00
 0.177737617738960D+04 0.000000000000000D+00 0.000000000000000D+00 0.177737617738960D+04
 0.130232305792961D+04 0.000000000000000D+00 0.000000000000000D+00 -.130232305792961D+04
 0.933047853403983D+03 0.611269695133794D+03 0.670947426098118D+03 -.196066204688949D+03
 0.498691419416466D+03 -.308929209319086D+03 -.372529416416313D+03 0.120323353234586D+03
 0.586754082091027D+03 -.376203567794890D+03 -.393071903399807D+03 0.219649054599675D+03
 0.477020959215473D+03 0.395163514281724D+03 0.205841069428985D+03 -.143906203145312D+03
 0.584184921192258D+03 -.321300432301541D+03 -.111187175710982D+03 0.475053119459985D+03
0.842533395743D-02 0.000000000000D+00 0.000000000000D+00 0.326307172724D-07 0.000000000000D+00  7 1 -1 23 -13 13 23 21 0 0.62812308D+00 0.57577333D-01 0.14074137D+07 0.14074137D+07 0.14074137D+07 0.10381246D+01  1  2  2  2  7  2       -1 0.209467388861D-03 0.100000000000D+01
-.467112643364D-03 0.000000000000D+00 -.323555008379D-04 0.326307172724D-07 0.000000000000D+00  7 1 -1 23 -13 13 23 21 2 0.62812308D+00 0.57577333D-01 0.14074137D+07 0.14074137D+07 0.14074137D+07 0.10381246D+01  1  2  3  2  7  2       -1 -.125155489096D-04 0.100000000000D+01
0.540972271966D-03 0.000000000000D+00 0.000000000000D+00 0.326307172724D-07 0.000000000000D+00  7 1 -1 23 -13 13 23 21 2 0.62812308D+00 0.57577333D-01 0.14074137D+07 0.14074137D+07 0.14074137D+07 0.10381246D+01  1  2 15  2  7  2       -1 0.144945015398D-04 0.100000000000D+01
-.354275129625D-03 0.000000000000D+00 0.000000000000D+00 0.326307172724D-07 0.000000000000D+00  7 1 -1 23 -13 13 23 21 2 0.62812308D+00 0.57577333D-01 0.14074137D+07 0.14074137D+07 0.14074137D+07 0.10381246D+01  1  2  4  2  7  2       -1 -.949224512603D-05 0.100000000000D+01
  </mgrwgt>
  </event>
  <event>
  8     66 0.56006291E-06 0.21971122E+03 0.75467711E-02 0.96009214E-01
        3 -1    0    0  501    0 0.00000000E+00 0.00000000E+00 0.49829761E+03 0.49829786E+03 0.50000000E+00 0.0000E+00 0.9000E+01
       -3 -1    0    0    0  501 0.00000000E+00 0.00000000E+00 -.16418224E+03 0.16418300E+03 0.50000000E+00 0.0000E+00 0.9000E+01
       25  2    1    2    0    0 0.10103191E+03 -.55029484E+02 0.24236187E+02 0.31959376E+03 0.29718191E+03 0.0000E+00 0.0000E+00
       23  2    1    2    0    0 -.10103191E+03 0.55029484E+02 0.30987919E+03 0.34288710E+03 0.91163377E+02 0.0000E+00 0.0000E+00
       23  1    3    3    0    0 0.20720491E+02 0.77346216E+02 0.61548461E+02 0.13607072E+03 0.91188000E+02 0.0000E+00 0.9000E+01
      -11  1    4    4    0    0 -.11392827E+03 0.51354226E+02 0.22877348E+03 0.26068028E+03 0.51099893E-03 0.0000E+00 0.9000E+01
       11  1    4    4    0    0 0.12896365E+02 0.36752579E+01 0.81105716E+02 0.82206818E+02 0.51099893E-03 0.0000E+00 0.9000E+01
       23  1    3    3    0    0 0.80311414E+02 -.13237570E+03 -.37312275E+02 0.18352304E+03 0.91188000E+02 0.0000E+00 0.9000E+01
#aMCatNLO 1  0  0  1  2 0.34903012D+03 0.00000000D+00  -5  7  0 0.00000000D+00 0.00000000D+00 0.00000000D+00 0.00000000D+00 0.00000000D+00
  <mgrwgt>
 0.5821832502D-04    3    2    0
 0.286027885668045D+03 0.000000000000000D+00 0.000000000000000D+00 0.286027885668045D+03
 0.286027885668045D+03 0.000000000000000D+00 0.000000000000000D+00 -.286027885668045D+03
 0.121631425992044D+03 0.207204913560696D+02 0.773462163319021D+02 -.819612725375180D+01
 0.168268493401296D+03 -.113928270321303D+03 0.513542264152279D+02 0.112682645169661D+03
 0.478306102079801D+02 0.128963651918732D+02 0.367525786969397D+01 0.459123460225768D+02
 0.234325241734769D+03 0.803114137733603D+02 -.132375700616824D+03 -.150398863938486D+03
 0.000000000000000D+00 0.000000000000000D+00 -.000000000000000D+00 -.000000000000000D+00
 0.403249641774796D+03 0.000000000000000D+00 0.000000000000000D+00 0.403249641774796D+03
 0.781714909326809D+03 0.000000000000000D+00 0.000000000000000D+00 -.781714909326809D+03
 0.171287159974055D+03 -.309375789698491D+02 0.141420399990603D+03 -.819612725375180D+01
 0.265136894429793D+03 -.190362088716158D+03 0.146159055296157D+03 0.112682645169661D+03
 0.528375845930361D+02 -.485711627282306D+01 0.256958216416929D+02 0.459123460225768D+02
 0.180865088704257D+03 0.708993751325411D+01 -.415553062805427D+02 -.150398863938486D+03
 0.514837823400464D+03 0.219066846445576D+03 -.271719970647911D+03 -.378465267552012D+03
0.560287412472D-05 0.000000000000D+00 0.000000000000D+00 0.173660803194D-07 0.000000000000D+00  7 3 -3 23 -11 11 23 21 0 0.76661249D-01 0.25258883D-01 0.48273020D+05 0.48273020D+05 0.48273020D+05 0.11486406D+01  1  2  2  1  7  1        3 0.573832359372D-04 0.100000000000D+01
-.284938533830D-06 0.000000000000D+00 -.215165119096D-07 0.173660803194D-07 0.000000000000D+00  7 3 -3 23 -11 11 23 21 2 0.76661249D-01 0.25258883D-01 0.48273020D+05 0.48273020D+05 0.48273020D+05 0.11486406D+01  1  2  3  1  7  1        3 -.385029186511D-05 0.100000000000D+01
0.346738799049D-06 0.000000000000D+00 0.000000000000D+00 0.173660803194D-07 0.000000000000D+00  7 3 -3 23 -11 11 23 21 2 0.76661249D-01 0.25258883D-01 0.48273020D+05 0.48273020D+05 0.48273020D+05 0.11486406D+01  1  2 15  1  7  1        3 0.468538094637D-05 0.100000000000D+01
  </mgrwgt>
  </event>
  <event>
  9     66 0.56006291E-06 0.22068300E+03 0.75467711E-02 0.10017764E+00
        1 -1    0    0  502    0 0.00000000E+00 0.00000000E+00 0.19176794E+04 0.19176794E+04 0.32000000E+00 0.0000E+00 0.9000E+01
       -1 -1    0    0    0  501 0.00000000E+00 0.00000000E+00 -.77486276E+02 0.77486937E+02 0.32000000E+00 0.0000E+00 0.9000E+01
       25  2    1    2    0    0 0.52899017E+02 -.17963951E+03 0.44964875E+03 0.57214634E+03 0.30016458E+03 0.0000E+00 0.0000E+00
       23  2    1    2    0    0 0.57596389E+02 0.64160028E+02 0.38567924E+03 0.40552346E+03 0.90922781E+02 0.0000E+00 0.0000E+00
       23  1    3    3    0    0 -.72196783E+02 -.14572529E+03 0.30559617E+03 0.35798395E+03 0.91188000E+02 0.0000E+00 0.9000E+01
      -11  1    4    4    0    0 0.70601058E+02 0.12086939E+02 0.22166441E+03 0.23295003E+03 0.51099893E-03 0.0000E+00 0.9000E+01
       11  1    4    4    0    0 -.13004670E+02 0.52073089E+02 0.16401482E+03 0.17257343E+03 0.51099893E-03 0.0000E+00 0.9000E+01
       23  1    3    3    0    0 0.12509580E+03 -.33914221E+02 0.14405258E+03 0.21416239E+03 0.91188000E+02 0.0000E+00 0.9000E+01
       21  1    1    2  502  501 -.11049541E+03 0.11547948E+03 0.10048651E+04 0.10174966E+04 0.75000000E+00 0.0000E+00 0.9000E+01
#aMCatNLO 2  0  0  1  2 0.15982724D+03 0.00000000D+00  -5  7  0 0.00000000D+00 0.00000000D+00 0.00000000D+00 0.00000000D+00 0.00000000D+00
  <mgrwgt>
 0.2572480081D-04    2    2    0
 0.241101976861335D+03 0.000000000000000D+00 0.000000000000000D+00 0.241101976861335D+03
 0.241101976861335D+03 0.000000000000000D+00 0.000000000000000D+00 -.241101976861335D+03
 0.178070279988678D+03 -.112873054701945D+03 -.103214248437966D+03 -.515473455745436D+00
 0.750313653159946D+02 0.528739842105026D+02 0.306136216575091D+02 0.435528844498348D+02
 0.812187307976553D+02 -.290340090510131D+02 0.688254581418799D+02 0.318836143241010D+02
 0.147883577620343D+03 0.890330795424558D+02 0.377516863857684D+01 -.749210253181904D+02
 0.000000000000000D+00 -.000000000000000D+00 0.000000000000000D+00 0.000000000000000D+00
 0.537332386813080D+03 0.000000000000000D+00 0.000000000000000D+00 0.537332386813080D+03
 0.276540300029806D+03 0.000000000000000D+00 0.000000000000000D+00 -.276540300029806D+03
 0.186450402963469D+03 -.721967832385553D+02 -.145725290181085D+03 -.515473455745436D+00
 0.838299306833131D+02 0.706010584296137D+02 0.120869385324279D+02 0.435528844498348D+02
 0.624283021081430D+02 -.130046697606721D+02 0.520730890782697D+02 0.318836143241010D+02
 0.175292741004317D+03 0.125095800484525D+03 -.339142207814580D+02 -.749210253181904D+02
 0.305871310083644D+03 -.110495405914911D+03 0.115479483351845D+03 0.260792086783274D+03
-.151781741614D-06 0.000000000000D+00 0.000000000000D+00 0.136469517557D-06 0.000000000000D+00  7 1 -1 23 -11 11 23 21 2 0.29321604D+00 0.10393337D-01 0.99241620D+05 0.99241620D+05 0.99241620D+05 0.11219935D+01  1  2 13  1  7  1        1 -.462801916957D-05 0.100000000000D+01
0.125198585316D-05 0.000000000000D+00 0.000000000000D+00 0.136469517557D-06 0.600305078805D-10  7 1 -1 23 -11 11 23 21 2 0.29502719D+00 0.11921000D-01 0.99241620D+05 0.99241620D+05 0.99241620D+05 0.11219935D+01  1  2  1  1  7  1        1 0.303528199768D-04 0.100000000000D+01
  </mgrwgt>
  </event>
  <event>
  9     66 0.56006291E-06 0.22056747E+03 0.75467711E-02 0.97192169E-01
        1 -1    0    0  501    0 0.00000000E+00 0.00000000E+00 0.95310200E+03 0.95310206E+03 0.32000000E+00 0.0000E+00 0.9000E+01
       21 -1    0    0  502  501 0.00000000E+00 0.00000000E+00 -.22213365E+03 0.22213492E+03 0.75000000E+00 0.0000E+00 0.9000E+01
       25  2    1    2    0    0 -.14115510E+02 0.27851420E+03 0.95845975E+02 0.42094445E+03 0.30039703E+03 0.0000E+00 0.0000E+00
       23  2    1    2    0    0 0.81267082E+02 -.48811499E+01 0.23579349E+03 0.26557171E+03 0.91113099E+02 0.0000E+00 0.0000E+00
       23  1    3    3    0    0 -.95803045E+02 0.50804528E+02 0.78142947E+02 0.16180511E+03 0.91188000E+02 0.0000E+00 0.9000E+01
      -11  1    4    4    0    0 0.94642068E+01 0.36352037E+02 0.53668822E+02 0.65508657E+02 0.51099893E-03 0.0000E+00 0.9000E+01
       11  1    4    4    0    0 0.71802876E+02 -.41233186E+02 0.18212467E+03 0.20006305E+03 0.51099893E-03 0.0000E+00 0.9000E+01
       23  1    3    3    0    0 0.81687535E+02 0.22770967E+03 0.17703027E+02 0.25913933E+03 0.91188000E+02 0.0000E+00 0.9000E+01
        1  1    1    2  502    0 -.67151572E+02 -.27363305E+03 0.39932888E+03 0.48872082E+03 0.32000000E+00 0.0000E+00 0.9000E+01
#aMCatNLO 2  0  0  2  2 0.28175233D+03 0.00000000D+00  -5  7  0 0.00000000D+00 0.00000000D+00 0.00000000D+00 0.00000000D+00 0.00000000D+00
  <mgrwgt>
 0.3083075844D-04    1    2    0
 0.265487910168234D+03 0.000000000000000D+00 0.000000000000000D+00 0.265487910168234D+03
 0.265487910168234D+03 0.000000000000000D+00 0.000000000000000D+00 -.265487910168234D+03
 0.146330707982067D+03 -.112887337600589D+03 -.188115171311136D+02 -.242324080199197D-01
 0.312469925189244D+02 0.492914676221559D+01 0.178723160954190D+02 0.251527010688650D+02
 0.157084130249176D+03 0.548918565149887D+02 -.110143168756727D+03 0.976257672989326D+02
 0.196313989586301D+03 0.530663343233843D+02 0.111082369792421D+03 -.122754235959778D+03
 0.000000000000000D+00 -.000000000000000D+00 -.000000000000000D+00 0.000000000000000D+00
 0.562692671802892D+03 0.000000000000000D+00 0.000000000000000D+00 0.562692671802892D+03
 0.376256415651806D+03 0.000000000000000D+00 0.000000000000000D+00 -.376256415651806D+03
 0.141684775198142D+03 -.958030454984150D+02 0.508045279966966D+02 -.242324080199197D-01
 0.452073018399970D+02 0.946420676270908D+01 0.363520365171692D+02 0.251527010688650D+02
 0.128010230234933D+03 0.718028755942837D+02 -.412331863974528D+02 0.976257672989326D+02
 0.286196436039155D+03 0.816875353876742D+02 0.227709667721273D+03 -.122754235959778D+03
 0.337850344142471D+03 -.671515722462519D+02 -.273633045837686D+03 0.186436256151085D+03
0.153866696545D-06 0.000000000000D+00 0.000000000000D+00 0.343368306046D-06 0.370063029607D-11  7 1 21 23 -11 11 23 1 2 0.14663115D+00 0.34174503D-01 0.16093529D+06 0.16093529D+06 0.16093529D+06 0.11051483D+01  1  2  1  4  7  2       -1 0.308307584376D-04 0.100000000000D+01
  </mgrwgt>
  </event>
  <event>
  9     66 -.56006291E-06 0.18547247E+03 0.75467711E-02 0.10682588E+00
        1 -1    0    0  501    0 0.00000000E+00 0.00000000E+00 0.56672428E+03 0.56672437E+03 0.32000000E+00 0.0000E+00 0.9000E+01
       -1 -1    0    0    0  502 0.00000000E+00 0.00000000E+00 -.14486294E+03 0.14486329E+03 0.32000000E+00 0.0000E+00 0.9000E+01
       25  2    1    2    0    0 -.40988379E+02 0.39142682E+02 0.40751001E+02 0.30822711E+03 0.30021843E+03 0.0000E+00 0.0000E+00
       23  2    1    2    0    0 0.44897794E+02 -.24193386E+02 0.37353562E+03 0.38613546E+03 0.83490143E+02 0.0000E+00 0.0000E+00
       23  1    3    3    0    0 0.36305168E+02 0.11412919E+03 0.66879283E+02 0.16471681E+03 0.91188000E+02 0.0000E+00 0.9000E+01
      -13  1    4    4    0    0 -.71503880E+01 -.26296141E+02 0.39053457E+02 0.47621411E+02 0.10565837E+00 0.0000E+00 0.9000E+01
       13  1    4    4    0    0 0.52048182E+02 0.21027543E+01 0.33448216E+03 0.33851405E+03 0.10565837E+00 0.0000E+00 0.9000E+01
       23  1    3    3    0    0 -.77293547E+02 -.74986503E+02 -.26128282E+02 0.14351030E+03 0.91188000E+02 0.0000E+00 0.9000E+01
       21  1    1    2  501  502 -.39094153E+01 -.14949296E+02 0.75747194E+01 0.17225094E+02 0.75000000E+00 0.0000E+00 0.9000E+01
#aMCatNLO 2  0  0  2  1 0.15452022D+02 0.00000000D+00  -5  7  0 0.00000000D+00 0.00000000D+00 0.00000000D+00 0.00000000D+00 0.00000000D+00
  <mgrwgt>
 -.1102407362D-03    3    2    0
 0.278508171901817D+03 0.000000000000000D+00 0.000000000000000D+00 0.278508171901817D+03
 0.278508171901817D+03 0.000000000000000D+00 0.000000000000000D+00 -.278508171901817D+03
 0.152271849581678D+03 0.352252235354172D+02 0.109999563171330D+03 -.391247307980750D+02
 0.310729411289269D+02 -.736583222303677D+01 -.271196672376793D+02 0.132588021699313D+02
 0.172787057969438D+03 0.508345591524775D+02 -.253836165834662D+01 0.165120476372855D+03
 0.200884495123590D+03 -.786939504648579D+02 -.803415342753038D+02 -.139254547744712D+03
 0.000000000000000D+00 -.000000000000000D+00 -.000000000000000D+00 -.000000000000000D+00
 0.284838924273560D+03 0.000000000000000D+00 0.000000000000000D+00 0.284838924273560D+03
 0.288206409478361D+03 0.000000000000000D+00 0.000000000000000D+00 -.288206409478361D+03
 0.155529842721352D+03 0.363051678171281D+02 0.114129184973331D+03 -.391247307980750D+02
 0.303053557469064D+02 -.715048207263229D+01 -.262961852384361D+02 0.132588021699313D+02
 0.173142186033454D+03 0.520482766799617D+02 0.210279849023944D+01 0.165120476372855D+03
 0.198253243013604D+03 -.772935471249961D+02 -.749865022964994D+02 -.139254547744712D+03
 0.158147062366052D+02 -.390941529946145D+01 -.149492959286350D+02 -.336748520480103D+01
-.591455740844D-05 0.000000000000D+00 0.000000000000D+00 0.175200165970D-07 0.000000000000D+00  7 1 -1 23 -13 13 23 21 2 0.85247912D-01 0.22523659D-01 0.37332785D+05 0.37332785D+05 0.37332785D+05 0.11586258D+01  1  2 13  2  7  2       -1 -.584976444042D-03 0.100000000000D+01
-.344127385597D-05 0.000000000000D+00 0.000000000000D+00 0.175200165970D-07 0.000000000000D+00  7 1 -1 23 -13 13 23 21 2 0.85247912D-01 0.21536019D-01 0.34400036D+05 0.34400036D+05 0.34400036D+05 0.11618610D+01  1  2  8  2  7  2       -1 -.367734013340D-03 0.100000000000D+01
0.864080083049D-05 0.000000000000D+00 0.000000000000D+00 0.175200165970D-07 0.525674914687D-09  7 1 -1 23 -13 13 23 21 2 0.87185677D-01 0.22285948D-01 0.37332785D+05 0.37332785D+05 0.37332785D+05 0.11586258D+01  1  2  1  2  7  2       -1 0.842469721164D-03 0.100000000000D+01
  </mgrwgt>
  </event>
  <event>
  8     66 0.56006291E-06 0.24502782E+03 0.75467711E-02 0.96921275E-01
        1 -1    0    0  501    0 0.00000000E+00 0.00000000E+00 0.15852490E+04 0.15852490E+04 0.32000000E+00 0.0000E+00 0.9000E+01
       -1 -1    0    0    0  501 0.00000000E+00 0.00000000E+00 -.82283599E+02 0.82284222E+02 0.32000000E+00 0.0000E+00 0.9000E+01
       25  2    1    2    0    0 -.21270218E+03 0.19682588E+03 0.81878852E+03 0.91903277E+03 0.30037300E+03 0.0000E+00 0.0000E+00
       23  2    1    2    0    0 0.21270218E+03 -.19682588E+03 0.68417685E+03 0.74850046E+03 0.90400914E+02 0.0000E+00 0.0000E+00
       23  1    3    3    0    0 -.17971186E+03 0.40593351E+01 0.40121888E+03 0.44900409E+03 0.91188000E+02 0.0000E+00 0.9000E+01
      -13  1    4    4    0    0 0.20255873E+03 -.19862485E+03 0.59991625E+03 0.66361238E+03 0.10565837E+00 0.0000E+00 0.9000E+01
       13  1    4    4    0    0 0.10143449E+02 0.17989693E+01 0.84260595E+02 0.84888073E+02 0.10565837E+00 0.0000E+00 0.9000E+01
       23  1    3    3    0    0 -.32990321E+02 0.19276655E+03 0.41756965E+03 0.47002868E+03 0.91188000E+02 0.0000E+00 0.9000E+01
#aMCatNLO 1  0  0  1  2 0.10325130D+03 0.00000000D+00  -5  7  0 0.00000000D+00 0.00000000D+00 0.00000000D+00 0.00000000D+00 0.00000000D+00
  <mgrwgt>
 0.3493566440D-03    9    2    0
 0.361165525895991D+03 0.000000000000000D+00 0.000000000000000D+00 0.361165525895991D+03
 0.361165525895991D+03 0.000000000000000D+00 0.000000000000000D+00 -.361165525895991D+03
 0.201723507655100D+03 -.179711860159419D+03 0.405933512660913D+01 -.801818639399228D+01
 0.283723924293339D+03 0.202558994795405D+03 -.198625125199518D+03 0.414469339794508D+01
 0.206451951360665D+02 0.101431864911414D+02 0.179924299367932D+01 0.178914106392393D+02
 0.216238424707477D+03 -.329903211271282D+02 0.192766547079230D+03 -.140179176431920D+02
 0.000000000000000D+00 0.000000000000000D+00 -.000000000000000D+00 0.000000000000000D+00
 0.439781203465475D+03 0.000000000000000D+00 0.000000000000000D+00 0.439781203465475D+03
 0.400398973990741D+03 0.000000000000000D+00 0.000000000000000D+00 -.400398973990741D+03
 0.227790242154306D+03 -.208006628413807D+03 0.155593797944763D+02 -.801818639399228D+01
 0.249094282715076D+03 0.167458913143277D+03 -.184359148421898D+03 0.414469339794508D+01
 0.196086985434017D+02 0.749140970052004D+01 0.287702356665255D+01 0.178914106392393D+02
 0.233179977570804D+03 -.625963338505024D+02 0.204799530198059D+03 -.140179176431920D+02
 0.110506976472629D+03 0.956526394205120D+02 -.388767851372903D+02 0.393822294747344D+02
0.713587744636D-05 0.000000000000D+00 0.000000000000D+00 0.497397786694D-06 0.000000000000D+00  7 1 -1 23 -13 13 23 21 0 0.24388451D+00 0.12659066D-01 0.12650216D+06 0.12650216D+06 0.12650216D+06 0.11134388D+01  1  2  2  1  7  1        1 0.205423336074D-03 0.100000000000D+01
-.396324373491D-06 0.000000000000D+00 -.274036483137D-07 0.497397786694D-06 0.000000000000D+00  7 1 -1 23 -13 13 23 21 2 0.24388451D+00 0.12659066D-01 0.12650216D+06 0.12650216D+06 0.12650216D+06 0.11134388D+01  1  2  3  1  7  1        1 -.141444436165D-04 0.100000000000D+01
0.468714635761D-06 0.000000000000D+00 0.000000000000D+00 0.497397786694D-06 0.000000000000D+00  7 1 -1 23 -13 13 23 21 2 0.24388451D+00 0.12659066D-01 0.12650216D+06 0.12650216D+06 0.12650216D+06 0.11134388D+01  1  2 15  1  7  1        1 0.167279838970D-04 0.100000000000D+01
0.558576887759D-05 0.000000000000D+00 0.000000000000D+00 0.497397786694D-06 0.000000000000D+00  7 1 -1 23 -13 13 23 21 2 0.30794119D+00 0.12659066D-01 0.16840489D+06 0.16840489D+06 0.16840489D+06 0.11036071D+01  1  2 12  1  7  1        1 0.103341488892D-03 0.100000000000D+01
-.566006323987D-05 0.000000000000D+00 0.000000000000D+00 0.497397786694D-06 0.000000000000D+00  7 1 -1 23 -13 13 23 21 2 0.24388451D+00 0.12659066D-01 0.12650216D+06 0.12650216D+06 0.12650216D+06 0.11134388D+01  1  2  4  1  7  1        1 -.202002326168D-03 0.100000000000D+01
-.126805423733D-04 0.000000000000D+00 -.361554927529D-05 0.497397786694D-06 0.000000000000D+00  7 1 -1 23 -13 13 23 21 2 0.31185229D+00 0.12659066D-01 0.12650216D+06 0.12650216D+06 0.12650216D+06 0.11134388D+01  1  2  5  1  7  1        1 -.231967098147D-03 0.100000000000D+01
0.132728431471D-04 0.000000000000D+00 0.350898192520D-05 0.497397786694D-06 0.000000000000D+00  7 1 -1 23 -13 13 23 21 2 0.24388451D+00 0.12659066D-01 0.12650216D+06 0.12650216D+06 0.12650216D+06 0.11134388D+01  1  2  6  1  7  1        1 0.473695271050D-03 0.100000000000D+01
0.179541344801D-06 0.000000000000D+00 0.000000000000D+00 0.497397786694D-06 0.000000000000D+00  7 21 -1 23 -13 13 23 -1 2 0.30794119D+00 0.12659066D-01 0.16840489D+06 0.16840489D+06 0.16840489D+06 0.11036071D+01  1  2 12  3  7  1        1 0.172100021053D-05 0.100000000000D+01
-.364913922675D-06 0.000000000000D+00 -.120852741941D-06 0.497397786694D-06 0.000000000000D+00  7 21 -1 23 -13 13 23 -1 2 0.31185229D+00 0.12659066D-01 0.12650216D+06 0.12650216D+06 0.12650216D+06 0.11134388D+01  1  2  5  3  7  1        1 -.343856816777D-05 0.100000000000D+01
  </mgrwgt>
  </event>
  <event>
  8     66 0.56006291E-06 0.20183474E+03 0.75467711E-02 0.10207650E+00
        1 -1    0    0  501    0 0.00000000E+00 0.00000000E+00 0.11389118E+04 0.11389119E+04 0.32000000E+00 0.0000E+00 0.9000E+01
       -1 -1    0    0    0  501 0.00000000E+00 0.00000000E+00 -.36302158E+02 0.36303569E+02 0.32000000E+00 0.0000E+00 0.9000E+01
       25  2    1    2    0    0 -.34003089E+02 0.83294295E+01 0.79474070E+03 0.85013655E+03 0.29982293E+03 0.0000E+00 0.0000E+00
       23  2    1    2    0    0 0.34003089E+02 -.83294295E+01 0.30786897E+03 0.32507889E+03 0.98322894E+02 0.0000E+00 0.0000E+00
       23  1    3    3    0    0 0.28304039E+01 -.11311101E+03 0.36488819E+03 0.39276043E+03 0.91188000E+02 0.0000E+00 0.9000E+01
      -11  1    4    4    0    0 0.54563753E+02 0.27250209E+02 0.14942349E+03 0.16139131E+03 0.51099893E-03 0.0000E+00 0.9000E+01
       11  1    4    4    0    0 -.20560664E+02 -.35579638E+02 0.15844549E+03 0.16368758E+03 0.51099893E-03 0.0000E+00 0.9000E+01
       23  1    3    3    0    0 -.36833493E+02 0.12144044E+03 0.42985251E+03 0.45737612E+03 0.91188000E+02 0.0000E+00 0.9000E+01
#aMCatNLO 1  0  0  2  2 0.12252155D+03 0.00000000D+00  -5  7  0 0.00000000D+00 0.00000000D+00 0.00000000D+00 0.00000000D+00 0.00000000D+00
  <mgrwgt>
 0.4136630181D-03    3    2    0
 0.203336697543570D+03 0.000000000000000D+00 0.000000000000000D+00 0.203336697543570D+03
 0.203336697543570D+03 0.000000000000000D+00 0.000000000000000D+00 -.203336697543570D+03
 0.145691506834995D+03 0.283021044143402D+01 -.113110965202212D+03 -.104241680594980D+02
 0.612624600383027D+02 0.545639144203573D+02 0.272500829527961D+02 -.577072197721341D+01
 0.434368044107181D+02 -.205604242996336D+02 -.355796106904960D+02 0.140753768385349D+02
 0.156282623803124D+03 -.368337005621578D+02 0.121440492939911D+03 0.211951319817649D+01
 0.000000000000000D+00 -.000000000000000D+00 0.000000000000000D+00 0.000000000000000D+00
 0.639857835531439D+03 0.000000000000000D+00 0.000000000000000D+00 0.639857835531439D+03
 0.221143344016574D+03 0.000000000000000D+00 0.000000000000000D+00 -.221143344016574D+03
 0.164592088536849D+03 0.458103096799851D+02 -.128716962799055D+03 -.104241680594980D+02
 0.766322528414852D+02 0.736649192187005D+02 0.203145420801294D+02 -.577072197721341D+01
 0.432013452565970D+02 -.855941513869762D+01 -.399371557739953D+02 0.140753768385349D+02
 0.140303380771319D+03 0.424902536828827D+01 0.106523428216914D+03 0.211951319817649D+01
 0.436272112141763D+03 -.115164839128276D+03 0.418161482760067D+02 0.418714491514865D+03
0.202796290254D-05 0.000000000000D+00 0.000000000000D+00 0.360060396201D-08 0.000000000000D+00  7 1 -1 23 -11 11 23 21 0 0.17521732D+00 0.55850594D-02 0.40737263D+05 0.40737263D+05 0.40737263D+05 0.11552051D+01  1  2  2  2  7  2       -1 0.408774978079D-03 0.100000000000D+01
-.112657076126D-06 0.000000000000D+00 -.778791152065D-08 0.360060396201D-08 0.000000000000D+00  7 1 -1 23 -11 11 23 21 2 0.17521732D+00 0.55850594D-02 0.40737263D+05 0.40737263D+05 0.40737263D+05 0.11552051D+01  1  2  3  2  7  2       -1 -.303040697856D-04 0.100000000000D+01
0.130828638461D-06 0.000000000000D+00 0.000000000000D+00 0.360060396201D-08 0.000000000000D+00  7 1 -1 23 -11 11 23 21 2 0.17521732D+00 0.55850594D-02 0.40737263D+05 0.40737263D+05 0.40737263D+05 0.11552051D+01  1  2 15  2  7  2       -1 0.351921097742D-04 0.100000000000D+01
  </mgrwgt>
  </event>
  <event>
  8     66 0.56006291E-06 0.31239607E+03 0.75467711E-02 0.90549502E-01
        1 -1    0    0  501    0 0.00000000E+00 0.00000000E+00 0.27832166E+04 0.27832166E+04 0.32000000E+00 0.0000E+00 0.9000E+01
       -1 -1    0    0    0  501 0.00000000E+00 0.00000000E+00 -.18265793E+03 0.18265821E+03 0.32000000E+00 0.0000E+00 0.9000E+01
       25  2    1    2    0    0 -.49237803E+03 0.32112892E+03 0.20505996E+04 0.21557001E+04 0.31068373E+03 0.0000E+00 0.0000E+00
       23  2    1    2    0    0 0.49237803E+03 -.32112892E+03 0.54995911E+03 0.81017474E+03 0.91477793E+02 0.0000E+00 0.0000E+00
       23  1    3    3    0    0 -.19088315E+03 0.30262918E+02 0.96772206E+03 0.99103656E+03 0.91188000E+02 0.0000E+00 0.9000E+01
      -13  1    4    4    0    0 0.43871774E+03 -.31647213E+03 0.49569701E+03 0.73371888E+03 0.10565837E+00 0.0000E+00 0.9000E+01
       13  1    4    4    0    0 0.53660285E+02 -.46567980E+01 0.54262098E+02 0.76455860E+02 0.10565837E+00 0.0000E+00 0.9000E+01
       23  1    3    3    0    0 -.30149488E+03 0.29086601E+03 0.10828775E+04 0.11646635E+04 0.91188000E+02 0.0000E+00 0.9000E+01
#aMCatNLO 1  0  0  1  2 0.20584729D+03 0.00000000D+00  -5  7  0 0.00000000D+00 0.00000000D+00 0.00000000D+00 0.00000000D+00 0.00000000D+00
  <mgrwgt>
 0.2001348082D-03    9    2    0
 0.713005625443016D+03 0.000000000000000D+00 0.000000000000000D+00 0.713005625443016D+03
 0.713005625443016D+03 0.000000000000000D+00 0.000000000000000D+00 -.713005625443016D+03
 0.296401855205056D+03 -.190883147574691D+03 0.302629179953374D+02 0.205393739416238D+03
 0.622035959721200D+03 0.438718253473450D+03 -.316472541640069D+03 -.307083310590716D+03
 0.600596036932214D+02 0.536597717684944D+02 -.465638205968114D+01 -.265725985867807D+02
 0.447513832266555D+03 -.301494877667254D+03 0.290866005704413D+03 0.128262169761259D+03
 0.000000000000000D+00 0.000000000000000D+00 -.000000000000000D+00 0.000000000000000D+00
 0.117565878313054D+04 0.000000000000000D+00 0.000000000000000D+00 0.117565878313054D+04
 0.743664417209877D+03 0.000000000000000D+00 0.000000000000000D+00 -.743664417209877D+03
 0.324086195651387D+03 -.226418473995189D+03 0.571375297864134D+02 0.205393739416238D+03
 0.550415960815609D+03 0.371571977810109D+03 -.265691241074109D+03 -.307083310590716D+03
 0.540986377440388D+02 0.471219337433078D+02 0.288045825986708D+00 -.265725985867807D+02
 0.512191069777894D+03 -.356457139896849D+03 0.332432795976744D+03 0.128262169761259D+03
 0.478531336351488D+03 0.164181702338622D+03 -.124167130515036D+03 0.431994365920663D+03
0.152584471193D-03 0.000000000000D+00 0.000000000000D+00 0.163105014913D-07 0.000000000000D+00  7 1 -1 23 -13 13 23 21 0 0.42818719D+00 0.28101243D-01 0.38269802D+06 0.38269802D+06 0.38269802D+06 0.10768147D+01  1  2  2  1  7  1        1 0.178609150234D-03 0.100000000000D+01
-.826912439765D-05 0.000000000000D+00 -.585964545794D-06 0.163105014913D-07 0.000000000000D+00  7 1 -1 23 -13 13 23 21 2 0.42818719D+00 0.28101243D-01 0.38269802D+06 0.38269802D+06 0.38269802D+06 0.10768147D+01  1  2  3  1  7  1        1 -.112236697891D-04 0.100000000000D+01
0.972700562815D-05 0.000000000000D+00 0.000000000000D+00 0.163105014913D-07 0.000000000000D+00  7 1 -1 23 -13 13 23 21 2 0.42818719D+00 0.28101243D-01 0.38269802D+06 0.38269802D+06 0.38269802D+06 0.10768147D+01  1  2 15  1  7  1        1 0.132024497344D-04 0.100000000000D+01
0.214693672917D-03 0.000000000000D+00 0.000000000000D+00 0.163105014913D-07 0.000000000000D+00  7 1 -1 23 -13 13 23 21 2 0.71012171D+00 0.28101243D-01 0.53021821D+06 0.53021821D+06 0.53021821D+06 0.10667139D+01  1  2 12  1  7  1        1 0.657924569839D-05 0.100000000000D+01
-.220381860851D-03 0.000000000000D+00 0.000000000000D+00 0.163105014913D-07 0.000000000000D+00  7 1 -1 23 -13 13 23 21 2 0.42818719D+00 0.28101243D-01 0.38269802D+06 0.38269802D+06 0.38269802D+06 0.10768147D+01  1  2  4  1  7  1        1 -.299123959776D-03 0.100000000000D+01
-.244666926682D-03 0.000000000000D+00 -.352510698793D-04 0.163105014913D-07 0.000000000000D+00  7 1 -1 23 -13 13 23 21 2 0.70954237D+00 0.28101243D-01 0.38269802D+06 0.38269802D+06 0.38269802D+06 0.10768147D+01  1  2  5  1  7  1        1 -.797538511881D-05 0.100000000000D+01
0.235812899716D-03 0.000000000000D+00 0.311879913032D-04 0.163105014913D-07 0.000000000000D+00  7 1 -1 23 -13 13 23 21 2 0.42818719D+00 0.28101243D-01 0.38269802D+06 0.38269802D+06 0.38269802D+06 0.10768147D+01  1  2  6  1  7  1        1 0.320068485024D-03 0.100000000000D+01
0.122178965585D-04 0.000000000000D+00 0.000000000000D+00 0.163105014913D-07 0.000000000000D+00  7 21 -1 23 -13 13 23 -1 2 0.71012171D+00 0.28101243D-01 0.53021821D+06 0.53021821D+06 0.53021821D+06 0.10667139D+01  1  2 12  3  7  1        1 0.183256231750D-07 0.100000000000D+01
-.122976987261D-04 0.000000000000D+00 -.200350687739D-05 0.163105014913D-07 0.000000000000D+00  7 21 -1 23 -13 13 23 -1 2 0.70954237D+00 0.28101243D-01 0.38269802D+06 0.38269802D+06 0.38269802D+06 0.10768147D+01  1  2  5  3  7  1        1 -.198334158979D-07 0.100000000000D+01
  </mgrwgt>
  </event>
  <event>
  8     66 0.56006291E-06 0.12078992E+03 0.75467711E-02 0.10257808E+00
        1 -1    0    0  501    0 0.00000000E+00 0.00000000E+00 0.17614403E+04 0.17614403E+04 0.32000000E+00 0.0000E+00 0.9000E+01
       -1 -1    0    0    0  501 0.00000000E+00 0.00000000E+00 -.62324275E+02 0.62325096E+02 0.32000000E+00 0.0000E+00 0.9000E+01
       25  2    1    2    0    0 0.17525022E+03 0.70468989E+02 0.54175138E+03 0.64749875E+03 0.30013589E+03 0.0000E+00 0.0000E+00
       23  2    1    2    0    0 -.17525022E+03 -.70468989E+02 0.11573646E+04 0.11762667E+04 0.91825147E+02 0.0000E+00 0.0000E+00
       23  1    3    3    0    0 0.48990794E+02 0.54206736E+02 0.42618784E+02 0.12437878E+03 0.91188000E+02 0.0000E+00 0.9000E+01
      -11  1    4    4    0    0 -.10029631E+03 -.15787459E+01 0.41481062E+03 0.42676655E+03 0.51099893E-03 0.0000E+00 0.9000E+01
       11  1    4    4    0    0 -.74953913E+02 -.68890244E+02 0.74255402E+03 0.74950012E+03 0.51099893E-03 0.0000E+00 0.9000E+01
       23  1    3    3    0    0 0.12625943E+03 0.16262253E+02 0.49913260E+03 0.52311997E+03 0.91188000E+02 0.0000E+00 0.9000E+01
#aMCatNLO 1  0  0  1  2 0.47637858D+02 0.00000000D+00  -5  7  0 0.00000000D+00 0.00000000D+00 0.00000000D+00 0.00000000D+00 0.00000000D+00
  <mgrwgt>
 0.1674728177D-03    9    2    0
 0.331332558468115D+03 0.000000000000000D+00 0.000000000000000D+00 0.331332558468115D+03
 0.331332558468115D+03 0.000000000000000D+00 0.000000000000000D+00 -.331332558468115D+03
 0.233033926210236D+03 0.489907940320148D+02 0.542067362518236D+02 -.201621157783591D+03
 0.110931920838555D+03 -.100296306115633D+03 -.157874590302342D+01 0.473714006745026D+02
 0.158793581047260D+03 -.749539132962907D+02 -.688902435789272D+02 0.121866511409086D+03
 0.159905688840180D+03 0.126259425379909D+03 0.162622532301270D+02 0.323832457000027D+02
 0.000000000000000D+00 0.000000000000000D+00 0.000000000000000D+00 0.000000000000000D+00
 0.391763192487205D+03 0.000000000000000D+00 0.000000000000000D+00 0.391763192487205D+03
 0.341710657583300D+03 0.000000000000000D+00 0.000000000000000D+00 -.341710657583300D+03
 0.228773032649233D+03 0.433530848492902D+02 0.386169378845790D+02 -.201621157783591D+03
 0.113776905612502D+03 -.103039536788144D+03 -.916452439446049D+01 0.473714006745026D+02
 0.165693026051315D+03 -.789152245962087D+02 -.798443461113610D+02 0.121866511409086D+03
 0.156132247971183D+03 0.122401254894884D+03 0.559336308724714D+01 0.323832457000027D+02
 0.690986377862722D+02 0.162004216401788D+02 0.447985695339953D+02 0.500525349039053D+02
0.298057331727D-05 0.000000000000D+00 0.000000000000D+00 0.557987960607D-06 0.000000000000D+00  7 1 -1 23 -11 11 23 21 0 0.27099088D+00 0.95884154D-02 0.56537829D+05 0.56537829D+05 0.56537829D+05 0.11426304D+01  1  2  2  1  7  1        1 0.102826000333D-03 0.100000000000D+01
-.143424061882D-06 0.000000000000D+00 -.114461863413D-07 0.557987960607D-06 0.000000000000D+00  7 1 -1 23 -11 11 23 21 2 0.27099088D+00 0.95884154D-02 0.56537829D+05 0.56537829D+05 0.56537829D+05 0.11426304D+01  1  2  3  1  7  1        1 -.646006273384D-05 0.100000000000D+01
0.185118167560D-06 0.000000000000D+00 0.000000000000D+00 0.557987960607D-06 0.000000000000D+00  7 1 -1 23 -11 11 23 21 2 0.27099088D+00 0.95884154D-02 0.56537829D+05 0.56537829D+05 0.56537829D+05 0.11426304D+01  1  2 15  1  7  1        1 0.833803589101D-05 0.100000000000D+01
0.648091400838D-05 0.000000000000D+00 0.000000000000D+00 0.557987960607D-06 0.000000000000D+00  7 1 -1 23 -11 11 23 21 2 0.32413140D+00 0.95884154D-02 0.68692459D+05 0.68692459D+05 0.68692459D+05 0.11353564D+01  1  2 12  1  7  1        1 0.170918304631D-03 0.100000000000D+01
-.666073620671D-05 0.000000000000D+00 0.000000000000D+00 0.557987960607D-06 0.000000000000D+00  7 1 -1 23 -11 11 23 21 2 0.27099088D+00 0.95884154D-02 0.56537829D+05 0.56537829D+05 0.56537829D+05 0.11426304D+01  1  2  4  1  7  1        1 -.300010843259D-03 0.100000000000D+01
-.101174722036D-04 0.000000000000D+00 -.191062254739D-05 0.557987960607D-06 0.000000000000D+00  7 1 -1 23 -11 11 23 21 2 0.32406756D+00 0.95884154D-02 0.56537829D+05 0.56537829D+05 0.56537829D+05 0.11426304D+01  1  2  5  1  7  1        1 -.272022085616D-03 0.100000000000D+01
0.103237935083D-04 0.000000000000D+00 0.188046114034D-05 0.557987960607D-06 0.000000000000D+00  7 1 -1 23 -11 11 23 21 2 0.27099088D+00 0.95884154D-02 0.56537829D+05 0.56537829D+05 0.56537829D+05 0.11426304D+01  1  2  6  1  7  1        1 0.465001150014D-03 0.100000000000D+01
0.170230505735D-06 0.000000000000D+00 0.000000000000D+00 0.557987960607D-06 0.000000000000D+00  7 21 -1 23 -11 11 23 -1 2 0.32413140D+00 0.95884154D-02 0.68692459D+05 0.68692459D+05 0.68692459D+05 0.11353564D+01  1  2 12  3  7  1        1 0.224296813753D-05 0.100000000000D+01
-.247396339218D-06 0.000000000000D+00 -.501419938966D-07 0.557987960607D-06 0.000000000000D+00  7 21 -1 23 -11 11 23 -1 2 0.32406756D+00 0.95884154D-02 0.56537829D+05 0.56537829D+05 0.56537829D+05 0.11426304D+01  1  2  5  3  7  1        1 -.336064972242D-05 0.100000000000D+01
  </mgrwgt>
  </event>
  <event>
  9     66 0.56006291E-06 0.15643927E+03 0.75467711E-02 0.97699570E-01
        1 -1    0    0  501    0 0.00000000E+00 0.00000000E+00 0.46771526E+03 0.46771537E+03 0.32000000E+00 0.0000E+00 0.9000E+01
       -1 -1    0    0    0  502 0.00000000E+00 0.00000000E+00 -.67736553E+03 0.67736561E+03 0.32000000E+00 0.0000E+00 0.9000E+01
       25  2    1    2    0    0 -.17383738E+03 -.12468080E+03 0.28020411E+03 0.46303787E+03 0.30020824E+03 0.0000E+00 0.0000E+00
       23  2    1    2    0    0 -.11991182E+03 -.77257081E+00 -.11864065E+03 0.19232141E+03 0.92371427E+02 0.0000E+00 0.0000E+00
       23  1    3    3    0    0 -.13016861E+03 -.14918255E+03 0.28511054E+03 0.35889075E+03 0.91188000E+02 0.0000E+00 0.9000E+01
      -13  1    4    4    0    0 -.88855332E+02 0.19155363E+02 -.12532767E+03 0.15482001E+03 0.10565837E+00 0.0000E+00 0.9000E+01
       13  1    4    4    0    0 -.31056484E+02 -.19927933E+02 0.66870237E+01 0.37501403E+02 0.10565837E+00 0.0000E+00 0.9000E+01
       23  1    3    3    0    0 -.43668770E+02 0.24501748E+02 -.49064291E+01 0.10414711E+03 0.91188000E+02 0.0000E+00 0.9000E+01
       21  1    1    2  501  502 0.29374920E+03 0.12545337E+03 -.37121374E+03 0.48972170E+03 0.75000000E+00 0.0000E+00 0.9000E+01
#aMCatNLO 2  0  0  2  2 0.31941687D+03 0.00000000D+00  -5  7  0 0.00000000D+00 0.00000000D+00 0.00000000D+00 0.00000000D+00 0.00000000D+00
  <mgrwgt>
 0.1381054013D-04    1    2    0
 0.274484010901731D+03 0.000000000000000D+00 0.000000000000000D+00 0.274484010901731D+03
 0.274484010901731D+03 0.000000000000000D+00 0.000000000000000D+00 -.274484010901731D+03
 0.240791002270716D+03 0.344259736642741D+01 -.921203443864049D+02 0.202896638966836D+03
 0.178540701719652D+03 0.297610774435247D+01 0.583744921435681D+02 -.168701937215375D+03
 0.216288647507308D+02 -.165132469376641D+02 -.137169404451103D+02 -.263932014095128D+01
 0.108007453062363D+03 0.100945418268843D+02 0.474627926879471D+02 -.315553816105097D+02
 0.000000000000000D+00 0.000000000000000D+00 0.000000000000000D+00 -.000000000000000D+00
 0.363634079465344D+03 0.000000000000000D+00 0.000000000000000D+00 0.363634079465344D+03
 0.871243788067498D+03 0.000000000000000D+00 0.000000000000000D+00 -.871243788067498D+03
 0.297794556367480D+03 -.130168612849473D+03 -.149182547849638D+03 0.202896638966836D+03
 0.191631306220096D+03 -.888554112698900D+02 0.191554115450087D+02 -.168701937215375D+03
 0.369944679375477D+02 -.310564041050698D+02 -.199279806111511D+02 -.263932014095128D+01
 0.108711961363808D+03 -.436687698222012D+02 0.245017475539346D+02 -.315553816105097D+02
 0.599745575643910D+03 0.293749198046634D+03 0.125453369361846D+03 -.507609708602155D+03
0.203429353458D-05 0.000000000000D+00 0.000000000000D+00 0.434253217292D-06 0.504595794159D-10  7 1 -1 23 -13 13 23 21 2 0.71956166D-01 0.10421004D+00 0.14792624D+06 0.14792624D+06 0.14792624D+06 0.11080293D+01  1  2  1  2  7  2       -1 0.138105401341D-04 0.100000000000D+01
  </mgrwgt>
  </event>
  <event>
  8     66 0.56006291E-06 0.10553990E+03 0.75467711E-02 0.10627884E+00
        1 -1    0    0  501    0 0.00000000E+00 0.00000000E+00 0.11530406E+04 0.11530407E+04 0.32000000E+00 0.0000E+00 0.9000E+01
       -1 -1    0    0    0  501 0.00000000E+00 0.00000000E+00 -.59901563E+02 0.59902417E+02 0.32000000E+00 0.0000E+00 0.9000E+01
       25  2    1    2    0    0 -.85989888E+01 0.32410180E+02 0.34194077E+03 0.45610031E+03 0.29996607E+03 0.0000E+00 0.0000E+00
       23  2    1    2    0    0 0.85989888E+01 -.32410180E+02 0.75119830E+03 0.75684278E+03 0.85952007E+02 0.0000E+00 0.0000E+00
       23  1    3    3    0    0 0.64070005E+02 -.65080034E+02 0.75944754E+02 0.14974389E+03 0.91188000E+02 0.0000E+00 0.9000E+01
      -11  1    4    4    0    0 -.14625712E+02 0.16677359E+02 0.68808246E+02 0.72295369E+02 0.51099893E-03 0.0000E+00 0.9000E+01
       11  1    4    4    0    0 0.23224701E+02 -.49087539E+02 0.68239005E+03 0.68454741E+03 0.51099893E-03 0.0000E+00 0.9000E+01
       23  1    3    3    0    0 -.72668993E+02 0.97490214E+02 0.26599602E+03 0.30635642E+03 0.91188000E+02 0.0000E+00 0.9000E+01
#aMCatNLO 1  0  0  1  2 0.36683184D+02 0.00000000D+00  -5  7  0 0.00000000D+00 0.00000000D+00 0.00000000D+00 0.00000000D+00 0.00000000D+00
  <mgrwgt>
 0.3029251524D-03    9    2    0
 0.262810732227693D+03 0.000000000000000D+00 0.000000000000000D+00 0.262810732227693D+03
 0.262810732227693D+03 0.000000000000000D+00 0.000000000000000D+00 -.262810732227693D+03
 0.187611521383838D+03 0.640700045727109D+02 -.650800344024823D+02 -.136170684246583D+03
 0.237303612768927D+02 -.146257117623544D+02 0.166773589729594D+02 0.843115054209261D+01
 0.160514424699228D+03 0.232247005776217D+02 -.490875387901890D+02 0.151049354037432D+03
 0.153765157095427D+03 -.726689933879782D+02 0.974902142197119D+02 -.233098203329418D+02
 0.000000000000000D+00 -.000000000000000D+00 0.000000000000000D+00 0.000000000000000D+00
 0.340183491359742D+03 0.000000000000000D+00 0.000000000000000D+00 0.340183491359742D+03
 0.267834172271868D+03 0.000000000000000D+00 0.000000000000000D+00 -.267834172271868D+03
 0.192642649730896D+03 0.773193690211972D+02 -.653850065177180D+02 -.136170684246583D+03
 0.227408387391669D+02 -.130064951642398D+02 0.166400880598623D+02 0.843115054209261D+01
 0.162604115212768D+03 0.344832629302883D+02 -.493466868865793D+02 0.151049354037432D+03
 0.148912367762732D+03 -.621226663734575D+02 0.972474602619586D+02 -.233098203329418D+02
 0.811176921860472D+02 -.366734704137882D+02 0.844145082476367D+00 0.723493190878741D+02
0.262120255963D-05 0.000000000000D+00 0.000000000000D+00 0.374743399904D-07 0.000000000000D+00  7 1 -1 23 -11 11 23 21 0 0.17739094D+00 0.92156942D-02 0.31957160D+05 0.31957160D+05 0.31957160D+05 0.11647979D+01  1  2  2  1  7  1        1 0.244367684621D-03 0.100000000000D+01
-.119329425705D-06 0.000000000000D+00 -.100661080075D-07 0.374743399904D-07 0.000000000000D+00  7 1 -1 23 -11 11 23 21 2 0.17739094D+00 0.92156942D-02 0.31957160D+05 0.31957160D+05 0.31957160D+05 0.11647979D+01  1  2  3  1  7  1        1 -.150935669807D-04 0.100000000000D+01
0.161633489384D-06 0.000000000000D+00 0.000000000000D+00 0.374743399904D-07 0.000000000000D+00  7 1 -1 23 -11 11 23 21 2 0.17739094D+00 0.92156942D-02 0.31957160D+05 0.31957160D+05 0.31957160D+05 0.11647979D+01  1  2 15  1  7  1        1 0.204444619081D-04 0.100000000000D+01
0.101193728651D-04 0.000000000000D+00 0.000000000000D+00 0.374743399904D-07 0.000000000000D+00  7 1 -1 23 -11 11 23 21 2 0.23095800D+00 0.92156942D-02 0.40270138D+05 0.40270138D+05 0.40270138D+05 0.11556553D+01  1  2 12  1  7  1        1 0.735038925547D-03 0.100000000000D+01
-.101994553325D-04 0.000000000000D+00 0.000000000000D+00 0.374743399904D-07 0.000000000000D+00  7 1 -1 23 -11 11 23 21 2 0.17739094D+00 0.92156942D-02 0.31957160D+05 0.31957160D+05 0.31957160D+05 0.11647979D+01  1  2  4  1  7  1        1 -.129009388353D-02 0.100000000000D+01
-.116011020603D-04 0.000000000000D+00 -.135835690373D-05 0.374743399904D-07 0.000000000000D+00  7 1 -1 23 -11 11 23 21 2 0.23126632D+00 0.92156942D-02 0.31957160D+05 0.31957160D+05 0.31957160D+05 0.11647979D+01  1  2  5  1  7  1        1 -.856287274143D-03 0.100000000000D+01
0.115974971232D-04 0.000000000000D+00 0.131194570506D-05 0.374743399904D-07 0.000000000000D+00  7 1 -1 23 -11 11 23 21 2 0.17739094D+00 0.92156942D-02 0.31957160D+05 0.31957160D+05 0.31957160D+05 0.11647979D+01  1  2  6  1  7  1        1 0.146692736183D-02 0.100000000000D+01
0.356343673216D-06 0.000000000000D+00 0.000000000000D+00 0.374743399904D-07 0.000000000000D+00  7 21 -1 23 -11 11 23 -1 2 0.23095800D+00 0.92156942D-02 0.40270138D+05 0.40270138D+05 0.40270138D+05 0.11556553D+01  1  2 12  3  7  1        1 0.219837382401D-04 0.100000000000D+01
-.384972596415D-06 0.000000000000D+00 -.480100445784D-07 0.374743399904D-07 0.000000000000D+00  7 21 -1 23 -11 11 23 -1 2 0.23126632D+00 0.92156942D-02 0.31957160D+05 0.31957160D+05 0.31957160D+05 0.11647979D+01  1  2  5  3  7  1        1 -.243622950512D-04 0.100000000000D+01
  </mgrwgt>
  </event>
  <event>
  8     66 0.56006291E-06 0.21095245E+03 0.75467711E-02 0.95492152E-01
        3 -1    0    0  501    0 0.00000000E+00 0.00000000E+00 0.77753829E+03 0.77753845E+03 0.50000000E+00 0.0000E+00 0.9000E+01
       -3 -1    0    0    0  501 0.00000000E+00 0.00000000E+00 -.35052185E+03 0.35052221E+03 0.50000000E+00 0.0000E+00 0.9000E+01
       25  2    1    2    0    0 0.32323131E+03 0.26180940E+03 -.16886340E+02 0.51320436E+03 0.30011819E+03 0.0000E+00 0.0000E+00
       23  2    1    2    0    0 -.32323131E+03 -.26180940E+03 0.44390277E+03 0.61485629E+03 0.89308165E+02 0.0000E+00 0.0000E+00
       23  1    3    3    0    0 0.97530153E+02 0.11943869E+03 -.11698943E+03 0.21396146E+03 0.91188000E+02 0.0000E+00 0.9000E+01
      -13  1    4    4    0    0 -.16394832E+03 -.11023465E+03 0.26978520E+03 0.33438719E+03 0.10565837E+00 0.0000E+00 0.9000E+01
       13  1    4    4    0    0 -.15928299E+03 -.15157476E+03 0.17411758E+03 0.28046911E+03 0.10565837E+00 0.0000E+00 0.9000E+01
       23  1    3    3    0    0 0.22570116E+03 0.14237072E+03 0.10010309E+03 0.29924290E+03 0.91188000E+02 0.0000E+00 0.9000E+01
#aMCatNLO 1  0  0  1  2 0.47584244D+02 0.00000000D+00  -5  7  0 0.00000000D+00 0.00000000D+00 0.00000000D+00 0.00000000D+00 0.00000000D+00
  <mgrwgt>
 0.1790766583D-04    9    2    0
 0.522057902306140D+03 0.000000000000000D+00 0.000000000000000D+00 0.522057902306140D+03
 0.522057902306140D+03 0.000000000000000D+00 0.000000000000000D+00 -.522057902306140D+03
 0.279009203554196D+03 0.975301525829251D+02 0.119438686107196D+03 -.213899868915539D+03
 0.250936098875892D+03 -.163948324387122D+03 -.110234588796974D+03 0.154719772758585D+03
 0.231808645193141D+03 -.159282984522647D+03 -.151574813699350D+03 0.734115432329611D+02
 0.282361856989051D+03 0.225701156326844D+03 0.142370716389128D+03 -.142314470760074D+02
 0.000000000000000D+00 -.000000000000000D+00 0.000000000000000D+00 0.000000000000000D+00
 0.578025100114326D+03 0.000000000000000D+00 0.000000000000000D+00 0.578025100114326D+03
 0.532812879914253D+03 0.000000000000000D+00 0.000000000000000D+00 -.532812879914253D+03
 0.281877556713348D+03 0.109699236624938D+03 0.115553577168808D+03 -.213899868915539D+03
 0.245606691149097D+03 -.153175256862071D+03 -.113674004679955D+03 0.154719772758585D+03
 0.227234931195665D+03 -.149323505612221D+03 -.154754482802053D+03 0.734115432329611D+02
 0.290480358681839D+03 0.238129627738768D+03 0.138402795286253D+03 -.142314470760074D+02
 0.656384422886288D+02 -.453301018894138D+02 0.144721150269460D+02 0.452122202000726D+02
0.150173684804D-04 0.000000000000D+00 0.000000000000D+00 0.628728712423D-06 0.000000000000D+00  7 3 -3 23 -13 13 23 21 0 0.11962131D+00 0.53926479D-01 0.19297890D+06 0.19297890D+06 0.19297890D+06 0.10990194D+01  1  2  2  1  7  1        3 0.121304846197D-04 0.100000000000D+01
-.804075296519D-06 0.000000000000D+00 -.576706491289D-07 0.628728712423D-06 0.000000000000D+00  7 3 -3 23 -13 13 23 21 2 0.11962131D+00 0.53926479D-01 0.19297890D+06 0.19297890D+06 0.19297890D+06 0.10990194D+01  1  2  3  1  7  1        3 -.784497787567D-06 0.100000000000D+01
0.949790196639D-06 0.000000000000D+00 0.000000000000D+00 0.628728712423D-06 0.000000000000D+00  7 3 -3 23 -13 13 23 21 2 0.11962131D+00 0.53926479D-01 0.19297890D+06 0.19297890D+06 0.19297890D+06 0.10990194D+01  1  2 15  1  7  1        3 0.926664842387D-06 0.100000000000D+01
0.568860787405D-04 0.000000000000D+00 0.000000000000D+00 0.628728712423D-06 0.000000000000D+00  7 3 -3 23 -13 13 23 21 2 0.13359107D+00 0.53926479D-01 0.21487547D+06 0.21487547D+06 0.21487547D+06 0.10954404D+01  1  2 12  1  7  1        3 0.410224769840D-04 0.100000000000D+01
-.577050268364D-04 0.000000000000D+00 0.000000000000D+00 0.628728712423D-06 0.000000000000D+00  7 3 -3 23 -13 13 23 21 2 0.11962131D+00 0.53926479D-01 0.19297890D+06 0.19297890D+06 0.19297890D+06 0.10990194D+01  1  2  4  1  7  1        3 -.563000331942D-04 0.100000000000D+01
-.110791997418D-03 0.000000000000D+00 -.175689389758D-04 0.628728712423D-06 0.000000000000D+00  7 3 -3 23 -13 13 23 21 2 0.13400733D+00 0.53926479D-01 0.19297890D+06 0.19297890D+06 0.19297890D+06 0.10990194D+01  1  2  5  1  7  1        3 -.799527770345D-04 0.100000000000D+01
0.112175747863D-03 0.000000000000D+00 0.174562542148D-04 0.628728712423D-06 0.000000000000D+00  7 3 -3 23 -13 13 23 21 2 0.11962131D+00 0.53926479D-01 0.19297890D+06 0.19297890D+06 0.19297890D+06 0.10990194D+01  1  2  6  1  7  1        3 0.109444508988D-03 0.100000000000D+01
0.100621079236D-05 0.000000000000D+00 0.000000000000D+00 0.628728712423D-06 0.000000000000D+00  7 21 -3 23 -13 13 23 -3 2 0.13359107D+00 0.53926479D-01 0.21487547D+06 0.21487547D+06 0.21487547D+06 0.10954404D+01  1  2 12  3  7  1        3 0.922396620932D-05 0.100000000000D+01
-.193312023956D-05 0.000000000000D+00 -.318185726349D-06 0.628728712423D-06 0.000000000000D+00  7 21 -3 23 -13 13 23 -3 2 0.13400733D+00 0.53926479D-01 0.19297890D+06 0.19297890D+06 0.19297890D+06 0.10990194D+01  1  2  5  3  7  1        3 -.178031277999D-04 0.100000000000D+01
  </mgrwgt>
  </event>
  <event>
  8     66 0.56006291E-06 0.41286758E+03 0.75467711E-02 0.87651618E-01
        1 -1    0    0  501    0 0.00000000E+00 0.00000000E+00 0.20595082E+04 0.20595082E+04 0.32000000E+00 0.0000E+00 0.9000E+01
       -1 -1    0    0    0  501 0.00000000E+00 0.00000000E+00 -.13254511E+03 0.13254549E+03 0.32000000E+00 0.0000E+00 0.9000E+01
       25  2    1    2    0    0 -.37505046E+03 0.45660646E+02 0.16407230E+04 0.17100675E+04 0.29935124E+03 0.0000E+00 0.0000E+00
       23  2    1    2    0    0 0.37505046E+03 -.45660646E+02 0.28624005E+03 0.48198617E+03 0.87347355E+02 0.0000E+00 0.0000E+00
       23  1    3    3    0    0 -.32227338E+03 0.63856385E+02 0.91406987E+03 0.97559046E+03 0.91188000E+02 0.0000E+00 0.9000E+01
      -13  1    4    4    0    0 0.27884242E+03 -.36274207E+02 0.25713527E+03 0.38103474E+03 0.10565837E+00 0.0000E+00 0.9000E+01
       13  1    4    4    0    0 0.96208040E+02 -.93864391E+01 0.29104777E+02 0.10095143E+03 0.10565837E+00 0.0000E+00 0.9000E+01
       23  1    3    3    0    0 -.52777083E+02 -.18195739E+02 0.72665316E+03 0.73447707E+03 0.91188000E+02 0.0000E+00 0.9000E+01
#aMCatNLO 1  0  0  2  2 0.80035277D+03 0.00000000D+00  -5  7  0 0.00000000D+00 0.00000000D+00 0.00000000D+00 0.00000000D+00 0.00000000D+00
  <mgrwgt>
 0.2070108421D-03    5    2    0
 0.522473144277243D+03 0.000000000000000D+00 0.000000000000000D+00 0.522473144277243D+03
 0.522473144277243D+03 0.000000000000000D+00 0.000000000000000D+00 -.522473144277243D+03
 0.360944672680131D+03 -.322273379898145D+03 0.638563850801071D+02 0.118440010493474D+03
 0.325144651333901D+03 0.278842689563771D+03 -.362742463027799D+02 -.163248209249142D+03
 0.158100827358952D+03 0.962077732759739D+02 -.938639978015769D+01 -.125107279852257D+03
 0.200756137181501D+03 -.527770829416006D+02 -.181957389971696D+02 0.169915478607925D+03
 0.000000000000000D+00 -.000000000000000D+00 -.000000000000000D+00 -.000000000000000D+00
 0.679372469625253D+03 0.000000000000000D+00 0.000000000000000D+00 0.679372469625253D+03
 0.819259326660484D+04 0.000000000000000D+00 0.000000000000000D+00 -.819259326660484D+04
 0.231553545721363D+03 -.129554398935901D+03 0.120371985207516D+03 0.118440010493474D+03
 0.606683208648569D+03 0.581933753858518D+03 0.526084019259819D+02 -.163248209249142D+03
 0.267834369048203D+03 0.234749619408440D+03 0.312415421996173D+02 -.125107279852257D+03
 0.210164912709872D+03 0.808811856092387D+02 0.210000746244316D+02 0.169915478607925D+03
 0.755572970010209D+04 -.768010159940295D+03 -.225222003957546D+03 -.751322079697959D+04
0.324041444964D-04 0.000000000000D+00 0.000000000000D+00 0.978792821244D-07 0.000000000000D+00  7 1 -1 23 -13 13 23 21 0 0.31684745D+00 0.20391587D-01 0.17045964D+06 0.17045964D+06 0.17045964D+06 0.11031963D+01  1  2  2  2  7  2       -1 0.211262372016D-03 0.100000000000D+01
-.167889286014D-05 0.000000000000D+00 -.124440447073D-06 0.978792821244D-07 0.000000000000D+00  7 1 -1 23 -13 13 23 21 2 0.31684745D+00 0.20391587D-01 0.17045964D+06 0.17045964D+06 0.17045964D+06 0.11031963D+01  1  2  3  2  7  2       -1 -.133214079964D-04 0.100000000000D+01
0.203497542128D-05 0.000000000000D+00 0.000000000000D+00 0.978792821244D-07 0.000000000000D+00  7 1 -1 23 -13 13 23 21 2 0.31684745D+00 0.20391587D-01 0.17045964D+06 0.17045964D+06 0.17045964D+06 0.11031963D+01  1  2 15  2  7  2       -1 0.161467944103D-04 0.100000000000D+01
-.384178612039D-03 0.000000000000D+00 -.367543776197D-04 0.978792821244D-07 0.000000000000D+00  7 1 -1 23 -13 13 23 21 2 0.31684745D+00 0.34296410D+00 0.17045964D+06 0.17045964D+06 0.17045964D+06 0.11031963D+01  1  2  5  2  7  2       -1 -.141031564432D-05 0.100000000000D+01
-.128591038770D-03 0.000000000000D+00 -.114729716192D-04 0.978792821244D-07 0.000000000000D+00  7 1 21 23 -13 13 23 1 2 0.31684745D+00 0.34296410D+00 0.17045964D+06 0.17045964D+06 0.17045964D+06 0.11031963D+01  1  2  5  4  7  2       -1 -.566660064681D-05 0.100000000000D+01
  </mgrwgt>
  </event>
  <event>
  8     66 0.56006291E-06 0.68097262E+03 0.75467711E-02 0.82727992E-01
        1 -1    0    0  501    0 0.00000000E+00 0.00000000E+00 0.33322775E+04 0.33322775E+04 0.32000000E+00 0.0000E+00 0.9000E+01
       -1 -1    0    0    0  501 0.00000000E+00 0.00000000E+00 -.77609855E+03 0.77609862E+03 0.32000000E+00 0.0000E+00 0.9000E+01
       25  2    1    2    0    0 -.12087204E+03 -.63932645E+03 -.56897839E+03 0.91490677E+03 0.29994937E+03 0.0000E+00 0.0000E+00
       23  2    1    2    0    0 0.12087204E+03 0.63932645E+03 0.31251573E+04 0.31934694E+04 0.91048396E+02 0.0000E+00 0.0000E+00
       23  1    3    3    0    0 -.14698935E+02 -.49653579E+02 -.46438077E+02 0.11468776E+03 0.91188000E+02 0.0000E+00 0.9000E+01
      -13  1    4    4    0    0 0.40747196E+02 0.16358117E+03 0.10114845E+04 0.10254365E+04 0.10565837E+00 0.0000E+00 0.9000E+01
       13  1    4    4    0    0 0.80124845E+02 0.47574527E+03 0.21136729E+04 0.21680329E+04 0.10565837E+00 0.0000E+00 0.9000E+01
       23  1    3    3    0    0 -.10617311E+03 -.58967287E+03 -.52254032E+03 0.80021900E+03 0.91188000E+02 0.0000E+00 0.9000E+01
#aMCatNLO 1  0  0  2  2 0.14364027D+04 0.00000000D+00  -5  7  0 0.00000000D+00 0.00000000D+00 0.00000000D+00 0.00000000D+00 0.00000000D+00
  <mgrwgt>
 0.1971259160D-03    3    2    0
 0.160815916551068D+04 0.000000000000000D+00 0.000000000000000D+00 0.160815916551068D+04
 0.160815916551068D+04 0.000000000000000D+00 0.000000000000000D+00 -.160815916551068D+04
 0.183403643186465D+03 -.146989353669296D+02 -.496535792873399D+02 -.150466303048566D+03
 0.505963892638947D+03 0.407471434423401D+02 0.163580752841439D+03 0.477053946902731D+03
 0.108949755396348D+04 0.801248975523024D+02 0.475745694828679D+03 0.976857694209666D+03
 0.143745324123247D+04 -.106173105627713D+03 -.589672868382779D+03 -.130344533806383D+04
 0.000000000000000D+00 0.000000000000000D+00 -.000000000000000D+00 0.000000000000000D+00
 0.265969616034001D+04 0.000000000000000D+00 0.000000000000000D+00 0.265969616034001D+04
 0.233536118314633D+04 0.000000000000000D+00 0.000000000000000D+00 -.233536118314633D+04
 0.187572908694839D+03 -.638533682752239D+02 0.122875440608860D+02 -.150466303048566D+03
 0.600042158057034D+03 -.105798776884445D+03 0.348248104086763D+03 0.477053946902731D+03
 0.133739761852523D+04 -.241438973065935D+03 0.880958942054165D+03 0.976857694209666D+03
 0.139748023861679D+04 -.481802095729797D+03 -.116330379568171D+03 -.130344533806383D+04
 0.147256441959245D+04 0.892893213955401D+03 -.112516421063364D+04 0.324334977193684D+03
0.695601238686D-02 0.000000000000D+00 0.000000000000D+00 0.349474997271D-04 0.000000000000D+00  7 1 -1 23 -13 13 23 21 0 0.51265808D+00 0.11939978D+00 0.46372371D+06 0.46372371D+06 0.46372371D+06 0.10708299D+01  1  2  2  2  7  2       -1 0.185328562814D-03 0.100000000000D+01
-.394826230453D-04 0.000000000000D+00 -.267129191257D-04 0.349474997271D-04 0.000000000000D+00  7 1 -1 23 -13 13 23 21 2 0.51265808D+00 0.11939978D+00 0.46372371D+06 0.46372371D+06 0.46372371D+06 0.10708299D+01  1  2  3  2  7  2       -1 -.120622687970D-05 0.100000000000D+01
0.425637546214D-03 0.000000000000D+00 0.000000000000D+00 0.349474997271D-04 0.000000000000D+00  7 1 -1 23 -13 13 23 21 2 0.51265808D+00 0.11939978D+00 0.46372371D+06 0.46372371D+06 0.46372371D+06 0.10708299D+01  1  2 15  2  7  2       -1 0.130035800474D-04 0.100000000000D+01
  </mgrwgt>
  </event>
  <event>
  8     66 0.56006291E-06 0.69182582E+03 0.75467711E-02 0.89072519E-01
        1 -1    0    0  501    0 0.00000000E+00 0.00000000E+00 0.19655530E+03 0.19655556E+03 0.32000000E+00 0.0000E+00 0.9000E+01
       -1 -1    0    0    0  501 0.00000000E+00 0.00000000E+00 -.27792430E+04 0.27792430E+04 0.32000000E+00 0.0000E+00 0.9000E+01
       25  2    1    2    0    0 -.61902666E+03 -.23161004E+03 -.18369682E+04 0.19751543E+04 0.29990852E+03 0.0000E+00 0.0000E+00
       23  2    1    2    0    0 0.61902666E+03 0.23161004E+03 -.74571954E+03 0.10006443E+04 0.91401328E+02 0.0000E+00 0.0000E+00
       23  1    3    3    0    0 -.83442449E+02 0.11048582E+02 -.22629608E+03 0.25808890E+03 0.91188000E+02 0.0000E+00 0.9000E+01
      -13  1    4    4    0    0 0.42389450E+03 0.19234077E+03 -.47999427E+03 0.66863745E+03 0.10565837E+00 0.0000E+00 0.9000E+01
       13  1    4    4    0    0 0.19513216E+03 0.39269271E+02 -.26572527E+03 0.33200688E+03 0.10565837E+00 0.0000E+00 0.9000E+01
       23  1    3    3    0    0 -.53558422E+03 -.24265862E+03 -.16106721E+04 0.17170654E+04 0.91188000E+02 0.0000E+00 0.9000E+01
#aMCatNLO 1  0  0  2  1 0.27343808D+03 0.00000000D+00  -5  7  0 0.00000000D+00 0.00000000D+00 0.00000000D+00 0.00000000D+00 0.00000000D+00
  <mgrwgt>
 0.2770385977D-04    4    2    0
 0.739104434776278D+03 0.000000000000000D+00 0.000000000000000D+00 0.739104434776278D+03
 0.739104434776278D+03 0.000000000000000D+00 0.000000000000000D+00 -.739104434776278D+03
 0.124183048106596D+03 -.834424492707052D+02 0.110485819378850D+02 -.463298930634751D+01
 0.507408445374595D+03 0.423894810155830D+03 0.192340973767440D+03 0.201944225395549D+03
 0.204098090532323D+03 0.195131854697553D+03 0.392690668801674D+02 0.451390100422473D+02
 0.642519285539042D+03 -.535584215582678D+03 -.242658622585493D+03 -.242450246131449D+03
 0.000000000000000D+00 0.000000000000000D+00 0.000000000000000D+00 0.000000000000000D+00
 0.138849841628832D+04 0.000000000000000D+00 0.000000000000000D+00 0.138849841628832D+04
 0.780993792267601D+03 0.000000000000000D+00 0.000000000000000D+00 -.780993792267601D+03
 0.125557468110584D+03 -.853776492171559D+02 -.117736518795056D+02 -.463298930634751D+01
 0.473939522249850D+03 0.416290499236793D+03 0.102661681385944D+03 0.201944225395549D+03
 0.197272833738091D+03 0.192021694588492D+03 0.259027234594093D+01 0.451390100422473D+02
 0.706516523526541D+03 -.546037681704265D+03 -.365938621877852D+03 -.242450246131449D+03
 0.666205860930853D+03 0.231031370961357D+02 0.272460320025473D+03 0.607504624020717D+03
0.112433758657D-02 0.000000000000D+00 0.000000000000D+00 0.300265861382D-05 0.000000000000D+00  7 1 -1 23 -13 13 23 21 0 0.30239299D-01 0.42757587D+00 0.47862297D+06 0.47862297D+06 0.47862297D+06 0.10698541D+01  1  2  2  2  7  2       -1 0.287987743141D-04 0.100000000000D+01
-.621313243002D-04 0.000000000000D+00 -.431775237732D-05 0.300265861382D-05 0.000000000000D+00  7 1 -1 23 -13 13 23 21 2 0.30239299D-01 0.42757587D+00 0.47862297D+06 0.47862297D+06 0.47862297D+06 0.10698541D+01  1  2  3  2  7  2       -1 -.182153293690D-05 0.100000000000D+01
0.717691775137D-04 0.000000000000D+00 0.000000000000D+00 0.300265861382D-05 0.000000000000D+00  7 1 -1 23 -13 13 23 21 2 0.30239299D-01 0.42757587D+00 0.47862297D+06 0.47862297D+06 0.47862297D+06 0.10698541D+01  1  2 15  2  7  2       -1 0.210409036291D-05 0.100000000000D+01
-.469846885446D-04 0.000000000000D+00 0.000000000000D+00 0.300265861382D-05 0.000000000000D+00  7 1 -1 23 -13 13 23 21 2 0.30239299D-01 0.42757587D+00 0.47862297D+06 0.47862297D+06 0.47862297D+06 0.10698541D+01  1  2  4  2  7  2       -1 -.137747197050D-05 0.100000000000D+01
  </mgrwgt>
  </event>
  <event>
  8     66 0.56006291E-06 0.21616877E+03 0.75467711E-02 0.92228807E-01
        1 -1    0    0  501    0 0.00000000E+00 0.00000000E+00 0.58829365E+03 0.58829374E+03 0.32000000E+00 0.0000E+00 0.9000E+01
       -1 -1    0    0    0  501 0.00000000E+00 0.00000000E+00 -.12685136E+03 0.12685177E+03 0.32000000E+00 0.0000E+00 0.9000E+01
       25  2    1    2    0    0 -.66840806E+02 0.15112173E+03 0.37492103E+03 0.50803253E+03 0.30037609E+03 0.0000E+00 0.0000E+00
       23  2    1    2    0    0 0.66840806E+02 -.15112173E+03 0.86521254E+02 0.20711297E+03 0.90024358E+02 0.0000E+00 0.0000E+00
       23  1    3    3    0    0 -.46824707E+02 0.18590301E+02 0.32053529E+03 0.33704047E+03 0.91188000E+02 0.0000E+00 0.9000E+01
      -11  1    4    4    0    0 0.37320540E+02 -.64344853E+02 -.87618726E+01 0.74898953E+02 0.51099893E-03 0.0000E+00 0.9000E+01
       11  1    4    4    0    0 0.29520266E+02 -.86776882E+02 0.95283126E+02 0.13221402E+03 0.51099893E-03 0.0000E+00 0.9000E+01
       23  1    3    3    0    0 -.20016099E+02 0.13253143E+03 0.54385744E+02 0.17099206E+03 0.91188000E+02 0.0000E+00 0.9000E+01
#aMCatNLO 1  0  0  2  1 0.54742273D+03 0.00000000D+00  -5  7  0 0.00000000D+00 0.00000000D+00 0.00000000D+00 0.00000000D+00 0.00000000D+00
  <mgrwgt>
 0.1532261691D-03    5    2    0
 0.273177646811508D+03 0.000000000000000D+00 0.000000000000000D+00 0.273177646811508D+03
 0.273177646811508D+03 0.000000000000000D+00 0.000000000000000D+00 -.273177646811508D+03
 0.170446663145587D+03 -.468247069428078D+02 0.185903011360068D+02 0.134902413458241D+03
 0.105438254144944D+03 0.373205400915050D+02 -.643448528739627D+02 -.747271211344339D+02
 0.925855385117351D+02 0.295202657479626D+02 -.867768815392951D+02 0.130540676416506D+02
 0.177884837820748D+03 -.200160988966599D+02 0.132531433277251D+03 -.732293599654573D+02
 0.000000000000000D+00 -.000000000000000D+00 -.000000000000000D+00 -.000000000000000D+00
 0.575437121275419D+03 0.000000000000000D+00 0.000000000000000D+00 0.575437121275419D+03
 0.783671444351277D+03 0.000000000000000D+00 0.000000000000000D+00 -.783671444351277D+03
 0.219836718671771D+03 0.711767858338455D+02 0.129414587793943D+03 0.134902413458241D+03
 0.132379043032571D+03 0.109224180836804D+03 0.318539192377877D+01 -.747271211344339D+02
 0.931010764195383D+02 0.856622865752490D+02 -.340495874745033D+02 0.130540676416506D+02
 0.328101386105134D+03 0.132967944312275D+03 0.276210526310145D+03 -.732293599654573D+02
 0.585690341397681D+03 -.399031197558174D+03 -.374760918553363D+03 -.208234323075858D+03
0.159322781830D-05 0.000000000000D+00 0.000000000000D+00 0.211593492033D-06 0.000000000000D+00  7 1 -1 23 -11 11 23 21 0 0.90506753D-01 0.19515632D-01 0.46728939D+05 0.46728939D+05 0.46728939D+05 0.11498890D+01  1  2  2  2  7  2       -1 0.135560066916D-03 0.100000000000D+01
-.826167335396D-07 0.000000000000D+00 -.611841432879D-08 0.211593492033D-06 0.000000000000D+00  7 1 -1 23 -11 11 23 21 2 0.90506753D-01 0.19515632D-01 0.46728939D+05 0.46728939D+05 0.46728939D+05 0.11498890D+01  1  2  3  2  7  2       -1 -.929466524937D-05 0.100000000000D+01
0.103479489892D-06 0.000000000000D+00 0.000000000000D+00 0.211593492033D-06 0.000000000000D+00  7 1 -1 23 -11 11 23 21 2 0.90506753D-01 0.19515632D-01 0.46728939D+05 0.46728939D+05 0.46728939D+05 0.11498890D+01  1  2 15  2  7  2       -1 0.116417967343D-04 0.100000000000D+01
0.134225332575D-05 0.000000000000D+00 -.712459495896D-06 0.211593492033D-06 0.000000000000D+00  7 1 -1 23 -11 11 23 21 2 0.90506753D-01 0.11001709D+00 0.46728939D+05 0.46728939D+05 0.46728939D+05 0.11498890D+01  1  2  5  2  7  2       -1 0.661782197680D-05 0.100000000000D+01
0.247466119950D-06 0.000000000000D+00 -.150890530274D-06 0.211593492033D-06 0.000000000000D+00  7 1 21 23 -11 11 23 1 2 0.90506753D-01 0.11001709D+00 0.46728939D+05 0.46728939D+05 0.46728939D+05 0.11498890D+01  1  2  5  4  7  2       -1 0.870114870893D-05 0.100000000000D+01
  </mgrwgt>
  </event>
  <event>
  8     66 0.56006291E-06 0.23752215E+03 0.75467711E-02 0.10302058E+00
        1 -1    0    0  501    0 0.00000000E+00 0.00000000E+00 0.16901545E+04 0.16901546E+04 0.32000000E+00 0.0000E+00 0.9000E+01
       -1 -1    0    0    0  501 0.00000000E+00 0.00000000E+00 -.46241037E+02 0.46242144E+02 0.32000000E+00 0.0000E+00 0.9000E+01
       25  2    1    2    0    0 0.85647513E+02 0.14007142E+03 0.76992050E+03 0.84236848E+03 0.29975252E+03 0.0000E+00 0.0000E+00
       23  2    1    2    0    0 -.85647513E+02 -.14007142E+03 0.87399300E+03 0.89402823E+03 0.92017527E+02 0.0000E+00 0.0000E+00
       23  1    3    3    0    0 0.10494867E+03 0.13551465E+03 0.69814749E+03 0.72464033E+03 0.91188000E+02 0.0000E+00 0.9000E+01
      -11  1    4    4    0    0 0.15022321E+02 0.72462505E-01 0.52412973E+02 0.54523344E+02 0.51099893E-03 0.0000E+00 0.9000E+01
       11  1    4    4    0    0 -.10066983E+03 -.14014389E+03 0.82158002E+03 0.83950489E+03 0.51099893E-03 0.0000E+00 0.9000E+01
       23  1    3    3    0    0 -.19301158E+02 0.45567732E+01 0.71773011E+02 0.11772814E+03 0.91188000E+02 0.0000E+00 0.9000E+01
#aMCatNLO 1  0  0  2  2 0.29953030D+02 0.00000000D+00  -5  7  0 0.00000000D+00 0.00000000D+00 0.00000000D+00 0.00000000D+00 0.00000000D+00
  <mgrwgt>
 0.2291064824D-03    4    2    0
 0.279563027005003D+03 0.000000000000000D+00 0.000000000000000D+00 0.279563027005003D+03
 0.279563027005003D+03 0.000000000000000D+00 0.000000000000000D+00 -.279563027005003D+03
 0.197753274847819D+03 0.104948670577430D+03 0.135514649481430D+03 0.375854052657739D+02
 0.152233339453402D+02 0.150223211859645D+02 0.724625075929417D-01 0.246465246679155D+01
 0.191561520392372D+03 -.100669833737907D+03 -.140143885162838D+03 0.831931014068152D+02
 0.154587924824474D+03 -.193011580254868D+02 0.455677317381522D+01 -.123243159139381D+03
 0.000000000000000D+00 0.000000000000000D+00 0.000000000000000D+00 0.000000000000000D+00
 0.320217427439324D+03 0.000000000000000D+00 0.000000000000000D+00 0.320217427439324D+03
 0.285535976560959D+03 0.000000000000000D+00 0.000000000000000D+00 -.285535976560959D+03
 0.189734128889809D+03 0.957044051650628D+02 0.130812050150525D+03 0.375854052657739D+02
 0.145261154382635D+02 0.143125902287229D+02 -.288580817729822D+00 0.246465246679155D+01
 0.200047043632162D+03 -.110012417441737D+03 -.144896499450154D+03 0.831931014068152D+02
 0.155620500489622D+03 -.267017831531557D+02 0.792041935452646D+00 -.123243159139381D+03
 0.458256155504271D+02 0.266972052011075D+02 0.135809881819057D+02 0.346814508783649D+02
0.486228889272D-05 0.000000000000D+00 0.000000000000D+00 0.357806925124D-06 0.000000000000D+00  7 1 -1 23 -11 11 23 21 0 0.26002386D+00 0.71140932D-02 0.56416769D+05 0.56416769D+05 0.56416769D+05 0.11427113D+01  1  2  2  2  7  2       -1 0.293017631680D-03 0.100000000000D+01
-.261404507883D-06 0.000000000000D+00 -.186724696181D-07 0.357806925124D-06 0.000000000000D+00  7 1 -1 23 -11 11 23 21 2 0.26002386D+00 0.71140932D-02 0.56416769D+05 0.56416769D+05 0.56416769D+05 0.11427113D+01  1  2  3  2  7  2       -1 -.205702288682D-04 0.100000000000D+01
0.308239736757D-06 0.000000000000D+00 0.000000000000D+00 0.357806925124D-06 0.000000000000D+00  7 1 -1 23 -11 11 23 21 2 0.26002386D+00 0.71140932D-02 0.56416769D+05 0.56416769D+05 0.56416769D+05 0.11427113D+01  1  2 15  2  7  2       -1 0.242557482376D-04 0.100000000000D+01
-.859012022477D-06 0.000000000000D+00 0.000000000000D+00 0.357806925124D-06 0.000000000000D+00  7 1 -1 23 -11 11 23 21 2 0.26002386D+00 0.71140932D-02 0.56416769D+05 0.56416769D+05 0.56416769D+05 0.11427113D+01  1  2  4  2  7  2       -1 -.675966686497D-04 0.100000000000D+01
  </mgrwgt>
  </event>
  <event>
  9     66 0.56006291E-06 0.50737975E+03 0.75467711E-02 0.93409819E-01
        1 -1    0    0  501    0 0.00000000E+00 0.00000000E+00 0.10117686E+04 0.10117687E+04 0.32000000E+00 0.0000E+00 0.9000E+01
       -1 -1    0    0    0  502 0.00000000E+00 0.00000000E+00 -.33482428E+03 0.33482444E+03 0.32000000E+00 0.0000E+00 0.9000E+01
       25  2    1    2    0    0 -.51485861E+03 -.10918869E+03 0.34275297E+03 0.69623399E+03 0.30043403E+03 0.0000E+00 0.0000E+00
       23  2    1    2    0    0 0.42567866E+03 0.13949569E+03 0.23824296E+03 0.51590378E+03 0.93464629E+02 0.0000E+00 0.0000E+00
       23  1    3    3    0    0 -.99084636E+02 -.18321607E+02 0.19279459E+03 0.23587805E+03 0.91188000E+02 0.0000E+00 0.9000E+01
      -13  1    4    4    0    0 0.38750137E+03 0.11559413E+03 0.24105722E+03 0.47077373E+03 0.10565837E+00 0.0000E+00 0.9000E+01
       13  1    4    4    0    0 0.38177294E+02 0.23901554E+02 -.28142643E+01 0.45130049E+02 0.10565837E+00 0.0000E+00 0.9000E+01
       23  1    3    3    0    0 -.41577398E+03 -.90867082E+02 0.14995838E+03 0.46035594E+03 0.91188000E+02 0.0000E+00 0.9000E+01
       21  1    1    2  501  502 0.89179950E+02 -.30306996E+02 0.95948411E+02 0.13445534E+03 0.75000000E+00 0.0000E+00 0.9000E+01
#aMCatNLO 2  0  0  2  2 0.94189051D+02 0.00000000D+00  -5  7  0 0.00000000D+00 0.00000000D+00 0.00000000D+00 0.00000000D+00 0.00000000D+00
  <mgrwgt>
 0.7947146590D-04    1    2    0
 0.529823113767792D+03 0.000000000000000D+00 0.000000000000000D+00 0.529823113767792D+03
 0.529823113767792D+03 0.000000000000000D+00 0.000000000000000D+00 -.529823113767792D+03
 0.156300019236786D+03 -.856551503569939D+02 -.228854962385538D+02 0.908509435760332D+02
 0.435658528562440D+03 0.422796953473467D+03 0.103599516329883D+03 0.175564762682859D+02
 0.556965728810114D+02 0.427400604388587D+02 0.223506702346256D+02 -.278539585056692D+02
 0.411991106855347D+03 -.379881863555332D+03 -.103064690325955D+03 -.805534613386499D+02
 0.000000000000000D+00 0.000000000000000D+00 -.000000000000000D+00 0.000000000000000D+00
 0.600257158505121D+03 0.000000000000000D+00 0.000000000000000D+00 0.600257158505121D+03
 0.564363444815112D+03 0.000000000000000D+00 0.000000000000000D+00 -.564363444815112D+03
 0.163470461530382D+03 -.990846365658466D+02 -.183216073780272D+02 0.908509435760332D+02
 0.404756613778033D+03 0.387501814482854D+03 0.115594248605181D+03 0.175564762682859D+02
 0.529584119671147D+02 0.381768480465195D+02 0.239014365023541D+02 -.278539585056692D+02
 0.442638607653596D+03 -.415773975726344D+03 -.908670821397184D+02 -.805534613386499D+02
 0.100796508391107D+03 0.891799497628171D+02 -.303069955897896D+02 0.358937136900094D+02
0.997991829189D-05 0.000000000000D+00 0.000000000000D+00 0.360707416569D-06 0.257890699961D-09  7 1 -1 23 -13 13 23 21 2 0.15565635D+00 0.51511319D-01 0.31066862D+06 0.31066862D+06 0.31066862D+06 0.10834309D+01  1  2  1  2  7  2       -1 0.794714659012D-04 0.100000000000D+01
  </mgrwgt>
  </event>
  <event>
  8     66 0.56006291E-06 0.14867745E+03 0.75467711E-02 0.10314862E+00
        1 -1    0    0  501    0 0.00000000E+00 0.00000000E+00 0.15773991E+03 0.15774023E+03 0.32000000E+00 0.0000E+00 0.9000E+01
       -1 -1    0    0    0  501 0.00000000E+00 0.00000000E+00 -.40928306E+03 0.40928319E+03 0.32000000E+00 0.0000E+00 0.9000E+01
       25  2    1    2    0    0 -.63040981E+01 -.14477979E+03 -.18991562E+03 0.38446077E+03 0.30123282E+03 0.0000E+00 0.0000E+00
       23  2    1    2    0    0 0.63040981E+01 0.14477979E+03 -.61627532E+02 0.18256265E+03 0.92359287E+02 0.0000E+00 0.0000E+00
       23  1    3    3    0    0 0.72925253E+02 0.30803153E+02 -.77759328E+02 0.14362692E+03 0.91188000E+02 0.0000E+00 0.9000E+01
      -11  1    4    4    0    0 -.24106663E+02 0.65279205E+02 0.11269954E+02 0.70494806E+02 0.51099893E-03 0.0000E+00 0.9000E+01
       11  1    4    4    0    0 0.30410761E+02 0.79500588E+02 -.72897486E+02 0.11206784E+03 0.51099893E-03 0.0000E+00 0.9000E+01
       23  1    3    3    0    0 -.79229351E+02 -.17558295E+03 -.11215630E+03 0.24083386E+03 0.91188000E+02 0.0000E+00 0.9000E+01
#aMCatNLO 1  0  0  1  2 0.13189185D+02 0.00000000D+00  -5  7  0 0.00000000D+00 0.00000000D+00 0.00000000D+00 0.00000000D+00 0.00000000D+00
  <mgrwgt>
 0.1142238775D-03    9    2    0
 0.254087387414707D+03 0.000000000000000D+00 0.000000000000000D+00 0.254087387414707D+03
 0.254087387414707D+03 0.000000000000000D+00 0.000000000000000D+00 -.254087387414707D+03
 0.121769127467007D+03 0.729252529111253D+02 0.308031525945543D+02 -.156697906227626D+02
 0.842369358260141D+02 -.241066629478833D+02 0.652792049749707D+02 0.474695223981549D+02
 0.889619674347434D+02 0.304107610357735D+02 0.795005875922862D+02 -.258664615973399D+02
 0.213206744101650D+03 -.792293509990155D+02 -.175582945161811D+03 -.593327017805233D+01
 0.000000000000000D+00 0.000000000000000D+00 -.000000000000000D+00 0.000000000000000D+00
 0.263746946290336D+03 0.000000000000000D+00 0.000000000000000D+00 0.263746946290336D+03
 0.258715323191030D+03 0.000000000000000D+00 0.000000000000000D+00 -.258715323191030D+03
 0.122161505312463D+03 0.722104926064123D+02 0.338863461527650D+02 -.156697906227626D+02
 0.860570881640897D+02 -.246056548419765D+02 0.674316588582136D+02 0.474695223981549D+02
 0.908237321899300D+02 0.298839568374548D+02 0.817730127675299D+02 -.258664615973399D+02
 0.209303576613526D+03 -.804673816724806D+02 -.170242569972918D+03 -.593327017805233D+01
 0.141163672013569D+02 0.297858707058999D+01 -.128484478055909D+02 0.503162309930550D+01
0.106851210848D-05 0.000000000000D+00 0.000000000000D+00 0.220959155428D-07 0.000000000000D+00  7 1 -1 23 -11 11 23 21 0 0.24267713D-01 0.62966660D-01 0.59679429D+05 0.59679429D+05 0.59679429D+05 0.11405960D+01  1  2  2  1  7  1        1 0.701555631773D-04 0.100000000000D+01
-.592502705353D-07 0.000000000000D+00 -.410336784225D-08 0.220959155428D-07 0.000000000000D+00  7 1 -1 23 -11 11 23 21 2 0.24267713D-01 0.62966660D-01 0.59679429D+05 0.59679429D+05 0.59679429D+05 0.11405960D+01  1  2  3  1  7  1        1 -.506100438929D-05 0.100000000000D+01
0.706937720540D-07 0.000000000000D+00 0.000000000000D+00 0.220959155428D-07 0.000000000000D+00  7 1 -1 23 -11 11 23 21 2 0.24267713D-01 0.62966660D-01 0.59679429D+05 0.59679429D+05 0.59679429D+05 0.11405960D+01  1  2 15  1  7  1        1 0.603847859982D-05 0.100000000000D+01
0.293774506469D-05 0.000000000000D+00 0.000000000000D+00 0.220959155428D-07 0.000000000000D+00  7 1 -1 23 -11 11 23 21 2 0.25404999D-01 0.62966660D-01 0.63102486D+05 0.63102486D+05 0.63102486D+05 0.11385095D+01  1  2 12  1  7  1        1 0.235606702714D-03 0.100000000000D+01
-.275615663930D-05 0.000000000000D+00 0.000000000000D+00 0.220959155428D-07 0.000000000000D+00  7 1 -1 23 -11 11 23 21 2 0.24267713D-01 0.62966660D-01 0.59679429D+05 0.59679429D+05 0.59679429D+05 0.11405960D+01  1  2  4  1  7  1        1 -.235423749513D-03 0.100000000000D+01
-.185361100795D-04 0.000000000000D+00 -.281082033969D-05 0.220959155428D-07 0.000000000000D+00  7 1 -1 23 -11 11 23 21 2 0.25616461D-01 0.62966660D-01 0.59679429D+05 0.59679429D+05 0.59679429D+05 0.11405960D+01  1  2  5  1  7  1        1 -.147654273875D-02 0.100000000000D+01
0.186649401025D-04 0.000000000000D+00 0.280671374398D-05 0.220959155428D-07 0.000000000000D+00  7 1 -1 23 -11 11 23 21 2 0.24267713D-01 0.62966660D-01 0.59679429D+05 0.59679429D+05 0.59679429D+05 0.11405960D+01  1  2  6  1  7  1        1 0.159431075894D-02 0.100000000000D+01
0.408912328125D-07 0.000000000000D+00 0.000000000000D+00 0.220959155428D-07 0.000000000000D+00  7 21 -1 23 -11 11 23 -1 2 0.25404999D-01 0.62966660D-01 0.63102486D+05 0.63102486D+05 0.63102486D+05 0.11385095D+01  1  2 12  3  7  1        1 0.238945970143D-04 0.100000000000D+01
-.170759102361D-06 0.000000000000D+00 -.263305725759D-07 0.220959155428D-07 0.000000000000D+00  7 21 -1 23 -11 11 23 -1 2 0.25616461D-01 0.62966660D-01 0.59679429D+05 0.59679429D+05 0.59679429D+05 0.11405960D+01  1  2  5  3  7  1        1 -.987547303228D-04 0.100000000000D+01
  </mgrwgt>
  </event>
  <event>
  8     66 0.56006291E-06 0.29629580E+03 0.75467711E-02 0.86940382E-01
        3 -1    0    0  501    0 0.00000000E+00 0.00000000E+00 0.44926304E+03 0.44926332E+03 0.50000000E+00 0.0000E+00 0.9000E+01
       -3 -1    0    0    0  501 0.00000000E+00 0.00000000E+00 -.44037673E+03 0.44037701E+03 0.50000000E+00 0.0000E+00 0.9000E+01
       25  2    1    2    0    0 -.13119501E+03 0.17439050E+03 0.32598089E+03 0.49371557E+03 0.29977882E+03 0.0000E+00 0.0000E+00
       23  2    1    2    0    0 0.13119501E+03 -.17439050E+03 -.31709458E+03 0.39592476E+03 0.92645906E+02 0.0000E+00 0.0000E+00
       23  1    3    3    0    0 -.99121784E+01 0.19702697E+03 0.18715616E+03 0.28681102E+03 0.91188000E+02 0.0000E+00 0.9000E+01
      -13  1    4    4    0    0 0.10029555E+02 -.38465857E+02 -.13633899E+02 0.42025093E+02 0.10565837E+00 0.0000E+00 0.9000E+01
       13  1    4    4    0    0 0.12116546E+03 -.13592465E+03 -.30346068E+03 0.35389967E+03 0.10565837E+00 0.0000E+00 0.9000E+01
       23  1    3    3    0    0 -.12128283E+03 -.22636472E+02 0.13882473E+03 0.20690455E+03 0.91188000E+02 0.0000E+00 0.9000E+01
#aMCatNLO 1  0  0  2  2 0.98263776D+03 0.00000000D+00  -5  7  0 0.00000000D+00 0.00000000D+00 0.00000000D+00 0.00000000D+00 0.00000000D+00
  <mgrwgt>
 0.3233579994D-04    3    2    0
 0.444797973567726D+03 0.000000000000000D+00 0.000000000000000D+00 0.444797973567726D+03
 0.444797973567726D+03 0.000000000000000D+00 0.000000000000000D+00 -.444797973567726D+03
 0.284955796970781D+03 -.991217845946486D+01 0.197026974205751D+03 0.184300501998143D+03
 0.421629712777438D+02 0.100294101500859D+02 -.384657296913478D+02 -.140539929671735D+02
 0.356949049138185D+03 0.121165601949554D+03 -.135924772600298D+03 -.307011362621017D+03
 0.205528129748742D+03 -.121282833640175D+03 -.226364719141047D+02 0.136764853590048D+03
 0.000000000000000D+00 -.000000000000000D+00 0.000000000000000D+00 0.000000000000000D+00
 0.146637867924759D+04 0.000000000000000D+00 0.000000000000000D+00 0.146637867924759D+04
 0.963132308177894D+03 0.000000000000000D+00 0.000000000000000D+00 -.963132308177894D+03
 0.208225879313232D+03 0.270108483319446D+02 -.186146315405368D+02 0.184300501998143D+03
 0.106572083845556D+03 0.211647557827910D+02 -.103499504585856D+03 -.140539929671735D+02
 0.702430994363074D+03 0.200478195278662D+03 -.599134223927572D+03 -.307011362621017D+03
 0.308273933907990D+03 -.828160205484540D+02 -.247294254980011D+03 0.136764853590048D+03
 0.110400809599563D+04 -.165837778844944D+03 0.968542615033976D+03 0.503246371069692D+03
0.177086819021D-04 0.000000000000D+00 0.000000000000D+00 0.792072829526D-06 0.000000000000D+00  7 3 -3 23 -13 13 23 21 0 0.69117434D-01 0.67750309D-01 0.87791201D+05 0.87791201D+05 0.87791201D+05 0.11263923D+01  1  2  2  2  7  2       -3 0.316252171834D-04 0.100000000000D+01
-.786388255642D-06 0.000000000000D+00 -.680060013072D-07 0.792072829526D-06 0.000000000000D+00  7 3 -3 23 -13 13 23 21 2 0.69117434D-01 0.67750309D-01 0.87791201D+05 0.87791201D+05 0.87791201D+05 0.11263923D+01  1  2  3  2  7  2       -3 -.178181922072D-05 0.100000000000D+01
0.109999691508D-05 0.000000000000D+00 0.000000000000D+00 0.792072829526D-06 0.000000000000D+00  7 3 -3 23 -13 13 23 21 2 0.69117434D-01 0.67750309D-01 0.87791201D+05 0.87791201D+05 0.87791201D+05 0.11263923D+01  1  2 15  2  7  2       -3 0.249240198078D-05 0.100000000000D+01
  </mgrwgt>
  </event>
  <event>
  8     66 0.56006291E-06 0.52978159E+03 0.75467711E-02 0.87297773E-01
        1 -1    0    0  501    0 0.00000000E+00 0.00000000E+00 0.11258108E+04 0.11258109E+04 0.32000000E+00 0.0000E+00 0.9000E+01
       -1 -1    0    0    0  501 0.00000000E+00 0.00000000E+00 -.10298281E+04 0.10298282E+04 0.32000000E+00 0.0000E+00 0.9000E+01
       25  2    1    2    0    0 -.86326855E+03 0.25109380E+03 -.50098406E+03 0.10725010E+04 0.30164997E+03 0.0000E+00 0.0000E+00
       23  2    1    2    0    0 0.86326855E+03 -.25109380E+03 0.59696674E+03 0.10831380E+04 0.92401530E+02 0.0000E+00 0.0000E+00
       23  1    3    3    0    0 -.54185667E+03 0.24221112E+03 -.40665249E+03 0.72522850E+03 0.91188000E+02 0.0000E+00 0.9000E+01
      -11  1    4    4    0    0 0.84566903E+03 -.23725561E+03 0.59452704E+03 0.10606171E+04 0.51099893E-03 0.0000E+00 0.9000E+01
       11  1    4    4    0    0 0.17599523E+02 -.13838186E+02 0.24397007E+01 0.22520896E+02 0.51099893E-03 0.0000E+00 0.9000E+01
       23  1    3    3    0    0 -.32141188E+03 0.88826729E+01 -.94331570E+02 0.34727251E+03 0.91188000E+02 0.0000E+00 0.9000E+01
#aMCatNLO 1  0  0  2  1 0.17477298D+03 0.00000000D+00  -5  7  0 0.00000000D+00 0.00000000D+00 0.00000000D+00 0.00000000D+00 0.00000000D+00
  <mgrwgt>
 0.5698042049D-03    9    2    0
 0.107675055498192D+04 0.000000000000000D+00 0.000000000000000D+00 0.107675055498192D+04
 0.107675055498192D+04 0.000000000000000D+00 0.000000000000000D+00 -.107675055498192D+04
 0.744073201208271D+03 -.541856669176742D+03 0.242211123104853D+03 -.439380016984497D+03
 0.103517171281043D+04 0.845669028425019D+03 -.237255609683198D+03 0.547845000925830D+03
 0.224345151864307D+02 0.175995229423886D+02 -.138381862961055D+02 0.143835457548080D+01
 0.351821680758708D+03 -.321411882190666D+03 0.888267287445089D+01 -.109903338516814D+03
 0.000000000000000D+00 -.000000000000000D+00 0.000000000000000D+00 -.000000000000000D+00
 0.112989864573498D+04 0.000000000000000D+00 0.000000000000000D+00 0.112989864573498D+04
 0.123422599689033D+04 0.000000000000000D+00 0.000000000000000D+00 -.123422599689033D+04
 0.715535643362707D+03 -.525608848710559D+03 0.185355184471184D+03 -.439380016984497D+03
 0.107594747515841D+04 0.869169218682439D+03 -.319489739358397D+03 0.547845000925830D+03
 0.239805899305692D+02 0.181161985556291D+02 -.156461873766848D+02 0.143835457548080D+01
 0.345117839596530D+03 -.313653811770198D+03 -.182651145263186D+02 -.109903338516814D+03
 0.203543094577094D+03 -.480227567573116D+02 0.168045856790216D+03 -.104327351155343D+03
0.764573480270D-03 0.000000000000D+00 0.000000000000D+00 0.652310659080D-06 0.000000000000D+00  7 1 -1 23 -11 11 23 21 0 0.17320167D+00 0.15843511D+00 0.84218727D+06 0.84218727D+06 0.84218727D+06 0.10528656D+01  1  2  2  2  7  2       -1 0.324138181779D-03 0.100000000000D+01
-.411570963850D-04 0.000000000000D+00 -.293616348106D-05 0.652310659080D-06 0.000000000000D+00  7 1 -1 23 -11 11 23 21 2 0.17320167D+00 0.15843511D+00 0.84218727D+06 0.84218727D+06 0.84218727D+06 0.10528656D+01  1  2  3  2  7  2       -1 -.193420094905D-04 0.100000000000D+01
0.485367791832D-04 0.000000000000D+00 0.000000000000D+00 0.652310659080D-06 0.000000000000D+00  7 1 -1 23 -11 11 23 21 2 0.17320167D+00 0.15843511D+00 0.84218727D+06 0.84218727D+06 0.84218727D+06 0.10528656D+01  1  2 15  2  7  2       -1 0.228101330283D-04 0.100000000000D+01
0.117989641456D-02 0.000000000000D+00 0.000000000000D+00 0.652310659080D-06 0.000000000000D+00  7 1 -1 23 -11 11 23 21 2 0.17320167D+00 0.18510220D+00 0.10167034D+07 0.10167034D+07 0.10167034D+07 0.10473854D+01  1  2 12  2  7  2       -1 0.325967559142D-03 0.100000000000D+01
-.117880737646D-02 0.000000000000D+00 0.000000000000D+00 0.652310659080D-06 0.000000000000D+00  7 1 -1 23 -11 11 23 21 2 0.17320167D+00 0.15843511D+00 0.84218727D+06 0.84218727D+06 0.84218727D+06 0.10528656D+01  1  2  4  2  7  2       -1 -.553987172703D-03 0.100000000000D+01
-.250724148429D-02 0.000000000000D+00 -.556244947427D-03 0.652310659080D-06 0.000000000000D+00  7 1 -1 23 -11 11 23 21 2 0.17320167D+00 0.18667614D+00 0.84218727D+06 0.84218727D+06 0.84218727D+06 0.10528656D+01  1  2  5  2  7  2       -1 -.688933806695D-03 0.100000000000D+01
0.257121454167D-02 0.000000000000D+00 0.548844798111D-03 0.652310659080D-06 0.000000000000D+00  7 1 -1 23 -11 11 23 21 2 0.17320167D+00 0.15843511D+00 0.84218727D+06 0.84218727D+06 0.84218727D+06 0.10528656D+01  1  2  6  2  7  2       -1 0.120835677041D-02 0.100000000000D+01
0.277171045137D-04 0.000000000000D+00 0.000000000000D+00 0.652310659080D-06 0.000000000000D+00  7 1 21 23 -11 11 23 1 2 0.17320167D+00 0.18510220D+00 0.10167034D+07 0.10167034D+07 0.10167034D+07 0.10473854D+01  1  2 12  4  7  2       -1 0.466223797876D-04 0.100000000000D+01
-.569205530140D-04 0.000000000000D+00 -.136329349598D-04 0.652310659080D-06 0.000000000000D+00  7 1 21 23 -11 11 23 1 2 0.17320167D+00 0.18667614D+00 0.84218727D+06 0.84218727D+06 0.84218727D+06 0.10528656D+01  1  2  5  4  7  2       -1 -.958278304022D-04 0.100000000000D+01
  </mgrwgt>
  </event>
  <event>
  8     66 0.56006291E-06 0.22842472E+03 0.75467711E-02 0.10441665E+00
        1 -1    0    0  501    0 0.00000000E+00 0.00000000E+00 0.11530690E+04 0.11530690E+04 0.32000000E+00 0.0000E+00 0.9000E+01
       -1 -1    0    0    0  501 0.00000000E+00 0.00000000E+00 -.48819136E+02 0.48820185E+02 0.32000000E+00 0.0000E+00 0.9000E+01
       25  2    1    2    0    0 0.12160656E+03 0.59670472E+01 0.79546727E+03 0.85760744E+03 0.29647697E+03 0.0000E+00 0.0000E+00
       23  2    1    2    0    0 -.12160656E+03 -.59670472E+01 0.30878258E+03 0.34428176E+03 0.91430264E+02 0.0000E+00 0.0000E+00
       23  1    3    3    0    0 0.88075767E+01 -.97119108E+02 0.44431791E+03 0.46394326E+03 0.91188000E+02 0.0000E+00 0.9000E+01
      -13  1    4    4    0    0 -.11886942E+03 0.18909529E+02 0.20684075E+03 0.23931280E+03 0.10565837E+00 0.0000E+00 0.9000E+01
       13  1    4    4    0    0 -.27371348E+01 -.24876577E+02 0.10194182E+03 0.10496896E+03 0.10565837E+00 0.0000E+00 0.9000E+01
       23  1    3    3    0    0 0.11279898E+03 0.10308616E+03 0.35114936E+03 0.39366418E+03 0.91188000E+02 0.0000E+00 0.9000E+01
#aMCatNLO 1  0  0  2  1 0.10885157D+01 0.00000000D+00  -5  7  0 0.00000000D+00 0.00000000D+00 0.00000000D+00 0.00000000D+00 0.00000000D+00
  <mgrwgt>
 0.4709216675D-03    6    2    0
 0.237260380834910D+03 0.000000000000000D+00 0.000000000000000D+00 0.237260380834910D+03
 0.237260380834910D+03 0.000000000000000D+00 0.000000000000000D+00 -.237260380834910D+03
 0.141132746904277D+03 0.880758140510190D+01 -.971191079491909D+02 0.457548498597960D+02
 0.124807331776515D+03 -.118869582423521D+03 0.189095819130049D+02 -.330048504239300D+02
 0.286431166385984D+02 -.273698639415952D+01 -.248766296393413D+02 0.139316307027420D+02
 0.179937566350431D+03 0.112798987412579D+03 0.103086155675527D+03 -.266816301386080D+02
 0.000000000000000D+00 0.000000000000000D+00 0.000000000000000D+00 0.000000000000000D+00
 0.238882243666776D+03 0.000000000000000D+00 0.000000000000000D+00 0.238882243666776D+03
 0.237443715132329D+03 0.000000000000000D+00 0.000000000000000D+00 -.237443715132329D+03
 0.141327259159704D+03 0.867268707512022D+01 -.974136594672369D+02 0.457548498597960D+02
 0.124881759138892D+03 -.118988826358591D+03 0.186492041632714D+02 -.330048504239300D+02
 0.286976893654448D+02 -.276437062357419D+01 -.249364250832692D+02 0.139316307027420D+02
 0.179615302491516D+03 0.112627275870080D+03 0.102711211113248D+03 -.266816301386080D+02
 0.180394864354710D+01 0.453234036964281D+00 0.989669273987135D+00 0.143852853444701D+01
0.314185777812D-05 0.000000000000D+00 0.000000000000D+00 0.597481109359D-08 0.000000000000D+00  7 1 -1 23 -13 13 23 21 0 0.17739531D+00 0.75107204D-02 0.52177852D+05 0.52177852D+05 0.52177852D+05 0.11456703D+01  1  2  2  2  7  2       -1 0.398051176576D-03 0.100000000000D+01
-.174241983964D-06 0.000000000000D+00 -.120655611381D-07 0.597481109359D-08 0.000000000000D+00  7 1 -1 23 -13 13 23 21 2 0.17739531D+00 0.75107204D-02 0.52177852D+05 0.52177852D+05 0.52177852D+05 0.11456703D+01  1  2  3  2  7  2       -1 -.289750691644D-04 0.100000000000D+01
0.201331460940D-06 0.000000000000D+00 0.000000000000D+00 0.597481109359D-08 0.000000000000D+00  7 1 -1 23 -13 13 23 21 2 0.17739531D+00 0.75107204D-02 0.52177852D+05 0.52177852D+05 0.52177852D+05 0.11456703D+01  1  2 15  2  7  2       -1 0.334798357605D-04 0.100000000000D+01
-.937529285831D-05 0.000000000000D+00 0.000000000000D+00 0.597481109359D-08 0.000000000000D+00  7 1 -1 23 -13 13 23 21 2 0.17739531D+00 0.75107204D-02 0.52177852D+05 0.52177852D+05 0.52177852D+05 0.11456703D+01  1  2  4  2  7  2       -1 -.155903733891D-02 0.100000000000D+01
0.937549835789D-05 0.000000000000D+00 0.000000000000D+00 0.597481109359D-08 0.352892704841D-07  7 1 -1 23 -13 13 23 21 2 0.17860795D+00 0.75165241D-02 0.52431221D+05 0.52431221D+05 0.52431221D+05 0.11454861D+01  1  2 11  2  7  2       -1 0.153707012259D-02 0.100000000000D+01
0.370013303906D-07 0.000000000000D+00 0.000000000000D+00 0.597481109359D-08 0.512155785351D-11  7 1 21 23 -13 13 23 1 2 0.17860795D+00 0.75165241D-02 0.52431221D+05 0.52431221D+05 0.52431221D+05 0.11454861D+01  1  2 11  4  7  2       -1 0.903329405946D-04 0.100000000000D+01
  </mgrwgt>
  </event>
  <event>
  8     66 0.56006291E-06 0.49067955E+03 0.75467711E-02 0.87052761E-01
        1 -1    0    0  501    0 0.00000000E+00 0.00000000E+00 0.86486882E+03 0.86486888E+03 0.32000000E+00 0.0000E+00 0.9000E+01
       -1 -1    0    0    0  501 0.00000000E+00 0.00000000E+00 -.31004172E+03 0.31004188E+03 0.32000000E+00 0.0000E+00 0.9000E+01
       25  2    1    2    0    0 -.45154515E+03 -.12562730E+03 0.28785255E+03 0.62708815E+03 0.30117306E+03 0.0000E+00 0.0000E+00
       23  2    1    2    0    0 0.45154515E+03 0.12562730E+03 0.26697456E+03 0.54782262E+03 0.95702492E+02 0.0000E+00 0.0000E+00
       23  1    3    3    0    0 -.17027333E+03 -.84731765E+02 -.21208374E+01 0.21093181E+03 0.91188000E+02 0.0000E+00 0.9000E+01
      -13  1    4    4    0    0 0.13996899E+02 0.15217044E+02 0.34440900E+02 0.40170367E+02 0.10565837E+00 0.0000E+00 0.9000E+01
       13  1    4    4    0    0 0.43754825E+03 0.11041026E+03 0.23253366E+03 0.50765225E+03 0.10565837E+00 0.0000E+00 0.9000E+01
       23  1    3    3    0    0 -.28127182E+03 -.40895537E+02 0.28997338E+03 0.41615633E+03 0.91188000E+02 0.0000E+00 0.9000E+01
#aMCatNLO 1  0  0  2  1 0.81868433D+03 0.00000000D+00  -5  7  0 0.00000000D+00 0.00000000D+00 0.00000000D+00 0.00000000D+00 0.00000000D+00
  <mgrwgt>
 0.4662332032D-03    3    2    0
 0.517827720719844D+03 0.000000000000000D+00 0.000000000000000D+00 0.517827720719844D+03
 0.517827720719844D+03 0.000000000000000D+00 0.000000000000000D+00 -.517827720719844D+03
 0.240430113335151D+03 -.170273333612143D+03 -.847317650752468D+02 -.115407572984596D+03
 0.271203288364099D+02 0.139963833262514D+02 0.152169279072379D+02 0.175515980766870D+02
 0.451338001861792D+03 0.437548767401258D+03 0.110410374200804D+03 -.816194456443186D+01
 0.316766997406335D+03 -.281271817115367D+03 -.408955370327955D+02 0.106017919472341D+03
 0.000000000000000D+00 -.000000000000000D+00 0.000000000000000D+00 0.000000000000000D+00
 0.226483082531647D+04 0.000000000000000D+00 0.000000000000000D+00 0.226483082531647D+04
 0.764496356798353D+03 0.000000000000000D+00 0.000000000000000D+00 -.764496356798353D+03
 0.201113670370922D+03 -.252342278454729D+02 -.134817591244287D+03 -.115407572984596D+03
 0.411022999780318D+02 0.364062766175698D+02 0.747820107268749D+01 0.175515980766870D+02
 0.873773516062590D+03 0.872823810767752D+03 -.399015712744252D+02 -.816194456443186D+01
 0.204171950669678D+03 -.110152843241938D+03 -.999874290735328D+02 0.106017919472341D+03
 0.170916574503360D+04 -.773843016297910D+03 0.267228390519558D+03 0.150033446851811D+04
0.449713051663D-04 0.000000000000D+00 0.000000000000D+00 0.308868391507D-07 0.000000000000D+00  7 1 -1 23 -13 13 23 21 0 0.13305676D+00 0.47698743D-01 0.24076642D+06 0.24076642D+06 0.24076642D+06 0.10916908D+01  1  2  2  2  7  2       -1 0.462513900601D-03 0.100000000000D+01
-.248959662128D-05 0.000000000000D+00 -.172701653055D-06 0.308868391507D-07 0.000000000000D+00  7 1 -1 23 -13 13 23 21 2 0.13305676D+00 0.47698743D-01 0.24076642D+06 0.24076642D+06 0.24076642D+06 0.10916908D+01  1  2  3  2  7  2       -1 -.305152959307D-04 0.100000000000D+01
0.279303667615D-05 0.000000000000D+00 0.000000000000D+00 0.308868391507D-07 0.000000000000D+00  7 1 -1 23 -13 13 23 21 2 0.13305676D+00 0.47698743D-01 0.24076642D+06 0.24076642D+06 0.24076642D+06 0.10916908D+01  1  2 15  2  7  2       -1 0.342345984846D-04 0.100000000000D+01
  </mgrwgt>
  </event>
  <event>
  8     66 0.56006291E-06 0.31036021E+03 0.75467711E-02 0.86328187E-01
        1 -1    0    0  501    0 0.00000000E+00 0.00000000E+00 0.62528118E+03 0.62528126E+03 0.32000000E+00 0.0000E+00 0.9000E+01
       -1 -1    0    0    0  501 0.00000000E+00 0.00000000E+00 -.23596793E+03 0.23596815E+03 0.32000000E+00 0.0000E+00 0.9000E+01
       25  2    1    2    0    0 -.15929580E+03 -.17607152E+03 0.45827472E+03 0.59757489E+03 0.30117054E+03 0.0000E+00 0.0000E+00
       23  2    1    2    0    0 0.15929580E+03 0.17607152E+03 -.68961475E+02 0.26367452E+03 0.91609156E+02 0.0000E+00 0.0000E+00
       23  1    3    3    0    0 -.16074677E+03 -.44360372E+00 0.24066504E+03 0.30343802E+03 0.91188000E+02 0.0000E+00 0.9000E+01
      -11  1    4    4    0    0 0.60694013E+02 0.79273592E+02 0.16517688E+02 0.10119733E+03 0.51099893E-03 0.0000E+00 0.9000E+01
       11  1    4    4    0    0 0.98601784E+02 0.96797927E+02 -.85479163E+02 0.16247719E+03 0.51099893E-03 0.0000E+00 0.9000E+01
       23  1    3    3    0    0 0.14509697E+01 -.17562792E+03 0.21760968E+03 0.29413686E+03 0.91188000E+02 0.0000E+00 0.9000E+01
#aMCatNLO 1  0  0  1  1 0.10361202D+04 0.00000000D+00  -5  7  0 0.00000000D+00 0.00000000D+00 0.00000000D+00 0.00000000D+00 0.00000000D+00
  <mgrwgt>
 0.1890441774D-03    3    2    0
 0.384117734709802D+03 0.000000000000000D+00 0.000000000000000D+00 0.384117734709802D+03
 0.384117734709802D+03 0.000000000000000D+00 0.000000000000000D+00 -.384117734709802D+03
 0.218216594470319D+03 -.160746765848749D+03 -.443603720328070D+00 0.116032371531095D+03
 0.105079221942280D+03 0.606940125572592D+02 0.792735915852546D+02 -.327654910060649D+02
 0.225466751390040D+03 0.986017836018471D+02 0.967979274201867D+02 -.178165949328340D+03
 0.219472901616966D+03 0.145096968964312D+01 -.175627915285113D+03 0.948990688033099D+02
 0.000000000000000D+00 0.000000000000000D+00 -.000000000000000D+00 -.000000000000000D+00
 0.973238543834542D+03 0.000000000000000D+00 0.000000000000000D+00 0.973238543834542D+03
 0.146240632573823D+04 0.000000000000000D+00 0.000000000000000D+00 -.146240632573823D+04
 0.383548438601252D+03 -.185567054522589D+03 0.301488823079958D+03 0.116032371531095D+03
 0.276277041374970D+03 0.449646630222802D+02 0.270617082367930D+03 -.327654910060649D+02
 0.497773005363314D+03 0.687711710596244D+02 0.459679655194186D+03 -.178165949328340D+03
 0.132258387226635D+03 -.130564736560748D+02 0.851401035531438D+00 0.948990688033099D+02
 0.114578799700660D+04 0.848876940967595D+02 -.103263696167761D+04 -.489167781903684D+03
0.666182093977D-05 0.000000000000D+00 0.000000000000D+00 0.195601218395D-06 0.000000000000D+00  7 1 -1 23 -11 11 23 21 0 0.96197127D-01 0.36302781D-01 0.96323457D+05 0.96323457D+05 0.96323457D+05 0.11230595D+01  1  2  2  1  7  1        1 0.186276333022D-03 0.100000000000D+01
-.349644272845D-06 0.000000000000D+00 -.255831465065D-07 0.195601218395D-06 0.000000000000D+00  7 1 -1 23 -11 11 23 21 2 0.96197127D-01 0.36302781D-01 0.96323457D+05 0.96323457D+05 0.96323457D+05 0.11230595D+01  1  2  3  1  7  1        1 -.123309531785D-04 0.100000000000D+01
0.428126522081D-06 0.000000000000D+00 0.000000000000D+00 0.195601218395D-06 0.000000000000D+00  7 1 -1 23 -11 11 23 21 2 0.96197127D-01 0.36302781D-01 0.96323457D+05 0.96323457D+05 0.96323457D+05 0.11230595D+01  1  2 15  1  7  1        1 0.150987975731D-04 0.100000000000D+01
  </mgrwgt>
  </event>
  <event>
  8     66 0.56006291E-06 0.24401852E+03 0.75467711E-02 0.93423137E-01
        1 -1    0    0  501    0 0.00000000E+00 0.00000000E+00 0.16579388E+03 0.16579419E+03 0.32000000E+00 0.0000E+00 0.9000E+01
       -1 -1    0    0    0  501 0.00000000E+00 0.00000000E+00 -.50053153E+03 0.50053163E+03 0.32000000E+00 0.0000E+00 0.9000E+01
       25  2    1    2    0    0 -.12800210E+03 0.13731918E+03 -.24271901E+03 0.43745949E+03 0.31179671E+03 0.0000E+00 0.0000E+00
       23  2    1    2    0    0 0.12800210E+03 -.13731918E+03 -.92018631E+02 0.22886633E+03 0.93119669E+02 0.0000E+00 0.0000E+00
       23  1    3    3    0    0 0.26563229E+01 0.52872427E+02 0.30798538E+02 0.10984694E+03 0.91188000E+02 0.0000E+00 0.9000E+01
      -13  1    4    4    0    0 0.33710601E+01 -.49948073E+02 -.50479300E+02 0.71093916E+02 0.10565837E+00 0.0000E+00 0.9000E+01
       13  1    4    4    0    0 0.12463104E+03 -.87371111E+02 -.41539332E+02 0.15777242E+03 0.10565837E+00 0.0000E+00 0.9000E+01
       23  1    3    3    0    0 -.13065843E+03 0.84446757E+02 -.27351755E+03 0.32761254E+03 0.91188000E+02 0.0000E+00 0.9000E+01
#aMCatNLO 1  0  0  1  1 0.45627253D+03 0.00000000D+00  -5  7  0 0.00000000D+00 0.00000000D+00 0.00000000D+00 0.00000000D+00 0.00000000D+00
  <mgrwgt>
 0.9478502283D-04    3    2    0
 0.288071523961387D+03 0.000000000000000D+00 0.000000000000000D+00 0.288071523961387D+03
 0.288071523961387D+03 0.000000000000000D+00 0.000000000000000D+00 -.288071523961387D+03
 0.144934717579259D+03 0.265595811565387D+01 0.528725961100939D+02 0.994397077773580D+02
 0.528937392544155D+02 0.337098967361578D+01 -.499481138575368D+02 -.170754210199637D+02
 0.158334536906667D+03 0.124631449786947D+03 -.873714299484889D+02 0.436240819984635D+02
 0.219980054182433D+03 -.130658397576217D+03 0.844469476959318D+02 -.125988368755858D+03
 0.000000000000000D+00 0.000000000000000D+00 0.000000000000000D+00 -.000000000000000D+00
 0.501524882369245D+03 0.000000000000000D+00 0.000000000000000D+00 0.501524882369245D+03
 0.755700071763335D+03 0.000000000000000D+00 0.000000000000000D+00 -.755700071763335D+03
 0.145360380252920D+03 -.358076917469676D+02 -.405455611896208D+02 0.994397077773580D+02
 0.103032230079262D+03 -.172889592326094D+02 -.100125732560367D+03 -.170754210199637D+02
 0.228376586885626D+03 0.733928261429249D+02 -.211816661238142D+03 0.436240819984635D+02
 0.258163069273386D+03 -.194011619253618D+03 -.694214774078050D+02 -.125988368755858D+03
 0.522292687641385D+03 0.173715444090270D+03 0.421909432395935D+03 -.254175189394090D+03
0.223588090434D-05 0.000000000000D+00 0.000000000000D+00 0.107018851574D-08 0.000000000000D+00  7 1 -1 23 -13 13 23 21 0 0.25506783D-01 0.77004882D-01 0.59545036D+05 0.59545036D+05 0.59545036D+05 0.11406806D+01  1  2  2  1  7  1        1 0.935112629378D-04 0.100000000000D+01
-.120055646684D-06 0.000000000000D+00 -.858637139365D-08 0.107018851574D-08 0.000000000000D+00  7 1 -1 23 -13 13 23 21 2 0.25506783D-01 0.77004882D-01 0.59545036D+05 0.59545036D+05 0.59545036D+05 0.11406806D+01  1  2  3  1  7  1        1 -.653320026947D-05 0.100000000000D+01
0.143462562301D-06 0.000000000000D+00 0.000000000000D+00 0.107018851574D-08 0.000000000000D+00  7 1 -1 23 -13 13 23 21 2 0.25506783D-01 0.77004882D-01 0.59545036D+05 0.59545036D+05 0.59545036D+05 0.11406806D+01  1  2 15  1  7  1        1 0.780696016028D-05 0.100000000000D+01
  </mgrwgt>
  </event>
  <event>
  9     66 0.56006291E-06 0.21518343E+03 0.75467711E-02 0.10427350E+00
        1 -1    0    0  501    0 0.00000000E+00 0.00000000E+00 0.19726868E+04 0.19726869E+04 0.32000000E+00 0.0000E+00 0.9000E+01
       21 -1    0    0  502  501 0.00000000E+00 0.00000000E+00 -.98335056E+02 0.98337916E+02 0.75000000E+00 0.0000E+00 0.9000E+01
       25  2    1    2    0    0 0.45385710E+02 0.51609844E+02 0.12481525E+04 0.12855626E+04 0.30010511E+03 0.0000E+00 0.0000E+00
       23  2    1    2    0    0 -.68671390E+02 -.70974348E+02 -.22648074E+02 0.13590834E+03 0.90581589E+02 0.0000E+00 0.0000E+00
       23  1    3    3    0    0 -.72620411E+01 0.13886610E+03 0.79596159E+03 0.81314613E+03 0.91188000E+02 0.0000E+00 0.9000E+01
      -11  1    4    4    0    0 0.78612940E+01 0.13365459E+02 -.15300046E+02 0.21783637E+02 0.51099893E-03 0.0000E+00 0.9000E+01
       11  1    4    4    0    0 -.76532684E+02 -.84339807E+02 -.73480280E+01 0.11412471E+03 0.51099893E-03 0.0000E+00 0.9000E+01
       23  1    3    3    0    0 0.52647751E+02 -.87256255E+02 0.45219094E+03 0.47241649E+03 0.91188000E+02 0.0000E+00 0.9000E+01
        1  1    1    2  502    0 0.23285681E+02 0.19364504E+02 0.64884731E+03 0.64955381E+03 0.32000000E+00 0.0000E+00 0.9000E+01
#aMCatNLO 2  0  0  2  1 0.30285425D+02 0.00000000D+00  -5  7  0 0.00000000D+00 0.00000000D+00 0.00000000D+00 0.00000000D+00 0.00000000D+00
  <mgrwgt>
 0.3112439938D-04    1    2    0
 0.359792064412951D+03 0.000000000000000D+00 0.000000000000000D+00 0.359792064412951D+03
 0.359792064412951D+03 0.000000000000000D+00 0.000000000000000D+00 -.359792064412951D+03
 0.254215047330944D+03 0.900473017377315D+00 0.145654092152173D+03 0.187334229475410D+03
 0.697026937570806D+02 0.101049498056497D+02 0.152312957880969D+02 -.672633862887839D+02
 0.233210648827185D+03 -.689159909170382D+02 -.780057215625371D+02 -.208693316437847D+03
 0.162455738910692D+03 0.579105680940112D+02 -.828796663777327D+02 0.886224732512212D+02
 0.000000000000000D+00 0.000000000000000D+00 0.000000000000000D+00 0.000000000000000D+00
 0.536752728703399D+03 0.000000000000000D+00 0.000000000000000D+00 0.536752728703399D+03
 0.361408696637354D+03 0.000000000000000D+00 0.000000000000000D+00 -.361408696637354D+03
 0.250491308460001D+03 -.726204113585568D+01 0.138866099158142D+03 0.187334229475410D+03
 0.690275203889450D+02 0.786129401757591D+01 0.133654589289438D+02 -.672633862887839D+02
 0.237746409386178D+03 -.765326844837502D+02 -.843398070658429D+02 -.208693316437847D+03
 0.162955925992816D+03 0.526477508341821D+02 -.872562550142663D+02 0.886224732512212D+02
 0.177940261112813D+03 0.232856807678478D+02 0.193645039930234D+02 0.175344032066045D+03
0.145328565050D-06 0.000000000000D+00 0.000000000000D+00 0.844429922149D-06 0.755558700141D-11  7 1 21 23 -11 11 23 1 2 0.30349038D+00 0.15128686D-01 0.53526994D+05 0.53526994D+05 0.53526994D+05 0.11447006D+01  1  2  1  4  7  2       -1 0.311243993814D-04 0.100000000000D+01
  </mgrwgt>
  </event>
  <event>
  8     66 0.56006291E-06 0.26971758E+03 0.75467711E-02 0.90616163E-01
        1 -1    0    0  501    0 0.00000000E+00 0.00000000E+00 0.81656803E+03 0.81656809E+03 0.32000000E+00 0.0000E+00 0.9000E+01
       -1 -1    0    0    0  501 0.00000000E+00 0.00000000E+00 -.11493492E+03 0.11493536E+03 0.32000000E+00 0.0000E+00 0.9000E+01
       25  2    1    2    0    0 0.12970735E+02 0.19813876E+03 0.56409898E+03 0.66778770E+03 0.29716248E+03 0.0000E+00 0.0000E+00
       23  2    1    2    0    0 -.12970735E+02 -.19813876E+03 0.13753413E+03 0.26371576E+03 0.10584497E+03 0.0000E+00 0.0000E+00
       23  1    3    3    0    0 -.41271096E+02 0.18120170E+03 0.50358844E+03 0.54447583E+03 0.91188000E+02 0.0000E+00 0.9000E+01
      -13  1    4    4    0    0 -.19648061E+02 0.61468269E+01 0.13838257E+02 0.24806013E+02 0.10565837E+00 0.0000E+00 0.9000E+01
       13  1    4    4    0    0 0.66773256E+01 -.20428558E+03 0.12369587E+03 0.23890974E+03 0.10565837E+00 0.0000E+00 0.9000E+01
       23  1    3    3    0    0 0.54241831E+02 0.16937053E+02 0.60510547E+02 0.12331187E+03 0.91188000E+02 0.0000E+00 0.9000E+01
#aMCatNLO 1  0  0  1  1 0.64518992D+03 0.00000000D+00  -5  7  0 0.00000000D+00 0.00000000D+00 0.00000000D+00 0.00000000D+00 0.00000000D+00
  <mgrwgt>
 0.2817331233D-03    5    2    0
 0.306353415425591D+03 0.000000000000000D+00 0.000000000000000D+00 0.306353415425591D+03
 0.306353415425591D+03 0.000000000000000D+00 0.000000000000000D+00 -.306353415425591D+03
 0.251093751356423D+03 -.412710887282460D+02 0.181201813261198D+03 0.142110593314785D+03
 0.218657634133519D+02 -.196479796996675D+02 0.614688200075634D+01 -.736779105559534D+01
 0.221568072273826D+03 0.667723408745172D+01 -.204285800123057D+03 -.855285745477078D+02
 0.118179243807581D+03 0.542418343404618D+02 0.169371048611035D+02 -.492142277114819D+02
 0.000000000000000D+00 -.000000000000000D+00 0.000000000000000D+00 0.000000000000000D+00
 0.200164628802194D+04 0.000000000000000D+00 0.000000000000000D+00 0.200164628802194D+04
 0.511730513112567D+03 0.000000000000000D+00 0.000000000000000D+00 -.511730513112567D+03
 0.175822109471447D+03 0.449971551987152D+02 0.194421739199092D+02 0.142110593314785D+03
 0.163058418036039D+02 -.119345221964623D+02 -.831644826998849D+01 -.736779105559534D+01
 0.514876711665056D+03 0.155492970603724D+03 -.483326832737112D+03 -.855285745477078D+02
 0.182759177227062D+03 0.115053416890867D+03 -.970893226323647D+02 -.492142277114819D+02
 0.162361296096734D+04 -.303609020496843D+03 0.569290429719556D+03 0.148991577490938D+04
0.457558744661D-05 0.000000000000D+00 0.000000000000D+00 0.166724180413D-09 0.000000000000D+00  7 1 -1 23 -13 13 23 21 0 0.12562589D+00 0.17682334D-01 0.72747572D+05 0.72747572D+05 0.72747572D+05 0.11332410D+01  1  2  2  1  7  1        1 0.278796791603D-03 0.100000000000D+01
-.249185708826D-06 0.000000000000D+00 -.175714605748D-07 0.166724180413D-09 0.000000000000D+00  7 1 -1 23 -13 13 23 21 2 0.12562589D+00 0.17682334D-01 0.72747572D+05 0.72747572D+05 0.72747572D+05 0.11332410D+01  1  2  3  1  7  1        1 -.194988304255D-04 0.100000000000D+01
0.286738388311D-06 0.000000000000D+00 0.000000000000D+00 0.166724180413D-09 0.000000000000D+00  7 1 -1 23 -13 13 23 21 2 0.12562589D+00 0.17682334D-01 0.72747572D+05 0.72747572D+05 0.72747572D+05 0.11332410D+01  1  2 15  1  7  1        1 0.224373349359D-04 0.100000000000D+01
-.525837136158D-06 0.000000000000D+00 -.229732049164D-05 0.166724180413D-09 0.000000000000D+00  7 1 -1 23 -13 13 23 21 2 0.84857132D+00 0.17682334D-01 0.72747572D+05 0.72747572D+05 0.72747572D+05 0.11332410D+01  1  2  5  1  7  1        1 -.214095044726D-08 0.100000000000D+01
-.323192759516D-06 0.000000000000D+00 -.537042330075D-06 0.166724180413D-09 0.000000000000D+00  7 21 -1 23 -13 13 23 -1 2 0.84857132D+00 0.17682334D-01 0.72747572D+05 0.72747572D+05 0.72747572D+05 0.11332410D+01  1  2  5  3  7  1        1 -.318375863107D-10 0.100000000000D+01
  </mgrwgt>
  </event>
  <event>
  8     66 0.56006291E-06 0.12985264E+03 0.75467711E-02 0.96750411E-01
        1 -1    0    0  501    0 0.00000000E+00 0.00000000E+00 0.11732692E+04 0.11732692E+04 0.32000000E+00 0.0000E+00 0.9000E+01
       -1 -1    0    0    0  501 0.00000000E+00 0.00000000E+00 -.75357528E+02 0.75358208E+02 0.32000000E+00 0.0000E+00 0.9000E+01
       25  2    1    2    0    0 0.79192794E+02 0.18467731E+03 0.62079203E+03 0.71769914E+03 0.29888476E+03 0.0000E+00 0.0000E+00
       23  2    1    2    0    0 -.79192794E+02 -.18467731E+03 0.47711964E+03 0.53092831E+03 0.11774766E+03 0.0000E+00 0.0000E+00
       23  1    3    3    0    0 0.73703485E+01 0.19247316E+03 0.24703268E+03 0.32625241E+03 0.91188000E+02 0.0000E+00 0.9000E+01
      -11  1    4    4    0    0 -.93972974E+02 -.80123937E+02 0.20890657E+03 0.24267822E+03 0.51099893E-03 0.0000E+00 0.9000E+01
       11  1    4    4    0    0 0.14780180E+02 -.10455337E+03 0.26821307E+03 0.28825009E+03 0.51099893E-03 0.0000E+00 0.9000E+01
       23  1    3    3    0    0 0.71822446E+02 -.77958459E+01 0.37375936E+03 0.39144674E+03 0.91188000E+02 0.0000E+00 0.9000E+01
#aMCatNLO 1  0  0  2  1 0.23193399D+03 0.00000000D+00  -5  7  0 0.00000000D+00 0.00000000D+00 0.00000000D+00 0.00000000D+00 0.00000000D+00
  <mgrwgt>
 0.8229787447D-04    7    2    0
 0.297346798583079D+03 0.000000000000000D+00 0.000000000000000D+00 0.297346798583079D+03
 0.297346798583079D+03 0.000000000000000D+00 0.000000000000000D+00 -.297346798583079D+03
 0.228937480567322D+03 0.737034955941869D+01 0.192473159800774D+03 -.836473512323647D+02
 0.123851559741337D+03 -.939729693829851D+02 -.801239409856684D+02 -.940446471797053D+01
 0.110044418488283D+03 0.147801734857824D+02 -.104553374353706D+03 0.309824534762550D+02
 0.131860138369217D+03 0.718224463377840D+02 -.779584446139997D+01 0.620693624740802D+02
 0.000000000000000D+00 0.000000000000000D+00 -.000000000000000D+00 -.000000000000000D+00
 0.356436433612519D+03 0.000000000000000D+00 0.000000000000000D+00 0.356436433612519D+03
 0.679939339434397D+03 0.000000000000000D+00 0.000000000000000D+00 -.679939339434397D+03
 0.251811063371726D+03 -.824174554949767D+02 0.203233963583705D+03 -.836473512323647D+02
 0.165608612521808D+03 -.148034482092361D+03 -.736448280357354D+02 -.940446471797053D+01
 0.107541815405901D+03 -.258576830355010D+02 -.996830470311981D+02 0.309824534762550D+02
 0.113359628222685D+03 0.260235669114752D+02 -.230698375602879D+01 0.620693624740802D+02
 0.398054653524797D+03 0.230286053711364D+03 -.275991047607423D+02 -.323502905821878D+03
0.169078535074D-05 0.000000000000D+00 0.000000000000D+00 0.849146208344D-09 0.000000000000D+00  7 1 -1 23 -11 11 23 21 0 0.18050301D+00 0.11593521D-01 0.77990009D+05 0.77990009D+05 0.77990009D+05 0.11306906D+01  1  2  2  2  7  2       -1 0.106768572370D-03 0.100000000000D+01
-.934830878248D-07 0.000000000000D+00 -.649306094086D-08 0.849146208344D-09 0.000000000000D+00  7 1 -1 23 -11 11 23 21 2 0.18050301D+00 0.11593521D-01 0.77990009D+05 0.77990009D+05 0.77990009D+05 0.11306906D+01  1  2  3  2  7  2       -1 -.754702188706D-05 0.100000000000D+01
0.106798464395D-06 0.000000000000D+00 0.000000000000D+00 0.849146208344D-09 0.000000000000D+00  7 1 -1 23 -11 11 23 21 2 0.18050301D+00 0.11593521D-01 0.77990009D+05 0.77990009D+05 0.77990009D+05 0.11306906D+01  1  2 15  2  7  2       -1 0.862199106865D-05 0.100000000000D+01
0.723140596712D-07 0.000000000000D+00 0.000000000000D+00 0.849146208344D-09 0.000000000000D+00  7 1 -1 23 -11 11 23 21 2 0.18050301D+00 0.26261654D-01 0.17331661D+06 0.17331661D+06 0.17331661D+06 0.11026339D+01  1  2 12  2  7  2       -1 0.148658985582D-05 0.100000000000D+01
-.939351974313D-06 0.000000000000D+00 -.526409429218D-06 0.849146208344D-09 0.000000000000D+00  7 1 -1 23 -11 11 23 21 2 0.18050301D+00 0.31504922D-01 0.77990009D+05 0.77990009D+05 0.77990009D+05 0.11306906D+01  1  2  5  2  7  2       -1 -.153518548917D-04 0.100000000000D+01
0.642483072809D-08 0.000000000000D+00 0.000000000000D+00 0.849146208344D-09 0.000000000000D+00  7 1 21 23 -11 11 23 1 2 0.18050301D+00 0.26261654D-01 0.17331661D+06 0.17331661D+06 0.17331661D+06 0.11026339D+01  1  2 12  4  7  2       -1 0.147146165421D-05 0.100000000000D+01
-.744368344262D-07 0.000000000000D+00 -.587701986358D-07 0.849146208344D-09 0.000000000000D+00  7 1 21 23 -11 11 23 1 2 0.18050301D+00 0.31504922D-01 0.77990009D+05 0.77990009D+05 0.77990009D+05 0.11306906D+01  1  2  5  4  7  2       -1 -.131518637033D-04 0.100000000000D+01
  </mgrwgt>
  </event>
  <event>
  7     66 0.56006291E-06 0.30917789E+03 0.75467711E-02 0.95540576E-01
        1 -1    0    0  501    0 0.00000000E+00 0.00000000E+00 0.23679725E+04 0.23679725E+04 0.32000000E+00 0.0000E+00 0.9000E+01
       -1 -1    0    0    0  501 0.00000000E+00 0.00000000E+00 -.22193743E+03 0.22193766E+03 0.32000000E+00 0.0000E+00 0.9000E+01
       25  2    1    2    0    0 -.28413856E+02 -.14983495E+03 0.61337550E+03 0.69964404E+03 0.30002405E+03 0.0000E+00 0.0000E+00
       23  1    3    3    0    0 -.96816226E+01 -.69444382E+02 0.54304333E+02 0.12720247E+03 0.91188000E+02 0.0000E+00 0.9000E+01
      -11  1    1    2    0    0 0.16764835E+03 0.17102449E+03 -.94179331E+02 0.25734236E+03 0.51099893E-03 0.0000E+00 0.9000E+01
       11  1    1    2    0    0 -.13923449E+03 -.21189540E+02 0.16268389E+04 0.16329237E+04 0.51099893E-03 0.0000E+00 0.9000E+01
       23  1    3    3    0    0 -.18732233E+02 -.80390572E+02 0.55907116E+03 0.57244158E+03 0.91188000E+02 0.0000E+00 0.9000E+01
#aMCatNLO 1  0  0  2  2 0.27556687D+03 0.00000000D+00  -5  7  0 0.00000000D+00 0.00000000D+00 0.00000000D+00 0.00000000D+00 0.00000000D+00
  <mgrwgt>
 0.1709318091D-01    4    2    0
 0.724942789997899D+03 0.000000000000000D+00 0.000000000000000D+00 0.724942789997899D+03
 0.724942789997899D+03 0.000000000000000D+00 0.000000000000000D+00 -.724942789997899D+03
 0.146842034702336D+03 -.968172625261747D+01 -.694449288600389D+02 -.912743000187646D+02
 0.599085761565130D+03 0.167648352782212D+03 0.171025110018864D+03 -.549134037610598D+03
 0.508917066113517D+03 -.139234255320047D+03 -.211888824929536D+02 0.489041341387169D+03
 0.195040717614815D+03 -.187323712095475D+02 -.803912986658718D+02 0.151366996242194D+03
 0.000000000000000D+00 -.000000000000000D+00 -.000000000000000D+00 0.000000000000000D+00
 0.121206030762765D+04 0.000000000000000D+00 0.000000000000000D+00 0.121206030762765D+04
 0.777959651121317D+03 0.000000000000000D+00 0.000000000000000D+00 -.777959651121317D+03
 0.139694873660617D+03 0.112178818143910D+02 -.523695299457494D+02 -.912743000187646D+02
 0.655051217811110D+03 0.259123379441270D+03 0.245762041251770D+03 -.549134037610598D+03
 0.494986483601091D+03 -.660109109139669D+02 0.386360583175842D+02 0.489041341387169D+03
 0.186107962479481D+03 0.906808938290816D+01 -.576777648476697D+02 0.151366996242194D+03
 0.514179421196666D+03 -.213398439724602D+03 -.174350804775935D+03 0.434100656506331D+03
0.944364923420D-02 0.000000000000D+00 0.000000000000D+00 0.161687340852D-09 0.000000000000D+00  7 1 -1 23 -11 11 23 21 0 0.36430347D+00 0.34144240D-01 0.95590971D+05 0.95590971D+05 0.95590971D+05 0.11233326D+01  1  2  2  2  7  2       -1 0.168579453442D-01 0.100000000000D+01
-.614057866997D-04 0.000000000000D+00 -.362660996293D-04 0.161687340852D-09 0.000000000000D+00  7 1 -1 23 -11 11 23 21 2 0.36430347D+00 0.34144240D-01 0.95590971D+05 0.95590971D+05 0.95590971D+05 0.11233326D+01  1  2  3  2  7  2       -1 -.138321863636D-03 0.100000000000D+01
0.585839009177D-03 0.000000000000D+00 0.000000000000D+00 0.161687340852D-09 0.000000000000D+00  7 1 -1 23 -11 11 23 21 2 0.36430347D+00 0.34144240D-01 0.95590971D+05 0.95590971D+05 0.95590971D+05 0.11233326D+01  1  2 15  2  7  2       -1 0.131965321015D-02 0.100000000000D+01
-.420004143156D-03 0.000000000000D+00 0.000000000000D+00 0.161687340852D-09 0.000000000000D+00  7 1 -1 23 -11 11 23 21 2 0.36430347D+00 0.34144240D-01 0.95590971D+05 0.95590971D+05 0.95590971D+05 0.11233326D+01  1  2  4  2  7  2       -1 -.946095782474D-03 0.100000000000D+01
  </mgrwgt>
  </event>
  <event>
  8     66 0.56006291E-06 0.66550932E+03 0.75467711E-02 0.87516864E-01
        3 -1    0    0  501    0 0.00000000E+00 0.00000000E+00 0.18109031E+04 0.18109032E+04 0.50000000E+00 0.0000E+00 0.9000E+01
       -3 -1    0    0    0  501 0.00000000E+00 0.00000000E+00 -.26436375E+03 0.26436422E+03 0.50000000E+00 0.0000E+00 0.9000E+01
       25  2    1    2    0    0 0.36315800E+03 0.51963953E+03 0.10514944E+04 0.12657178E+04 0.30739567E+03 0.0000E+00 0.0000E+00
       23  2    1    2    0    0 -.36315800E+03 -.51963953E+03 0.49504492E+03 0.80954957E+03 0.91608174E+02 0.0000E+00 0.0000E+00
       23  1    3    3    0    0 0.99900352E+02 0.32545618E+03 0.65389368E+03 0.74282838E+03 0.91188000E+02 0.0000E+00 0.9000E+01
      -11  1    4    4    0    0 -.19961979E+03 -.35275489E+03 0.34099437E+03 0.52968031E+03 0.51099893E-03 0.0000E+00 0.9000E+01
       11  1    4    4    0    0 -.16353821E+03 -.16688464E+03 0.15405055E+03 0.27986926E+03 0.51099893E-03 0.0000E+00 0.9000E+01
       23  1    3    3    0    0 0.26325765E+03 0.19418334E+03 0.39760077E+03 0.52288946E+03 0.91188000E+02 0.0000E+00 0.9000E+01
#aMCatNLO 1  0  0  2  2 0.53409640D+03 0.00000000D+00  -5  7  0 0.00000000D+00 0.00000000D+00 0.00000000D+00 0.00000000D+00 0.00000000D+00
  <mgrwgt>
 0.2931072397D-05    3    2    0
 0.691908732438510D+03 0.000000000000000D+00 0.000000000000000D+00 0.691908732438510D+03
 0.691908732438510D+03 0.000000000000000D+00 0.000000000000000D+00 -.691908732438510D+03
 0.383211818028971D+03 0.999003517111747D+02 0.325456183527055D+03 0.150446796127591D+03
 0.413253252816206D+03 -.199619793373389D+03 -.352754887710337D+03 -.805864644540730D+02
 0.247545871318528D+03 -.163538206882774D+03 -.166884638580675D+03 -.817540867615407D+02
 0.339806522713316D+03 0.263257648544988D+03 0.194183342763958D+03 0.118937550880224D+02
 0.000000000000000D+00 0.000000000000000D+00 -.000000000000000D+00 0.000000000000000D+00
 0.143444644449478D+04 0.000000000000000D+00 0.000000000000000D+00 0.143444644449478D+04
 0.844593480863402D+03 0.000000000000000D+00 0.000000000000000D+00 -.844593480863402D+03
 0.437590450040036D+03 -.340305086535875D+02 0.399221538294168D+03 0.150446796127591D+03
 0.444767814300534D+03 -.339623670312451D+03 -.275644686050658D+03 -.805864644540730D+02
 0.289557526321990D+03 -.251177730979196D+03 -.118615251159534D+03 -.817540867615407D+02
 0.311394607620170D+03 0.157000720355388D+03 0.252706673257187D+03 0.118937550880224D+02
 0.795729527075452D+03 0.467831189589846D+03 -.257668274341163D+03 0.589852963631377D+03
0.475039519309D-04 0.000000000000D+00 0.000000000000D+00 0.859181759833D-08 0.000000000000D+00  7 3 -3 23 -11 11 23 21 0 0.27860052D+00 0.40671387D-01 0.44290266D+06 0.44290266D+06 0.44290266D+06 0.10722523D+01  1  2  2  2  7  2       -3 0.291332905095D-05 0.100000000000D+01
-.263425254434D-05 0.000000000000D+00 -.182427683492D-06 0.859181759833D-08 0.000000000000D+00  7 3 -3 23 -11 11 23 21 2 0.27860052D+00 0.40671387D-01 0.44290266D+06 0.44290266D+06 0.44290266D+06 0.10722523D+01  1  2  3  2  7  2       -3 -.185742441392D-06 0.100000000000D+01
0.288589376078D-05 0.000000000000D+00 0.000000000000D+00 0.859181759833D-08 0.000000000000D+00  7 3 -3 23 -11 11 23 21 2 0.27860052D+00 0.40671387D-01 0.44290266D+06 0.44290266D+06 0.44290266D+06 0.10722523D+01  1  2 15  2  7  2       -3 0.203485787221D-06 0.100000000000D+01
  </mgrwgt>
  </event>
  <event>
  9     66 0.56006291E-06 0.21034789E+03 0.75467711E-02 0.10069117E+00
        1 -1    0    0  502    0 0.00000000E+00 0.00000000E+00 0.29444121E+03 0.29444138E+03 0.32000000E+00 0.0000E+00 0.9000E+01
       -1 -1    0    0    0  501 0.00000000E+00 0.00000000E+00 -.61355390E+03 0.61355398E+03 0.32000000E+00 0.0000E+00 0.9000E+01
       25  2    1    2    0    0 -.14839149E+03 0.11828532E+03 -.43844584E+02 0.35801851E+03 0.30040548E+03 0.0000E+00 0.0000E+00
       23  2    1    2    0    0 -.18344595E+02 -.10072119E+03 -.34268034E+03 0.36927159E+03 0.91926108E+02 0.0000E+00 0.0000E+00
       23  1    3    3    0    0 0.14785674E+02 0.46080591E+02 0.72643957E+02 0.12623166E+03 0.91188000E+02 0.0000E+00 0.9000E+01
      -11  1    4    4    0    0 -.49124238E+02 -.87824413E+02 -.28946522E+03 0.30645788E+03 0.51099893E-03 0.0000E+00 0.9000E+01
       11  1    4    4    0    0 0.30779643E+02 -.12896781E+02 -.53215123E+02 0.62813714E+02 0.51099893E-03 0.0000E+00 0.9000E+01
       23  1    3    3    0    0 -.16317716E+03 0.72204733E+02 -.11648854E+03 0.23178684E+03 0.91188000E+02 0.0000E+00 0.9000E+01
       21  1    1    2  502  501 0.16673608E+03 -.17564130E+02 0.67412237E+02 0.18070526E+03 0.75000000E+00 0.0000E+00 0.9000E+01
#aMCatNLO 2  0  0  1  2 0.16765864D+03 0.00000000D+00  -5  7  0 0.00000000D+00 0.00000000D+00 0.00000000D+00 0.00000000D+00 0.00000000D+00
  <mgrwgt>
 0.4639313523D-04    2    2    0
 0.296411855199998D+03 0.000000000000000D+00 0.000000000000000D+00 0.296411855199998D+03
 0.296411855199998D+03 0.000000000000000D+00 0.000000000000000D+00 -.296411855199998D+03
 0.205021622927483D+03 0.699024457367124D+02 0.402745404340369D+02 0.164955218155329D+03
 0.176022034780628D+03 0.311553930818675D-02 -.929995334904042D+02 -.149448464325242D+03
 0.514038458813993D+02 0.434920357415850D+02 -.142359158654396D+02 -.234123236335795D+02
 0.160376206810486D+03 -.113397597017606D+03 0.669609089218069D+02 0.790556980349216D+01
 0.000000000000000D+00 0.000000000000000D+00 -.000000000000000D+00 0.000000000000000D+00
 0.532325236496827D+03 0.000000000000000D+00 0.000000000000000D+00 0.532325236496827D+03
 0.339369818708850D+03 0.000000000000000D+00 0.000000000000000D+00 -.339369818708850D+03
 0.194595766650140D+03 0.147856743915363D+02 0.460805912534886D+02 0.164955218155329D+03
 0.180169813828105D+03 -.491242377411218D+02 -.878244134169695D+02 -.149448464325242D+03
 0.407657979278247D+02 0.307796430497436D+02 -.128967808579948D+02 -.234123236335795D+02
 0.200544404756018D+03 -.163177159519873D+03 0.722047333078217D+02 0.790556980349216D+01
 0.255619272043590D+03 0.166736079819714D+03 -.175641302863461D+02 0.192955417787977D+03
-.227199193762D-06 0.000000000000D+00 0.000000000000D+00 0.394221545206D-06 0.000000000000D+00  7 1 -1 23 -11 11 23 21 2 0.45864277D-01 0.82444397D-01 0.91591956D+05 0.91591956D+05 0.91591956D+05 0.11248656D+01  1  2 13  1  7  1        1 -.486617370294D-05 0.100000000000D+01
0.312510104749D-05 0.000000000000D+00 0.000000000000D+00 0.394221545206D-06 0.112588627344D-09  7 1 -1 23 -11 11 23 21 2 0.45298598D-01 0.94392784D-01 0.91591956D+05 0.91591956D+05 0.91591956D+05 0.11248656D+01  1  2  1  1  7  1        1 0.512593089302D-04 0.100000000000D+01
  </mgrwgt>
  </event>
  <event>
  9     66 0.56006291E-06 0.31123401E+03 0.75467711E-02 0.95937240E-01
        1 -1    0    0  501    0 0.00000000E+00 0.00000000E+00 0.64131577E+03 0.64131585E+03 0.32000000E+00 0.0000E+00 0.9000E+01
       -1 -1    0    0    0  502 0.00000000E+00 0.00000000E+00 -.43108398E+03 0.43108410E+03 0.32000000E+00 0.0000E+00 0.9000E+01
       25  2    1    2    0    0 0.16341952E+03 0.96745473E+02 0.35697831E+02 0.35502775E+03 0.29783341E+03 0.0000E+00 0.0000E+00
       23  2    1    2    0    0 -.37093566E+03 0.23012780E+02 0.26116290E+03 0.46259755E+03 0.87564729E+02 0.0000E+00 0.0000E+00
       23  1    3    3    0    0 0.11992749E+03 0.83980156E+02 -.88952530E+02 0.19406977E+03 0.91188000E+02 0.0000E+00 0.9000E+01
      -13  1    4    4    0    0 -.10026851E+03 0.37999263E+02 0.10334684E+03 0.14892380E+03 0.10565837E+00 0.0000E+00 0.9000E+01
       13  1    4    4    0    0 -.27066715E+03 -.14986482E+02 0.15781606E+03 0.31367375E+03 0.10565837E+00 0.0000E+00 0.9000E+01
       23  1    3    3    0    0 0.43492033E+02 0.12765317E+02 0.12465036E+03 0.16095799E+03 0.91188000E+02 0.0000E+00 0.9000E+01
       21  1    1    2  501  502 0.20751614E+03 -.11975825E+03 -.86628939E+02 0.25477465E+03 0.75000000E+00 0.0000E+00 0.9000E+01
#aMCatNLO 2  0  0  2  1 0.23959338D+03 0.00000000D+00  -5  7  0 0.00000000D+00 0.00000000D+00 0.00000000D+00 0.00000000D+00 0.00000000D+00
  <mgrwgt>
 0.4599872342D-04    2    2    0
 0.361586732218720D+03 0.000000000000000D+00 0.000000000000000D+00 0.361586732218720D+03
 0.361586732218720D+03 0.000000000000000D+00 0.000000000000000D+00 -.361586732218720D+03
 0.276437737999228D+03 0.192506669105529D+03 0.420944710864126D+02 -.171090062540111D+03
 0.908856093109878D+02 -.708603988658224D+02 0.210279640478225D+02 0.528849939057343D+02
 0.214672269040845D+03 -.202218895745775D+03 -.544884192164838D+02 0.471456622585026D+02
 0.141177848086380D+03 0.805726255060688D+02 -.863401591775127D+01 0.710594063758745D+02
 0.000000000000000D+00 0.000000000000000D+00 -.000000000000000D+00 -.000000000000000D+00
 0.438384279248438D+03 0.000000000000000D+00 0.000000000000000D+00 0.438384279248438D+03
 0.630635138743727D+03 0.000000000000000D+00 0.000000000000000D+00 -.630635138743727D+03
 0.242945118757286D+03 0.119927492002421D+03 0.839801556680026D+02 -.171090062540111D+03
 0.119559594545135D+03 -.100268261529132D+03 0.379993394325866D+02 0.528849939057343D+02
 0.275151144813673D+03 -.270667401199744D+03 -.149865589866108D+02 0.471456622585026D+02
 0.124174074680326D+03 0.434920327475681D+02 0.127653175325923D+02 0.710594063758745D+02
 0.307189485195745D+03 0.207516137978888D+03 -.119758253646571D+03 -.192250859495290D+03
-.400383040404D-06 0.000000000000D+00 0.000000000000D+00 0.353419067579D-08 0.000000000000D+00  7 1 -1 23 -13 13 23 21 2 0.81379633D-01 0.67845830D-01 0.19901323D+06 0.19901323D+06 0.19901323D+06 0.10979904D+01  1  2 13  2  7  2       -1 -.543882112968D-05 0.100000000000D+01
0.478269810188D-05 0.000000000000D+00 0.000000000000D+00 0.353419067579D-08 0.543548703944D-12  7 1 -1 23 -13 13 23 21 2 0.98663885D-01 0.66320564D-01 0.19901323D+06 0.19901323D+06 0.19901323D+06 0.10979904D+01  1  2  1  2  7  2       -1 0.514375445494D-04 0.100000000000D+01
  </mgrwgt>
  </event>
  <event>
  8     66 0.56006291E-06 0.22089878E+03 0.75467711E-02 0.90252703E-01
        3 -1    0    0  501    0 0.00000000E+00 0.00000000E+00 0.17428855E+03 0.17428927E+03 0.50000000E+00 0.0000E+00 0.9000E+01
       -3 -1    0    0    0  501 0.00000000E+00 0.00000000E+00 -.39749415E+03 0.39749446E+03 0.50000000E+00 0.0000E+00 0.9000E+01
       25  2    1    2    0    0 -.55084926E+02 -.14644994E+03 -.11746225E+03 0.35809834E+03 0.29992517E+03 0.0000E+00 0.0000E+00
       23  2    1    2    0    0 0.55084926E+02 0.14644994E+03 -.10574335E+03 0.21368539E+03 0.99989275E+02 0.0000E+00 0.0000E+00
       23  1    3    3    0    0 -.80555418E+02 -.88103271E+02 0.48905345E+02 0.15798211E+03 0.91188000E+02 0.0000E+00 0.9000E+01
      -13  1    4    4    0    0 0.77609957E+02 0.13339043E+03 -.10671766E+03 0.18762990E+03 0.10565837E+00 0.0000E+00 0.9000E+01
       13  1    4    4    0    0 -.22525031E+02 0.13059513E+02 0.97430558E+00 0.26055486E+02 0.10565837E+00 0.0000E+00 0.9000E+01
       23  1    3    3    0    0 0.25470491E+02 -.58346671E+02 -.16636759E+03 0.20011623E+03 0.91188000E+02 0.0000E+00 0.9000E+01
#aMCatNLO 1  0  0  1  1 0.69384410D+03 0.00000000D+00  -5  7  0 0.00000000D+00 0.00000000D+00 0.00000000D+00 0.00000000D+00 0.00000000D+00
  <mgrwgt>
 0.4986319673D-04    3    2    0
 0.263208991828837D+03 0.000000000000000D+00 0.000000000000000D+00 0.263208991828837D+03
 0.263208991828837D+03 0.000000000000000D+00 0.000000000000000D+00 -.263208991828837D+03
 0.192333098218451D+03 -.805554751811992D+02 -.881034236628289D+02 0.120105667990846D+03
 0.158550532464147D+03 0.776099331595285D+02 0.133390723291892D+03 -.363577303926386D+02
 0.287136815080444D+02 -.225249055420036D+02 0.130594874193531D+02 0.121059458289298D+02
 0.146820671467033D+03 0.254704475636743D+02 -.583467870484161D+02 -.958538834271377D+02
 0.000000000000000D+00 0.000000000000000D+00 -.000000000000000D+00 -.000000000000000D+00
 0.697128575695174D+03 0.000000000000000D+00 0.000000000000000D+00 0.697128575695174D+03
 0.895438535015213D+03 0.000000000000000D+00 0.000000000000000D+00 -.895438535015213D+03
 0.246596363211245D+03 -.156845734409720D+03 0.116054121507856D+03 0.120105667990846D+03
 0.391201294706158D+03 -.179423436677435D+02 0.389094642374036D+03 -.363577303926386D+02
 0.740221340184564D+02 -.403814011461969D+02 0.608445958298949D+02 0.121059458289298D+02
 0.159119660792045D+03 -.277049924728186D+02 0.839540441586532D+02 -.958538834271377D+02
 0.721627657982483D+03 0.242874471696479D+03 -.649947403870440D+03 -.198309959320039D+03
0.344040365507D-05 0.000000000000D+00 0.000000000000D+00 0.818787770348D-08 0.000000000000D+00  7 3 -3 23 -13 13 23 21 0 0.26813703D-01 0.61153025D-01 0.48796272D+05 0.48796272D+05 0.48796272D+05 0.11482275D+01  1  2  2  1  7  1        3 0.491447658753D-04 0.100000000000D+01
-.183996736077D-06 0.000000000000D+00 -.132120559146D-07 0.818787770348D-08 0.000000000000D+00  7 3 -3 23 -13 13 23 21 2 0.26813703D-01 0.61153025D-01 0.48796272D+05 0.48796272D+05 0.48796272D+05 0.11482275D+01  1  2  3  1  7  1        3 -.346524421307D-05 0.100000000000D+01
0.222143811616D-06 0.000000000000D+00 0.000000000000D+00 0.818787770348D-08 0.000000000000D+00  7 3 -3 23 -13 13 23 21 2 0.26813703D-01 0.61153025D-01 0.48796272D+05 0.48796272D+05 0.48796272D+05 0.11482275D+01  1  2 15  1  7  1        3 0.418367506992D-05 0.100000000000D+01
  </mgrwgt>
  </event>
  <event>
  8     66 0.56006291E-06 0.31834300E+03 0.75467711E-02 0.93837823E-01
        1 -1    0    0  501    0 0.00000000E+00 0.00000000E+00 0.15509940E+04 0.15509940E+04 0.32000000E+00 0.0000E+00 0.9000E+01
       -1 -1    0    0    0  501 0.00000000E+00 0.00000000E+00 -.20072681E+03 0.20072706E+03 0.32000000E+00 0.0000E+00 0.9000E+01
       25  2    1    2    0    0 -.31090795E+03 0.36569025E+03 0.43398542E+03 0.71331765E+03 0.30014265E+03 0.0000E+00 0.0000E+00
       23  2    1    2    0    0 0.31090795E+03 -.36569025E+03 0.91628174E+03 0.10384034E+04 0.91193847E+02 0.0000E+00 0.0000E+00
       23  1    3    3    0    0 -.11804312E+03 0.12218960E+03 0.29234077E+02 0.19502400E+03 0.91188000E+02 0.0000E+00 0.9000E+01
      -11  1    4    4    0    0 0.78177004E+01 0.35331398E+01 0.62447192E+01 0.10611128E+02 0.51099893E-03 0.0000E+00 0.9000E+01
       11  1    4    4    0    0 0.30309025E+03 -.36922339E+03 0.91003702E+03 0.10277923E+04 0.51099893E-03 0.0000E+00 0.9000E+01
       23  1    3    3    0    0 -.19286483E+03 0.24350065E+03 0.40475134E+03 0.51829365E+03 0.91188000E+02 0.0000E+00 0.9000E+01
#aMCatNLO 1  0  0  2  1 0.66238994D+02 0.00000000D+00  -5  7  0 0.00000000D+00 0.00000000D+00 0.00000000D+00 0.00000000D+00 0.00000000D+00
  <mgrwgt>
 0.4195054243D-03    6    2    0
 0.557966237450595D+03 0.000000000000000D+00 0.000000000000000D+00 0.557966237450595D+03
 0.557966237450595D+03 0.000000000000000D+00 0.000000000000000D+00 -.557966237450595D+03
 0.270763539783423D+03 -.118043118121662D+03 0.122189600435511D+03 -.190087261386908D+03
 0.910063749151531D+01 0.781770038109654D+01 0.353313981737379D+01 -.303678885243344D+01
 0.512228395145039D+03 0.303090248420716D+03 -.369223390899801D+03 0.184900832117068D+03
 0.323839902481212D+03 -.192864830680150D+03 0.243500650646916D+03 0.822321812227369D+01
 0.000000000000000D+00 0.000000000000000D+00 0.000000000000000D+00 0.000000000000000D+00
 0.595466012639902D+03 0.000000000000000D+00 0.000000000000000D+00 0.595466012639902D+03
 0.588985842062589D+03 0.000000000000000D+00 0.000000000000000D+00 -.588985842062589D+03
 0.277989980766037D+03 -.134305250371580D+03 0.121622822049785D+03 -.190087261386908D+03
 0.864559300449018D+01 0.729179660744128D+01 0.351481067779365D+01 -.303678885243344D+01
 0.495913575416626D+03 0.273214288744774D+03 -.370264647233036D+03 0.184900832117068D+03
 0.335347488621618D+03 -.212399634795591D+03 0.242819810977685D+03 0.822321812227369D+01
 0.665552168937208D+02 0.661987998149558D+02 0.230720352777109D+01 0.648017057731240D+01
0.425674141445D-04 0.000000000000D+00 0.000000000000D+00 0.368157745457D-05 0.000000000000D+00  7 1 -1 23 -11 11 23 21 0 0.23861448D+00 0.30881070D-01 0.25141545D+06 0.25141545D+06 0.25141545D+06 0.10902747D+01  1  2  2  2  7  2       -1 0.298794373204D-03 0.100000000000D+01
-.233201831827D-05 0.000000000000D+00 -.163470078572D-06 0.368157745457D-05 0.000000000000D+00  7 1 -1 23 -11 11 23 21 2 0.23861448D+00 0.30881070D-01 0.25141545D+06 0.25141545D+06 0.25141545D+06 0.10902747D+01  1  2  3  2  7  2       -1 -.194580344723D-04 0.100000000000D+01
0.259510118115D-05 0.000000000000D+00 0.000000000000D+00 0.368157745457D-05 0.000000000000D+00  7 1 -1 23 -11 11 23 21 2 0.23861448D+00 0.30881070D-01 0.25141545D+06 0.25141545D+06 0.25141545D+06 0.10902747D+01  1  2 15  2  7  2       -1 0.216531610607D-04 0.100000000000D+01
0.551336079737D-04 0.000000000000D+00 0.000000000000D+00 0.368157745457D-05 0.000000000000D+00  7 1 -1 23 -11 11 23 21 2 0.23861448D+00 0.33574480D-01 0.28760566D+06 0.28760566D+06 0.28760566D+06 0.10859102D+01  1  2 12  2  7  2       -1 0.393683994489D-03 0.100000000000D+01
-.396960488582D-04 0.000000000000D+00 0.000000000000D+00 0.368157745457D-05 0.000000000000D+00  7 1 -1 23 -11 11 23 21 2 0.23861448D+00 0.30881070D-01 0.25141545D+06 0.25141545D+06 0.25141545D+06 0.10902747D+01  1  2  4  2  7  2       -1 -.331218276051D-03 0.100000000000D+01
0.765893768957D-06 0.000000000000D+00 0.000000000000D+00 0.368157745457D-05 0.000000000000D+00  7 1 21 23 -11 11 23 1 2 0.23861448D+00 0.33574480D-01 0.28760566D+06 0.28760566D+06 0.28760566D+06 0.10859102D+01  1  2 12  4  7  2       -1 0.560502061131D-04 0.100000000000D+01
  </mgrwgt>
  </event>
  <event>
  9     66 0.56006291E-06 0.21858140E+03 0.75467711E-02 0.10421022E+00
        1 -1    0    0  501    0 0.00000000E+00 0.00000000E+00 0.89362758E+02 0.89363331E+02 0.32000000E+00 0.0000E+00 0.9000E+01
       21 -1    0    0  502  501 0.00000000E+00 0.00000000E+00 -.72339961E+03 0.72340000E+03 0.75000000E+00 0.0000E+00 0.9000E+01
       25  2    1    2    0    0 0.40349237E+01 -.91009818E+02 -.49928310E+03 0.58969611E+03 0.30026459E+03 0.0000E+00 0.0000E+00
       23  2    1    2    0    0 0.93820839E+01 0.11461444E+03 -.12023238E+03 0.19227490E+03 0.96381098E+02 0.0000E+00 0.0000E+00
       23  1    3    3    0    0 -.39928382E+02 0.53066495E+02 -.90575321E+02 0.14467021E+03 0.91188000E+02 0.0000E+00 0.9000E+01
      -11  1    4    4    0    0 0.44230959E+02 0.21108719E+02 -.28298708E+02 0.56593045E+02 0.51099893E-03 0.0000E+00 0.9000E+01
       11  1    4    4    0    0 -.34848876E+02 0.93505723E+02 -.91933674E+02 0.13568185E+03 0.51099893E-03 0.0000E+00 0.9000E+01
       23  1    3    3    0    0 0.43963305E+02 -.14407631E+03 -.40870778E+03 0.44502591E+03 0.91188000E+02 0.0000E+00 0.9000E+01
        1  1    1    2  502    0 -.13417008E+02 -.23604624E+02 -.14521363E+02 0.30792317E+02 0.32000000E+00 0.0000E+00 0.9000E+01
#aMCatNLO 2  0  0  2  1 0.27151324D+02 0.00000000D+00  -5  7  0 0.00000000D+00 0.00000000D+00 0.00000000D+00 0.00000000D+00 0.00000000D+00
  <mgrwgt>
 0.1575021755D-04    1    2    0
 0.238192165079107D+03 0.000000000000000D+00 0.000000000000000D+00 0.238192165079107D+03
 0.238192165079107D+03 0.000000000000000D+00 0.000000000000000D+00 -.238192165079107D+03
 0.118178106889780D+03 -.432725268040528D+02 0.471831196471939D+02 0.393961324041249D+02
 0.538030326580106D+02 0.426858993904232D+02 0.183904858685148D+02 0.271011133710330D+02
 0.995107038161743D+02 -.376982771899716D+02 0.884927531574337D+02 0.255000531277085D+02
 0.204892486794249D+03 0.382849046036013D+02 -.154066358673142D+03 -.919972989028664D+02
 0.000000000000000D+00 -.000000000000000D+00 -.000000000000000D+00 0.000000000000000D+00
 0.262473047037498D+03 0.000000000000000D+00 0.000000000000000D+00 0.262473047037498D+03
 0.246291790328230D+03 0.000000000000000D+00 0.000000000000000D+00 -.246291790328230D+03
 0.119489058654386D+03 -.399283815920202D+02 0.530664949770567D+02 0.393961324041249D+02
 0.560038046701845D+02 0.442309592999768D+02 0.211087193119431D+02 0.271011133710330D+02
 0.102995228620461D+03 -.348488754107413D+02 0.935057233097081D+02 0.255000531277085D+02
 0.198669349993467D+03 0.439633052407392D+02 -.144076313354115D+03 -.919972989028664D+02
 0.316073954272290D+02 -.134170075379546D+02 -.236046242445930D+02 0.161812567092688D+02
0.398310009884D-07 0.000000000000D+00 0.000000000000D+00 0.754318429165D-08 0.434296328569D-12  7 1 21 23 -11 11 23 1 2 0.13748146D-01 0.11129196D+00 0.54019664D+05 0.54019664D+05 0.54019664D+05 0.11443532D+01  1  2  1  4  7  2       -1 0.157502175489D-04 0.100000000000D+01
  </mgrwgt>
  </event>
  <event>
  8     66 0.56006291E-06 0.12504022E+03 0.75467711E-02 0.10283571E+00
        1 -1    0    0  501    0 0.00000000E+00 0.00000000E+00 0.13614853E+04 0.13614854E+04 0.32000000E+00 0.0000E+00 0.9000E+01
       -1 -1    0    0    0  501 0.00000000E+00 0.00000000E+00 -.51011980E+02 0.51012983E+02 0.32000000E+00 0.0000E+00 0.9000E+01
       25  2    1    2    0    0 0.43670245E+02 -.90842529E+02 0.47891714E+03 0.56763430E+03 0.28755454E+03 0.0000E+00 0.0000E+00
       23  2    1    2    0    0 -.43670245E+02 0.90842529E+02 0.83155622E+03 0.84486406E+03 0.11022741E+03 0.0000E+00 0.0000E+00
       23  1    3    3    0    0 -.24517283E+02 0.54967923E+02 0.11061082E+03 0.15547532E+03 0.91188000E+02 0.0000E+00 0.9000E+01
      -11  1    4    4    0    0 -.32919466E+02 0.45668041E+01 0.61415646E+02 0.69831429E+02 0.51099893E-03 0.0000E+00 0.9000E+01
       11  1    4    4    0    0 -.10750779E+02 0.86275725E+02 0.77014057E+03 0.77503263E+03 0.51099893E-03 0.0000E+00 0.9000E+01
       23  1    3    3    0    0 0.68187528E+02 -.14581045E+03 0.36830632E+03 0.41215898E+03 0.91188000E+02 0.0000E+00 0.9000E+01
#aMCatNLO 1  0  0  1  2 0.92959386D+02 0.00000000D+00  -5  7  0 0.00000000D+00 0.00000000D+00 0.00000000D+00 0.00000000D+00 0.00000000D+00
  <mgrwgt>
 0.6345397074D-03    9    2    0
 0.263538987212403D+03 0.000000000000000D+00 0.000000000000000D+00 0.263538987212403D+03
 0.263538987212403D+03 0.000000000000000D+00 0.000000000000000D+00 -.263538987212403D+03
 0.141641472276917D+03 -.245172831252212D+02 0.549679227551871D+02 -.901359285796185D+02
 0.344412242143271D+02 -.329194650080870D+02 0.456680467076480D+01 -.903609672712543D+01
 0.162184009442982D+03 -.107507803434943D+02 0.862757249405785D+02 0.136910821073372D+03
 0.188811268490581D+03 0.681875284768025D+02 -.145810452366530D+03 -.377387957666282D+02
 0.000000000000000D+00 -.000000000000000D+00 0.000000000000000D+00 0.000000000000000D+00
 0.317221411754894D+03 0.000000000000000D+00 0.000000000000000D+00 0.317221411754894D+03
 0.311148814409912D+03 0.000000000000000D+00 0.000000000000000D+00 -.311148814409912D+03
 0.138740190813001D+03 -.604962700247107D-01 0.530009426531174D+02 -.901359285796185D+02
 0.291209732029399D+02 -.273751398295053D+02 0.412089256586551D+01 -.903609672712543D+01
 0.161577260809310D+03 0.174898695309188D+02 0.840044209994115D+02 0.136910821073372D+03
 0.205774279252838D+03 0.102605951318552D+03 -.148578614565235D+03 -.377387957666282D+02
 0.931575220867171D+02 -.926601847499409D+02 0.745235834684096D+01 0.607259734498135D+01
0.489022785333D-05 0.000000000000D+00 0.000000000000D+00 0.330404576729D-10 0.000000000000D+00  7 1 -1 23 -11 11 23 21 0 0.20945936D+00 0.78480770D-02 0.42939988D+05 0.42939988D+05 0.42939988D+05 0.11531560D+01  1  2  2  1  7  1        1 0.418604021678D-03 0.100000000000D+01
-.252585796002D-06 0.000000000000D+00 -.187797625833D-07 0.330404576729D-10 0.000000000000D+00  7 1 -1 23 -11 11 23 21 2 0.20945936D+00 0.78480770D-02 0.42939988D+05 0.42939988D+05 0.42939988D+05 0.11531560D+01  1  2  3  1  7  1        1 -.287514245103D-04 0.100000000000D+01
0.307101207248D-06 0.000000000000D+00 0.000000000000D+00 0.330404576729D-10 0.000000000000D+00  7 1 -1 23 -11 11 23 21 2 0.20945936D+00 0.78480770D-02 0.42939988D+05 0.42939988D+05 0.42939988D+05 0.11531560D+01  1  2 15  1  7  1        1 0.349568238475D-04 0.100000000000D+01
0.204641066623D-05 0.000000000000D+00 0.000000000000D+00 0.330404576729D-10 0.000000000000D+00  7 1 -1 23 -11 11 23 21 2 0.26761818D+00 0.78480770D-02 0.66101665D+05 0.66101665D+05 0.66101665D+05 0.11367812D+01  1  2 12  1  7  1        1 0.127332545160D-03 0.100000000000D+01
-.241816950405D-05 0.000000000000D+00 0.000000000000D+00 0.330404576729D-10 0.000000000000D+00  7 1 -1 23 -11 11 23 21 2 0.20945936D+00 0.78480770D-02 0.42939988D+05 0.42939988D+05 0.42939988D+05 0.11531560D+01  1  2  4  1  7  1        1 -.275256245796D-03 0.100000000000D+01
-.547850849365D-05 0.000000000000D+00 -.231497849316D-05 0.330404576729D-10 0.000000000000D+00  7 1 -1 23 -11 11 23 21 2 0.27787985D+00 0.78480770D-02 0.42939988D+05 0.42939988D+05 0.42939988D+05 0.11531560D+01  1  2  5  1  7  1        1 -.320182650946D-03 0.100000000000D+01
0.598179877518D-05 0.000000000000D+00 0.222548129091D-05 0.330404576729D-10 0.000000000000D+00  7 1 -1 23 -11 11 23 21 2 0.20945936D+00 0.78480770D-02 0.42939988D+05 0.42939988D+05 0.42939988D+05 0.11531560D+01  1  2  6  1  7  1        1 0.680898287404D-03 0.100000000000D+01
0.682375385170D-07 0.000000000000D+00 0.000000000000D+00 0.330404576729D-10 0.000000000000D+00  7 21 -1 23 -11 11 23 -1 2 0.26761818D+00 0.78480770D-02 0.66101665D+05 0.66101665D+05 0.66101665D+05 0.11367812D+01  1  2 12  3  7  1        1 0.285598303340D-05 0.100000000000D+01
-.155552962290D-06 0.000000000000D+00 -.857092648240D-07 0.330404576729D-10 0.000000000000D+00  7 21 -1 23 -11 11 23 -1 2 0.27787985D+00 0.78480770D-02 0.42939988D+05 0.42939988D+05 0.42939988D+05 0.11531560D+01  1  2  5  3  7  1        1 -.591763245657D-05 0.100000000000D+01
  </mgrwgt>
  </event>
  <event>
  8     66 0.56006291E-06 0.13414197E+03 0.75467711E-02 0.10333040E+00
        1 -1    0    0  501    0 0.00000000E+00 0.00000000E+00 0.17691728E+03 0.17691757E+03 0.32000000E+00 0.0000E+00 0.9000E+01
       -1 -1    0    0    0  501 0.00000000E+00 0.00000000E+00 -.42841889E+03 0.42841901E+03 0.32000000E+00 0.0000E+00 0.9000E+01
       25  2    1    2    0    0 -.55756467E+02 0.28474511E+02 0.27960009E+02 0.30462425E+03 0.29680733E+03 0.0000E+00 0.0000E+00
       23  2    1    2    0    0 0.55756467E+02 -.28474511E+02 -.27946162E+03 0.30071234E+03 0.91703504E+02 0.0000E+00 0.0000E+00
       23  1    3    3    0    0 0.80313878E+02 0.12669628E+02 -.37082127E+02 0.12767605E+03 0.91188000E+02 0.0000E+00 0.9000E+01
      -13  1    4    4    0    0 -.17423980E+02 0.16359800E+02 -.43590953E+02 0.49713383E+02 0.10565837E+00 0.0000E+00 0.9000E+01
       13  1    4    4    0    0 0.73180447E+02 -.44834311E+02 -.23587066E+03 0.25099895E+03 0.10565837E+00 0.0000E+00 0.9000E+01
       23  1    3    3    0    0 -.13607034E+03 0.15804883E+02 0.65042136E+02 0.17694820E+03 0.91188000E+02 0.0000E+00 0.9000E+01
#aMCatNLO 1  0  0  2  1 0.95772044D+02 0.00000000D+00  -5  7  0 0.00000000D+00 0.00000000D+00 0.00000000D+00 0.00000000D+00 0.00000000D+00
  <mgrwgt>
 0.3809127795D-03    9    2    0
 0.275308608415482D+03 0.000000000000000D+00 0.000000000000000D+00 0.275308608415482D+03
 0.275308608415482D+03 0.000000000000000D+00 0.000000000000000D+00 -.275308608415482D+03
 0.123426523959890D+03 0.803138757350474D+02 0.126696284648571D+02 0.175504231230831D+02
 0.347428967557202D+02 -.174240997047394D+02 0.163598806550317D+02 -.252155493577089D+02
 0.168205956973085D+03 0.731805672148100D+02 -.448343920265886D+02 -.144664182972000D+03
 0.224241839142267D+03 -.136070343245118D+03 0.158048829066999D+02 0.152329309206626D+03
 0.000000000000000D+00 0.000000000000000D+00 -.000000000000000D+00 -.000000000000000D+00
 0.310221225814907D+03 0.000000000000000D+00 0.000000000000000D+00 0.310221225814907D+03
 0.353943036606382D+03 0.000000000000000D+00 0.000000000000000D+00 -.353943036606382D+03
 0.121590383571594D+03 0.716823651793448D+02 0.319779799797177D+02 0.175504231230831D+02
 0.390991967832347D+02 -.200254255326510D+02 0.221789447882289D+02 -.252155493577089D+02
 0.158417351499421D+03 0.616742080691390D+02 -.190951166579142D+02 -.144664182972000D+03
 0.239777317279364D+03 -.152416914128953D+03 0.523715226218251D+02 0.152329309206626D+03
 0.105280013287674D+03 0.390857664131203D+02 -.874333307318574D+02 -.437218107914750D+02
0.627624616250D-05 0.000000000000D+00 0.000000000000D+00 0.120519400620D-07 0.000000000000D+00  7 1 -1 23 -13 13 23 21 0 0.27218075D-01 0.65910630D-01 0.39294396D+05 0.39294396D+05 0.39294396D+05 0.11566148D+01  1  2  2  2  7  2       -1 0.326980817940D-03 0.100000000000D+01
-.302938759589D-06 0.000000000000D+00 -.241024378376D-07 0.120519400620D-07 0.000000000000D+00  7 1 -1 23 -13 13 23 21 2 0.27218075D-01 0.65910630D-01 0.39294396D+05 0.39294396D+05 0.39294396D+05 0.11566148D+01  1  2  3  2  7  2       -1 -.211132266020D-04 0.100000000000D+01
0.388151443481D-06 0.000000000000D+00 0.000000000000D+00 0.120519400620D-07 0.000000000000D+00  7 1 -1 23 -13 13 23 21 2 0.27218075D-01 0.65910630D-01 0.39294396D+05 0.39294396D+05 0.39294396D+05 0.11566148D+01  1  2 15  2  7  2       -1 0.270520992204D-04 0.100000000000D+01
0.303174930816D-05 0.000000000000D+00 0.000000000000D+00 0.120519400620D-07 0.000000000000D+00  7 1 -1 23 -13 13 23 21 2 0.27218075D-01 0.87977490D-01 0.61431189D+05 0.61431189D+05 0.61431189D+05 0.11395122D+01  1  2 12  2  7  2       -1 0.115561940905D-03 0.100000000000D+01
-.449588588419D-05 0.000000000000D+00 0.000000000000D+00 0.120519400620D-07 0.000000000000D+00  7 1 -1 23 -13 13 23 21 2 0.27218075D-01 0.65910630D-01 0.39294396D+05 0.39294396D+05 0.39294396D+05 0.11566148D+01  1  2  4  2  7  2       -1 -.313339427343D-03 0.100000000000D+01
-.623925705542D-05 0.000000000000D+00 -.274730377418D-05 0.120519400620D-07 0.000000000000D+00  7 1 -1 23 -13 13 23 21 2 0.27218075D-01 0.93086650D-01 0.39294396D+05 0.39294396D+05 0.39294396D+05 0.11566148D+01  1  2  5  2  7  2       -1 -.219263164655D-03 0.100000000000D+01
0.692677698687D-05 0.000000000000D+00 0.259134016735D-05 0.120519400620D-07 0.000000000000D+00  7 1 -1 23 -13 13 23 21 2 0.27218075D-01 0.65910630D-01 0.39294396D+05 0.39294396D+05 0.39294396D+05 0.11566148D+01  1  2  6  2  7  2       -1 0.482759658565D-03 0.100000000000D+01
0.114005294364D-06 0.000000000000D+00 0.000000000000D+00 0.120519400620D-07 0.000000000000D+00  7 1 21 23 -13 13 23 1 2 0.27218075D-01 0.87977490D-01 0.61431189D+05 0.61431189D+05 0.61431189D+05 0.11395122D+01  1  2 12  4  7  2       -1 0.332548619030D-04 0.100000000000D+01
-.190721603501D-06 0.000000000000D+00 -.117511344758D-06 0.120519400620D-07 0.000000000000D+00  7 1 21 23 -13 13 23 1 2 0.27218075D-01 0.93086650D-01 0.39294396D+05 0.39294396D+05 0.39294396D+05 0.11566148D+01  1  2  5  4  7  2       -1 -.509807804757D-04 0.100000000000D+01
  </mgrwgt>
  </event>
  <event>
  8     66 0.56006291E-06 0.28594385E+03 0.75467711E-02 0.92982618E-01
        1 -1    0    0  501    0 0.00000000E+00 0.00000000E+00 0.54585298E+03 0.54585307E+03 0.32000000E+00 0.0000E+00 0.9000E+01
       -1 -1    0    0    0  501 0.00000000E+00 0.00000000E+00 -.28582625E+03 0.28582643E+03 0.32000000E+00 0.0000E+00 0.9000E+01
       25  2    1    2    0    0 0.17190213E+03 0.10728757E+03 -.12861767E+03 0.38413495E+03 0.29992697E+03 0.0000E+00 0.0000E+00
       23  2    1    2    0    0 -.17190213E+03 -.10728757E+03 0.38864440E+03 0.44754455E+03 0.90502406E+02 0.0000E+00 0.0000E+00
       23  1    3    3    0    0 -.40390299E+02 0.51624310E+02 -.88789948E+02 0.14316198E+03 0.91188000E+02 0.0000E+00 0.9000E+01
      -11  1    4    4    0    0 -.60274277E+01 -.43965526E+02 0.77549895E+02 0.89349223E+02 0.51099893E-03 0.0000E+00 0.9000E+01
       11  1    4    4    0    0 -.16587471E+03 -.63322045E+02 0.31109450E+03 0.35819532E+03 0.51099893E-03 0.0000E+00 0.9000E+01
       23  1    3    3    0    0 0.21229243E+03 0.55663261E+02 -.39827726E+02 0.24097297E+03 0.91188000E+02 0.0000E+00 0.9000E+01
#aMCatNLO 1  0  0  1  1 0.43120229D+03 0.00000000D+00  -5  7  0 0.00000000D+00 0.00000000D+00 0.00000000D+00 0.00000000D+00 0.00000000D+00
  <mgrwgt>
 0.2779837668D-03    3    2    0
 0.394992686609933D+03 0.000000000000000D+00 0.000000000000000D+00 0.394992686609933D+03
 0.394992686609933D+03 0.000000000000000D+00 0.000000000000000D+00 -.394992686609933D+03
 0.179943384055262D+03 -.403902987047387D+02 0.516243100515753D+02 -.140598451284146D+03
 0.685390808640552D+02 -.602742765862047D+01 -.439655257890912D+02 0.522332103512541D+02
 0.274702328911315D+03 -.165874705156628D+03 -.633220453928874D+02 0.209612190164989D+03
 0.266800579389233D+03 0.212292431519987D+03 0.556632611304033D+02 -.121246949232097D+03
 0.000000000000000D+00 0.000000000000000D+00 0.000000000000000D+00 -.000000000000000D+00
 0.493164986164435D+03 0.000000000000000D+00 0.000000000000000D+00 0.493164986164435D+03
 0.152697661404960D+04 0.000000000000000D+00 0.000000000000000D+00 -.152697661404960D+04
 0.205279537731420D+03 -.118266162637622D+03 -.834431175693539D+01 -.140598451284146D+03
 0.953328649364909D+02 -.391554390822161D+02 -.694758840438876D+02 0.522332103512541D+02
 0.405783955814930D+03 -.303440395878633D+03 -.169255058063468D+03 0.209612190164989D+03
 0.193610475810560D+03 0.119216691058756D+03 -.160100866487897D+02 -.121246949232097D+03
 0.112013476592063D+04 0.341645306539715D+03 0.263085340513081D+03 -.103381162788516D+04
0.112113167313D-04 0.000000000000D+00 0.000000000000D+00 0.121647526647D-05 0.000000000000D+00  7 1 -1 23 -11 11 23 21 0 0.83977402D-01 0.43973290D-01 0.81763884D+05 0.81763884D+05 0.81763884D+05 0.11289688D+01  1  2  2  1  7  1        1 0.273908468064D-03 0.100000000000D+01
-.543807875961D-06 0.000000000000D+00 -.430544082558D-07 0.121647526647D-05 0.000000000000D+00  7 1 -1 23 -11 11 23 21 2 0.83977402D-01 0.43973290D-01 0.81763884D+05 0.81763884D+05 0.81763884D+05 0.11289688D+01  1  2  3  1  7  1        1 -.169339473399D-04 0.100000000000D+01
0.674679876362D-06 0.000000000000D+00 0.000000000000D+00 0.121647526647D-05 0.000000000000D+00  7 1 -1 23 -11 11 23 21 2 0.83977402D-01 0.43973290D-01 0.81763884D+05 0.81763884D+05 0.81763884D+05 0.11289688D+01  1  2 15  1  7  1        1 0.210092461007D-04 0.100000000000D+01
  </mgrwgt>
  </event>
  <event>
  8     66 0.56006291E-06 0.23812267E+03 0.75467711E-02 0.92004252E-01
        1 -1    0    0  501    0 0.00000000E+00 0.00000000E+00 0.62935773E+03 0.62935781E+03 0.32000000E+00 0.0000E+00 0.9000E+01
       -1 -1    0    0    0  501 0.00000000E+00 0.00000000E+00 -.26921235E+03 0.26921254E+03 0.32000000E+00 0.0000E+00 0.9000E+01
       25  2    1    2    0    0 0.98228360E+02 0.98033345E+02 0.55255577E+03 0.64413254E+03 0.30054867E+03 0.0000E+00 0.0000E+00
       23  2    1    2    0    0 -.98228360E+02 -.98033345E+02 -.19241039E+03 0.25443781E+03 0.91964644E+02 0.0000E+00 0.0000E+00
       23  1    3    3    0    0 0.16425818E+03 0.96604649E+02 0.42057288E+03 0.47064849E+03 0.91188000E+02 0.0000E+00 0.9000E+01
      -13  1    4    4    0    0 -.31064727E+02 -.75357446E+02 -.50713687E+02 0.95998183E+02 0.10565837E+00 0.0000E+00 0.9000E+01
       13  1    4    4    0    0 -.67163633E+02 -.22675899E+02 -.14169670E+03 0.15843963E+03 0.10565837E+00 0.0000E+00 0.9000E+01
       23  1    3    3    0    0 -.66029820E+02 0.14286965E+01 0.13198289E+03 0.17348404E+03 0.91188000E+02 0.0000E+00 0.9000E+01
#aMCatNLO 1  0  0  2  1 0.54204824D+03 0.00000000D+00  -5  7  0 0.00000000D+00 0.00000000D+00 0.00000000D+00 0.00000000D+00 0.00000000D+00
  <mgrwgt>
 0.2099688409D-03    3    2    0
 0.411619965412884D+03 0.000000000000000D+00 0.000000000000000D+00 0.411619965412884D+03
 0.411619965412884D+03 0.000000000000000D+00 0.000000000000000D+00 -.411619965412884D+03
 0.329725751341383D+03 0.164258180565577D+03 0.966046486345543D+02 0.253161236632152D+03
 0.126968214334183D+03 -.310646797307163D+02 -.753575155059547D+02 -.973506958434753D+02
 0.234926269318609D+03 -.671636807078198D+02 -.226758297546980D+02 -.223975888779738D+03
 0.131619695831594D+03 -.660298201270407D+02 0.142869662609844D+01 0.681653479910613D+02
 0.000000000000000D+00 0.000000000000000D+00 -.000000000000000D+00 0.000000000000000D+00
 0.126803320235965D+04 0.000000000000000D+00 0.000000000000000D+00 0.126803320235965D+04
 0.587588770204373D+03 0.000000000000000D+00 0.000000000000000D+00 -.587588770204373D+03
 0.345344441733952D+03 0.130099224597049D+01 0.216460684140540D+03 0.253161236632152D+03
 0.139097859517933D+03 -.952911553578798D+02 -.281185392903380D+02 -.973506958434753D+02
 0.308056033454196D+03 -.198235782949619D+03 0.737285246781109D+02 -.223975888779738D+03
 0.193169090449147D+03 -.144431544796494D+03 0.590936575438239D+02 0.681653479910613D+02
 0.869954547408797D+03 0.436657490858022D+03 -.321164327072137D+03 0.680444432155281D+03
0.909212305929D-05 0.000000000000D+00 0.000000000000D+00 0.485802322125D-06 0.000000000000D+00  7 1 -1 23 -13 13 23 21 0 0.96824287D-01 0.41417306D-01 0.56702404D+05 0.56702404D+05 0.56702404D+05 0.11425208D+01  1  2  2  2  7  2       -1 0.202856091870D-03 0.100000000000D+01
-.321147393428D-06 0.000000000000D+00 -.349161465586D-07 0.485802322125D-06 0.000000000000D+00  7 1 -1 23 -13 13 23 21 2 0.96824287D-01 0.41417306D-01 0.56702404D+05 0.56702404D+05 0.56702404D+05 0.11425208D+01  1  2  3  2  7  2       -1 -.935309595945D-05 0.100000000000D+01
0.565370356728D-06 0.000000000000D+00 0.000000000000D+00 0.485802322125D-06 0.000000000000D+00  7 1 -1 23 -13 13 23 21 2 0.96824287D-01 0.41417306D-01 0.56702404D+05 0.56702404D+05 0.56702404D+05 0.11425208D+01  1  2 15  2  7  2       -1 0.164658449899D-04 0.100000000000D+01
  </mgrwgt>
  </event>
  <event>
  8     66 0.56006291E-06 0.23060185E+03 0.75467711E-02 0.10049510E+00
        1 -1    0    0  501    0 0.00000000E+00 0.00000000E+00 0.14470785E+04 0.14470786E+04 0.32000000E+00 0.0000E+00 0.9000E+01
       -1 -1    0    0    0  501 0.00000000E+00 0.00000000E+00 -.58825899E+02 0.58826770E+02 0.32000000E+00 0.0000E+00 0.9000E+01
       25  2    1    2    0    0 0.18833484E+03 -.19998576E+02 0.66936683E+03 0.75687783E+03 0.29823169E+03 0.0000E+00 0.0000E+00
       23  2    1    2    0    0 -.18833484E+03 0.19998576E+02 0.71888580E+03 0.74902750E+03 0.91517499E+02 0.0000E+00 0.0000E+00
       23  1    3    3    0    0 0.84975246E+02 -.15269420E+02 0.74024937E+02 0.14576999E+03 0.91188000E+02 0.0000E+00 0.9000E+01
      -11  1    4    4    0    0 -.62384975E+02 -.20084009E+02 0.13115976E+03 0.14662242E+03 0.51099893E-03 0.0000E+00 0.9000E+01
       11  1    4    4    0    0 -.12594987E+03 0.40082585E+02 0.58772604E+03 0.60240508E+03 0.51099893E-03 0.0000E+00 0.9000E+01
       23  1    3    3    0    0 0.10335960E+03 -.47291558E+01 0.59534190E+03 0.61110784E+03 0.91188000E+02 0.0000E+00 0.9000E+01
#aMCatNLO 1  0  0  1  2 0.13164169D+03 0.00000000D+00  -5  7  0 0.00000000D+00 0.00000000D+00 0.00000000D+00 0.00000000D+00 0.00000000D+00
  <mgrwgt>
 0.1587548503D-03    4    2    0
 0.291764250564549D+03 0.000000000000000D+00 0.000000000000000D+00 0.291764250564549D+03
 0.291764250564549D+03 0.000000000000000D+00 0.000000000000000D+00 -.291764250564549D+03
 0.200076762693137D+03 0.849752455918606D+02 -.152694203861588D+02 -.155761073646273D+03
 0.663491299582445D+02 -.623849749181302D+02 -.200840087517466D+02 -.103418829591162D+02
 0.156381054699668D+03 -.125949865790167D+03 0.400825849117589D+02 0.835766233058688D+02
 0.160721553778050D+03 0.103359595116436D+03 -.472915577385342D+01 0.825263332995199D+02
 0.000000000000000D+00 -.000000000000000D+00 0.000000000000000D+00 -.000000000000000D+00
 0.342336372261279D+03 0.000000000000000D+00 0.000000000000000D+00 0.342336372261279D+03
 0.399290927949216D+03 0.000000000000000D+00 0.000000000000000D+00 -.399290927949216D+03
 0.216475240744842D+03 0.104974206887134D+03 -.571417740056680D+02 -.155761073646273D+03
 0.660394613064028D+02 -.560289034293716D+02 -.333918835497785D+02 -.103418829591162D+02
 0.139905647971802D+03 -.111724928087009D+03 0.102994570318678D+02 0.835766233058688D+02
 0.175772800621514D+03 0.119514931098914D+03 -.385540095306421D+02 0.825263332995199D+02
 0.143434149565935D+03 -.567353064696670D+02 0.118788210054221D+03 -.569545556879373D+02
0.358401422302D-05 0.000000000000D+00 0.000000000000D+00 0.448418962908D-07 0.000000000000D+00  7 1 -1 23 -11 11 23 21 0 0.22262754D+00 0.90502080D-02 0.53177214D+05 0.53177214D+05 0.53177214D+05 0.11449494D+01  1  2  2  1  7  1        1 0.216592385988D-03 0.100000000000D+01
-.185713566773D-06 0.000000000000D+00 -.137635583090D-07 0.448418962908D-07 0.000000000000D+00  7 1 -1 23 -11 11 23 21 2 0.22262754D+00 0.90502080D-02 0.53177214D+05 0.53177214D+05 0.53177214D+05 0.11449494D+01  1  2  3  1  7  1        1 -.147126083122D-04 0.100000000000D+01
0.230595829336D-06 0.000000000000D+00 0.000000000000D+00 0.448418962908D-07 0.000000000000D+00  7 1 -1 23 -11 11 23 21 2 0.22262754D+00 0.90502080D-02 0.53177214D+05 0.53177214D+05 0.53177214D+05 0.11449494D+01  1  2 15  1  7  1        1 0.182682728806D-04 0.100000000000D+01
-.774950978113D-06 0.000000000000D+00 0.000000000000D+00 0.448418962908D-07 0.000000000000D+00  7 1 -1 23 -11 11 23 21 2 0.22262754D+00 0.90502080D-02 0.53177214D+05 0.53177214D+05 0.53177214D+05 0.11449494D+01  1  2  4  1  7  1        1 -.613932002934D-04 0.100000000000D+01
  </mgrwgt>
  </event>
  <event>
  8     66 0.56006291E-06 0.14743043E+03 0.75467711E-02 0.10601576E+00
        1 -1    0    0  501    0 0.00000000E+00 0.00000000E+00 0.26632101E+02 0.26634023E+02 0.32000000E+00 0.0000E+00 0.9000E+01
       -1 -1    0    0    0  501 0.00000000E+00 0.00000000E+00 -.18671160E+04 0.18671160E+04 0.32000000E+00 0.0000E+00 0.9000E+01
       25  2    1    2    0    0 0.51570826E+02 -.29847534E+02 -.10356975E+04 0.10811085E+04 0.30426280E+03 0.0000E+00 0.0000E+00
       23  2    1    2    0    0 -.51570826E+02 0.29847534E+02 -.80478639E+03 0.81264154E+03 0.95680285E+02 0.0000E+00 0.0000E+00
       23  1    3    3    0    0 0.11703021E+03 -.77947679E+02 -.39838739E+03 0.43220328E+03 0.91188000E+02 0.0000E+00 0.9000E+01
      -13  1    4    4    0    0 -.23346771E+02 -.24324183E+02 -.10698950E+03 0.11217621E+03 0.10565837E+00 0.0000E+00 0.9000E+01
       13  1    4    4    0    0 -.28224055E+02 0.54171717E+02 -.69779689E+03 0.70046533E+03 0.10565837E+00 0.0000E+00 0.9000E+01
       23  1    3    3    0    0 -.65459388E+02 0.48100145E+02 -.63731008E+03 0.64890519E+03 0.91188000E+02 0.0000E+00 0.9000E+01
#aMCatNLO 1  0  0  2  1 0.23051191D+02 0.00000000D+00  -5  7  0 0.00000000D+00 0.00000000D+00 0.00000000D+00 0.00000000D+00 0.00000000D+00
  <mgrwgt>
 0.2444387270D-03    9    2    0
 0.222995666205992D+03 0.000000000000000D+00 0.000000000000000D+00 0.222995666205992D+03
 0.222995666205992D+03 0.000000000000000D+00 0.000000000000000D+00 -.222995666205992D+03
 0.191168929407068D+03 0.117030648500885D+03 -.779479308254882D+02 0.919687752344877D+02
 0.348010248330917D+02 -.233468032348186D+02 -.243236382753393D+02 0.862546979581837D+01
 0.946710402709211D+02 -.282247420075194D+02 0.541715889115417D+02 -.723284782045514D+02
 0.125350337900904D+03 -.654591032585469D+02 0.480999801892858D+02 -.282657668257547D+02
 0.000000000000000D+00 -.000000000000000D+00 -.000000000000000D+00 -.000000000000000D+00
 0.230518466533203D+03 0.000000000000000D+00 0.000000000000000D+00 0.230518466533203D+03
 0.241679014647128D+03 0.000000000000000D+00 0.000000000000000D+00 -.241679014647128D+03
 0.193923160288629D+03 0.125053723326540D+03 -.720711552312490D+02 0.919687752344877D+02
 0.331311180798574D+02 -.219314932862596D+02 -.232869460912681D+02 0.862546979581837D+01
 0.952750398245902D+02 -.242673727074894D+02 0.570702994215623D+02 -.723284782045514D+02
 0.124257320654745D+03 -.602587343721567D+02 0.519091682645178D+02 -.282657668257547D+02
 0.256108423325096D+02 -.185961229606342D+02 -.136213663635630D+02 -.111605481139250D+02
0.107686748697D-04 0.000000000000D+00 0.000000000000D+00 0.351447922460D-09 0.000000000000D+00  7 1 -1 23 -13 13 23 21 0 0.40973963D-02 0.28724876D+00 0.36962609D+05 0.36962609D+05 0.36962609D+05 0.11590183D+01  1  2  2  2  7  2       -1 0.855974390112D-04 0.100000000000D+01
-.582257571269D-06 0.000000000000D+00 -.413545469569D-07 0.351447922460D-09 0.000000000000D+00  7 1 -1 23 -13 13 23 21 2 0.40973963D-02 0.28724876D+00 0.36962609D+05 0.36962609D+05 0.36962609D+05 0.11590183D+01  1  2  3  2  7  2       -1 -.621719168886D-05 0.100000000000D+01
0.717002680101D-06 0.000000000000D+00 0.000000000000D+00 0.351447922460D-09 0.000000000000D+00  7 1 -1 23 -13 13 23 21 2 0.40973963D-02 0.28724876D+00 0.36962609D+05 0.36962609D+05 0.36962609D+05 0.11590183D+01  1  2 15  2  7  2       -1 0.765596417046D-05 0.100000000000D+01
0.216129168115D-04 0.000000000000D+00 0.000000000000D+00 0.351447922460D-09 0.000000000000D+00  7 1 -1 23 -13 13 23 21 2 0.40973963D-02 0.31586458D+00 0.41775825D+05 0.41775825D+05 0.41775825D+05 0.11542241D+01  1  2 12  2  7  2       -1 0.127716820908D-03 0.100000000000D+01
-.209215047040D-04 0.000000000000D+00 0.000000000000D+00 0.351447922460D-09 0.000000000000D+00  7 1 -1 23 -13 13 23 21 2 0.40973963D-02 0.28724876D+00 0.36962609D+05 0.36962609D+05 0.36962609D+05 0.11590183D+01  1  2  4  2  7  2       -1 -.223394270135D-03 0.100000000000D+01
-.596050757042D-04 0.000000000000D+00 -.109827204349D-04 0.351447922460D-09 0.000000000000D+00  7 1 -1 23 -13 13 23 21 2 0.40973963D-02 0.31586274D+00 0.36962609D+05 0.36962609D+05 0.36962609D+05 0.11590183D+01  1  2  5  2  7  2       -1 -.356754552913D-03 0.100000000000D+01
0.604246804462D-04 0.000000000000D+00 0.109333888689D-04 0.351447922460D-09 0.000000000000D+00  7 1 -1 23 -13 13 23 21 2 0.40973963D-02 0.28724876D+00 0.36962609D+05 0.36962609D+05 0.36962609D+05 0.11590183D+01  1  2  6  2  7  2       -1 0.645198688019D-03 0.100000000000D+01
0.335668455303D-06 0.000000000000D+00 0.000000000000D+00 0.351447922460D-09 0.000000000000D+00  7 1 21 23 -13 13 23 1 2 0.40973963D-02 0.31586458D+00 0.41775825D+05 0.41775825D+05 0.41775825D+05 0.11542241D+01  1  2 12  4  7  2       -1 0.207412227485D-04 0.100000000000D+01
-.892791542007D-06 0.000000000000D+00 -.170562672765D-06 0.351447922460D-09 0.000000000000D+00  7 1 21 23 -13 13 23 1 2 0.40973963D-02 0.31586274D+00 0.36962609D+05 0.36962609D+05 0.36962609D+05 0.11590183D+01  1  2  5  4  7  2       -1 -.561053931245D-04 0.100000000000D+01
  </mgrwgt>
  </event>
  <event>
  8     66 0.56006291E-06 0.11251957E+03 0.75467711E-02 0.10838633E+00
        1 -1    0    0  501    0 0.00000000E+00 0.00000000E+00 0.82479145E+03 0.82479151E+03 0.32000000E+00 0.0000E+00 0.9000E+01
       -1 -1    0    0    0  501 0.00000000E+00 0.00000000E+00 -.95940992E+02 0.95941526E+02 0.32000000E+00 0.0000E+00 0.9000E+01
       25  2    1    2    0    0 -.11110619E+03 0.15071099E+02 0.21153029E+03 0.38358692E+03 0.29970342E+03 0.0000E+00 0.0000E+00
       23  2    1    2    0    0 0.11110619E+03 -.15071099E+02 0.51732017E+03 0.53714611E+03 0.91291107E+02 0.0000E+00 0.0000E+00
       23  1    3    3    0    0 -.79596866E+02 0.10901753E+02 -.28527091E+02 0.12483411E+03 0.91188000E+02 0.0000E+00 0.9000E+01
      -13  1    4    4    0    0 0.10075929E+03 -.18233053E+02 0.25766296E+03 0.27726357E+03 0.10565837E+00 0.0000E+00 0.9000E+01
       13  1    4    4    0    0 0.10346906E+02 0.31619545E+01 0.25965721E+03 0.25988254E+03 0.10565837E+00 0.0000E+00 0.9000E+01
       23  1    3    3    0    0 -.31509326E+02 0.41693460E+01 0.24005738E+03 0.25875281E+03 0.91188000E+02 0.0000E+00 0.9000E+01
#aMCatNLO 1  0  0  1  2 0.15586315D+02 0.00000000D+00  -5  7  0 0.00000000D+00 0.00000000D+00 0.00000000D+00 0.00000000D+00 0.00000000D+00
  <mgrwgt>
 0.2070652526D-03    9    2    0
 0.281303367023153D+03 0.000000000000000D+00 0.000000000000000D+00 0.281303367023153D+03
 0.281303367023153D+03 0.000000000000000D+00 0.000000000000000D+00 -.281303367023153D+03
 0.241253555401619D+03 -.795968661271855D+02 0.109017529466302D+02 -.208407095213536D+03
 0.119955887543697D+03 0.100759405285034D+03 -.182330816749963D+02 0.624860939380537D+02
 0.889273752448030D+02 0.103467867024340D+02 0.316198268469952D+01 0.882667770928904D+02
 0.112469915856187D+03 -.315093258602822D+02 0.416934604366664D+01 0.576542241825918D+02
 0.000000000000000D+00 0.000000000000000D+00 -.000000000000000D+00 0.000000000000000D+00
 0.293653229867110D+03 0.000000000000000D+00 0.000000000000000D+00 0.293653229867110D+03
 0.286372383444139D+03 0.000000000000000D+00 0.000000000000000D+00 -.286372383444139D+03
 0.243343646479662D+03 -.851627046343748D+02 0.146518033713729D+02 -.208407095213536D+03
 0.117404677269508D+03 0.980332018183262D+02 -.163962694040229D+02 0.624860939380537D+02
 0.887727202829053D+02 0.830581322883638D+01 0.453711303238518D+01 0.882667770928904D+02
 0.113301548266406D+03 -.341024227745023D+02 0.591647617904685D+01 0.576542241825918D+02
 0.172030210127686D+02 0.129261123617145D+02 -.870912317878205D+01 0.728084642297105D+01
0.111201577817D-05 0.000000000000D+00 0.000000000000D+00 0.406127647293D-06 0.000000000000D+00  7 1 -1 23 -13 13 23 21 0 0.12689104D+00 0.14760199D-01 0.27442301D+05 0.27442301D+05 0.27442301D+05 0.11709437D+01  1  2  2  1  7  1        1 0.889840670103D-04 0.100000000000D+01
-.407179183741D-07 0.000000000000D+00 -.427043338865D-08 0.406127647293D-06 0.000000000000D+00  7 1 -1 23 -13 13 23 21 2 0.12689104D+00 0.14760199D-01 0.27442301D+05 0.27442301D+05 0.27442301D+05 0.11709437D+01  1  2  3  1  7  1        1 -.446744211848D-05 0.100000000000D+01
0.677477712384D-07 0.000000000000D+00 0.000000000000D+00 0.406127647293D-06 0.000000000000D+00  7 1 -1 23 -13 13 23 21 2 0.12689104D+00 0.14760199D-01 0.27442301D+05 0.27442301D+05 0.27442301D+05 0.11709437D+01  1  2 15  1  7  1        1 0.743307268026D-05 0.100000000000D+01
0.343564420562D-05 0.000000000000D+00 0.000000000000D+00 0.406127647293D-06 0.000000000000D+00  7 1 -1 23 -13 13 23 21 2 0.13356897D+00 0.14760199D-01 0.30208200D+05 0.30208200D+05 0.30208200D+05 0.11670573D+01  1  2 12  1  7  1        1 0.345265557115D-03 0.100000000000D+01
-.330224427741D-05 0.000000000000D+00 0.000000000000D+00 0.406127647293D-06 0.000000000000D+00  7 1 -1 23 -13 13 23 21 2 0.12689104D+00 0.14760199D-01 0.27442301D+05 0.27442301D+05 0.27442301D+05 0.11709437D+01  1  2  4  1  7  1        1 -.362311870535D-03 0.100000000000D+01
-.148306622230D-04 0.000000000000D+00 -.257821772011D-05 0.406127647293D-06 0.000000000000D+00  7 1 -1 23 -13 13 23 21 2 0.13405752D+00 0.14760199D-01 0.27442301D+05 0.27442301D+05 0.27442301D+05 0.11709437D+01  1  2  5  1  7  1        1 -.149233547663D-02 0.100000000000D+01
0.149536223225D-04 0.000000000000D+00 0.257433152971D-05 0.406127647293D-06 0.000000000000D+00  7 1 -1 23 -13 13 23 21 2 0.12689104D+00 0.14760199D-01 0.27442301D+05 0.27442301D+05 0.27442301D+05 0.11709437D+01  1  2  6  1  7  1        1 0.164066447537D-02 0.100000000000D+01
0.454225594364D-07 0.000000000000D+00 0.000000000000D+00 0.406127647293D-06 0.000000000000D+00  7 21 -1 23 -13 13 23 -1 2 0.13356897D+00 0.14760199D-01 0.30208200D+05 0.30208200D+05 0.30208200D+05 0.11670573D+01  1  2 12  3  7  1        1 0.790333421465D-05 0.100000000000D+01
-.138221334799D-06 0.000000000000D+00 -.245020981985D-07 0.406127647293D-06 0.000000000000D+00  7 21 -1 23 -13 13 23 -1 2 0.13405752D+00 0.14760199D-01 0.27442301D+05 0.27442301D+05 0.27442301D+05 0.11709437D+01  1  2  5  3  7  1        1 -.240704644869D-04 0.100000000000D+01
  </mgrwgt>
  </event>
  <event>
  7     66 0.56006291E-06 0.14122003E+03 0.75467711E-02 0.10461298E+00
        1 -1    0    0  501    0 0.00000000E+00 0.00000000E+00 0.79484312E+03 0.79484319E+03 0.32000000E+00 0.0000E+00 0.9000E+01
       -1 -1    0    0    0  501 0.00000000E+00 0.00000000E+00 -.97680182E+02 0.97680706E+02 0.32000000E+00 0.0000E+00 0.9000E+01
       25  2    1    2    0    0 -.21827449E+02 -.85404978E+01 0.36717702E+03 0.47408878E+03 0.29898466E+03 0.0000E+00 0.0000E+00
       23  1    3    3    0    0 0.55311799E+02 -.32787457E+02 0.32739319E+03 0.34588432E+03 0.91188000E+02 0.0000E+00 0.9000E+01
      -13  1    1    2    0    0 0.85554947E+02 0.19013927E+02 0.34173330E+03 0.35279291E+03 0.10565837E+00 0.0000E+00 0.9000E+01
       13  1    1    2    0    0 -.63727498E+02 -.10473429E+02 -.11747381E+02 0.65642203E+02 0.10565837E+00 0.0000E+00 0.9000E+01
       23  1    3    3    0    0 -.77139249E+02 0.24246959E+02 0.39783835E+02 0.12820446E+03 0.91188000E+02 0.0000E+00 0.9000E+01
#aMCatNLO 1  0  0  2  1 0.63639807D+02 0.00000000D+00  -5  7  0 0.00000000D+00 0.00000000D+00 0.00000000D+00 0.00000000D+00 0.00000000D+00
  <mgrwgt>
 0.1803165364D-03    9    2    0
 0.278640778454828D+03 0.000000000000000D+00 0.000000000000000D+00 0.278640778454828D+03
 0.278640778454828D+03 0.000000000000000D+00 0.000000000000000D+00 -.278640778454828D+03
 0.144165068786677D+03 0.548083344809473D+02 -.329844494258694D+02 0.915226107678543D+02
 0.137887978199437D+03 0.860562178754955D+02 0.192216095422390D+02 0.106009205371511D+03
 0.119355335529563D+03 -.631819171293429D+02 -.102715068483614D+02 -.100738461444969D+03
 0.155873174393978D+03 -.776826352270999D+02 0.240343467319919D+02 -.967933546943970D+02
 0.000000000000000D+00 -.000000000000000D+00 0.000000000000000D+00 -.000000000000000D+00
 0.290134175667926D+03 0.000000000000000D+00 0.000000000000000D+00 0.290134175667926D+03
 0.385023418201569D+03 0.000000000000000D+00 0.000000000000000D+00 -.385023418201569D+03
 0.151944057072207D+03 0.713770005771101D+02 -.360649503314961D+02 0.915226107678543D+02
 0.148044702152268D+03 0.102055465088788D+03 0.162469768685014D+02 0.106009205371511D+03
 0.113251861098007D+03 -.501664757399297D+02 -.126913805276617D+02 -.100738461444969D+03
 0.147662899655616D+03 -.606983972557764D+02 0.208765813362514D+02 -.967933546943970D+02
 0.114254073891396D+03 -.625675926701921D+02 0.116327726544050D+02 -.948892425336428D+02
0.216836846756D-05 0.000000000000D+00 0.000000000000D+00 0.256454772273D-10 0.000000000000D+00  7 1 -1 23 -13 13 23 21 0 0.12228360D+00 0.15027766D-01 0.37201499D+05 0.37201499D+05 0.37201499D+05 0.11587645D+01  1  2  2  2  7  2       -1 0.178540515915D-03 0.100000000000D+01
-.100643539266D-06 0.000000000000D+00 -.832710585995D-08 0.256454772273D-10 0.000000000000D+00  7 1 -1 23 -13 13 23 21 2 0.12228360D+00 0.15027766D-01 0.37201499D+05 0.37201499D+05 0.37201499D+05 0.11587645D+01  1  2  3  2  7  2       -1 -.111270478892D-04 0.100000000000D+01
0.140420324763D-06 0.000000000000D+00 0.000000000000D+00 0.256454772273D-10 0.000000000000D+00  7 1 -1 23 -13 13 23 21 2 0.12228360D+00 0.15027766D-01 0.37201499D+05 0.37201499D+05 0.37201499D+05 0.11587645D+01  1  2 15  2  7  2       -1 0.155247290551D-04 0.100000000000D+01
0.410642450013D-05 0.000000000000D+00 0.000000000000D+00 0.256454772273D-10 0.000000000000D+00  7 1 -1 23 -13 13 23 21 2 0.12228360D+00 0.20985833D-01 0.50969539D+05 0.50969539D+05 0.50969539D+05 0.11465625D+01  1  2 12  2  7  2       -1 0.262224639636D-03 0.100000000000D+01
-.450462814546D-05 0.000000000000D+00 0.000000000000D+00 0.256454772273D-10 0.000000000000D+00  7 1 -1 23 -13 13 23 21 2 0.12228360D+00 0.15027766D-01 0.37201499D+05 0.37201499D+05 0.37201499D+05 0.11587645D+01  1  2  4  2  7  2       -1 -.498027130831D-03 0.100000000000D+01
-.499565262512D-05 0.000000000000D+00 -.975123063532D-06 0.256454772273D-10 0.000000000000D+00  7 1 -1 23 -13 13 23 21 2 0.12228360D+00 0.21497368D-01 0.37201499D+05 0.37201499D+05 0.37201499D+05 0.11587645D+01  1  2  5  2  7  2       -1 -.314601382680D-03 0.100000000000D+01
0.507532018018D-05 0.000000000000D+00 0.915797113106D-06 0.256454772273D-10 0.000000000000D+00  7 1 -1 23 -13 13 23 21 2 0.12228360D+00 0.15027766D-01 0.37201499D+05 0.37201499D+05 0.37201499D+05 0.11587645D+01  1  2  6  2  7  2       -1 0.561122264871D-03 0.100000000000D+01
0.171489448493D-06 0.000000000000D+00 0.000000000000D+00 0.256454772273D-10 0.000000000000D+00  7 1 21 23 -13 13 23 1 2 0.12228360D+00 0.20985833D-01 0.50969539D+05 0.50969539D+05 0.50969539D+05 0.11465625D+01  1  2 12  4  7  2       -1 0.133234620301D-03 0.100000000000D+01
-.190871220933D-06 0.000000000000D+00 -.428197813805D-07 0.256454772273D-10 0.000000000000D+00  7 1 21 23 -13 13 23 1 2 0.12228360D+00 0.21497368D-01 0.37201499D+05 0.37201499D+05 0.37201499D+05 0.11587645D+01  1  2  5  4  7  2       -1 -.146574672001D-03 0.100000000000D+01
  </mgrwgt>
  </event>
  <event>
  8     66 0.56006291E-06 0.22161345E+03 0.75467711E-02 0.10306466E+00
        1 -1    0    0  501    0 0.00000000E+00 0.00000000E+00 0.32098784E+03 0.32098800E+03 0.32000000E+00 0.0000E+00 0.9000E+01
       -1 -1    0    0    0  501 0.00000000E+00 0.00000000E+00 -.28042458E+03 0.28042476E+03 0.32000000E+00 0.0000E+00 0.9000E+01
       25  2    1    2    0    0 -.36210054E+02 -.14449660E+03 0.17820482E+03 0.37938711E+03 0.29997863E+03 0.0000E+00 0.0000E+00
       23  2    1    2    0    0 0.36210054E+02 0.14449660E+03 -.13764156E+03 0.22202565E+03 0.90331363E+02 0.0000E+00 0.0000E+00
       23  1    3    3    0    0 0.65601469E+02 -.58223949E+02 -.15088594E+02 0.12742252E+03 0.91188000E+02 0.0000E+00 0.9000E+01
      -11  1    4    4    0    0 0.46209894E+02 0.12175840E+03 -.65598552E+02 0.14582055E+03 0.51099893E-03 0.0000E+00 0.9000E+01
       11  1    4    4    0    0 -.99998393E+01 0.22738201E+02 -.72043011E+02 0.76205105E+02 0.51099893E-03 0.0000E+00 0.9000E+01
       23  1    3    3    0    0 -.10181152E+03 -.86272654E+02 0.19329342E+03 0.25196459E+03 0.91188000E+02 0.0000E+00 0.9000E+01
#aMCatNLO 1  0  0  1  1 0.54353106D+02 0.00000000D+00  -5  7  0 0.00000000D+00 0.00000000D+00 0.00000000D+00 0.00000000D+00 0.00000000D+00
  <mgrwgt>
 0.1118627523D-03    4    2    0
 0.300021637011590D+03 0.000000000000000D+00 0.000000000000000D+00 0.300021637011590D+03
 0.300021637011590D+03 0.000000000000000D+00 0.000000000000000D+00 -.300021637011590D+03
 0.128733333038486D+03 0.656014690784508D+02 -.582239487629001D+02 -.237368645023328D+02
 0.150587856497770D+03 0.462098935441893D+02 0.121758401659694D+03 -.756058191444559D+02
 0.812491767875312D+02 -.999983934133724D+01 0.227382012638200D+02 -.773589435365101D+02
 0.239472907699392D+03 -.101811523281303D+03 -.862726541606143D+02 0.176701627183299D+03
 0.000000000000000D+00 0.000000000000000D+00 -.000000000000000D+00 -.000000000000000D+00
 0.315416175464337D+03 0.000000000000000D+00 0.000000000000000D+00 0.315416175464337D+03
 0.353385696068728D+03 0.000000000000000D+00 0.000000000000000D+00 -.353385696068728D+03
 0.121628183846266D+03 0.595592184033564D+02 -.486561869500715D+02 -.237368645023328D+02
 0.158294589834712D+03 0.387552927209470D+02 0.133562586709561D+03 -.756058191444559D+02
 0.838069608717758D+02 -.139833211943391D+02 0.290459510750526D+02 -.773589435365101D+02
 0.238770216385121D+03 -.113353492172189D+03 -.679962179223325D+02 0.176701627183299D+03
 0.663019205951909D+02 0.290223022422247D+02 -.459561329122099D+02 -.379695206043908D+02
0.342006129763D-05 0.000000000000D+00 0.000000000000D+00 0.395221119957D-06 0.000000000000D+00  7 1 -1 23 -11 11 23 21 0 0.49382771D-01 0.43142269D-01 0.49112523D+05 0.49112523D+05 0.49112523D+05 0.11479801D+01  1  2  2  1  7  1        1 0.177316838474D-03 0.100000000000D+01
-.168805225036D-06 0.000000000000D+00 -.131339359057D-07 0.395221119957D-06 0.000000000000D+00  7 1 -1 23 -11 11 23 21 2 0.49382771D-01 0.43142269D-01 0.49112523D+05 0.49112523D+05 0.49112523D+05 0.11479801D+01  1  2  3  1  7  1        1 -.115337551602D-04 0.100000000000D+01
0.217144119487D-06 0.000000000000D+00 0.000000000000D+00 0.395221119957D-06 0.000000000000D+00  7 1 -1 23 -11 11 23 21 2 0.49382771D-01 0.43142269D-01 0.49112523D+05 0.49112523D+05 0.49112523D+05 0.11479801D+01  1  2 15  1  7  1        1 0.148365496868D-04 0.100000000000D+01
-.100630892146D-05 0.000000000000D+00 0.000000000000D+00 0.395221119957D-06 0.000000000000D+00  7 1 -1 23 -11 11 23 21 2 0.49382771D-01 0.43142269D-01 0.49112523D+05 0.49112523D+05 0.49112523D+05 0.11479801D+01  1  2  4  1  7  1        1 -.687568806782D-04 0.100000000000D+01
  </mgrwgt>
  </event>
  <event>
  8     66 0.56006291E-06 0.33526424E+03 0.75467711E-02 0.89628696E-01
        1 -1    0    0  501    0 0.00000000E+00 0.00000000E+00 0.12011887E+04 0.12011887E+04 0.32000000E+00 0.0000E+00 0.9000E+01
       -1 -1    0    0    0  501 0.00000000E+00 0.00000000E+00 -.37088693E+03 0.37088706E+03 0.32000000E+00 0.0000E+00 0.9000E+01
       25  2    1    2    0    0 -.22334709E+03 -.19506884E+03 0.10892520E+04 0.11679011E+04 0.29931131E+03 0.0000E+00 0.0000E+00
       23  2    1    2    0    0 0.22334709E+03 0.19506884E+03 -.25895021E+03 0.40417473E+03 0.91467073E+02 0.0000E+00 0.0000E+00
       23  1    3    3    0    0 -.94605104E+02 -.30321763E+02 0.15157798E+03 0.20288093E+03 0.91188000E+02 0.0000E+00 0.9000E+01
      -11  1    4    4    0    0 0.98823138E+02 0.35143743E+02 -.63546853E+02 0.12263482E+03 0.51099893E-03 0.0000E+00 0.9000E+01
       11  1    4    4    0    0 0.12452395E+03 0.15992510E+03 -.19540336E+03 0.28153992E+03 0.51099893E-03 0.0000E+00 0.9000E+01
       23  1    3    3    0    0 -.12874199E+03 -.16474708E+03 0.93767400E+03 0.96502015E+03 0.91188000E+02 0.0000E+00 0.9000E+01
#aMCatNLO 1  0  0  1  2 0.65238799D+03 0.00000000D+00  -5  7  0 0.00000000D+00 0.00000000D+00 0.00000000D+00 0.00000000D+00 0.00000000D+00
  <mgrwgt>
 0.2244199966D-03    3    2    0
 0.667461853246483D+03 0.000000000000000D+00 0.000000000000000D+00 0.667461853246483D+03
 0.667461853246483D+03 0.000000000000000D+00 0.000000000000000D+00 -.667461853246483D+03
 0.144644019648075D+03 -.946051043156248D+02 -.303217633741053D+02 0.523173582978641D+02
 0.183946310625001D+03 0.988231384396894D+02 0.351437430158144D+02 -.151113036592869D+03
 0.453093940149893D+03 0.124523952284728D+03 0.159925099731698D+03 -.405230633570257D+03
 0.553239436069997D+03 -.128741986408793D+03 -.164747079373407D+03 0.504026311865262D+03
 0.000000000000000D+00 -.000000000000000D+00 0.000000000000000D+00 -.000000000000000D+00
 0.798729920028124D+03 0.000000000000000D+00 0.000000000000000D+00 0.798729920028124D+03
 0.264890930165110D+04 0.000000000000000D+00 0.000000000000000D+00 -.264890930165110D+04
 0.118956872131071D+03 -.350274403989454D+02 -.432603574076689D+02 0.523173582978641D+02
 0.248288308019719D+03 0.196514495509698D+03 0.139279261035492D+02 -.151113036592869D+03
 0.547189928732199D+03 0.350602763169267D+03 0.110827136479619D+03 -.405230633570257D+03
 0.571374905171359D+03 0.125437332963510D+03 -.219947683238726D+03 0.504026311865262D+03
 0.196182920762488D+04 -.637527151243529D+03 0.138452978063227D+03 -.185017938162298D+04
0.504971878280D-04 0.000000000000D+00 0.000000000000D+00 0.138373494558D-05 0.000000000000D+00  7 1 -1 23 -11 11 23 21 0 0.18479828D+00 0.57059541D-01 0.11240211D+06 0.11240211D+06 0.11240211D+06 0.11175791D+01  1  2  2  1  7  1        1 0.215202645305D-03 0.100000000000D+01
-.118819880672D-05 0.000000000000D+00 -.193922497474D-06 0.138373494558D-05 0.000000000000D+00  7 1 -1 23 -11 11 23 21 2 0.18479828D+00 0.57059541D-01 0.11240211D+06 0.11240211D+06 0.11240211D+06 0.11175791D+01  1  2  3  1  7  1        1 -.632449783578D-05 0.100000000000D+01
0.291988502699D-05 0.000000000000D+00 0.000000000000D+00 0.138373494558D-05 0.000000000000D+00  7 1 -1 23 -11 11 23 21 2 0.18479828D+00 0.57059541D-01 0.11240211D+06 0.11240211D+06 0.11240211D+06 0.11175791D+01  1  2 15  1  7  1        1 0.155418490824D-04 0.100000000000D+01
  </mgrwgt>
  </event>
  <event>
  8     66 0.56006291E-06 0.26595744E+03 0.75467711E-02 0.99969846E-01
        1 -1    0    0  501    0 0.00000000E+00 0.00000000E+00 0.58225952E+03 0.58225961E+03 0.32000000E+00 0.0000E+00 0.9000E+01
       -1 -1    0    0    0  501 0.00000000E+00 0.00000000E+00 -.17483258E+03 0.17483287E+03 0.32000000E+00 0.0000E+00 0.9000E+01
       25  2    1    2    0    0 -.12217924E+03 -.17770135E+03 0.36315948E+03 0.51900270E+03 0.30161807E+03 0.0000E+00 0.0000E+00
       23  2    1    2    0    0 0.12217924E+03 0.17770135E+03 0.44267461E+02 0.23808978E+03 0.90673028E+02 0.0000E+00 0.0000E+00
       23  1    3    3    0    0 -.12324419E+03 -.95999570E+02 0.35237147E+03 0.39608831E+03 0.91188000E+02 0.0000E+00 0.9000E+01
      -13  1    4    4    0    0 0.10106845E+03 0.80753574E+02 0.50025754E+02 0.13870313E+03 0.10565837E+00 0.0000E+00 0.9000E+01
       13  1    4    4    0    0 0.21110790E+02 0.96947774E+02 -.57582927E+01 0.99386646E+02 0.10565837E+00 0.0000E+00 0.9000E+01
       23  1    3    3    0    0 0.10649497E+01 -.81701778E+02 0.10788016E+02 0.12291439E+03 0.91188000E+02 0.0000E+00 0.9000E+01
#aMCatNLO 1  0  0  1  2 0.10026716D+03 0.00000000D+00  -5  7  0 0.00000000D+00 0.00000000D+00 0.00000000D+00 0.00000000D+00 0.00000000D+00
  <mgrwgt>
 0.8473726330D-04    4    2    0
 0.319058108117740D+03 0.000000000000000D+00 0.000000000000000D+00 0.319058108117740D+03
 0.319058108117740D+03 0.000000000000000D+00 0.000000000000000D+00 -.319058108117740D+03
 0.244955144037624D+03 -.123244188294086D+03 -.959995722057429D+02 0.165174826879097D+03
 0.132623596370434D+03 0.101068558819359D+03 0.807535536646784D+02 -.292066482659594D+02
 0.121593771693252D+03 0.211106828344464D+02 0.969477974016338D+02 -.702887541775058D+02
 0.138943704134170D+03 0.106494664028066D+01 -.817017788605693D+02 -.656794244356315D+02
 0.000000000000000D+00 0.000000000000000D+00 -.000000000000000D+00 -.000000000000000D+00
 0.350432261671241D+03 0.000000000000000D+00 0.000000000000000D+00 0.350432261671241D+03
 0.414503364170734D+03 0.000000000000000D+00 0.000000000000000D+00 -.414503364170734D+03
 0.242243200664358D+03 -.138988727713207D+03 -.613671496668773D+02 0.165174826879097D+03
 0.139229544085535D+03 0.922832200909624D+02 0.100078194093307D+03 -.292066482659594D+02
 0.135580462398782D+03 0.127997148061764D+02 0.115228989934487D+03 -.702887541775058D+02
 0.128892463012588D+03 -.759057761871058D+01 -.626626843876791D+02 -.656794244356315D+02
 0.118989955680712D+03 0.414963704347782D+02 -.912773499732374D+02 -.640711024994929D+02
0.223921080422D-05 0.000000000000D+00 0.000000000000D+00 0.293398158923D-07 0.000000000000D+00  7 1 -1 23 -13 13 23 21 0 0.89578417D-01 0.26897349D-01 0.70733358D+05 0.70733358D+05 0.70733358D+05 0.11342750D+01  1  2  2  1  7  1        1 0.114990970191D-03 0.100000000000D+01
-.119388461129D-06 0.000000000000D+00 -.859915908594D-08 0.293398158923D-07 0.000000000000D+00  7 1 -1 23 -13 13 23 21 2 0.89578417D-01 0.26897349D-01 0.70733358D+05 0.70733358D+05 0.70733358D+05 0.11342750D+01  1  2  3  1  7  1        1 -.788801752798D-05 0.100000000000D+01
0.138921341551D-06 0.000000000000D+00 0.000000000000D+00 0.293398158923D-07 0.000000000000D+00  7 1 -1 23 -13 13 23 21 2 0.89578417D-01 0.26897349D-01 0.70733358D+05 0.70733358D+05 0.70733358D+05 0.11342750D+01  1  2 15  1  7  1        1 0.917855852069D-05 0.100000000000D+01
-.477435451744D-06 0.000000000000D+00 0.000000000000D+00 0.293398158923D-07 0.000000000000D+00  7 1 -1 23 -13 13 23 21 2 0.89578417D-01 0.26897349D-01 0.70733358D+05 0.70733358D+05 0.70733358D+05 0.11342750D+01  1  2  4  1  7  1        1 -.315442478798D-04 0.100000000000D+01
  </mgrwgt>
  </event>
  <event>
  8     66 0.56006291E-06 0.24462839E+03 0.75467711E-02 0.97682193E-01
        1 -1    0    0  501    0 0.00000000E+00 0.00000000E+00 0.14723613E+04 0.14723614E+04 0.32000000E+00 0.0000E+00 0.9000E+01
       -1 -1    0    0    0  501 0.00000000E+00 0.00000000E+00 -.62438543E+02 0.62439363E+02 0.32000000E+00 0.0000E+00 0.9000E+01
       25  2    1    2    0    0 -.17460917E+03 -.15607418E+01 0.53154385E+03 0.63445596E+03 0.29917336E+03 0.0000E+00 0.0000E+00
       23  2    1    2    0    0 0.17460917E+03 0.15607418E+01 0.87837893E+03 0.90034476E+03 0.92630200E+02 0.0000E+00 0.0000E+00
       23  1    3    3    0    0 0.15762796E+02 0.65010496E+01 0.32890434E+03 0.34173681E+03 0.91188000E+02 0.0000E+00 0.9000E+01
      -13  1    4    4    0    0 0.10669491E+03 -.29311360E+02 0.66864017E+03 0.67773347E+03 0.10565837E+00 0.0000E+00 0.9000E+01
       13  1    4    4    0    0 0.67914254E+02 0.30872102E+02 0.20973875E+03 0.22261130E+03 0.10565837E+00 0.0000E+00 0.9000E+01
       23  1    3    3    0    0 -.19037197E+03 -.80617913E+01 0.20263951E+03 0.29271915E+03 0.91188000E+02 0.0000E+00 0.9000E+01
#aMCatNLO 1  0  0  2  2 0.22721148D+03 0.00000000D+00  -5  7  0 0.00000000D+00 0.00000000D+00 0.00000000D+00 0.00000000D+00 0.00000000D+00
  <mgrwgt>
 0.2237927750D-03    3    2    0
 0.303204141936393D+03 0.000000000000000D+00 0.000000000000000D+00 0.303204141936393D+03
 0.303204141936393D+03 0.000000000000000D+00 0.000000000000000D+00 -.303204141936393D+03
 0.100210004619277D+03 0.157627955380491D+02 0.650104953909384D+01 0.378954392178180D+02
 0.160708341576899D+03 0.106694966456565D+03 -.293114370239999D+02 0.116551254153774D+03
 0.757714942763580D+02 0.679142037868759D+02 0.308721788106140D+02 0.132623091636533D+02
 0.269718443400252D+03 -.190371965781490D+03 -.806179132570795D+01 -.167709002535245D+03
 0.000000000000000D+00 -.000000000000000D+00 0.000000000000000D+00 0.000000000000000D+00
 0.586281823560862D+03 0.000000000000000D+00 0.000000000000000D+00 0.586281823560862D+03
 0.372956515746183D+03 0.000000000000000D+00 0.000000000000000D+00 -.372956515746183D+03
 0.105628312921828D+03 0.221706052269685D+02 -.302405207804080D+02 0.378954392178180D+02
 0.189306364480122D+03 0.117591031152045D+03 -.917880938927371D+02 0.116551254153774D+03
 0.738921894209590D+02 0.725732799682750D+02 0.415762524969821D+01 0.132623091636533D+02
 0.278750205778948D+03 -.173297969227971D+03 -.105961928105808D+03 -.167709002535245D+03
 0.311661266705188D+03 -.390369471193169D+02 0.223832917529255D+03 0.213325307814680D+03
0.415687139683D-05 0.000000000000D+00 0.000000000000D+00 0.617241776354D-07 0.000000000000D+00  7 1 -1 23 -13 13 23 21 0 0.22651719D+00 0.96059954D-02 0.59843050D+05 0.59843050D+05 0.59843050D+05 0.11404933D+01  1  2  2  2  7  2       -1 0.220454483845D-03 0.100000000000D+01
-.217998254750D-06 0.000000000000D+00 -.159634806932D-07 0.617241776354D-07 0.000000000000D+00  7 1 -1 23 -13 13 23 21 2 0.22651719D+00 0.96059954D-02 0.59843050D+05 0.59843050D+05 0.59843050D+05 0.11404933D+01  1  2  3  2  7  2       -1 -.150380269106D-04 0.100000000000D+01
0.266391680928D-06 0.000000000000D+00 0.000000000000D+00 0.617241776354D-07 0.000000000000D+00  7 1 -1 23 -13 13 23 21 2 0.22651719D+00 0.96059954D-02 0.59843050D+05 0.59843050D+05 0.59843050D+05 0.11404933D+01  1  2 15  2  7  2       -1 0.183763180634D-04 0.100000000000D+01
  </mgrwgt>
  </event>
  <event>
  8     66 0.56006291E-06 0.10450701E+03 0.75467711E-02 0.10253689E+00
        1 -1    0    0  501    0 0.00000000E+00 0.00000000E+00 0.28480389E+03 0.28480407E+03 0.32000000E+00 0.0000E+00 0.9000E+01
       -1 -1    0    0    0  501 0.00000000E+00 0.00000000E+00 -.17124826E+03 0.17124855E+03 0.32000000E+00 0.0000E+00 0.9000E+01
       25  2    1    2    0    0 0.65891920E+02 -.39960383E+02 0.13458842E+03 0.33748565E+03 0.29973979E+03 0.0000E+00 0.0000E+00
       23  2    1    2    0    0 -.65891920E+02 0.39960383E+02 -.21032790E+02 0.11856697E+03 0.87619466E+02 0.0000E+00 0.0000E+00
       23  1    3    3    0    0 0.72171252E+02 -.12444466E+03 0.25979560E+02 0.17229437E+03 0.91188000E+02 0.0000E+00 0.9000E+01
      -11  1    4    4    0    0 -.44244351E+02 0.96505910E+01 -.52838177E+02 0.69588573E+02 0.51099893E-03 0.0000E+00 0.9000E+01
       11  1    4    4    0    0 -.21647569E+02 0.30309792E+02 0.31805387E+02 0.48978397E+02 0.51099893E-03 0.0000E+00 0.9000E+01
       23  1    3    3    0    0 -.62793324E+01 0.84484272E+02 0.10860886E+03 0.16519128E+03 0.91188000E+02 0.0000E+00 0.9000E+01
#aMCatNLO 1  0  0  2  1 0.12010109D+03 0.00000000D+00  -5  7  0 0.00000000D+00 0.00000000D+00 0.00000000D+00 0.00000000D+00 0.00000000D+00
  <mgrwgt>
 0.1068043962D-03    7    2    0
 0.220844464984649D+03 0.000000000000000D+00 0.000000000000000D+00 0.220844464984649D+03
 0.220844464984649D+03 0.000000000000000D+00 0.000000000000000D+00 -.220844464984649D+03
 0.171218179728970D+03 0.721712520006337D+02 -.124444655397597D+03 -.174714582487077D+02
 0.854359728966017D+02 -.442443509926078D+02 0.965059103026774D+01 -.724472840263754D+02
 0.423941926536405D+02 -.216475686669338D+02 0.303097923544053D+02 0.202476376152183D+02
 0.142640584690085D+03 -.627933234109209D+01 0.844842720129239D+02 0.696711046598648D+02
 0.000000000000000D+00 0.000000000000000D+00 -.000000000000000D+00 -.000000000000000D+00
 0.244127011426977D+03 0.000000000000000D+00 0.000000000000000D+00 0.244127011426977D+03
 0.465112018983217D+03 0.000000000000000D+00 0.000000000000000D+00 -.465112018983217D+03
 0.139611680770108D+03 0.428797382195598D+02 -.950381305600037D+02 -.174714582487077D+02
 0.988875089530434D+02 -.616143481997790D+02 0.270887903025649D+02 -.724472840263754D+02
 0.539266690508313D+02 -.307245081974259D+02 0.394223718457805D+02 0.202476376152183D+02
 0.165300458948880D+03 -.352986141727222D+02 0.113617496001584D+03 0.696711046598648D+02
 0.251512712687331D+03 0.847577323503672D+02 -.850905275899257D+02 -.220985007556240D+03
0.114759736776D-05 0.000000000000D+00 0.000000000000D+00 0.270536553090D-07 0.000000000000D+00  7 1 -1 23 -11 11 23 21 0 0.43816019D-01 0.26345922D-01 0.35593256D+05 0.35593256D+05 0.35593256D+05 0.11605093D+01  1  2  2  2  7  2       -1 0.158662390893D-03 0.100000000000D+01
-.618324242989D-07 0.000000000000D+00 -.440707606154D-08 0.270536553090D-07 0.000000000000D+00  7 1 -1 23 -11 11 23 21 2 0.43816019D-01 0.26345922D-01 0.35593256D+05 0.35593256D+05 0.35593256D+05 0.11605093D+01  1  2  3  2  7  2       -1 -.115132501964D-04 0.100000000000D+01
0.734863455749D-07 0.000000000000D+00 0.000000000000D+00 0.270536553090D-07 0.000000000000D+00  7 1 -1 23 -11 11 23 21 2 0.43816019D-01 0.26345922D-01 0.35593256D+05 0.35593256D+05 0.35593256D+05 0.11605093D+01  1  2 15  2  7  2       -1 0.136832202880D-04 0.100000000000D+01
0.485746465828D-06 0.000000000000D+00 0.000000000000D+00 0.270536553090D-07 0.000000000000D+00  7 1 -1 23 -11 11 23 21 2 0.43816019D-01 0.55395394D-01 0.69117259D+05 0.69117259D+05 0.69117259D+05 0.11351285D+01  1  2 12  2  7  2       -1 0.242316614501D-04 0.100000000000D+01
-.127189441003D-05 0.000000000000D+00 -.349373424324D-06 0.270536553090D-07 0.000000000000D+00  7 1 -1 23 -11 11 23 21 2 0.43816019D-01 0.59667326D-01 0.35593256D+05 0.35593256D+05 0.35593256D+05 0.11605093D+01  1  2  5  2  7  2       -1 -.583488087908D-04 0.100000000000D+01
0.390435966999D-07 0.000000000000D+00 0.000000000000D+00 0.270536553090D-07 0.000000000000D+00  7 1 21 23 -11 11 23 1 2 0.43816019D-01 0.55395394D-01 0.69117259D+05 0.69117259D+05 0.69117259D+05 0.11351285D+01  1  2 12  4  7  2       -1 0.176342751365D-04 0.100000000000D+01
-.908776039224D-07 0.000000000000D+00 -.310326232823D-07 0.270536553090D-07 0.000000000000D+00  7 1 21 23 -11 11 23 1 2 0.43816019D-01 0.59667326D-01 0.35593256D+05 0.35593256D+05 0.35593256D+05 0.11605093D+01  1  2  5  4  7  2       -1 -.375450925956D-04 0.100000000000D+01
  </mgrwgt>
  </event>
  <event>
  8     66 0.56006291E-06 0.24505274E+03 0.75467711E-02 0.98910662E-01
        1 -1    0    0  501    0 0.00000000E+00 0.00000000E+00 0.55498261E+03 0.55498270E+03 0.32000000E+00 0.0000E+00 0.9000E+01
       -1 -1    0    0    0  501 0.00000000E+00 0.00000000E+00 -.18033899E+03 0.18033928E+03 0.32000000E+00 0.0000E+00 0.9000E+01
       25  2    1    2    0    0 0.14870634E+03 0.56458193E+02 0.42810757E+03 0.54546856E+03 0.29825955E+03 0.0000E+00 0.0000E+00
       23  2    1    2    0    0 -.14870634E+03 -.56458193E+02 -.53463955E+02 0.18985342E+03 0.88796515E+02 0.0000E+00 0.0000E+00
       23  1    3    3    0    0 0.21623782E+02 -.66949212E+02 0.26154419E+03 0.28578034E+03 0.91188000E+02 0.0000E+00 0.9000E+01
      -11  1    4    4    0    0 0.44728461E+01 -.16913831E+02 -.22748454E+02 0.28698018E+02 0.51099893E-03 0.0000E+00 0.9000E+01
       11  1    4    4    0    0 -.15317919E+03 -.39544362E+02 -.30715500E+02 0.16115540E+03 0.51099893E-03 0.0000E+00 0.9000E+01
       23  1    3    3    0    0 0.12708256E+03 0.12340740E+03 0.16656337E+03 0.25968822E+03 0.91188000E+02 0.0000E+00 0.9000E+01
#aMCatNLO 1  0  0  2  2 0.16569677D+03 0.00000000D+00  -5  7  0 0.00000000D+00 0.00000000D+00 0.00000000D+00 0.00000000D+00 0.00000000D+00
  <mgrwgt>
 0.1584428010D-03    7    2    0
 0.316362360853140D+03 0.000000000000000D+00 0.000000000000000D+00 0.316362360853140D+03
 0.316362360853140D+03 0.000000000000000D+00 0.000000000000000D+00 -.316362360853140D+03
 0.177256708798735D+03 0.216237818465086D+02 -.669492120042703D+02 0.134740137081796D+03
 0.468210665841797D+02 0.447284610268082D+01 -.169138313218709D+02 -.434295778685128D+02
 0.205473987427953D+03 -.153179188128719D+03 -.395443616070098D+02 -.131118035749714D+03
 0.203172958895412D+03 0.127082560179529D+03 0.123407404933151D+03 0.398074765364306D+02
 0.000000000000000D+00 0.000000000000000D+00 0.000000000000000D+00 -.000000000000000D+00
 0.401862346766298D+03 0.000000000000000D+00 0.000000000000000D+00 0.401862346766298D+03
 0.418754383973684D+03 0.000000000000000D+00 0.000000000000000D+00 -.418754383973684D+03
 0.190230629145216D+03 -.145100536165820D+02 -.975038190237044D+02 0.134740137081796D+03
 0.503655236336733D+02 -.508319541918060D+01 -.249943765952925D+02 -.434295778685128D+02
 0.249720681262537D+03 -.197937000341141D+03 -.773913641649611D+02 -.131118035749714D+03
 0.163744319659195D+03 0.910047768032780D+02 0.929001953035606D+02 0.398074765364306D+02
 0.166555577039360D+03 0.126525472573626D+03 0.106989364480397D+03 -.168920372073854D+02
0.299581930830D-05 0.000000000000D+00 0.000000000000D+00 0.113484336876D-07 0.000000000000D+00  7 1 -1 23 -11 11 23 21 0 0.85381968D-01 0.27744490D-01 0.60050844D+05 0.60050844D+05 0.60050844D+05 0.11403633D+01  1  2  2  2  7  2       -1 0.156656038343D-03 0.100000000000D+01
-.153233102697D-06 0.000000000000D+00 -.115047349612D-07 0.113484336876D-07 0.000000000000D+00  7 1 -1 23 -11 11 23 21 2 0.85381968D-01 0.27744490D-01 0.60050844D+05 0.60050844D+05 0.60050844D+05 0.11403633D+01  1  2  3  2  7  2       -1 -.104200693438D-04 0.100000000000D+01
0.190393949208D-06 0.000000000000D+00 0.000000000000D+00 0.113484336876D-07 0.000000000000D+00  7 1 -1 23 -11 11 23 21 2 0.85381968D-01 0.27744490D-01 0.60050844D+05 0.60050844D+05 0.60050844D+05 0.11403633D+01  1  2 15  2  7  2       -1 0.129470598615D-04 0.100000000000D+01
-.106992164000D-05 0.000000000000D+00 0.000000000000D+00 0.113484336876D-07 0.000000000000D+00  7 1 -1 23 -11 11 23 21 2 0.85381968D-01 0.27744490D-01 0.60050844D+05 0.60050844D+05 0.60050844D+05 0.11403633D+01  1  2  4  2  7  2       -1 -.727561961805D-04 0.100000000000D+01
-.119394355421D-05 0.000000000000D+00 -.107148055428D-05 0.113484336876D-07 0.000000000000D+00  7 1 -1 23 -11 11 23 21 2 0.85381968D-01 0.45970407D-01 0.60050844D+05 0.60050844D+05 0.60050844D+05 0.11403633D+01  1  2  5  2  7  2       -1 -.344862588271D-04 0.100000000000D+01
0.164432359207D-05 0.000000000000D+00 0.948024279683D-06 0.113484336876D-07 0.000000000000D+00  7 1 -1 23 -11 11 23 21 2 0.85381968D-01 0.27744490D-01 0.60050844D+05 0.60050844D+05 0.60050844D+05 0.11403633D+01  1  2  6  2  7  2       -1 0.111816347456D-03 0.100000000000D+01
-.189810630091D-07 0.000000000000D+00 -.608884532077D-07 0.113484336876D-07 0.000000000000D+00  7 1 21 23 -11 11 23 1 2 0.85381968D-01 0.45970407D-01 0.60050844D+05 0.60050844D+05 0.60050844D+05 0.11403633D+01  1  2  5  4  7  2       -1 -.531412034863D-05 0.100000000000D+01
  </mgrwgt>
  </event>
  <event>
  8     66 0.56006291E-06 0.26469681E+03 0.75467711E-02 0.10116517E+00
        1 -1    0    0  501    0 0.00000000E+00 0.00000000E+00 0.13131598E+03 0.13131637E+03 0.32000000E+00 0.0000E+00 0.9000E+01
       -1 -1    0    0    0  501 0.00000000E+00 0.00000000E+00 -.76483491E+03 0.76483498E+03 0.32000000E+00 0.0000E+00 0.9000E+01
       25  2    1    2    0    0 0.18379324E+03 0.19024556E+02 -.58790144E+03 0.68445640E+03 0.29784320E+03 0.0000E+00 0.0000E+00
       23  2    1    2    0    0 -.18379324E+03 -.19024556E+02 -.45617497E+02 0.21169494E+03 0.92692523E+02 0.0000E+00 0.0000E+00
       23  1    3    3    0    0 0.10386714E+03 -.88283760E+02 -.42146542E+03 0.45225077E+03 0.91188000E+02 0.0000E+00 0.9000E+01
      -11  1    4    4    0    0 -.48186657E+02 -.44380885E+02 0.25797974E+01 0.65561210E+02 0.51099893E-03 0.0000E+00 0.9000E+01
       11  1    4    4    0    0 -.13560658E+03 0.25356328E+02 -.48197294E+02 0.14613373E+03 0.51099893E-03 0.0000E+00 0.9000E+01
       23  1    3    3    0    0 0.79926104E+02 0.10730832E+03 -.16643602E+03 0.23220563E+03 0.91188000E+02 0.0000E+00 0.9000E+01
#aMCatNLO 1  0  0  2  1 0.52308849D+02 0.00000000D+00  -5  7  0 0.00000000D+00 0.00000000D+00 0.00000000D+00 0.00000000D+00 0.00000000D+00
  <mgrwgt>
 0.2644940583D-03    4    2    0
 0.316915207097261D+03 0.000000000000000D+00 0.000000000000000D+00 0.316915207097261D+03
 0.316915207097261D+03 0.000000000000000D+00 0.000000000000000D+00 -.316915207097261D+03
 0.218163734156217D+03 0.103867138193988D+03 -.882837601277092D+02 -.143867156982017D+03
 0.952733028671181D+02 -.481866574939111D+02 -.443808845916242D+02 0.691764798297733D+02
 0.158439927014256D+03 -.135606584817072D+03 0.253563281129287D+02 0.779174001822599D+02
 0.161953450156931D+03 0.799261041169945D+02 0.107308316606405D+03 -.322672303001593D+01
 0.000000000000000D+00 -.000000000000000D+00 0.000000000000000D+00 0.000000000000000D+00
 0.436495598438597D+03 0.000000000000000D+00 0.000000000000000D+00 0.436495598438597D+03
 0.323765075394356D+03 0.000000000000000D+00 0.000000000000000D+00 -.323765075394356D+03
 0.227975787052833D+03 0.122198512313286D+03 -.895961654798338D+02 -.143867156982017D+03
 0.918921513244474D+02 -.404962382418893D+02 -.449314678332706D+02 0.691764798297733D+02
 0.147666347029127D+03 -.123029020259360D+03 0.244558575352835D+02 0.779174001822599D+02
 0.168450942156202D+03 0.935020511878508D+02 0.106336368432744D+03 -.322672303001593D+01
 0.124275446270344D+03 -.521753049998878D+02 0.373540734507727D+01 0.112730523044241D+03
0.125794194710D-04 0.000000000000D+00 0.000000000000D+00 0.106753482489D-07 0.000000000000D+00  7 1 -1 23 -11 11 23 21 0 0.20202493D-01 0.11766694D+00 0.70064402D+05 0.70064402D+05 0.70064402D+05 0.11346257D+01  1  2  2  2  7  2       -1 0.284215213834D-03 0.100000000000D+01
-.671311056530D-06 0.000000000000D+00 -.483082830058D-07 0.106753482489D-07 0.000000000000D+00  7 1 -1 23 -11 11 23 21 2 0.20202493D-01 0.11766694D+00 0.70064402D+05 0.70064402D+05 0.70064402D+05 0.11346257D+01  1  2  3  2  7  2       -1 -.195261100580D-04 0.100000000000D+01
0.791640129153D-06 0.000000000000D+00 0.000000000000D+00 0.106753482489D-07 0.000000000000D+00  7 1 -1 23 -11 11 23 21 2 0.20202493D-01 0.11766694D+00 0.70064402D+05 0.70064402D+05 0.70064402D+05 0.11346257D+01  1  2 15  2  7  2       -1 0.230260653951D-04 0.100000000000D+01
-.798345826329D-06 0.000000000000D+00 0.000000000000D+00 0.106753482489D-07 0.000000000000D+00  7 1 -1 23 -11 11 23 21 2 0.20202493D-01 0.11766694D+00 0.70064402D+05 0.70064402D+05 0.70064402D+05 0.11346257D+01  1  2  4  2  7  2       -1 -.232211108659D-04 0.100000000000D+01
  </mgrwgt>
  </event>
  <event>
  8     66 0.56006291E-06 0.19125227E+03 0.75467711E-02 0.92776531E-01
        3 -1    0    0  501    0 0.00000000E+00 0.00000000E+00 0.15197042E+03 0.15197125E+03 0.50000000E+00 0.0000E+00 0.9000E+01
       -3 -1    0    0    0  501 0.00000000E+00 0.00000000E+00 -.39057674E+03 0.39057706E+03 0.50000000E+00 0.0000E+00 0.9000E+01
       25  2    1    2    0    0 0.21530081E+02 0.18089181E+02 -.16587993E+02 0.30051384E+03 0.29873507E+03 0.0000E+00 0.0000E+00
       23  2    1    2    0    0 -.21530081E+02 -.18089181E+02 -.22201832E+03 0.24203446E+03 0.92183424E+02 0.0000E+00 0.0000E+00
       23  1    3    3    0    0 0.94832520E+02 -.67290537E+02 -.41636161E+02 0.15352539E+03 0.91188000E+02 0.0000E+00 0.9000E+01
      -11  1    4    4    0    0 -.46025479E+02 -.36914889E+02 -.18294273E+03 0.19222147E+03 0.51099893E-03 0.0000E+00 0.9000E+01
       11  1    4    4    0    0 0.24495398E+02 0.18825709E+02 -.39075594E+02 0.49812989E+02 0.51099893E-03 0.0000E+00 0.9000E+01
       23  1    3    3    0    0 -.73302438E+02 0.85379717E+02 0.25048168E+02 0.14698845E+03 0.91188000E+02 0.0000E+00 0.9000E+01
#aMCatNLO 1  0  0  2  2 0.53524095D+03 0.00000000D+00  -5  7  0 0.00000000D+00 0.00000000D+00 0.00000000D+00 0.00000000D+00 0.00000000D+00
  <mgrwgt>
 0.5047425827D-04    3    2    0
 0.243631734788204D+03 0.000000000000000D+00 0.000000000000000D+00 0.243631734788204D+03
 0.243631734788204D+03 0.000000000000000D+00 0.000000000000000D+00 -.243631734788204D+03
 0.150555688673841D+03 0.948325197671116D+02 -.672905365524175D+02 0.288191070847582D+02
 0.124446318419339D+03 -.460254790892172D+02 -.369148894615872D+02 -.109571129312307D+03
 0.363299740309811D+02 0.244953976430977D+02 0.188257086184956D+02 -.191163595490822D+02
 0.175931488452246D+03 -.733024383209921D+02 0.853797173955091D+02 0.998683817766314D+02
 0.000000000000000D+00 -.000000000000000D+00 0.000000000000000D+00 0.000000000000000D+00
 0.663186104130114D+03 0.000000000000000D+00 0.000000000000000D+00 0.663186104130114D+03
 0.599630306042988D+03 0.000000000000000D+00 0.000000000000000D+00 -.599630306042988D+03
 0.332190776491168D+03 0.177616791832261D+03 -.263926495388124D+03 0.288191070847582D+02
 0.202616796086543D+03 0.100612741187534D+02 -.170136722787024D+03 -.109571129312307D+03
 0.453484412183012D+02 0.385021043468652D+02 -.144441641981470D+02 -.191163595490822D+02
 0.143659269403008D+03 -.184970898473305D+02 -.447984188326194D+02 0.998683817766314D+02
 0.539001126974082D+03 -.207683080450549D+03 0.493305801205915D+03 0.635557980871258D+02
0.263819758094D-05 0.000000000000D+00 0.000000000000D+00 0.417285972336D-07 0.000000000000D+00  7 3 -3 23 -11 11 23 21 0 0.23380153D-01 0.60088817D-01 0.36577432D+05 0.36577432D+05 0.36577432D+05 0.11594315D+01  1  2  2  2  7  2       -3 0.497184573356D-04 0.100000000000D+01
-.136124661448D-06 0.000000000000D+00 -.101313733642D-07 0.417285972336D-07 0.000000000000D+00  7 3 -3 23 -11 11 23 21 2 0.23380153D-01 0.60088817D-01 0.36577432D+05 0.36577432D+05 0.36577432D+05 0.11594315D+01  1  2  3  2  7  2       -3 -.344855609354D-05 0.100000000000D+01
0.165958349485D-06 0.000000000000D+00 0.000000000000D+00 0.417285972336D-07 0.000000000000D+00  7 3 -3 23 -11 11 23 21 2 0.23380153D-01 0.60088817D-01 0.36577432D+05 0.36577432D+05 0.36577432D+05 0.11594315D+01  1  2 15  2  7  2       -3 0.420435703053D-05 0.100000000000D+01
  </mgrwgt>
  </event>
  <event>
  8     66 0.56006291E-06 0.60720299E+03 0.75467711E-02 0.87060736E-01
        3 -1    0    0  501    0 0.00000000E+00 0.00000000E+00 0.79708895E+03 0.79708911E+03 0.50000000E+00 0.0000E+00 0.9000E+01
       -3 -1    0    0    0  501 0.00000000E+00 0.00000000E+00 -.47054931E+03 0.47054957E+03 0.50000000E+00 0.0000E+00 0.9000E+01
       25  2    1    2    0    0 -.56938114E+03 -.35891110E+02 0.20644574E+03 0.67687858E+03 0.30010285E+03 0.0000E+00 0.0000E+00
       23  2    1    2    0    0 0.56938114E+03 0.35891110E+02 0.12009391E+03 0.59076011E+03 0.95351479E+02 0.0000E+00 0.0000E+00
       23  1    3    3    0    0 -.53054936E+03 -.58320351E+02 0.19053041E+03 0.57402175E+03 0.91188000E+02 0.0000E+00 0.9000E+01
      -11  1    4    4    0    0 0.43936235E+03 0.40371915E+02 0.53009360E+02 0.44438627E+03 0.51099893E-03 0.0000E+00 0.9000E+01
       11  1    4    4    0    0 0.13001879E+03 -.44808051E+01 0.67084549E+02 0.14637383E+03 0.51099893E-03 0.0000E+00 0.9000E+01
       23  1    3    3    0    0 -.38831780E+02 0.22429240E+02 0.15915325E+02 0.10285683E+03 0.91188000E+02 0.0000E+00 0.9000E+01
#aMCatNLO 1  0  0  1  1 0.67638506D+03 0.00000000D+00  -5  7  0 0.00000000D+00 0.00000000D+00 0.00000000D+00 0.00000000D+00 0.00000000D+00
  <mgrwgt>
 0.2603025095D-04    3    2    0
 0.612429525337590D+03 0.000000000000000D+00 0.000000000000000D+00 0.612429525337590D+03
 0.612429525337590D+03 0.000000000000000D+00 0.000000000000000D+00 -.612429525337590D+03
 0.543275934586156D+03 -.530549356226264D+03 -.583203505579703D+02 0.441543551096974D+02
 0.445775022538427D+03 0.439362349818060D+03 0.403719153608198D+02 -.636097848729759D+02
 0.133601796115295D+03 0.130018786679871D+03 -.448080508491842D+01 0.304052202971456D+02
 0.102206297435302D+03 -.388317802716666D+02 0.224292402820689D+02 -.109497905338672D+02
 0.000000000000000D+00 -.000000000000000D+00 -.000000000000000D+00 -.000000000000000D+00
 0.823685632316801D+03 0.000000000000000D+00 0.000000000000000D+00 0.823685632316801D+03
 0.162135974946772D+04 0.000000000000000D+00 0.000000000000000D+00 -.162135974946772D+04
 0.506560083226560D+03 -.453733816857211D+03 0.201156364402255D+03 0.441543551096974D+02
 0.599474990847260D+03 0.515842335445735D+03 0.298715156765815D+03 -.636097848729759D+02
 0.170626953534408D+03 0.152278925500983D+03 0.707121538307321D+02 0.304052202971456D+02
 0.122543620435899D+03 -.223870347385536D+02 0.779782683086563D+02 -.109497905338672D+02
 0.104583973374039D+04 -.192000409350954D+03 -.648561943307458D+03 -.797674117150916D+03
0.665914707116D-04 0.000000000000D+00 0.000000000000D+00 0.316399011110D-06 0.000000000000D+00  7 3 -3 23 -11 11 23 21 0 0.12262910D+00 0.72392234D-01 0.36869547D+06 0.36869547D+06 0.36869547D+06 0.10779883D+01  1  2  2  1  7  1        3 0.257851882678D-04 0.100000000000D+01
-.369919573302D-05 0.000000000000D+00 -.255728781469D-06 0.316399011110D-06 0.000000000000D+00  7 3 -3 23 -11 11 23 21 2 0.12262910D+00 0.72392234D-01 0.36869547D+06 0.36869547D+06 0.36869547D+06 0.10779883D+01  1  2  3  1  7  1        3 -.166451280561D-05 0.100000000000D+01
0.424382046137D-05 0.000000000000D+00 0.000000000000D+00 0.316399011110D-06 0.000000000000D+00  7 3 -3 23 -11 11 23 21 2 0.12262910D+00 0.72392234D-01 0.36869547D+06 0.36869547D+06 0.36869547D+06 0.10779883D+01  1  2 15  1  7  1        3 0.190957548951D-05 0.100000000000D+01
  </mgrwgt>
  </event>
  <event>
  9     66 0.56006291E-06 0.19019621E+03 0.75467711E-02 0.10383303E+00
       21 -1    0    0  501  502 0.00000000E+00 0.00000000E+00 0.16506484E+04 0.16506486E+04 0.75000000E+00 0.0000E+00 0.9000E+01
       -1 -1    0    0    0  501 0.00000000E+00 0.00000000E+00 -.78771272E+02 0.78771922E+02 0.32000000E+00 0.0000E+00 0.9000E+01
       25  2    1    2    0    0 -.32211043E+02 0.14384314E+03 0.34005103E+03 0.47675097E+03 0.29988062E+03 0.0000E+00 0.0000E+00
       23  2    1    2    0    0 -.75079526E+01 -.51658281E+02 0.35507007E+03 0.37018616E+03 0.90763929E+02 0.0000E+00 0.0000E+00
       23  1    3    3    0    0 0.11729483E+01 0.17423481E+03 0.31599803E+03 0.37219504E+03 0.91188000E+02 0.0000E+00 0.9000E+01
      -13  1    4    4    0    0 -.32814110E+02 -.19919808E+02 0.53224338E+02 0.65623211E+02 0.10565837E+00 0.0000E+00 0.9000E+01
       13  1    4    4    0    0 0.25306157E+02 -.31738473E+02 0.30184573E+03 0.30456295E+03 0.10565837E+00 0.0000E+00 0.9000E+01
       23  1    3    3    0    0 -.33383991E+02 -.30391664E+02 0.24053002E+02 0.10455593E+03 0.91188000E+02 0.0000E+00 0.9000E+01
       -1  1    1    2    0  502 0.39718995E+02 -.92184863E+02 0.87675607E+03 0.88248340E+03 0.32000000E+00 0.0000E+00 0.9000E+01
#aMCatNLO 2  0  0  1  2 0.10037753D+03 0.00000000D+00  -5  7  0 0.00000000D+00 0.00000000D+00 0.00000000D+00 0.00000000D+00 0.00000000D+00
  <mgrwgt>
 0.3738495754D-05    2    2    0
 0.236660892829776D+03 0.000000000000000D+00 0.000000000000000D+00 0.236660892829776D+03
 0.236660892829776D+03 0.000000000000000D+00 0.000000000000000D+00 -.236660892829776D+03
 0.168075256014654D+03 0.163437209766747D+02 0.139024560867477D+03 0.184145214608820D+02
 0.403832895727298D+02 -.295448407468859D+02 -.275077068365247D+02 -.111289107818786D+01
 0.109982936708533D+03 0.339975797057600D+02 -.519104614465748D+02 0.908059190448918D+02
 0.154880303363635D+03 -.207964599355488D+02 -.596063925843774D+02 -.108107549427586D+03
 0.000000000000000D+00 0.000000000000000D+00 -.000000000000000D+00 0.000000000000000D+00
 0.517920347629112D+03 0.000000000000000D+00 0.000000000000000D+00 0.517920347629112D+03
 0.251050759060937D+03 0.000000000000000D+00 0.000000000000000D+00 -.251050759060937D+03
 0.197518328397335D+03 0.117294788264080D+01 0.174234807950389D+03 0.184145214608820D+02
 0.384032238742461D+02 -.328141878288281D+02 -.199197930340138D+02 -.111289107818786D+01
 0.994658347510856D+02 0.253062352125336D+02 -.317384909614612D+02 0.908059190448918D+02
 0.148460895394957D+03 -.333839907146801D+02 -.303916606686209D+02 -.108107549427586D+03
 0.285122824272425D+03 0.397189954483338D+02 -.921848632862932D+02 0.266869588568175D+03
-.117343707284D-06 0.000000000000D+00 0.000000000000D+00 0.326633215730D-06 0.000000000000D+00  7 21 -1 23 -13 13 23 -1 2 0.25322481D+00 0.11424089D-01 0.57065244D+05 0.57065244D+05 0.57065244D+05 0.11422803D+01  1  2 13  3  7  1        1 -.352360763030D-05 0.100000000000D+01
0.267763618742D-06 0.000000000000D+00 0.000000000000D+00 0.326633215730D-06 0.298875311708D-10  7 21 -1 23 -13 13 23 -1 2 0.25394589D+00 0.12118716D-01 0.57065244D+05 0.57065244D+05 0.57065244D+05 0.11422803D+01  1  2  1  3  7  1        1 0.726210338412D-05 0.100000000000D+01
  </mgrwgt>
  </event>
  <event>
  8     66 0.56006291E-06 0.10462091E+03 0.75467711E-02 0.10216663E+00
        1 -1    0    0  501    0 0.00000000E+00 0.00000000E+00 0.80507495E+02 0.80508131E+02 0.32000000E+00 0.0000E+00 0.9000E+01
       -1 -1    0    0    0  501 0.00000000E+00 0.00000000E+00 -.92692652E+03 0.92692658E+03 0.32000000E+00 0.0000E+00 0.9000E+01
       25  2    1    2    0    0 0.17183386E+03 0.38377295E+02 -.50719894E+03 0.61498130E+03 0.29991922E+03 0.0000E+00 0.0000E+00
       23  2    1    2    0    0 -.17183386E+03 -.38377295E+02 -.33922009E+03 0.39245341E+03 0.89161200E+02 0.0000E+00 0.0000E+00
       23  1    3    3    0    0 0.13111362E+03 0.47364305E+02 -.48427380E+03 0.51212354E+03 0.91188000E+02 0.0000E+00 0.9000E+01
      -11  1    4    4    0    0 -.70815986E+01 0.11557545E+01 -.94693081E+02 0.94964543E+02 0.51099893E-03 0.0000E+00 0.9000E+01
       11  1    4    4    0    0 -.16475226E+03 -.39533049E+02 -.24452701E+03 0.29748887E+03 0.51099893E-03 0.0000E+00 0.9000E+01
       23  1    3    3    0    0 0.40720241E+02 -.89870098E+01 -.22925140E+02 0.10285776E+03 0.91188000E+02 0.0000E+00 0.9000E+01
#aMCatNLO 1  0  0  2  1 0.92202352D+02 0.00000000D+00  -5  7  0 0.00000000D+00 0.00000000D+00 0.00000000D+00 0.00000000D+00 0.00000000D+00
  <mgrwgt>
 0.2975768974D-03    9    2    0
 0.273175548650003D+03 0.000000000000000D+00 0.000000000000000D+00 0.273175548650003D+03
 0.273175548650003D+03 0.000000000000000D+00 0.000000000000000D+00 -.273175548650003D+03
 0.194073871791945D+03 0.131113618316221D+03 0.473643045593281D+02 -.995753890976873D+02
 0.284076504149477D+02 -.708159858952484D+01 0.115575452336143D+01 -.274865384324117D+02
 0.169722912773482D+03 -.164752261093601D+03 -.395330492944225D+02 0.998486846911598D+01
 0.154146662319631D+03 0.407202413669051D+02 -.898700978826703D+01 0.117077059060983D+03
 0.000000000000000D+00 0.000000000000000D+00 0.000000000000000D+00 -.000000000000000D+00
 0.317292270813764D+03 0.000000000000000D+00 0.000000000000000D+00 0.317292270813764D+03
 0.329835947129597D+03 0.000000000000000D+00 0.000000000000000D+00 -.329835947129597D+03
 0.173540042932249D+03 0.103966210081083D+03 0.328125616852339D+02 -.995753890976873D+02
 0.297705022892516D+02 -.113779159990877D+02 -.114718746314216D+01 -.274865384324117D+02
 0.199779862808731D+03 -.192039157184771D+03 -.541595614207945D+02 0.998486846911598D+01
 0.150986116744893D+03 0.181869155394490D+02 -.210654800679790D+02 0.117077059060983D+03
 0.930516931682362D+02 0.812639475633269D+02 0.435596672666817D+02 -.125436763158339D+02
0.722955093443D-05 0.000000000000D+00 0.000000000000D+00 0.127275917355D-06 0.000000000000D+00  7 1 -1 23 -11 11 23 21 0 0.12385822D-01 0.14260413D+00 0.49163349D+05 0.49163349D+05 0.49163349D+05 0.11479406D+01  1  2  2  2  7  2       -1 0.191399108622D-03 0.100000000000D+01
-.380379416736D-06 0.000000000000D+00 -.277633791727D-07 0.127275917355D-06 0.000000000000D+00  7 1 -1 23 -11 11 23 21 2 0.12385822D-01 0.14260413D+00 0.49163349D+05 0.49163349D+05 0.49163349D+05 0.11479406D+01  1  2  3  2  7  2       -1 -.132704118064D-04 0.100000000000D+01
0.458343279479D-06 0.000000000000D+00 0.000000000000D+00 0.127275917355D-06 0.000000000000D+00  7 1 -1 23 -11 11 23 21 2 0.12385822D-01 0.14260413D+00 0.49163349D+05 0.49163349D+05 0.49163349D+05 0.11479406D+01  1  2 15  2  7  2       -1 0.159903606761D-04 0.100000000000D+01
0.334418751807D-05 0.000000000000D+00 0.000000000000D+00 0.127275917355D-06 0.000000000000D+00  7 1 -1 23 -11 11 23 21 2 0.12385822D-01 0.18163934D+00 0.73072431D+05 0.73072431D+05 0.73072431D+05 0.11330771D+01  1  2 12  2  7  2       -1 0.546198828602D-04 0.100000000000D+01
-.376625654167D-05 0.000000000000D+00 0.000000000000D+00 0.127275917355D-06 0.000000000000D+00  7 1 -1 23 -11 11 23 21 2 0.12385822D-01 0.14260413D+00 0.49163349D+05 0.49163349D+05 0.49163349D+05 0.11479406D+01  1  2  4  2  7  2       -1 -.131394531558D-03 0.100000000000D+01
-.806770268143D-05 0.000000000000D+00 -.330386557768D-05 0.127275917355D-06 0.000000000000D+00  7 1 -1 23 -11 11 23 21 2 0.12385822D-01 0.19075515D+00 0.49163349D+05 0.49163349D+05 0.49163349D+05 0.11479406D+01  1  2  5  2  7  2       -1 -.115749653139D-03 0.100000000000D+01
0.878933363649D-05 0.000000000000D+00 0.316882305304D-05 0.127275917355D-06 0.000000000000D+00  7 1 -1 23 -11 11 23 21 2 0.12385822D-01 0.14260413D+00 0.49163349D+05 0.49163349D+05 0.49163349D+05 0.11479406D+01  1  2  6  2  7  2       -1 0.306636142041D-03 0.100000000000D+01
0.110471610081D-06 0.000000000000D+00 0.000000000000D+00 0.127275917355D-06 0.000000000000D+00  7 1 21 23 -11 11 23 1 2 0.12385822D-01 0.18163934D+00 0.73072431D+05 0.73072431D+05 0.73072431D+05 0.11330771D+01  1  2 12  4  7  2       -1 0.117846987620D-04 0.100000000000D+01
-.234390327540D-06 0.000000000000D+00 -.124903259654D-06 0.127275917355D-06 0.000000000000D+00  7 1 21 23 -11 11 23 1 2 0.12385822D-01 0.19075515D+00 0.49163349D+05 0.49163349D+05 0.49163349D+05 0.11479406D+01  1  2  5  4  7  2       -1 -.224386990843D-04 0.100000000000D+01
  </mgrwgt>
  </event>
  <event>
  8     66 0.56006291E-06 0.25418509E+03 0.75467711E-02 0.80329619E-01
        3 -1    0    0  501    0 0.00000000E+00 0.00000000E+00 0.18275458E+03 0.18275526E+03 0.50000000E+00 0.0000E+00 0.9000E+01
       -3 -1    0    0    0  501 0.00000000E+00 0.00000000E+00 -.56137843E+03 0.56137865E+03 0.50000000E+00 0.0000E+00 0.9000E+01
       25  2    1    2    0    0 0.17392542E+03 -.76798384E+02 -.39716129E+03 0.53294290E+03 0.30023826E+03 0.0000E+00 0.0000E+00
       23  2    1    2    0    0 -.17392542E+03 0.76798384E+02 0.18537441E+02 0.21119101E+03 0.90055335E+02 0.0000E+00 0.0000E+00
       23  1    3    3    0    0 0.16648444E+03 -.81521120E+02 -.11533730E+03 0.23660242E+03 0.91188000E+02 0.0000E+00 0.9000E+01
      -11  1    4    4    0    0 -.18165518E+03 0.83512303E+02 0.15602194E+02 0.20054011E+03 0.51099893E-03 0.0000E+00 0.9000E+01
       11  1    4    4    0    0 0.77297614E+01 -.67139191E+01 0.29352467E+01 0.10650896E+02 0.51099893E-03 0.0000E+00 0.9000E+01
       23  1    3    3    0    0 0.74409759E+01 0.47227355E+01 -.28182398E+03 0.29634048E+03 0.91188000E+02 0.0000E+00 0.9000E+01
#aMCatNLO 1  0  0  2  1 0.21945391D+04 0.00000000D+00  -5  7  0 0.00000000D+00 0.00000000D+00 0.00000000D+00 0.00000000D+00 0.00000000D+00
  <mgrwgt>
 0.6064867658D-04    5    2    0
 0.320304255942927D+03 0.000000000000000D+00 0.000000000000000D+00 0.320304255942927D+03
 0.320304255942927D+03 0.000000000000000D+00 0.000000000000000D+00 -.320304255942927D+03
 0.206669801563457D+03 0.166484440422998D+03 -.815211197191225D+02 0.586461175703126D+01
 0.242169841432805D+03 -.181655177731336D+03 0.835123032367362D+02 0.136650370329106D+03
 0.141069739634388D+02 0.772976141131274D+01 -.671391905316972D+01 0.970467896825060D+01
 0.177661894926154D+03 0.744097589702609D+01 0.472273553555605D+01 -.152219661054388D+03
 0.000000000000000D+00 -.000000000000000D+00 -.000000000000000D+00 -.000000000000000D+00
 0.210281782296444D+04 0.000000000000000D+00 0.000000000000000D+00 0.210281782296444D+04
 0.239755275679405D+04 0.000000000000000D+00 0.000000000000000D+00 -.239755275679405D+04
 0.120879431966346D+04 0.118671820335868D+04 0.211030727745329D+03 0.586461175703126D+01
 0.344894524896005D+03 0.241487223805436D+03 0.204848310539537D+03 0.136650370329106D+03
 0.694576729902702D+02 0.679612239623208D+02 0.105574419671518D+02 0.970467896825060D+01
 0.662981432889082D+03 0.613357221149718D+03 0.178469109550208D+03 -.152219661054388D+03
 0.221424262931967D+04 -.210952387227615D+04 -.604905589802225D+03 -.294734933829616D+03
0.996362135747D-05 0.000000000000D+00 0.000000000000D+00 0.354084858120D-06 0.000000000000D+00  7 3 -3 23 -11 11 23 21 0 0.28116159D-01 0.86365982D-01 0.64610062D+05 0.64610062D+05 0.64610062D+05 0.11376297D+01  1  2  2  2  7  2       -3 0.596063222868D-04 0.100000000000D+01
-.517556747946D-06 0.000000000000D+00 -.382629294944D-07 0.354084858120D-06 0.000000000000D+00  7 3 -3 23 -11 11 23 21 2 0.28116159D-01 0.86365982D-01 0.64610062D+05 0.64610062D+05 0.64610062D+05 0.11376297D+01  1  2  3  2  7  2       -3 -.400714391390D-05 0.100000000000D+01
0.652079873706D-06 0.000000000000D+00 0.000000000000D+00 0.354084858120D-06 0.000000000000D+00  7 3 -3 23 -11 11 23 21 2 0.28116159D-01 0.86365982D-01 0.64610062D+05 0.64610062D+05 0.64610062D+05 0.11376297D+01  1  2 15  2  7  2       -3 0.504867902441D-05 0.100000000000D+01
0.203634103811D-04 0.000000000000D+00 -.675304885150D-05 0.354084858120D-06 0.000000000000D+00  7 3 -3 23 -11 11 23 21 2 0.28116159D-01 0.88802349D+00 0.64610062D+05 0.64610062D+05 0.64610062D+05 0.11376297D+01  1  2  5  2  7  2       -3 0.789168561679D-09 0.100000000000D+01
0.452027522917D-05 0.000000000000D+00 -.186701356259D-05 0.354084858120D-06 0.000000000000D+00  7 3 21 23 -11 11 23 3 2 0.28116159D-01 0.88802349D+00 0.64610062D+05 0.64610062D+05 0.64610062D+05 0.11376297D+01  1  2  5  4  7  2       -3 0.300096135111D-10 0.100000000000D+01
  </mgrwgt>
  </event>
  <event>
  8     66 0.56006291E-06 0.71753255E+02 0.75467711E-02 0.10378889E+00
        1 -1    0    0  501    0 0.00000000E+00 0.00000000E+00 0.33189366E+03 0.33189382E+03 0.32000000E+00 0.0000E+00 0.9000E+01
       -1 -1    0    0    0  501 0.00000000E+00 0.00000000E+00 -.26737242E+03 0.26737262E+03 0.32000000E+00 0.0000E+00 0.9000E+01
       25  2    1    2    0    0 0.69646275E+02 -.29563745E+02 0.23726263E+03 0.38974678E+03 0.29980724E+03 0.0000E+00 0.0000E+00
       23  2    1    2    0    0 -.69646275E+02 0.29563745E+02 -.17274139E+03 0.20951965E+03 0.91292256E+02 0.0000E+00 0.0000E+00
       23  1    3    3    0    0 0.13528952E+03 -.79776937E+02 0.17338866E+03 0.25109061E+03 0.91188000E+02 0.0000E+00 0.9000E+01
      -11  1    4    4    0    0 -.38417233E+02 -.24091299E+01 -.15775059E+03 0.16237899E+03 0.51099893E-03 0.0000E+00 0.9000E+01
       11  1    4    4    0    0 -.31229042E+02 0.31972875E+02 -.14990806E+02 0.47140662E+02 0.51099893E-03 0.0000E+00 0.9000E+01
       23  1    3    3    0    0 -.65643244E+02 0.50213192E+02 0.63873972E+02 0.13865618E+03 0.91188000E+02 0.0000E+00 0.9000E+01
#aMCatNLO 1  0  0  1  2 0.73385615D+02 0.00000000D+00  -5  7  0 0.00000000D+00 0.00000000D+00 0.00000000D+00 0.00000000D+00 0.00000000D+00
  <mgrwgt>
 0.2657861169D-04    7    2    0
 0.297891451792077D+03 0.000000000000000D+00 0.000000000000000D+00 0.297891451792077D+03
 0.297891451792077D+03 0.000000000000000D+00 0.000000000000000D+00 -.297891451792077D+03
 0.233781332049365D+03 0.135289518819689D+03 -.797769370122826D+02 0.147210211226160D+03
 0.180412259666571D+03 -.384172332100865D+02 -.240912988268571D+01 -.176258037330751D+03
 0.490397454716996D+02 -.312290415375085D+02 0.319728752352016D+02 -.201836282608425D+02
 0.132549566396517D+03 -.656432440720942D+02 0.502131916597666D+02 0.492314543654338D+02
 0.000000000000000D+00 0.000000000000000D+00 0.000000000000000D+00 0.000000000000000D+00
 0.111618580779900D+04 0.000000000000000D+00 0.000000000000000D+00 0.111618580779900D+04
 0.301792631168797D+03 0.000000000000000D+00 0.000000000000000D+00 -.301792631168797D+03
 0.224827482970961D+03 0.109960462577318D+03 -.920325819239547D+02 0.147210211226160D+03
 0.186164589990136D+03 -.586633456658499D+02 -.122053561109864D+02 -.176258037330751D+03
 0.511576571820361D+02 -.367629640528084D+02 0.292952472704152D+02 -.201836282608425D+02
 0.138135799119961D+03 -.805932507501161D+02 0.429795240679017D+02 0.492314543654338D+02
 0.817692909704705D+03 0.660590978914561D+02 0.319631666966242D+02 0.814393176630206D+03
0.267794451745D-05 0.000000000000D+00 0.000000000000D+00 0.935392490971D-06 0.000000000000D+00  7 1 -1 23 -11 11 23 21 0 0.51060590D-01 0.41134246D-01 0.37609973D+05 0.37609973D+05 0.37609973D+05 0.11583346D+01  1  2  2  1  7  1        1 0.144580610655D-03 0.100000000000D+01
-.115450153723D-06 0.000000000000D+00 -.102840120660D-07 0.935392490971D-06 0.000000000000D+00  7 1 -1 23 -11 11 23 21 2 0.51060590D-01 0.41134246D-01 0.37609973D+05 0.37609973D+05 0.37609973D+05 0.11583346D+01  1  2  3  1  7  1        1 -.836317238469D-05 0.100000000000D+01
0.168839903814D-06 0.000000000000D+00 0.000000000000D+00 0.935392490971D-06 0.000000000000D+00  7 1 -1 23 -11 11 23 21 2 0.51060590D-01 0.41134246D-01 0.37609973D+05 0.37609973D+05 0.37609973D+05 0.11583346D+01  1  2 15  1  7  1        1 0.122307088859D-04 0.100000000000D+01
0.550977971398D-04 0.000000000000D+00 0.000000000000D+00 0.935392490971D-06 0.000000000000D+00  7 1 -1 23 -11 11 23 21 2 0.19041500D+00 0.41134246D-01 0.57434262D+05 0.57434262D+05 0.57434262D+05 0.11420375D+01  1  2 12  1  7  1        1 0.532555507095D-03 0.100000000000D+01
-.637866897638D-04 0.000000000000D+00 -.987297324409D-06 0.935392490971D-06 0.000000000000D+00  7 1 -1 23 -11 11 23 21 2 0.19180432D+00 0.41134246D-01 0.37609973D+05 0.37609973D+05 0.37609973D+05 0.11583346D+01  1  2  5  1  7  1        1 -.635528663812D-03 0.100000000000D+01
0.856994186295D-05 0.000000000000D+00 0.000000000000D+00 0.935392490971D-06 0.000000000000D+00  7 21 -1 23 -11 11 23 -1 2 0.19041500D+00 0.41134246D-01 0.57434262D+05 0.57434262D+05 0.57434262D+05 0.11420375D+01  1  2 12  3  7  1        1 0.896179382802D-04 0.100000000000D+01
-.996564789705D-05 0.000000000000D+00 -.154580470429D-06 0.935392490971D-06 0.000000000000D+00  7 21 -1 23 -11 11 23 -1 2 0.19180432D+00 0.41134246D-01 0.37609973D+05 0.37609973D+05 0.37609973D+05 0.11583346D+01  1  2  5  3  7  1        1 -.108514317026D-03 0.100000000000D+01
  </mgrwgt>
  </event>
  <event>
  8     66 0.56006291E-06 0.26280225E+03 0.75467711E-02 0.94766544E-01
        1 -1    0    0  501    0 0.00000000E+00 0.00000000E+00 0.79297329E+03 0.79297335E+03 0.32000000E+00 0.0000E+00 0.9000E+01
       -1 -1    0    0    0  501 0.00000000E+00 0.00000000E+00 -.25738821E+03 0.25738841E+03 0.32000000E+00 0.0000E+00 0.9000E+01
       25  2    1    2    0    0 -.19548623E+03 0.29231032E+03 0.83781903E+02 0.47041693E+03 0.30101908E+03 0.0000E+00 0.0000E+00
       23  2    1    2    0    0 0.19548623E+03 -.29231032E+03 0.45180318E+03 0.57994483E+03 0.92464625E+02 0.0000E+00 0.0000E+00
       23  1    3    3    0    0 -.10477814E+03 0.30276683E+03 0.72281048E+02 0.34086069E+03 0.91188000E+02 0.0000E+00 0.9000E+01
      -11  1    4    4    0    0 0.41353829E+02 -.27872712E+02 0.28070377E+02 0.57227382E+02 0.51099893E-03 0.0000E+00 0.9000E+01
       11  1    4    4    0    0 0.15413241E+03 -.26443761E+03 0.42373280E+03 0.52271745E+03 0.51099893E-03 0.0000E+00 0.9000E+01
       23  1    3    3    0    0 -.90708095E+02 -.10456504E+02 0.11500855E+02 0.12955623E+03 0.91188000E+02 0.0000E+00 0.9000E+01
#aMCatNLO 1  0  0  1  2 0.15914735D+03 0.00000000D+00  -5  7  0 0.00000000D+00 0.00000000D+00 0.00000000D+00 0.00000000D+00 0.00000000D+00
  <mgrwgt>
 0.2182722522D-03    9    2    0
 0.451776617190606D+03 0.000000000000000D+00 0.000000000000000D+00 0.451776617190606D+03
 0.451776617190606D+03 0.000000000000000D+00 0.000000000000000D+00 -.451776617190606D+03
 0.353398529542722D+03 -.104778139021070D+03 0.302766826570653D+03 -.118021437250085D+03
 0.498867992192036D+02 0.413538286077184D+02 -.278727120105882D+02 -.129055065588099D+01
 0.356478670676603D+03 0.154132405352921D+03 -.264437610432569D+03 0.182737501504737D+03
 0.143789234942683D+03 -.907080949395691D+02 -.104565041274958D+02 -.634255135987712D+02
 0.000000000000000D+00 -.000000000000000D+00 -.000000000000000D+00 0.000000000000000D+00
 0.712641530166272D+03 0.000000000000000D+00 0.000000000000000D+00 0.712641530166272D+03
 0.483668741522324D+03 0.000000000000000D+00 0.000000000000000D+00 -.483668741522324D+03
 0.403820635131801D+03 -.842678585343800D+02 0.365685277775446D+03 -.118021437250085D+03
 0.482445900902540D+02 0.440118468053306D+02 -.197188309178144D+02 -.129055065588099D+01
 0.326096828509392D+03 0.172620863641829D+03 -.207721410892664D+03 0.182737501504737D+03
 0.139299840360026D+03 -.830402537014620D+02 0.130657824204143D+02 -.634255135987712D+02
 0.278848377597123D+03 -.493245982113179D+02 -.151310818385382D+03 0.228972788643947D+03
0.121527192456D-04 0.000000000000D+00 0.000000000000D+00 0.254093015536D-06 0.000000000000D+00  7 1 -1 23 -11 11 23 21 0 0.12199591D+00 0.39598206D-01 0.16732278D+06 0.16732278D+06 0.16732278D+06 0.11038257D+01  1  2  2  1  7  1        1 0.201880223684D-03 0.100000000000D+01
-.667048937912D-06 0.000000000000D+00 -.466696417878D-07 0.254093015536D-06 0.000000000000D+00  7 1 -1 23 -11 11 23 21 2 0.12199591D+00 0.39598206D-01 0.16732278D+06 0.16732278D+06 0.16732278D+06 0.11038257D+01  1  2  3  1  7  1        1 -.135014064298D-04 0.100000000000D+01
0.792967359735D-06 0.000000000000D+00 0.000000000000D+00 0.254093015536D-06 0.000000000000D+00  7 1 -1 23 -11 11 23 21 2 0.12199591D+00 0.39598206D-01 0.16732278D+06 0.16732278D+06 0.16732278D+06 0.11038257D+01  1  2 15  1  7  1        1 0.160500587001D-04 0.100000000000D+01
0.146102272680D-04 0.000000000000D+00 0.000000000000D+00 0.254093015536D-06 0.000000000000D+00  7 1 -1 23 -11 11 23 21 2 0.19469165D+00 0.39598206D-01 0.24387401D+06 0.24387401D+06 0.24387401D+06 0.10912706D+01  1  2 12  1  7  1        1 0.124757099424D-03 0.100000000000D+01
-.168551466706D-04 0.000000000000D+00 0.000000000000D+00 0.254093015536D-06 0.000000000000D+00  7 1 -1 23 -11 11 23 21 2 0.12199591D+00 0.39598206D-01 0.16732278D+06 0.16732278D+06 0.16732278D+06 0.11038257D+01  1  2  4  1  7  1        1 -.341156656881D-03 0.100000000000D+01
-.192698029787D-04 0.000000000000D+00 -.440126477318D-05 0.254093015536D-06 0.000000000000D+00  7 1 -1 23 -11 11 23 21 2 0.19838589D+00 0.39598206D-01 0.16732278D+06 0.16732278D+06 0.16732278D+06 0.11038257D+01  1  2  5  1  7  1        1 -.164360303630D-03 0.100000000000D+01
0.195289998775D-04 0.000000000000D+00 0.392775287274D-05 0.254093015536D-06 0.000000000000D+00  7 1 -1 23 -11 11 23 21 2 0.12199591D+00 0.39598206D-01 0.16732278D+06 0.16732278D+06 0.16732278D+06 0.11038257D+01  1  2  6  1  7  1        1 0.395276792343D-03 0.100000000000D+01
0.781577002135D-06 0.000000000000D+00 0.000000000000D+00 0.254093015536D-06 0.000000000000D+00  7 21 -1 23 -11 11 23 -1 2 0.19469165D+00 0.39598206D-01 0.24387401D+06 0.24387401D+06 0.24387401D+06 0.10912706D+01  1  2 12  3  7  1        1 0.658402787076D-05 0.100000000000D+01
-.870579346335D-06 0.000000000000D+00 -.242757052823D-06 0.254093015536D-06 0.000000000000D+00  7 21 -1 23 -11 11 23 -1 2 0.19838589D+00 0.39598206D-01 0.16732278D+06 0.16732278D+06 0.16732278D+06 0.11038257D+01  1  2  5  3  7  1        1 -.725758287220D-05 0.100000000000D+01
  </mgrwgt>
  </event>
  <event>
  8     66 0.56006291E-06 0.22422098E+03 0.75467711E-02 0.96092859E-01
        1 -1    0    0  501    0 0.00000000E+00 0.00000000E+00 0.69272207E+03 0.69272215E+03 0.32000000E+00 0.0000E+00 0.9000E+01
       -1 -1    0    0    0  501 0.00000000E+00 0.00000000E+00 -.23293216E+03 0.23293238E+03 0.32000000E+00 0.0000E+00 0.9000E+01
       25  2    1    2    0    0 -.19737673E+03 0.26706319E+03 0.17795287E+03 0.48084693E+03 0.29877453E+03 0.0000E+00 0.0000E+00
       23  2    1    2    0    0 0.19737673E+03 -.26706319E+03 0.28183705E+03 0.44480760E+03 0.90229448E+02 0.0000E+00 0.0000E+00
       23  1    3    3    0    0 -.23585514E+03 0.17031780E+03 0.14945244E+03 0.33953951E+03 0.91188000E+02 0.0000E+00 0.9000E+01
      -13  1    4    4    0    0 0.70756693E+02 -.13271385E+03 0.76687575E+02 0.16882083E+03 0.10565837E+00 0.0000E+00 0.9000E+01
       13  1    4    4    0    0 0.12662004E+03 -.13434934E+03 0.20514947E+03 0.27598677E+03 0.10565837E+00 0.0000E+00 0.9000E+01
       23  1    3    3    0    0 0.38478406E+02 0.96745396E+02 0.28500433E+02 0.14130741E+03 0.91188000E+02 0.0000E+00 0.9000E+01
#aMCatNLO 1  0  0  2  1 0.96292761D+02 0.00000000D+00  -5  7  0 0.00000000D+00 0.00000000D+00 0.00000000D+00 0.00000000D+00 0.00000000D+00
  <mgrwgt>
 0.1865324153D-03    9    2    0
 0.401693145454388D+03 0.000000000000000D+00 0.000000000000000D+00 0.401693145454388D+03
 0.401693145454388D+03 0.000000000000000D+00 0.000000000000000D+00 -.401693145454388D+03
 0.305680550274933D+03 -.235855139345876D+03 0.170317797514953D+03 -.221257444208919D+02
 0.150624347128310D+03 0.707566169375715D+02 -.132713852749738D+03 -.826004816573485D+01
 0.200579471041553D+03 0.126620116463036D+03 -.134349340878835D+03 0.784201818132231D+02
 0.146501922463981D+03 0.384784059452691D+02 0.967453961136195D+02 -.480343892265963D+02
 0.000000000000000D+00 -.000000000000000D+00 -.000000000000000D+00 -.000000000000000D+00
 0.425296429011087D+03 0.000000000000000D+00 0.000000000000000D+00 0.425296429011087D+03
 0.516400167710063D+03 0.000000000000000D+00 0.000000000000000D+00 -.516400167710063D+03
 0.315244329786130D+03 -.220997466827634D+03 0.204289762856332D+03 -.221257444208919D+02
 0.140526700272787D+03 0.777233645338398D+02 -.116784432607251D+03 -.826004816573485D+01
 0.193342776549062D+03 0.136046003458859D+03 -.112797115525858D+03 0.784201818132231D+02
 0.160022664096863D+03 0.458130160924137D+02 0.113515931431678D+03 -.480343892265963D+02
 0.132560126016307D+03 -.385849172574787D+02 -.882241461549017D+02 -.911037386989763D+02
0.582776105257D-05 0.000000000000D+00 0.000000000000D+00 0.125881867734D-06 0.000000000000D+00  7 1 -1 23 -13 13 23 21 0 0.10657265D+00 0.35835739D-01 0.15143541D+06 0.15143541D+06 0.15143541D+06 0.11072256D+01  1  2  2  2  7  2       -1 0.141978021830D-03 0.100000000000D+01
-.323368147686D-06 0.000000000000D+00 -.223801369266D-07 0.125881867734D-06 0.000000000000D+00  7 1 -1 23 -13 13 23 21 2 0.10657265D+00 0.35835739D-01 0.15143541D+06 0.15143541D+06 0.15143541D+06 0.11072256D+01  1  2  3  2  7  2       -1 -.965803762849D-05 0.100000000000D+01
0.373336039656D-06 0.000000000000D+00 0.000000000000D+00 0.125881867734D-06 0.000000000000D+00  7 1 -1 23 -13 13 23 21 2 0.10657265D+00 0.35835739D-01 0.15143541D+06 0.15143541D+06 0.15143541D+06 0.11072256D+01  1  2 15  2  7  2       -1 0.111504288375D-04 0.100000000000D+01
0.819548400907D-05 0.000000000000D+00 0.000000000000D+00 0.125881867734D-06 0.000000000000D+00  7 1 -1 23 -13 13 23 21 2 0.10657265D+00 0.46900806D-01 0.19378113D+06 0.19378113D+06 0.19378113D+06 0.10988806D+01  1  2 12  2  7  2       -1 0.149668200504D-03 0.100000000000D+01
-.849196680771D-05 0.000000000000D+00 0.000000000000D+00 0.125881867734D-06 0.000000000000D+00  7 1 -1 23 -13 13 23 21 2 0.10657265D+00 0.35835739D-01 0.15143541D+06 0.15143541D+06 0.15143541D+06 0.11072256D+01  1  2  4  2  7  2       -1 -.253629603150D-03 0.100000000000D+01
-.127806633254D-04 0.000000000000D+00 -.294440506334D-05 0.125881867734D-06 0.000000000000D+00  7 1 -1 23 -13 13 23 21 2 0.10657265D+00 0.48245801D-01 0.15143541D+06 0.15143541D+06 0.15143541D+06 0.11072256D+01  1  2  5  2  7  2       -1 -.226704711462D-03 0.100000000000D+01
0.131941154098D-04 0.000000000000D+00 0.281885561368D-05 0.125881867734D-06 0.000000000000D+00  7 1 -1 23 -13 13 23 21 2 0.10657265D+00 0.35835739D-01 0.15143541D+06 0.15143541D+06 0.15143541D+06 0.11072256D+01  1  2  6  2  7  2       -1 0.394068692338D-03 0.100000000000D+01
0.292750330914D-06 0.000000000000D+00 0.000000000000D+00 0.125881867734D-06 0.000000000000D+00  7 1 21 23 -13 13 23 1 2 0.10657265D+00 0.46900806D-01 0.19378113D+06 0.19378113D+06 0.19378113D+06 0.10988806D+01  1  2 12  4  7  2       -1 0.497418839214D-04 0.100000000000D+01
-.425778491279D-06 0.000000000000D+00 -.113092781112D-06 0.125881867734D-06 0.000000000000D+00  7 1 21 23 -13 13 23 1 2 0.10657265D+00 0.48245801D-01 0.15143541D+06 0.15143541D+06 0.15143541D+06 0.11072256D+01  1  2  5  4  7  2       -1 -.700824598642D-04 0.100000000000D+01
  </mgrwgt>
  </event>
  <event>
  8     66 0.56006291E-06 0.24747266E+03 0.75467711E-02 0.93304296E-01
        1 -1    0    0  501    0 0.00000000E+00 0.00000000E+00 0.10255986E+03 0.10256036E+03 0.32000000E+00 0.0000E+00 0.9000E+01
       -1 -1    0    0    0  501 0.00000000E+00 0.00000000E+00 -.15001933E+04 0.15001933E+04 0.32000000E+00 0.0000E+00 0.9000E+01
       25  2    1    2    0    0 -.13195099E+03 0.11304082E+03 -.13592327E+04 0.14027213E+04 0.29987361E+03 0.0000E+00 0.0000E+00
       23  2    1    2    0    0 0.13195099E+03 -.11304082E+03 -.38400742E+02 0.20003241E+03 0.91373187E+02 0.0000E+00 0.0000E+00
       23  1    3    3    0    0 -.14821820E+03 0.25183248E+02 -.42699190E+03 0.46177934E+03 0.91188000E+02 0.0000E+00 0.9000E+01
      -11  1    4    4    0    0 -.47381054E+01 0.77149722E+01 -.13059681E+02 0.15891057E+02 0.51099893E-03 0.0000E+00 0.9000E+01
       11  1    4    4    0    0 0.13668909E+03 -.12075579E+03 -.25341061E+02 0.18414136E+03 0.51099893E-03 0.0000E+00 0.9000E+01
       23  1    3    3    0    0 0.16267209E+02 0.87857574E+02 -.93224078E+03 0.94094192E+03 0.91188000E+02 0.0000E+00 0.9000E+01
#aMCatNLO 1  0  0  2  2 0.43378168D+03 0.00000000D+00  -5  7  0 0.00000000D+00 0.00000000D+00 0.00000000D+00 0.00000000D+00 0.00000000D+00
  <mgrwgt>
 0.5140566868D-03    5    2    0
 0.392249975594987D+03 0.000000000000000D+00 0.000000000000000D+00 0.392249975594987D+03
 0.392249975594987D+03 0.000000000000000D+00 0.000000000000000D+00 -.392249975594987D+03
 0.182715618059763D+03 -.148218195154526D+03 0.251832478994356D+02 -.496680620653893D+02
 0.919924101793403D+01 -.473810544865475D+01 0.771497216065019D+01 0.162960014232335D+01
 0.331058939076325D+03 0.136689091776365D+03 -.120755794409060D+03 0.276286357694931D+03
 0.261526153035953D+03 0.162672088268157D+02 0.878575743489744D+02 -.228247895771865D+03
 0.000000000000000D+00 -.000000000000000D+00 -.000000000000000D+00 -.000000000000000D+00
 0.538452713238139D+03 0.000000000000000D+00 0.000000000000000D+00 0.538452713238139D+03
 0.969560702562257D+03 0.000000000000000D+00 0.000000000000000D+00 -.969560702562257D+03
 0.133602467952805D+03 -.696008885202942D+02 0.471504827858039D+02 -.496680620653893D+02
 0.913666096932484D+01 -.180923002595426D+00 0.898833933002394D+01 0.162960014232335D+01
 0.433121978557324D+03 0.326617673739417D+03 -.676859812821815D+02 0.276286357694931D+03
 0.320580034510305D+03 0.160943162127158D+03 0.128282905419449D+03 -.228247895771865D+03
 0.611572273810637D+03 -.417779024343686D+03 -.116735746253096D+03 -.431107989324118D+03
0.132639364656D-03 0.000000000000D+00 0.000000000000D+00 0.248552973110D-05 0.000000000000D+00  7 1 -1 23 -11 11 23 21 0 0.15778481D-01 0.23079901D+00 0.61242719D+05 0.61242719D+05 0.61242719D+05 0.11396272D+01  1  2  2  2  7  2       -1 0.500633218836D-03 0.100000000000D+01
-.546809134692D-05 0.000000000000D+00 -.509370085025D-06 0.248552973110D-05 0.000000000000D+00  7 1 -1 23 -11 11 23 21 2 0.15778481D-01 0.23079901D+00 0.61242719D+05 0.61242719D+05 0.61242719D+05 0.11396272D+01  1  2  3  2  7  2       -1 -.268045544885D-04 0.100000000000D+01
0.819125038080D-05 0.000000000000D+00 0.000000000000D+00 0.248552973110D-05 0.000000000000D+00  7 1 -1 23 -11 11 23 21 2 0.15778481D-01 0.23079901D+00 0.61242719D+05 0.61242719D+05 0.61242719D+05 0.11396272D+01  1  2 15  2  7  2       -1 0.401534654838D-04 0.100000000000D+01
-.433333226266D-05 0.000000000000D+00 -.319871097512D-04 0.248552973110D-05 0.000000000000D+00  7 1 -1 23 -11 11 23 21 2 0.15778481D-01 0.60896169D+00 0.61242719D+05 0.61242719D+05 0.61242719D+05 0.11396272D+01  1  2  5  2  7  2       -1 -.158794864940D-07 0.100000000000D+01
0.143648584237D-05 0.000000000000D+00 -.344738299298D-05 0.248552973110D-05 0.000000000000D+00  7 1 21 23 -11 11 23 1 2 0.15778481D-01 0.60896169D+00 0.61242719D+05 0.61242719D+05 0.61242719D+05 0.11396272D+01  1  2  5  4  7  2       -1 0.904364489053D-07 0.100000000000D+01
  </mgrwgt>
  </event>
  <event>
  8     66 0.56006291E-06 0.18347919E+03 0.75467711E-02 0.97601974E-01
        1 -1    0    0  501    0 0.00000000E+00 0.00000000E+00 0.81223024E+03 0.81223030E+03 0.32000000E+00 0.0000E+00 0.9000E+01
       -1 -1    0    0    0  501 0.00000000E+00 0.00000000E+00 -.18271927E+03 0.18271955E+03 0.32000000E+00 0.0000E+00 0.9000E+01
       25  2    1    2    0    0 0.45006041E+01 0.28422131E+03 0.16947034E+03 0.44671277E+03 0.30005016E+03 0.0000E+00 0.0000E+00
       23  2    1    2    0    0 -.45006041E+01 -.28422131E+03 0.46004063E+03 0.54823708E+03 0.90136012E+02 0.0000E+00 0.0000E+00
       23  1    3    3    0    0 0.38137155E+02 0.27991145E+03 0.64858568E+02 0.30385317E+03 0.91188000E+02 0.0000E+00 0.9000E+01
      -11  1    4    4    0    0 0.20154734E+01 -.51854362E+02 0.31491822E+02 0.60701498E+02 0.51099893E-03 0.0000E+00 0.9000E+01
       11  1    4    4    0    0 -.65160775E+01 -.23236694E+03 0.42854881E+03 0.48753558E+03 0.51099893E-03 0.0000E+00 0.9000E+01
       23  1    3    3    0    0 -.33636550E+02 0.43098519E+01 0.10461177E+03 0.14285960E+03 0.91188000E+02 0.0000E+00 0.9000E+01
#aMCatNLO 1  0  0  2  1 0.91023674D+02 0.00000000D+00  -5  7  0 0.00000000D+00 0.00000000D+00 0.00000000D+00 0.00000000D+00 0.00000000D+00
  <mgrwgt>
 0.2554167749D-03    9    2    0
 0.385240555903709D+03 0.000000000000000D+00 0.000000000000000D+00 0.385240555903709D+03
 0.385240555903709D+03 0.000000000000000D+00 0.000000000000000D+00 -.385240555903709D+03
 0.339384683660064D+03 0.381371545053939D+02 0.279911454986938D+03 -.164504853947746D+03
 0.526560591132653D+02 0.201547335841971D+01 -.518543621352818D+02 -.892880484859200D+01
 0.279432252771719D+03 -.651607750341345D+01 -.232366944767724D+03 0.155066203933548D+03
 0.990081162623692D+02 -.336365503604001D+02 0.430985191606868D+01 0.183674548627902D+02
 0.000000000000000D+00 -.000000000000000D+00 -.000000000000000D+00 -.000000000000000D+00
 0.418298140438174D+03 0.000000000000000D+00 0.000000000000000D+00 0.418298140438174D+03
 0.456103486576878D+03 0.000000000000000D+00 0.000000000000000D+00 -.456103486576878D+03
 0.357801140619314D+03 0.764512361915798D+02 0.294618000802551D+03 -.164504853947746D+03
 0.510492776725237D+02 0.771463505467347D+01 -.496667856905940D+02 -.892880484859200D+01
 0.270819548949938D+03 0.237231955066562D+02 -.220759847993335D+03 0.155066203933548D+03
 0.961692254491030D+02 -.229105138387089D+02 0.842695300746896D+01 0.183674548627902D+02
 0.985624343241735D+02 -.849785529142005D+02 -.326183201260915D+02 -.378053461387045D+02
0.643967956136D-05 0.000000000000D+00 0.000000000000D+00 0.101773718474D-05 0.000000000000D+00  7 1 -1 23 -11 11 23 21 0 0.12495852D+00 0.28110683D-01 0.11508772D+06 0.11508772D+06 0.11508772D+06 0.11167481D+01  1  2  2  2  7  2       -1 0.185721681815D-03 0.100000000000D+01
-.350728308854D-06 0.000000000000D+00 -.247300651222D-07 0.101773718474D-05 0.000000000000D+00  7 1 -1 23 -11 11 23 21 2 0.12495852D+00 0.28110683D-01 0.11508772D+06 0.11508772D+06 0.11508772D+06 0.11167481D+01  1  2  3  2  7  2       -1 -.126147770432D-04 0.100000000000D+01
0.411349562151D-06 0.000000000000D+00 0.000000000000D+00 0.101773718474D-05 0.000000000000D+00  7 1 -1 23 -11 11 23 21 2 0.12495852D+00 0.28110683D-01 0.11508772D+06 0.11508772D+06 0.11508772D+06 0.11167481D+01  1  2 15  2  7  2       -1 0.147951644688D-04 0.100000000000D+01
0.627570802161D-05 0.000000000000D+00 0.000000000000D+00 0.101773718474D-05 0.000000000000D+00  7 1 -1 23 -11 11 23 21 2 0.12495852D+00 0.34315537D-01 0.15033360D+06 0.15033360D+06 0.15033360D+06 0.11074758D+01  1  2 12  2  7  2       -1 0.157900170318D-03 0.100000000000D+01
-.630159153930D-05 0.000000000000D+00 0.000000000000D+00 0.101773718474D-05 0.000000000000D+00  7 1 -1 23 -11 11 23 21 2 0.12495852D+00 0.28110683D-01 0.11508772D+06 0.11508772D+06 0.11508772D+06 0.11167481D+01  1  2  4  2  7  2       -1 -.226651713816D-03 0.100000000000D+01
-.128431035277D-04 0.000000000000D+00 -.382481367615D-05 0.101773718474D-05 0.000000000000D+00  7 1 -1 23 -11 11 23 21 2 0.12495852D+00 0.35926147D-01 0.11508772D+06 0.11508772D+06 0.11508772D+06 0.11167481D+01  1  2  5  2  7  2       -1 -.305729148346D-03 0.100000000000D+01
0.134858352208D-04 0.000000000000D+00 0.371254233106D-05 0.101773718474D-05 0.000000000000D+00  7 1 -1 23 -11 11 23 21 2 0.12495852D+00 0.28110683D-01 0.11508772D+06 0.11508772D+06 0.11508772D+06 0.11167481D+01  1  2  6  2  7  2       -1 0.485050109322D-03 0.100000000000D+01
0.179210773170D-06 0.000000000000D+00 0.000000000000D+00 0.101773718474D-05 0.000000000000D+00  7 1 21 23 -11 11 23 1 2 0.12495852D+00 0.34315537D-01 0.15033360D+06 0.15033360D+06 0.15033360D+06 0.11074758D+01  1  2 12  4  7  2       -1 0.466959049332D-04 0.100000000000D+01
-.366481808487D-06 0.000000000000D+00 -.127647794613D-06 0.101773718474D-05 0.000000000000D+00  7 1 21 23 -11 11 23 1 2 0.12495852D+00 0.35926147D-01 0.11508772D+06 0.11508772D+06 0.11508772D+06 0.11167481D+01  1  2  5  4  7  2       -1 -.897506167597D-04 0.100000000000D+01
  </mgrwgt>
  </event>
  <event>
  8     66 0.56006291E-06 0.19893836E+03 0.75467711E-02 0.94582264E-01
        1 -1    0    0  501    0 0.00000000E+00 0.00000000E+00 0.10784919E+04 0.10784919E+04 0.32000000E+00 0.0000E+00 0.9000E+01
       -1 -1    0    0    0  501 0.00000000E+00 0.00000000E+00 -.21890024E+03 0.21890047E+03 0.32000000E+00 0.0000E+00 0.9000E+01
       25  2    1    2    0    0 -.26974460E+02 -.39090083E+03 0.22023645E+03 0.54042237E+03 0.30003526E+03 0.0000E+00 0.0000E+00
       23  2    1    2    0    0 0.26974460E+02 0.39090083E+03 0.63935519E+03 0.75697003E+03 0.10342865E+03 0.0000E+00 0.0000E+00
       23  1    3    3    0    0 -.41631441E+00 -.12515035E+01 0.56143170E+02 0.10709363E+03 0.91188000E+02 0.0000E+00 0.9000E+01
      -11  1    4    4    0    0 0.18064103E+02 0.85807240E+02 0.75100858E+02 0.11545273E+03 0.51099893E-03 0.0000E+00 0.9000E+01
       11  1    4    4    0    0 0.89103574E+01 0.30509359E+03 0.56425433E+03 0.64151730E+03 0.51099893E-03 0.0000E+00 0.9000E+01
       23  1    3    3    0    0 -.26558146E+02 -.38964933E+03 0.16409328E+03 0.43332873E+03 0.91188000E+02 0.0000E+00 0.9000E+01
#aMCatNLO 1  0  0  2  1 0.11059718D+03 0.00000000D+00  -5  7  0 0.00000000D+00 0.00000000D+00 0.00000000D+00 0.00000000D+00 0.00000000D+00
  <mgrwgt>
 0.2354438690D-03    9    2    0
 0.485883020477235D+03 0.000000000000000D+00 0.000000000000000D+00 0.485883020477235D+03
 0.485883020477235D+03 0.000000000000000D+00 0.000000000000000D+00 -.485883020477235D+03
 0.933169744565838D+02 -.416314410076776D+00 -.125150352101265D+01 -.197754089459506D+02
 0.877077625391047D+02 0.180641026379788D+02 0.858072395880727D+02 -.185941920384720D+01
 0.357361076140116D+03 0.891035741811383D+01 0.305093591409001D+03 0.185864049110798D+03
 0.433380227818666D+03 -.265581456460158D+02 -.389649327476061D+03 -.164229220961000D+03
 0.000000000000000D+00 -.000000000000000D+00 -.000000000000000D+00 -.000000000000000D+00
 0.503305894565104D+03 0.000000000000000D+00 0.000000000000000D+00 0.503305894565104D+03
 0.703067515294853D+03 0.000000000000000D+00 0.000000000000000D+00 -.703067515294853D+03
 0.937693854571855D+02 0.255588381823744D+01 0.893571283929499D+01 -.197754089459506D+02
 0.982246852101319D+02 0.210179689275422D+02 0.959316231855520D+02 -.185941920384720D+01
 0.393285201547590D+03 0.208357032191781D+02 0.345967741958452D+03 0.185864049110798D+03
 0.392760080263370D+03 -.134334434435028D+02 -.344664380063101D+03 -.164229220961000D+03
 0.228334057381679D+03 -.309761125214549D+02 -.106170697920198D+03 -.199761620729749D+03
0.153499250806D-04 0.000000000000D+00 0.000000000000D+00 0.330272825300D-07 0.000000000000D+00  7 1 -1 23 -11 11 23 21 0 0.16592185D+00 0.33676981D-01 0.19588009D+06 0.19588009D+06 0.19588009D+06 0.10985203D+01  1  2  2  2  7  2       -1 0.199466786510D-03 0.100000000000D+01
-.843740433033D-06 0.000000000000D+00 -.589477540377D-07 0.330272825300D-07 0.000000000000D+00  7 1 -1 23 -11 11 23 21 2 0.16592185D+00 0.33676981D-01 0.19588009D+06 0.19588009D+06 0.19588009D+06 0.10985203D+01  1  2  3  2  7  2       -1 -.132309001174D-04 0.100000000000D+01
0.982120184946D-06 0.000000000000D+00 0.000000000000D+00 0.330272825300D-07 0.000000000000D+00  7 1 -1 23 -11 11 23 21 2 0.16592185D+00 0.33676981D-01 0.19588009D+06 0.19588009D+06 0.19588009D+06 0.10985203D+01  1  2 15  2  7  2       -1 0.154008668561D-04 0.100000000000D+01
0.365928538143D-04 0.000000000000D+00 0.000000000000D+00 0.330272825300D-07 0.000000000000D+00  7 1 -1 23 -11 11 23 21 2 0.16592185D+00 0.49123766D-01 0.25192140D+06 0.25192140D+06 0.25192140D+06 0.10902091D+01  1  2 12  2  7  2       -1 0.288922424802D-03 0.100000000000D+01
-.366848600687D-04 0.000000000000D+00 0.000000000000D+00 0.330272825300D-07 0.000000000000D+00  7 1 -1 23 -11 11 23 21 2 0.16592185D+00 0.33676981D-01 0.19588009D+06 0.19588009D+06 0.19588009D+06 0.10985203D+01  1  2  4  2  7  2       -1 -.575264264204D-03 0.100000000000D+01
-.429347807470D-04 0.000000000000D+00 -.634760447987D-05 0.330272825300D-07 0.000000000000D+00  7 1 -1 23 -11 11 23 21 2 0.16592185D+00 0.49904351D-01 0.19588009D+06 0.19588009D+06 0.19588009D+06 0.10985203D+01  1  2  5  2  7  2       -1 -.337681020291D-03 0.100000000000D+01
0.425583060958D-04 0.000000000000D+00 0.588644826717D-05 0.330272825300D-07 0.000000000000D+00  7 1 -1 23 -11 11 23 21 2 0.16592185D+00 0.33676981D-01 0.19588009D+06 0.19588009D+06 0.19588009D+06 0.10985203D+01  1  2  6  2  7  2       -1 0.667367208055D-03 0.100000000000D+01
0.166981014588D-05 0.000000000000D+00 0.000000000000D+00 0.330272825300D-07 0.000000000000D+00  7 1 21 23 -11 11 23 1 2 0.16592185D+00 0.49123766D-01 0.25192140D+06 0.25192140D+06 0.25192140D+06 0.10902091D+01  1  2 12  4  7  2       -1 0.119850357740D-03 0.100000000000D+01
-.180680143859D-05 0.000000000000D+00 -.298424314762D-06 0.330272825300D-07 0.000000000000D+00  7 1 21 23 -11 11 23 1 2 0.16592185D+00 0.49904351D-01 0.19588009D+06 0.19588009D+06 0.19588009D+06 0.10985203D+01  1  2  5  4  7  2       -1 -.129387590373D-03 0.100000000000D+01
  </mgrwgt>
  </event>
  <event>
  8     66 0.56006291E-06 0.31440380E+03 0.75467711E-02 0.93422935E-01
        1 -1    0    0  501    0 0.00000000E+00 0.00000000E+00 0.13689941E+04 0.13689941E+04 0.32000000E+00 0.0000E+00 0.9000E+01
       -1 -1    0    0    0  501 0.00000000E+00 0.00000000E+00 -.15225153E+03 0.15225187E+03 0.32000000E+00 0.0000E+00 0.9000E+01
       25  2    1    2    0    0 0.21212644E+03 -.10942475E+03 0.13028232E+03 0.40528110E+03 0.30051270E+03 0.0000E+00 0.0000E+00
       23  2    1    2    0    0 -.21212644E+03 0.10942475E+03 0.10864602E+04 0.11159649E+04 0.89500728E+02 0.0000E+00 0.0000E+00
       23  1    3    3    0    0 0.57848029E+02 0.69222974E+02 0.65730054E+02 0.14413156E+03 0.91188000E+02 0.0000E+00 0.9000E+01
      -11  1    4    4    0    0 -.10670064E+03 0.91482564E+02 0.48024506E+03 0.50038926E+03 0.51099893E-03 0.0000E+00 0.9000E+01
       11  1    4    4    0    0 -.10542580E+03 0.17942185E+02 0.60621518E+03 0.61557564E+03 0.51099893E-03 0.0000E+00 0.9000E+01
       23  1    3    3    0    0 0.15427842E+03 -.17864772E+03 0.64552265E+02 0.26114954E+03 0.91188000E+02 0.0000E+00 0.9000E+01
#aMCatNLO 1  0  0  1  1 0.41840555D+03 0.00000000D+00  -5  7  0 0.00000000D+00 0.00000000D+00 0.00000000D+00 0.00000000D+00 0.00000000D+00
  <mgrwgt>
 0.2546719152D-03    3    2    0
 0.456543238597335D+03 0.000000000000000D+00 0.000000000000000D+00 0.456543238597335D+03
 0.456543238597335D+03 0.000000000000000D+00 0.000000000000000D+00 -.456543238597335D+03
 0.152540863837153D+03 0.578480288387379D+02 0.692229735682494D+02 -.825545231106492D+02
 0.193717186384838D+03 -.106700644655375D+03 0.914825639410360D+02 0.133312644658186D+03
 0.217760493498832D+03 -.105425799538120D+03 0.179421853888781D+02 0.189692148767613D+03
 0.349067933473848D+03 0.154278415354757D+03 -.178647722898163D+03 -.240450270315150D+03
 0.000000000000000D+00 -.000000000000000D+00 0.000000000000000D+00 -.000000000000000D+00
 0.567992986610030D+03 0.000000000000000D+00 0.000000000000000D+00 0.567992986610030D+03
 0.116732381984048D+04 0.000000000000000D+00 0.000000000000000D+00 -.116732381984048D+04
 0.166806820136682D+03 0.110237375867960D+03 0.232752137655237D+02 -.825545231106492D+02
 0.148686735900854D+03 -.505288957778676D+02 0.422174714846799D+02 0.133312644658186D+03
 0.197793283547413D+03 -.372537346461028D+02 -.418477116137905D+02 0.189692148767613D+03
 0.491098605472424D+03 0.292108681801289D+03 -.299530924070694D+03 -.240450270315150D+03
 0.730931361393143D+03 -.314563427245278D+03 0.275885950434281D+03 -.599330833230454D+03
0.164289846212D-04 0.000000000000D+00 0.000000000000D+00 0.306269249034D-06 0.000000000000D+00  7 1 -1 23 -11 11 23 21 0 0.21061450D+00 0.23423341D-01 0.98849749D+05 0.98849749D+05 0.98849749D+05 0.11221346D+01  1  2  2  1  7  1        1 0.249442191854D-03 0.100000000000D+01
-.758320529141D-06 0.000000000000D+00 -.630916267965D-07 0.306269249034D-06 0.000000000000D+00  7 1 -1 23 -11 11 23 21 2 0.21061450D+00 0.23423341D-01 0.98849749D+05 0.98849749D+05 0.98849749D+05 0.11221346D+01  1  2  3  1  7  1        1 -.144977933053D-04 0.100000000000D+01
0.103186606182D-05 0.000000000000D+00 0.000000000000D+00 0.306269249034D-06 0.000000000000D+00  7 1 -1 23 -11 11 23 21 2 0.21061450D+00 0.23423341D-01 0.98849749D+05 0.98849749D+05 0.98849749D+05 0.11221346D+01  1  2 15  1  7  1        1 0.197275166743D-04 0.100000000000D+01
  </mgrwgt>
  </event>
  <event>
  8     66 0.56006291E-06 0.20020239E+03 0.75467711E-02 0.10051224E+00
        1 -1    0    0  501    0 0.00000000E+00 0.00000000E+00 0.23665054E+03 0.23665075E+03 0.32000000E+00 0.0000E+00 0.9000E+01
       -1 -1    0    0    0  501 0.00000000E+00 0.00000000E+00 -.47879593E+03 0.47879603E+03 0.32000000E+00 0.0000E+00 0.9000E+01
       25  2    1    2    0    0 0.24536739E+03 0.61838924E+02 -.20897681E+03 0.44437537E+03 0.29961468E+03 0.0000E+00 0.0000E+00
       23  2    1    2    0    0 -.24536739E+03 -.61838924E+02 -.33168575E+02 0.27107141E+03 0.91380238E+02 0.0000E+00 0.0000E+00
       23  1    3    3    0    0 0.21372045E+03 0.63599608E+02 -.24284469E+03 0.34206744E+03 0.91188000E+02 0.0000E+00 0.9000E+01
      -11  1    4    4    0    0 0.23467425E+00 -.16733122E+02 -.11743893E+02 0.20444351E+02 0.51099893E-03 0.0000E+00 0.9000E+01
       11  1    4    4    0    0 -.24560206E+03 -.45105802E+02 -.21424682E+02 0.25062706E+03 0.51099893E-03 0.0000E+00 0.9000E+01
       23  1    3    3    0    0 0.31646937E+02 -.17606839E+01 0.33867873E+02 0.10230793E+03 0.91188000E+02 0.0000E+00 0.9000E+01
#aMCatNLO 1  0  0  1  2 0.10278103D+02 0.00000000D+00  -5  7  0 0.00000000D+00 0.00000000D+00 0.00000000D+00 0.00000000D+00 0.00000000D+00
  <mgrwgt>
 0.2406759468D-03    9    2    0
 0.336611686736890D+03 0.000000000000000D+00 0.000000000000000D+00 0.336611686736890D+03
 0.336611686736890D+03 0.000000000000000D+00 0.000000000000000D+00 -.336611686736890D+03
 0.276174798629914D+03 0.213720450626726D+03 0.635996080818260D+02 -.135040463898866D+03
 0.175025345870336D+02 0.234674261710289D+00 -.167331220993871D+02 -.512701372810722D+01
 0.258639914890335D+03 -.245602061826864D+03 -.451058020357973D+02 0.673772916016974D+02
 0.120906125366497D+03 0.316469369384277D+02 -.176068394664161D+01 0.727901860252760D+02
 0.000000000000000D+00 0.000000000000000D+00 0.000000000000000D+00 0.000000000000000D+00
 0.359527944850395D+03 0.000000000000000D+00 0.000000000000000D+00 0.359527944850395D+03
 0.337805339901049D+03 0.000000000000000D+00 0.000000000000000D+00 -.337805339901049D+03
 0.272804861518121D+03 0.209664111342339D+03 0.625481786219854D+02 -.135040463898866D+03
 0.175652057935109D+02 -.244367095084768D-01 -.168002853442261D+02 -.512701372810722D+01
 0.262472497258267D+03 -.249452493641424D+03 -.461038589435412D+02 0.673772916016974D+02
 0.120459262247801D+03 0.298635194919465D+02 -.222295731949314D+01 0.727901860252760D+02
 0.240314579337444D+02 0.994929951664742D+01 0.257892298527502D+01 0.217226049493468D+02
0.550368879524D-05 0.000000000000D+00 0.000000000000D+00 0.149572702720D-05 0.000000000000D+00  7 1 -1 23 -11 11 23 21 0 0.36407800D-01 0.73660936D-01 0.91171323D+05 0.91171323D+05 0.91171323D+05 0.11250311D+01  1  2  2  1  7  1        1 0.157674163535D-03 0.100000000000D+01
-.301369327381D-06 0.000000000000D+00 -.211356141283D-07 0.149572702720D-05 0.000000000000D+00  7 1 -1 23 -11 11 23 21 2 0.36407800D-01 0.73660936D-01 0.91171323D+05 0.91171323D+05 0.91171323D+05 0.11250311D+01  1  2  3  1  7  1        1 -.109278511205D-04 0.100000000000D+01
0.352407950124D-06 0.000000000000D+00 0.000000000000D+00 0.149572702720D-05 0.000000000000D+00  7 1 -1 23 -11 11 23 21 2 0.36407800D-01 0.73660936D-01 0.91171323D+05 0.91171323D+05 0.91171323D+05 0.11250311D+01  1  2 15  1  7  1        1 0.127785453354D-04 0.100000000000D+01
0.926473927981D-04 0.000000000000D+00 0.000000000000D+00 0.149572702720D-05 0.000000000000D+00  7 1 -1 23 -11 11 23 21 2 0.38948450D-01 0.73660936D-01 0.94178994D+05 0.94178994D+05 0.94178994D+05 0.11238657D+01  1  2 12  1  7  1        1 0.306931101108D-02 0.100000000000D+01
-.939173955390D-04 0.000000000000D+00 0.000000000000D+00 0.149572702720D-05 0.000000000000D+00  7 1 -1 23 -11 11 23 21 2 0.36407800D-01 0.73660936D-01 0.91171323D+05 0.91171323D+05 0.91171323D+05 0.11250311D+01  1  2  4  1  7  1        1 -.340550687423D-02 0.100000000000D+01
-.163360541805D-03 0.000000000000D+00 -.114473956206D-04 0.149572702720D-05 0.000000000000D+00  7 1 -1 23 -11 11 23 21 2 0.38972928D-01 0.73660936D-01 0.91171323D+05 0.91171323D+05 0.91171323D+05 0.11250311D+01  1  2  5  1  7  1        1 -.542179122523D-02 0.100000000000D+01
0.163786649654D-03 0.000000000000D+00 0.114209147942D-04 0.149572702720D-05 0.000000000000D+00  7 1 -1 23 -11 11 23 21 2 0.36407800D-01 0.73660936D-01 0.91171323D+05 0.91171323D+05 0.91171323D+05 0.11250311D+01  1  2  6  1  7  1        1 0.593901223627D-02 0.100000000000D+01
0.131848690510D-05 0.000000000000D+00 0.000000000000D+00 0.149572702720D-05 0.000000000000D+00  7 21 -1 23 -11 11 23 -1 2 0.38948450D-01 0.73660936D-01 0.94178994D+05 0.94178994D+05 0.94178994D+05 0.11238657D+01  1  2 12  3  7  1        1 0.236900805559D-03 0.100000000000D+01
-.187005073447D-05 0.000000000000D+00 -.132321396694D-06 0.149572702720D-05 0.000000000000D+00  7 21 -1 23 -11 11 23 -1 2 0.38972928D-01 0.73660936D-01 0.91171323D+05 0.91171323D+05 0.91171323D+05 0.11250311D+01  1  2  5  3  7  1        1 -.336774864447D-03 0.100000000000D+01
  </mgrwgt>
  </event>
  <event>
  9     66 0.56006291E-06 0.27386813E+03 0.75467711E-02 0.10162150E+00
        1 -1    0    0  502    0 0.00000000E+00 0.00000000E+00 0.12646083E+04 0.12646084E+04 0.32000000E+00 0.0000E+00 0.9000E+01
       -1 -1    0    0    0  501 0.00000000E+00 0.00000000E+00 -.79375444E+02 0.79376089E+02 0.32000000E+00 0.0000E+00 0.9000E+01
       25  2    1    2    0    0 0.65744946E+02 -.18450296E+03 0.45844586E+03 0.58162330E+03 0.29958191E+03 0.0000E+00 0.0000E+00
       23  2    1    2    0    0 -.52120554E+02 0.17561908E+03 0.71288984E+03 0.74095458E+03 0.85106672E+02 0.0000E+00 0.0000E+00
       23  1    3    3    0    0 0.90866895E+02 -.21854778E+03 0.36424939E+03 0.44386124E+03 0.91188000E+02 0.0000E+00 0.9000E+01
      -11  1    4    4    0    0 -.17873576E+02 0.14786442E+03 0.62658763E+03 0.64404612E+03 0.51099893E-03 0.0000E+00 0.9000E+01
       11  1    4    4    0    0 -.34246978E+02 0.27754664E+02 0.86302218E+02 0.96908460E+02 0.51099893E-03 0.0000E+00 0.9000E+01
       23  1    3    3    0    0 -.25121949E+02 0.34044818E+02 0.94196466E+02 0.13776207E+03 0.91188000E+02 0.0000E+00 0.9000E+01
       21  1    1    2  502  501 -.13624392E+02 0.88838793E+01 0.13897182E+02 0.21406577E+02 0.75000000E+00 0.0000E+00 0.9000E+01
#aMCatNLO 2  0  0  1  1 0.16264912D+02 0.00000000D+00  -5  7  0 0.00000000D+00 0.00000000D+00 0.00000000D+00 0.00000000D+00 0.00000000D+00
  <mgrwgt>
 0.1996252411D-03    2    2    0
 0.306969207776956D+03 0.000000000000000D+00 0.000000000000000D+00 0.306969207776956D+03
 0.306969207776956D+03 0.000000000000000D+00 0.000000000000000D+00 -.306969207776956D+03
 0.256056911129729D+03 0.851290919149207D+02 -.214806403773738D+03 -.621380479322690D+02
 0.194504559120248D+03 -.221603387635386D+02 0.150659629401155D+03 0.121006689786780D+03
 0.452704699244044D+02 -.352383758726373D+02 0.284011120436040D+02 0.102427912298599D+01
 0.118106475379530D+03 -.277303772787448D+02 0.357456623289788D+02 -.598929209774971D+02
 0.000000000000000D+00 -.000000000000000D+00 0.000000000000000D+00 -.000000000000000D+00
 0.311416760754135D+03 0.000000000000000D+00 0.000000000000000D+00 0.311416760754135D+03
 0.322316357269012D+03 0.000000000000000D+00 0.000000000000000D+00 -.322316357269012D+03
 0.261144236232528D+03 0.908668946526898D+02 -.218547777908663D+03 -.621380479322690D+02
 0.191900936030194D+03 -.178735762161804D+02 0.147864416102573D+03 0.121006689786780D+03
 0.440933785254659D+02 -.342469779669902D+02 0.277546641521155D+02 0.102427912298599D+01
 0.117015278031888D+03 -.251219487257273D+02 0.340448183705726D+02 -.598929209774971D+02
 0.195792892030712D+02 -.136243917437919D+02 0.888387928340225D+01 -.108995965148776D+02
-.130312839476D-05 0.000000000000D+00 0.000000000000D+00 0.122582968651D-07 0.000000000000D+00  7 1 -1 23 -11 11 23 21 2 0.19177222D+00 0.11629933D-01 0.75003754D+05 0.75003754D+05 0.75003754D+05 0.11321194D+01  1  2  8  1  7  1        1 -.934066968747D-04 0.100000000000D+01
0.455575856606D-05 0.000000000000D+00 0.000000000000D+00 0.122582968651D-07 0.315999685415D-09  7 1 -1 23 -11 11 23 21 2 0.19455073D+00 0.12211380D-01 0.79370844D+05 0.79370844D+05 0.79370844D+05 0.11300502D+01  1  2  1  1  7  1        1 0.293031937942D-03 0.100000000000D+01
  </mgrwgt>
  </event>
  <event>
  8     66 0.56006291E-06 0.58786909E+03 0.75467711E-02 0.84622635E-01
        1 -1    0    0  501    0 0.00000000E+00 0.00000000E+00 0.15729461E+04 0.15729461E+04 0.32000000E+00 0.0000E+00 0.9000E+01
       -1 -1    0    0    0  501 0.00000000E+00 0.00000000E+00 -.78388489E+03 0.78388495E+03 0.32000000E+00 0.0000E+00 0.9000E+01
       25  2    1    2    0    0 0.51446376E+03 0.95859647E+03 0.37859877E+03 0.11904732E+04 0.30051502E+03 0.0000E+00 0.0000E+00
       23  2    1    2    0    0 -.51446376E+03 -.95859647E+03 0.41046245E+03 0.11663579E+04 0.91275131E+02 0.0000E+00 0.0000E+00
       23  1    3    3    0    0 0.28272741E+03 0.73897468E+03 0.27676451E+03 0.84316795E+03 0.91188000E+02 0.0000E+00 0.9000E+01
      -11  1    4    4    0    0 -.13184692E+02 -.64221753E+02 0.13611994E+02 0.66959361E+02 0.51099893E-03 0.0000E+00 0.9000E+01
       11  1    4    4    0    0 -.50127907E+03 -.89437471E+03 0.39685045E+03 0.10993985E+04 0.51099893E-03 0.0000E+00 0.9000E+01
       23  1    3    3    0    0 0.23173635E+03 0.21962179E+03 0.10183426E+03 0.34730525E+03 0.91188000E+02 0.0000E+00 0.9000E+01
#aMCatNLO 1  0  0  2  1 0.42662638D+03 0.00000000D+00  -5  7  0 0.00000000D+00 0.00000000D+00 0.00000000D+00 0.00000000D+00 0.00000000D+00
  <mgrwgt>
 0.3892964760D-03    7    2    0
 0.111040929209351D+04 0.000000000000000D+00 0.000000000000000D+00 0.111040929209351D+04
 0.111040929209351D+04 0.000000000000000D+00 0.000000000000000D+00 -.111040929209351D+04
 0.796472221964191D+03 0.282727405865706D+03 0.738974675417653D+03 -.586447614012051D+01
 0.662238724505843D+02 -.131846915717520D+02 -.642217527412160D+02 -.934514126993983D+01
 0.102572868228999D+04 -.501279068050725D+03 -.894374713345571D+03 0.305368258759398D+02
 0.332393807482264D+03 0.231736353756770D+03 0.219621790669135D+03 -.153272084658794D+02
 0.000000000000000D+00 -.000000000000000D+00 0.000000000000000D+00 -.000000000000000D+00
 0.115569467894360D+04 0.000000000000000D+00 0.000000000000000D+00 0.115569467894360D+04
 0.295212965159867D+04 0.000000000000000D+00 0.000000000000000D+00 -.295212965159867D+04
 0.704006425414744D+03 0.341502238007576D+03 0.608811649885796D+03 -.586447614012051D+01
 0.776364424529695D+02 -.754957915272296D+01 -.767012997674412D+02 -.934514126993983D+01
 0.116144228314965D+04 -.415606001936895D+03 -.108410669701249D+04 0.305368258759398D+02
 0.318340339521408D+03 0.257226080202351D+03 0.163172120066458D+03 -.153272084658794D+02
 0.184639884000350D+04 -.175572737120309D+03 0.388824226827673D+03 -.179643497265506D+04
0.919955015909D-03 0.000000000000D+00 0.000000000000D+00 0.601264616670D-05 0.000000000000D+00  7 1 -1 23 -11 11 23 21 0 0.24199172D+00 0.12059768D+00 0.12313521D+07 0.12313521D+07 0.12313521D+07 0.10419000D+01  1  2  2  2  7  2       -1 0.390713309613D-03 0.100000000000D+01
-.511085839103D-04 0.000000000000D+00 -.353286949081D-05 0.601264616670D-05 0.000000000000D+00  7 1 -1 23 -11 11 23 21 2 0.24199172D+00 0.12059768D+00 0.12313521D+07 0.12313521D+07 0.12313521D+07 0.10419000D+01  1  2  3  2  7  2       -1 -.235633766281D-04 0.100000000000D+01
0.586610109411D-04 0.000000000000D+00 0.000000000000D+00 0.601264616670D-05 0.000000000000D+00  7 1 -1 23 -11 11 23 21 2 0.24199172D+00 0.12059768D+00 0.12313521D+07 0.12313521D+07 0.12313521D+07 0.10419000D+01  1  2 15  2  7  2       -1 0.270453882388D-04 0.100000000000D+01
0.307418119218D-02 0.000000000000D+00 0.000000000000D+00 0.601264616670D-05 0.000000000000D+00  7 1 -1 23 -11 11 23 21 2 0.24199172D+00 0.31842960D+00 0.18045788D+07 0.18045788D+07 0.18045788D+07 0.10312126D+01  1  2 12  2  7  2       -1 0.271230716993D-04 0.100000000000D+01
-.347779873976D-02 0.000000000000D+00 -.254264832816D-03 0.601264616670D-05 0.000000000000D+00  7 1 -1 23 -11 11 23 21 2 0.24199172D+00 0.32346181D+00 0.12313521D+07 0.12313521D+07 0.12313521D+07 0.10419000D+01  1  2  5  2  7  2       -1 -.292300279387D-04 0.100000000000D+01
0.331610748647D-03 0.000000000000D+00 0.000000000000D+00 0.601264616670D-05 0.000000000000D+00  7 1 21 23 -11 11 23 1 2 0.24199172D+00 0.31842960D+00 0.18045788D+07 0.18045788D+07 0.18045788D+07 0.10312126D+01  1  2 12  4  7  2       -1 0.280176425524D-04 0.100000000000D+01
-.367380117313D-03 0.000000000000D+00 -.279489111274D-04 0.601264616670D-05 0.000000000000D+00  7 1 21 23 -11 11 23 1 2 0.24199172D+00 0.32346181D+00 0.12313521D+07 0.12313521D+07 0.12313521D+07 0.10419000D+01  1  2  5  4  7  2       -1 -.308095315797D-04 0.100000000000D+01
  </mgrwgt>
  </event>
  <event>
  8     66 0.56006291E-06 0.36834860E+03 0.75467711E-02 0.96120629E-01
        1 -1    0    0  501    0 0.00000000E+00 0.00000000E+00 0.88377619E+03 0.88377625E+03 0.32000000E+00 0.0000E+00 0.9000E+01
       -1 -1    0    0    0  501 0.00000000E+00 0.00000000E+00 -.18006558E+03 0.18006587E+03 0.32000000E+00 0.0000E+00 0.9000E+01
       25  2    1    2    0    0 0.97676305E+02 0.29481379E+03 0.22693487E+03 0.48761338E+03 0.29968574E+03 0.0000E+00 0.0000E+00
       23  2    1    2    0    0 -.97676305E+02 -.29481379E+03 0.47677574E+03 0.57622874E+03 0.90931968E+02 0.0000E+00 0.0000E+00
       23  1    3    3    0    0 0.36358931E+02 0.30026838E+03 0.20146496E+03 0.37468180E+03 0.91188000E+02 0.0000E+00 0.9000E+01
      -11  1    4    4    0    0 -.23197254E+02 -.85751517E+02 0.70976851E+02 0.11370641E+03 0.51099893E-03 0.0000E+00 0.9000E+01
       11  1    4    4    0    0 -.74479051E+02 -.20906227E+03 0.40579889E+03 0.46252232E+03 0.51099893E-03 0.0000E+00 0.9000E+01
       23  1    3    3    0    0 0.61317374E+02 -.54545949E+01 0.25469913E+02 0.11293158E+03 0.91188000E+02 0.0000E+00 0.9000E+01
#aMCatNLO 1  0  0  2  1 0.13544106D+03 0.00000000D+00  -5  7  0 0.00000000D+00 0.00000000D+00 0.00000000D+00 0.00000000D+00 0.00000000D+00
  <mgrwgt>
 0.2062860363D-03    4    2    0
 0.398920865902307D+03 0.000000000000000D+00 0.000000000000000D+00 0.398920865902307D+03
 0.398920865902307D+03 0.000000000000000D+00 0.000000000000000D+00 -.398920865902307D+03
 0.321905016427874D+03 0.363589313489861D+02 0.300268383098238D+03 -.618426590644299D+02
 0.890132799809645D+02 -.231972538442965D+02 -.857515170753841D+02 -.565055274490456D+01
 0.258805396161336D+03 -.744790510507438D+02 -.209062271098332D+03 0.133139291120294D+03
 0.128118039234441D+03 0.613173735460543D+02 -.545459492452154D+01 -.656460793109593D+02
 0.000000000000000D+00 0.000000000000000D+00 -.000000000000000D+00 0.000000000000000D+00
 0.577145462174661D+03 0.000000000000000D+00 0.000000000000000D+00 0.577145462174661D+03
 0.431211379839551D+03 0.000000000000000D+00 0.000000000000000D+00 -.431211379839551D+03
 0.377339217050181D+03 0.350912228458604D+02 0.359184806163995D+03 -.618426590644299D+02
 0.758177362643782D+02 -.234960874576017D+02 -.718633025967815D+02 -.565055274490456D+01
 0.227297999558894D+03 -.753603417052089D+02 -.168104517076535D+03 0.133139291120294D+03
 0.128801317059145D+03 0.608515865763557D+02 0.161927333829058D+02 -.656460793109593D+02
 0.199100572081614D+03 0.291361974059465D+01 -.135409719873584D+03 0.145934082335110D+03
0.906272139978D-05 0.000000000000D+00 0.000000000000D+00 0.127018351575D-05 0.000000000000D+00  7 1 -1 23 -11 11 23 21 0 0.13596559D+00 0.27702424D-01 0.13568069D+06 0.13568069D+06 0.13568069D+06 0.11110069D+01  1  2  2  2  7  2       -1 0.232948480054D-03 0.100000000000D+01
-.499592752549D-06 0.000000000000D+00 -.348032364445D-07 0.127018351575D-05 0.000000000000D+00  7 1 -1 23 -11 11 23 21 2 0.13596559D+00 0.27702424D-01 0.13568069D+06 0.13568069D+06 0.13568069D+06 0.11110069D+01  1  2  3  2  7  2       -1 -.158507905587D-04 0.100000000000D+01
0.572154222423D-06 0.000000000000D+00 0.000000000000D+00 0.127018351575D-05 0.000000000000D+00  7 1 -1 23 -11 11 23 21 2 0.13596559D+00 0.27702424D-01 0.13568069D+06 0.13568069D+06 0.13568069D+06 0.11110069D+01  1  2 15  2  7  2       -1 0.181529790027D-04 0.100000000000D+01
-.912921048523D-06 0.000000000000D+00 0.000000000000D+00 0.127018351575D-05 0.000000000000D+00  7 1 -1 23 -11 11 23 21 2 0.13596559D+00 0.27702424D-01 0.13568069D+06 0.13568069D+06 0.13568069D+06 0.11110069D+01  1  2  4  2  7  2       -1 -.289646322189D-04 0.100000000000D+01
  </mgrwgt>
  </event>
  <event>
  8     66 0.56006291E-06 0.74179647E+02 0.75467711E-02 0.10541478E+00
        1 -1    0    0  501    0 0.00000000E+00 0.00000000E+00 0.27821887E+03 0.27821906E+03 0.32000000E+00 0.0000E+00 0.9000E+01
       -1 -1    0    0    0  501 0.00000000E+00 0.00000000E+00 -.17213516E+03 0.17213546E+03 0.32000000E+00 0.0000E+00 0.9000E+01
       25  2    1    2    0    0 -.40832089E+02 0.30053064E+02 -.11550004E+01 0.30066685E+03 0.29635920E+03 0.0000E+00 0.0000E+00
       23  2    1    2    0    0 0.40832089E+02 -.30053064E+02 0.10723871E+03 0.14968767E+03 0.91300663E+02 0.0000E+00 0.0000E+00
       23  1    3    3    0    0 -.62647302E+02 -.65573449E+02 -.73832306E+02 0.14829370E+03 0.91188000E+02 0.0000E+00 0.9000E+01
      -11  1    4    4    0    0 -.28936913E+02 -.16994589E+01 0.26444643E+02 0.39237129E+02 0.51099893E-03 0.0000E+00 0.9000E+01
       11  1    4    4    0    0 0.69769002E+02 -.28353605E+02 0.80794066E+02 0.11045054E+03 0.51099893E-03 0.0000E+00 0.9000E+01
       23  1    3    3    0    0 0.21815213E+02 0.95626513E+02 0.72677306E+02 0.15237315E+03 0.91188000E+02 0.0000E+00 0.9000E+01
#aMCatNLO 1  0  0  2  1 0.56924908D+02 0.00000000D+00  -5  7  0 0.00000000D+00 0.00000000D+00 0.00000000D+00 0.00000000D+00 0.00000000D+00
  <mgrwgt>
 0.4690295086D-03    9    2    0
 0.218840945952082D+03 0.000000000000000D+00 0.000000000000000D+00 0.218840945952082D+03
 0.218840945952082D+03 0.000000000000000D+00 0.000000000000000D+00 -.218840945952082D+03
 0.170482593913259D+03 -.626473020188130D+02 -.655734493711629D+02 -.111912920481615D+03
 0.339636447136046D+02 -.289369131344763D+02 -.169945894131747D+01 0.177001711795820D+02
 0.940659552592841D+02 0.697690018538166D+02 -.283536051642277D+02 0.563627837615821D+02
 0.139169698018016D+03 0.218152132994727D+02 0.956265134767081D+02 0.378499655404506D+02
 0.000000000000000D+00 0.000000000000000D+00 -.000000000000000D+00 -.000000000000000D+00
 0.232505214617391D+03 0.000000000000000D+00 0.000000000000000D+00 0.232505214617391D+03
 0.289214955347086D+03 0.000000000000000D+00 0.000000000000000D+00 -.289214955347086D+03
 0.172714387287143D+03 -.797162136239651D+02 -.513403520313937D+02 -.111912920481615D+03
 0.369986216691305D+02 -.324662234680101D+02 0.124349481469568D+01 0.177001711795820D+02
 0.855273879959713D+02 0.608369218274259D+02 -.209054932164305D+02 0.563627837615821D+02
 0.146127798172643D+03 0.762593422534812D+01 0.107458397952705D+03 0.378499655404506D+02
 0.803519748395899D+02 0.437195810392012D+02 -.364560475195765D+02 -.567097407296946D+02
0.273776595177D-05 0.000000000000D+00 0.000000000000D+00 0.513849160226D-08 0.000000000000D+00  7 1 -1 23 -11 11 23 21 0 0.42802941D-01 0.26482370D-01 0.33640710D+05 0.33640710D+05 0.33640710D+05 0.11627485D+01  1  2  2  2  7  2       -1 0.386661780216D-03 0.100000000000D+01
-.146330679768D-06 0.000000000000D+00 -.105137421251D-07 0.513849160226D-08 0.000000000000D+00  7 1 -1 23 -11 11 23 21 2 0.42802941D-01 0.26482370D-01 0.33640710D+05 0.33640710D+05 0.33640710D+05 0.11627485D+01  1  2  3  2  7  2       -1 -.279409988575D-04 0.100000000000D+01
0.172564200216D-06 0.000000000000D+00 0.000000000000D+00 0.513849160226D-08 0.000000000000D+00  7 1 -1 23 -11 11 23 21 2 0.42802941D-01 0.26482370D-01 0.33640710D+05 0.33640710D+05 0.33640710D+05 0.11627485D+01  1  2 15  2  7  2       -1 0.329501381988D-04 0.100000000000D+01
0.352299797546D-05 0.000000000000D+00 0.000000000000D+00 0.513849160226D-08 0.000000000000D+00  7 1 -1 23 -11 11 23 21 2 0.42802941D-01 0.35626983D-01 0.45461843D+05 0.45461843D+05 0.45461843D+05 0.11509480D+01  1  2 12  2  7  2       -1 0.404182644572D-03 0.100000000000D+01
-.382597992791D-05 0.000000000000D+00 0.000000000000D+00 0.513849160226D-08 0.000000000000D+00  7 1 -1 23 -11 11 23 21 2 0.42802941D-01 0.26482370D-01 0.33640710D+05 0.33640710D+05 0.33640710D+05 0.11627485D+01  1  2  4  2  7  2       -1 -.730548788294D-03 0.100000000000D+01
-.508601841311D-05 0.000000000000D+00 -.129084409049D-05 0.513849160226D-08 0.000000000000D+00  7 1 -1 23 -11 11 23 21 2 0.42802941D-01 0.36836392D-01 0.33640710D+05 0.33640710D+05 0.33640710D+05 0.11627485D+01  1  2  5  2  7  2       -1 -.562885502158D-03 0.100000000000D+01
0.528863953904D-05 0.000000000000D+00 0.122360886526D-05 0.513849160226D-08 0.000000000000D+00  7 1 -1 23 -11 11 23 21 2 0.42802941D-01 0.26482370D-01 0.33640710D+05 0.33640710D+05 0.33640710D+05 0.11627485D+01  1  2  6  2  7  2       -1 0.100983520033D-02 0.100000000000D+01
0.135072933295D-06 0.000000000000D+00 0.000000000000D+00 0.513849160226D-08 0.000000000000D+00  7 1 21 23 -11 11 23 1 2 0.42802941D-01 0.35626983D-01 0.45461843D+05 0.45461843D+05 0.45461843D+05 0.11509480D+01  1  2 12  4  7  2       -1 0.164097251459D-03 0.100000000000D+01
-.177121437319D-06 0.000000000000D+00 -.534482673551D-07 0.513849160226D-08 0.000000000000D+00  7 1 21 23 -11 11 23 1 2 0.42802941D-01 0.36836392D-01 0.33640710D+05 0.33640710D+05 0.33640710D+05 0.11627485D+01  1  2  5  4  7  2       -1 -.207322216875D-03 0.100000000000D+01
  </mgrwgt>
  </event>
  <event>
  8     66 0.56006291E-06 0.25083129E+03 0.75467711E-02 0.93893477E-01
        1 -1    0    0  501    0 0.00000000E+00 0.00000000E+00 0.25844015E+04 0.25844015E+04 0.32000000E+00 0.0000E+00 0.9000E+01
       -1 -1    0    0    0  501 0.00000000E+00 0.00000000E+00 -.11178947E+03 0.11178993E+03 0.32000000E+00 0.0000E+00 0.9000E+01
       25  2    1    2    0    0 0.32649190E+02 -.44151057E+03 0.18562532E+04 0.19316942E+04 0.29961505E+03 0.0000E+00 0.0000E+00
       23  2    1    2    0    0 -.32649190E+02 0.44151057E+03 0.61635884E+03 0.76449721E+03 0.92521437E+02 0.0000E+00 0.0000E+00
       23  1    3    3    0    0 -.89832190E+02 -.10776655E+03 0.60760154E+03 0.63022086E+03 0.91188000E+02 0.0000E+00 0.9000E+01
      -13  1    4    4    0    0 -.42932116E+01 0.19793833E+03 0.20085539E+03 0.28202999E+03 0.10565837E+00 0.0000E+00 0.9000E+01
       13  1    4    4    0    0 -.28355978E+02 0.24357224E+03 0.41550345E+03 0.48246722E+03 0.10565837E+00 0.0000E+00 0.9000E+01
       23  1    3    3    0    0 0.12248138E+03 -.33374402E+03 0.12486517E+04 0.13014734E+04 0.91188000E+02 0.0000E+00 0.9000E+01
#aMCatNLO 1  0  0  1  2 0.84953961D+02 0.00000000D+00  -5  7  0 0.00000000D+00 0.00000000D+00 0.00000000D+00 0.00000000D+00 0.00000000D+00
  <mgrwgt>
 0.2011652154D-03    9    2    0
 0.537503046680710D+03 0.000000000000000D+00 0.000000000000000D+00 0.537503046680710D+03
 0.537503046680710D+03 0.000000000000000D+00 0.000000000000000D+00 -.537503046680710D+03
 0.183099633115044D+03 -.898321895502367D+02 -.107766546795595D+03 0.743422720612358D+02
 0.245365464307313D+03 -.429318027626965D+01 0.197938269269896D+03 -.144935231176884D+03
 0.254366186593667D+03 -.283560095972442D+02 0.243572299998719D+03 -.676064218492547D+02
 0.392174809345397D+03 0.122481379423751D+03 -.333744022473019D+03 0.138199380964903D+03
 0.000000000000000D+00 -.000000000000000D+00 -.000000000000000D+00 0.000000000000000D+00
 0.726442490663473D+03 0.000000000000000D+00 0.000000000000000D+00 0.726442490663473D+03
 0.548813883649290D+03 0.000000000000000D+00 0.000000000000000D+00 -.548813883649290D+03
 0.172609967604730D+03 -.816161803447029D+02 -.963897051723898D+02 0.743422720612358D+02
 0.258613074476155D+03 0.734747352013564D+01 0.214057271977813D+03 -.144935231176884D+03
 0.269452165910258D+03 -.162571053295738D+02 0.260325849590034D+03 -.676064218492547D+02
 0.377682467516220D+03 0.140263172383073D+03 -.309121284448506D+03 0.138199380964903D+03
 0.196898698805400D+03 -.497373602289318D+02 -.688721319469503D+02 0.177628607014183D+03
0.379932752560D-04 0.000000000000D+00 0.000000000000D+00 0.910903158725D-06 0.000000000000D+00  7 1 -1 23 -13 13 23 21 0 0.39760027D+00 0.17198417D-01 0.23890002D+06 0.23890002D+06 0.23890002D+06 0.10919460D+01  1  2  2  1  7  1        1 0.141280521214D-03 0.100000000000D+01
-.208755952116D-05 0.000000000000D+00 -.145904180842D-06 0.910903158725D-06 0.000000000000D+00  7 1 -1 23 -13 13 23 21 2 0.39760027D+00 0.17198417D-01 0.23890002D+06 0.23890002D+06 0.23890002D+06 0.10919460D+01  1  2  3  1  7  1        1 -.925585987649D-05 0.100000000000D+01
0.245687084375D-05 0.000000000000D+00 0.000000000000D+00 0.910903158725D-06 0.000000000000D+00  7 1 -1 23 -13 13 23 21 2 0.39760027D+00 0.17198417D-01 0.23890002D+06 0.23890002D+06 0.23890002D+06 0.10919460D+01  1  2 15  1  7  1        1 0.108933192246D-04 0.100000000000D+01
0.102765280401D-03 0.000000000000D+00 0.000000000000D+00 0.910903158725D-06 0.000000000000D+00  7 1 -1 23 -13 13 23 21 2 0.54046561D+00 0.17198417D-01 0.28475030D+06 0.28475030D+06 0.28475030D+06 0.10862321D+01  1  2 12  1  7  1        1 0.890956190695D-04 0.100000000000D+01
-.101408968491D-03 0.000000000000D+00 0.000000000000D+00 0.910903158725D-06 0.000000000000D+00  7 1 -1 23 -13 13 23 21 2 0.39760027D+00 0.17198417D-01 0.23890002D+06 0.23890002D+06 0.23890002D+06 0.10919460D+01  1  2  4  1  7  1        1 -.449628953356D-03 0.100000000000D+01
-.119697550522D-03 0.000000000000D+00 -.129023150667D-04 0.910903158725D-06 0.000000000000D+00  7 1 -1 23 -13 13 23 21 2 0.53967522D+00 0.17198417D-01 0.23890002D+06 0.23890002D+06 0.23890002D+06 0.10919460D+01  1  2  5  1  7  1        1 -.107179283235D-03 0.100000000000D+01
0.118638836871D-03 0.000000000000D+00 0.123227100664D-04 0.910903158725D-06 0.000000000000D+00  7 1 -1 23 -13 13 23 21 2 0.39760027D+00 0.17198417D-01 0.23890002D+06 0.23890002D+06 0.23890002D+06 0.10919460D+01  1  2  6  1  7  1        1 0.526023061309D-03 0.100000000000D+01
0.403897550605D-05 0.000000000000D+00 0.000000000000D+00 0.910903158725D-06 0.000000000000D+00  7 21 -1 23 -13 13 23 -1 2 0.54046561D+00 0.17198417D-01 0.28475030D+06 0.28475030D+06 0.28475030D+06 0.10862321D+01  1  2 12  3  7  1        1 0.458874396539D-06 0.100000000000D+01
-.439070543228D-05 0.000000000000D+00 -.505352877972D-06 0.910903158725D-06 0.000000000000D+00  7 21 -1 23 -13 13 23 -1 2 0.53967522D+00 0.17198417D-01 0.23890002D+06 0.23890002D+06 0.23890002D+06 0.10919460D+01  1  2  5  3  7  1        1 -.522083369917D-06 0.100000000000D+01
  </mgrwgt>
  </event>
  <event>
  8     66 0.56006291E-06 0.27291318E+03 0.75467711E-02 0.96131728E-01
        1 -1    0    0  501    0 0.00000000E+00 0.00000000E+00 0.25532651E+03 0.25532671E+03 0.32000000E+00 0.0000E+00 0.9000E+01
       -1 -1    0    0    0  501 0.00000000E+00 0.00000000E+00 -.63525426E+03 0.63525434E+03 0.32000000E+00 0.0000E+00 0.9000E+01
       25  2    1    2    0    0 -.82646083E+02 0.17031507E+03 -.52832628E+03 0.63602343E+03 0.29926502E+03 0.0000E+00 0.0000E+00
       23  2    1    2    0    0 0.82646083E+02 -.17031507E+03 0.14839854E+03 0.25455762E+03 0.83305813E+02 0.0000E+00 0.0000E+00
       23  1    3    3    0    0 -.13958670E+03 0.16055374E+03 -.43745962E+03 0.49492234E+03 0.91188000E+02 0.0000E+00 0.9000E+01
      -11  1    4    4    0    0 0.21729618E+02 0.36992254E+01 0.21083380E+02 0.30501959E+02 0.51099893E-03 0.0000E+00 0.9000E+01
       11  1    4    4    0    0 0.60916465E+02 -.17401429E+03 0.12731516E+03 0.22405566E+03 0.51099893E-03 0.0000E+00 0.9000E+01
       23  1    3    3    0    0 0.56940616E+02 0.97613218E+01 -.90866667E+02 0.14110110E+03 0.91188000E+02 0.0000E+00 0.9000E+01
#aMCatNLO 1  0  0  1  1 0.27902775D+03 0.00000000D+00  -5  7  0 0.00000000D+00 0.00000000D+00 0.00000000D+00 0.00000000D+00 0.00000000D+00
  <mgrwgt>
 0.5278788363D-03    6    2    0
 0.402737357725780D+03 0.000000000000000D+00 0.000000000000000D+00 0.402737357725780D+03
 0.402737357725780D+03 0.000000000000000D+00 0.000000000000000D+00 -.402737357725780D+03
 0.340874025156210D+03 -.139586699527421D+03 0.160553744555555D+03 -.250235685117906D+03
 0.436694375907493D+02 0.217296184732970D+02 0.369922540618243D+01 0.376982651045316D+02
 0.307781585856372D+03 0.609164648289033D+02 -.174014291778546D+03 0.246450228569225D+03
 0.113149666848228D+03 0.569406162252206D+02 0.976132181680909D+01 -.339128085558504D+02
 0.000000000000000D+00 0.000000000000000D+00 -.000000000000000D+00 0.000000000000000D+00
 0.619249031975997D+03 0.000000000000000D+00 0.000000000000000D+00 0.619249031975997D+03
 0.527051650946721D+03 0.000000000000000D+00 0.000000000000000D+00 -.527051650946721D+03
 0.422225191798768D+03 -.263330684593188D+03 0.194930535552442D+03 -.250235685117906D+03
 0.393056764197418D+02 0.827439398765807D+01 0.743716418125236D+01 0.376982651045316D+02
 0.289258142605411D+03 -.358993536137504D+02 -.147118300397416D+03 0.246450228569225D+03
 0.101646325273649D+03 0.221093499222908D+02 0.194376479931186D+02 -.339128085558504D+02
 0.293865346825148D+03 0.268846294296989D+03 -.746870473293972D+02 0.921973810292755D+02
0.255610065831D-04 0.000000000000D+00 0.000000000000D+00 0.157307835570D-07 0.000000000000D+00  7 1 -1 23 -11 11 23 21 0 0.39281023D-01 0.97731446D-01 0.74481603D+05 0.74481603D+05 0.74481603D+05 0.11323756D+01  1  2  2  1  7  1        1 0.372108721231D-03 0.100000000000D+01
-.115861208114D-05 0.000000000000D+00 -.981609956468D-07 0.157307835570D-07 0.000000000000D+00  7 1 -1 23 -11 11 23 21 2 0.39281023D-01 0.97731446D-01 0.74481603D+05 0.74481603D+05 0.74481603D+05 0.11323756D+01  1  2  3  1  7  1        1 -.216277314222D-04 0.100000000000D+01
0.157016185687D-05 0.000000000000D+00 0.000000000000D+00 0.157307835570D-07 0.000000000000D+00  7 1 -1 23 -11 11 23 21 2 0.39281023D-01 0.97731446D-01 0.74481603D+05 0.74481603D+05 0.74481603D+05 0.11323756D+01  1  2 15  1  7  1        1 0.293101025636D-04 0.100000000000D+01
-.381307630972D-05 0.000000000000D+00 -.880646930633D-05 0.157307835570D-07 0.000000000000D+00  7 1 -1 23 -11 11 23 21 2 0.76443443D-01 0.97731446D-01 0.74481603D+05 0.74481603D+05 0.74481603D+05 0.11323756D+01  1  2  5  1  7  1        1 -.294586929290D-04 0.100000000000D+01
0.920599767551D-05 0.000000000000D+00 0.715995587010D-05 0.157307835570D-07 0.000000000000D+00  7 1 -1 23 -11 11 23 21 2 0.39281023D-01 0.97731446D-01 0.74481603D+05 0.74481603D+05 0.74481603D+05 0.11323756D+01  1  2  6  1  7  1        1 0.171847720596D-03 0.100000000000D+01
0.240556358135D-06 0.000000000000D+00 -.635530303254D-06 0.157307835570D-07 0.000000000000D+00  7 21 -1 23 -11 11 23 -1 2 0.76443443D-01 0.97731446D-01 0.74481603D+05 0.74481603D+05 0.74481603D+05 0.11323756D+01  1  2  5  3  7  1        1 0.569871629921D-05 0.100000000000D+01
  </mgrwgt>
  </event>
  <event>
  8     66 0.56006291E-06 0.22021117E+03 0.75467711E-02 0.10211831E+00
        1 -1    0    0  501    0 0.00000000E+00 0.00000000E+00 0.16305292E+04 0.16305292E+04 0.32000000E+00 0.0000E+00 0.9000E+01
       -1 -1    0    0    0  501 0.00000000E+00 0.00000000E+00 -.42234821E+02 0.42236033E+02 0.32000000E+00 0.0000E+00 0.9000E+01
       25  2    1    2    0    0 0.38348517E+02 0.14709291E+03 0.11853259E+04 0.12322839E+04 0.30069785E+03 0.0000E+00 0.0000E+00
       23  2    1    2    0    0 -.38348517E+02 -.14709291E+03 0.40296853E+03 0.44048141E+03 0.92375883E+02 0.0000E+00 0.0000E+00
       23  1    3    3    0    0 0.73130094E+02 0.54691768E+02 0.96936628E+03 0.97791894E+03 0.91188000E+02 0.0000E+00 0.9000E+01
      -13  1    4    4    0    0 -.13743810E+01 -.13914617E+03 0.29744347E+03 0.32838419E+03 0.10565837E+00 0.0000E+00 0.9000E+01
       13  1    4    4    0    0 -.36974136E+02 -.79467328E+01 0.10552506E+03 0.11209722E+03 0.10565837E+00 0.0000E+00 0.9000E+01
       23  1    3    3    0    0 -.34781577E+02 0.92401138E+02 0.21595958E+03 0.25436494E+03 0.91188000E+02 0.0000E+00 0.9000E+01
#aMCatNLO 1  0  0  1  2 0.88514542D+02 0.00000000D+00  -5  7  0 0.00000000D+00 0.00000000D+00 0.00000000D+00 0.00000000D+00 0.00000000D+00
  <mgrwgt>
 0.1523521794D-03    4    2    0
 0.262423606125317D+03 0.000000000000000D+00 0.000000000000000D+00 0.262423606125317D+03
 0.262423606125317D+03 0.000000000000000D+00 0.000000000000000D+00 -.262423606125317D+03
 0.183272017000587D+03 0.731300951463459D+02 0.546917717424962D+02 0.130131395746824D+03
 0.146484437543109D+03 -.137434256872475D+01 -.139146345769847D+03 -.457612946027862D+02
 0.379298946402860D+02 -.369741764275665D+02 -.794656772695092D+01 -.290503808707724D+01
 0.157160863066652D+03 -.347815761500546D+02 0.924011417543014D+02 -.814650630569605D+02
 0.000000000000000D+00 -.000000000000000D+00 -.000000000000000D+00 -.000000000000000D+00
 0.297181838942587D+03 0.000000000000000D+00 0.000000000000000D+00 0.297181838942587D+03
 0.329206752031907D+03 0.000000000000000D+00 0.000000000000000D+00 -.329206752031907D+03
 0.200606859168556D+03 0.103328394371314D+03 0.657032979317047D+02 0.130131395746824D+03
 0.140296086356046D+03 0.211855965428612D+02 -.130920075856315D+03 -.457612946027862D+02
 0.321480950601597D+02 -.314614060371325D+02 -.593638778015557D+01 -.290503808707724D+01
 0.159207750251874D+03 -.989405395627902D+01 0.101476142978035D+03 -.814650630569605D+02
 0.941298001378594D+02 -.831585309207639D+02 -.303229772732693D+02 -.320249130893202D+02
0.318831655057D-05 0.000000000000D+00 0.000000000000D+00 0.812953600742D-07 0.000000000000D+00  7 1 -1 23 -13 13 23 21 0 0.25085074D+00 0.64977604D-02 0.48492958D+05 0.48492958D+05 0.48492958D+05 0.11484663D+01  1  2  2  1  7  1        1 0.241047542250D-03 0.100000000000D+01
-.170505063681D-06 0.000000000000D+00 -.122439750572D-07 0.812953600742D-07 0.000000000000D+00  7 1 -1 23 -13 13 23 21 2 0.25085074D+00 0.64977604D-02 0.48492958D+05 0.48492958D+05 0.48492958D+05 0.11484663D+01  1  2  3  1  7  1        1 -.170025901454D-04 0.100000000000D+01
0.206067768854D-06 0.000000000000D+00 0.000000000000D+00 0.812953600742D-07 0.000000000000D+00  7 1 -1 23 -13 13 23 21 2 0.25085074D+00 0.64977604D-02 0.48492958D+05 0.48492958D+05 0.48492958D+05 0.11484663D+01  1  2 15  1  7  1        1 0.205488666458D-04 0.100000000000D+01
-.925015921645D-06 0.000000000000D+00 0.000000000000D+00 0.812953600742D-07 0.000000000000D+00  7 1 -1 23 -13 13 23 21 2 0.25085074D+00 0.64977604D-02 0.48492958D+05 0.48492958D+05 0.48492958D+05 0.11484663D+01  1  2  4  1  7  1        1 -.922416393636D-04 0.100000000000D+01
  </mgrwgt>
  </event>
  <event>
  8     66 0.56006291E-06 0.27841938E+03 0.75467711E-02 0.98359786E-01
        1 -1    0    0  501    0 0.00000000E+00 0.00000000E+00 0.11465249E+04 0.11465249E+04 0.32000000E+00 0.0000E+00 0.9000E+01
       -1 -1    0    0    0  501 0.00000000E+00 0.00000000E+00 -.82374407E+02 0.82375029E+02 0.32000000E+00 0.0000E+00 0.9000E+01
       25  2    1    2    0    0 -.11044298E+03 -.19141254E+03 0.59063560E+03 0.69826364E+03 0.29980875E+03 0.0000E+00 0.0000E+00
       23  2    1    2    0    0 0.11044298E+03 0.19141254E+03 0.47351487E+03 0.53063631E+03 0.92315481E+02 0.0000E+00 0.0000E+00
       23  1    3    3    0    0 -.14392705E+03 -.95768574E+02 0.18044012E+03 0.26600847E+03 0.91188000E+02 0.0000E+00 0.9000E+01
      -11  1    4    4    0    0 0.63203173E+02 0.14789005E+03 0.24348315E+03 0.29180499E+03 0.51099893E-03 0.0000E+00 0.9000E+01
       11  1    4    4    0    0 0.47239804E+02 0.43522489E+02 0.23003172E+03 0.23883131E+03 0.51099893E-03 0.0000E+00 0.9000E+01
       23  1    3    3    0    0 0.33484077E+02 -.95643969E+02 0.41019547E+03 0.43225517E+03 0.91188000E+02 0.0000E+00 0.9000E+01
#aMCatNLO 1  0  0  2  2 0.15540851D+03 0.00000000D+00  -5  7  0 0.00000000D+00 0.00000000D+00 0.00000000D+00 0.00000000D+00 0.00000000D+00
  <mgrwgt>
 0.2483309704D-03    3    2    0
 0.307318590957454D+03 0.000000000000000D+00 0.000000000000000D+00 0.307318590957454D+03
 0.307318590957454D+03 0.000000000000000D+00 0.000000000000000D+00 -.307318590957454D+03
 0.219450364297797D+03 -.143927054311430D+03 -.957685740542255D+02 -.997827355171781D+02
 0.161878316014464D+03 0.632031734377440D+02 0.147890054047872D+03 -.183978253278659D+02
 0.792523344257262D+02 0.472398041618155D+02 0.435224894834005D+02 0.464233381377057D+02
 0.154056167176920D+03 0.334840767118702D+02 -.956439694770467D+02 0.717572227073382D+02
 0.000000000000000D+00 -.000000000000000D+00 -.000000000000000D+00 0.000000000000000D+00
 0.877429571429793D+03 0.000000000000000D+00 0.000000000000000D+00 0.877429571429793D+03
 0.327763610587486D+03 0.000000000000000D+00 0.000000000000000D+00 -.327763610587486D+03
 0.193815084766209D+03 -.131071524814831D+03 -.459640817852018D+02 -.997827355171781D+02
 0.207173395868747D+03 0.746833375275083D+02 0.192366148463668D+03 -.183978253278659D+02
 0.953869234504082D+02 0.526723418587742D+02 0.645690579503736D+02 0.464233381377057D+02
 0.137604619061924D+03 0.425568260766833D+02 -.604946062619279D+02 0.717572227073382D+02
 0.571213158869991D+03 -.388409806481349D+02 -.150476518366912D+03 0.549665960842307D+03
0.427198811534D-05 0.000000000000D+00 0.000000000000D+00 0.333961108130D-06 0.000000000000D+00  7 1 -1 23 -11 11 23 21 0 0.17638849D+00 0.12673037D-01 0.77517350D+05 0.77517350D+05 0.77517350D+05 0.11309127D+01  1  2  2  2  7  2       -1 0.245531555494D-03 0.100000000000D+01
-.234518376523D-06 0.000000000000D+00 -.164055592032D-07 0.333961108130D-06 0.000000000000D+00  7 1 -1 23 -11 11 23 21 2 0.17638849D+00 0.12673037D-01 0.77517350D+05 0.77517350D+05 0.77517350D+05 0.11309127D+01  1  2  3  2  7  2       -1 -.172390111525D-04 0.100000000000D+01
0.272601433547D-06 0.000000000000D+00 0.000000000000D+00 0.333961108130D-06 0.000000000000D+00  7 1 -1 23 -11 11 23 21 2 0.17638849D+00 0.12673037D-01 0.77517350D+05 0.77517350D+05 0.77517350D+05 0.11309127D+01  1  2 15  2  7  2       -1 0.200384260832D-04 0.100000000000D+01
  </mgrwgt>
  </event>
  <event>
  8     66 0.56006291E-06 0.17842410E+03 0.75467711E-02 0.98088810E-01
        1 -1    0    0  501    0 0.00000000E+00 0.00000000E+00 0.11972448E+04 0.11972448E+04 0.32000000E+00 0.0000E+00 0.9000E+01
       -1 -1    0    0    0  501 0.00000000E+00 0.00000000E+00 -.14851901E+03 0.14851936E+03 0.32000000E+00 0.0000E+00 0.9000E+01
       25  2    1    2    0    0 0.26213760E+03 -.15498400E+03 0.89692694E+03 0.99366686E+03 0.30026610E+03 0.0000E+00 0.0000E+00
       23  2    1    2    0    0 -.26213760E+03 0.15498400E+03 0.15179883E+03 0.35209731E+03 0.90517809E+02 0.0000E+00 0.0000E+00
       23  1    3    3    0    0 0.60471479E+02 0.40933464E+02 0.38719089E+03 0.40443094E+03 0.91188000E+02 0.0000E+00 0.9000E+01
      -13  1    4    4    0    0 -.38289565E+01 0.81591979E+01 -.10257515E+02 0.13655079E+02 0.10565837E+00 0.0000E+00 0.9000E+01
       13  1    4    4    0    0 -.25830864E+03 0.14682480E+03 0.16205634E+03 0.33844224E+03 0.10565837E+00 0.0000E+00 0.9000E+01
       23  1    3    3    0    0 0.20166612E+03 -.19591746E+03 0.50973604E+03 0.58923591E+03 0.91188000E+02 0.0000E+00 0.9000E+01
#aMCatNLO 1  0  0  1  2 0.24774731D+02 0.00000000D+00  -5  7  0 0.00000000D+00 0.00000000D+00 0.00000000D+00 0.00000000D+00 0.00000000D+00
  <mgrwgt>
 0.4248837372D-03    9    2    0
 0.421679818617041D+03 0.000000000000000D+00 0.000000000000000D+00 0.421679818617041D+03
 0.421679818617041D+03 0.000000000000000D+00 0.000000000000000D+00 -.421679818617041D+03
 0.163882169550162D+03 0.604714793023818D+02 0.409334644500958D+02 0.114933745399523D+03
 0.345445595129062D+02 -.382860986419681D+01 0.815900900286601D+01 -.333481470330759D+02
 0.338540179768999D+03 -.258308990457297D+03 0.146824990393473D+03 -.162260102806927D+03
 0.306392728402016D+03 0.201666121019112D+03 -.195917463846435D+03 0.806745044404807D+02
 0.000000000000000D+00 -.000000000000000D+00 -.000000000000000D+00 0.000000000000000D+00
 0.437041440764928D+03 0.000000000000000D+00 0.000000000000000D+00 0.437041440764928D+03
 0.431970403007818D+03 0.000000000000000D+00 0.000000000000000D+00 -.431970403007818D+03
 0.165767051526756D+03 0.624137635920302D+02 0.453676130140221D+02 0.114933745399523D+03
 0.347338786076094D+02 -.342042318159743D+01 0.909088102701215D+01 -.333481470330759D+02
 0.339592437137813D+03 -.254313451430044D+03 0.155946628113671D+03 -.162260102806927D+03
 0.303630085645717D+03 0.205260358931100D+03 -.187711978706699D+03 0.806745044404807D+02
 0.252883908548499D+02 -.994024791148872D+01 -.226931434480056D+02 0.507103775711029D+01
0.729576013560D-05 0.000000000000D+00 0.000000000000D+00 0.956980323786D-06 0.000000000000D+00  7 1 -1 23 -13 13 23 21 0 0.18419153D+00 0.22849108D-01 0.12907420D+06 0.12907420D+06 0.12907420D+06 0.11127383D+01  1  2  2  1  7  1        1 0.150229679081D-03 0.100000000000D+01
-.392676466492D-06 0.000000000000D+00 -.280176399385D-07 0.956980323786D-06 0.000000000000D+00  7 1 -1 23 -13 13 23 21 2 0.18419153D+00 0.22849108D-01 0.12907420D+06 0.12907420D+06 0.12907420D+06 0.11127383D+01  1  2  3  1  7  1        1 -.100116610628D-04 0.100000000000D+01
0.469691018105D-06 0.000000000000D+00 0.000000000000D+00 0.956980323786D-06 0.000000000000D+00  7 1 -1 23 -13 13 23 21 2 0.18419153D+00 0.22849108D-01 0.12907420D+06 0.12907420D+06 0.12907420D+06 0.11127383D+01  1  2 15  1  7  1        1 0.119752205155D-04 0.100000000000D+01
0.170952724656D-04 0.000000000000D+00 0.000000000000D+00 0.956980323786D-06 0.000000000000D+00  7 1 -1 23 -13 13 23 21 2 0.19308062D+00 0.22849108D-01 0.13874753D+06 0.13874753D+06 0.13874753D+06 0.11102344D+01  1  2 12  1  7  1        1 0.394708829173D-03 0.100000000000D+01
-.149198672163D-04 0.000000000000D+00 0.000000000000D+00 0.956980323786D-06 0.000000000000D+00  7 1 -1 23 -13 13 23 21 2 0.18419153D+00 0.22849108D-01 0.12907420D+06 0.12907420D+06 0.12907420D+06 0.11127383D+01  1  2  4  1  7  1        1 -.380396245810D-03 0.100000000000D+01
-.104633267752D-03 0.000000000000D+00 -.169477127345D-04 0.956980323786D-06 0.000000000000D+00  7 1 -1 23 -13 13 23 21 2 0.19385404D+00 0.22849108D-01 0.12907420D+06 0.12907420D+06 0.12907420D+06 0.11127383D+01  1  2  5  1  7  1        1 -.241204130770D-02 0.100000000000D+01
0.105384143258D-03 0.000000000000D+00 0.169255844083D-04 0.956980323786D-06 0.000000000000D+00  7 1 -1 23 -13 13 23 21 2 0.18419153D+00 0.22849108D-01 0.12907420D+06 0.12907420D+06 0.12907420D+06 0.11127383D+01  1  2  6  1  7  1        1 0.268686925172D-02 0.100000000000D+01
0.214045457736D-06 0.000000000000D+00 0.000000000000D+00 0.956980323786D-06 0.000000000000D+00  7 21 -1 23 -13 13 23 -1 2 0.19308062D+00 0.22849108D-01 0.13874753D+06 0.13874753D+06 0.13874753D+06 0.11102344D+01  1  2 12  3  7  1        1 0.504846865855D-05 0.100000000000D+01
-.914907276469D-06 0.000000000000D+00 -.150712099636D-06 0.956980323786D-06 0.000000000000D+00  7 21 -1 23 -13 13 23 -1 2 0.19385404D+00 0.22849108D-01 0.12907420D+06 0.12907420D+06 0.12907420D+06 0.11127383D+01  1  2  5  3  7  1        1 -.214984973540D-04 0.100000000000D+01
  </mgrwgt>
  </event>
  <event>
  8     66 0.56006291E-06 0.18314432E+03 0.75467711E-02 0.96148756E-01
        1 -1    0    0  501    0 0.00000000E+00 0.00000000E+00 0.63249579E+03 0.63249587E+03 0.32000000E+00 0.0000E+00 0.9000E+01
       -1 -1    0    0    0  501 0.00000000E+00 0.00000000E+00 -.39476687E+03 0.39476700E+03 0.32000000E+00 0.0000E+00 0.9000E+01
       25  2    1    2    0    0 -.71471027E+02 -.33550576E+03 0.42772792E+03 0.62486870E+03 0.29972903E+03 0.0000E+00 0.0000E+00
       23  2    1    2    0    0 0.71471027E+02 0.33550576E+03 -.18999901E+03 0.40239417E+03 0.90273030E+02 0.0000E+00 0.0000E+00
       23  1    3    3    0    0 -.47037773E+02 -.84266948E+02 0.16482498E+02 0.13379236E+03 0.91188000E+02 0.0000E+00 0.9000E+01
      -11  1    4    4    0    0 0.90134935E+02 0.31023359E+03 -.17721605E+03 0.36847621E+03 0.51099893E-03 0.0000E+00 0.9000E+01
       11  1    4    4    0    0 -.18663908E+02 0.25272172E+02 -.12782961E+02 0.33917963E+02 0.51099893E-03 0.0000E+00 0.9000E+01
       23  1    3    3    0    0 -.24433254E+02 -.25123881E+03 0.41124542E+03 0.49107634E+03 0.91188000E+02 0.0000E+00 0.9000E+01
#aMCatNLO 1  0  0  2  1 0.11678792D+03 0.00000000D+00  -5  7  0 0.00000000D+00 0.00000000D+00 0.00000000D+00 0.00000000D+00 0.00000000D+00
  <mgrwgt>
 0.1306842234D-02    8    2    0
 0.499688395581977D+03 0.000000000000000D+00 0.000000000000000D+00 0.499688395581977D+03
 0.499688395581977D+03 0.000000000000000D+00 0.000000000000000D+00 -.499688395581977D+03
 0.133604817918440D+03 -.470377727927766D+02 -.842669483690081D+02 -.148837283732797D+02
 0.420913621927191D+03 0.901349346651254D+02 0.310233590239710D+03 -.269813065220644D+03
 0.379051666333786D+02 -.186639077777755D+02 0.252721719985619D+02 -.212079590352772D+02
 0.406953184684943D+03 -.244332540945733D+02 -.251238813869264D+03 0.305904752629201D+03
 0.000000000000000D+00 -.000000000000000D+00 -.000000000000000D+00 -.000000000000000D+00
 0.510066125852295D+03 0.000000000000000D+00 0.000000000000000D+00 0.510066125852295D+03
 0.991794377271081D+03 0.000000000000000D+00 0.000000000000000D+00 -.991794377271081D+03
 0.123258940414130D+03 -.389330780202598D+02 -.716952237850810D+02 -.148837283732797D+02
 0.459956237641136D+03 0.117928584467865D+03 0.353346146641838D+03 -.269813065220644D+03
 0.394635373910976D+02 -.162227314314740D+02 0.290588410277978D+02 -.212079590352772D+02
 0.383498897940104D+03 0.507488435876038D+00 -.212551589388621D+03 0.305904752629201D+03
 0.495682889736908D+03 -.632802634520071D+02 -.981581744959333D+02 -.481728251418787D+03
0.185826424234D-04 0.000000000000D+00 0.000000000000D+00 0.165670866461D-05 0.000000000000D+00  7 1 -1 23 -11 11 23 21 0 0.97307060D-01 0.60733382D-01 0.14274883D+06 0.14274883D+06 0.14274883D+06 0.11092540D+01  1  2  2  2  7  2       -1 0.202072945190D-03 0.100000000000D+01
-.934266956017D-06 0.000000000000D+00 -.713622398280D-07 0.165670866461D-05 0.000000000000D+00  7 1 -1 23 -11 11 23 21 2 0.97307060D-01 0.60733382D-01 0.14274883D+06 0.14274883D+06 0.14274883D+06 0.11092540D+01  1  2  3  2  7  2       -1 -.125006826345D-04 0.100000000000D+01
0.113655515269D-05 0.000000000000D+00 0.000000000000D+00 0.165670866461D-05 0.000000000000D+00  7 1 -1 23 -11 11 23 21 2 0.97307060D-01 0.60733382D-01 0.14274883D+06 0.14274883D+06 0.14274883D+06 0.11092540D+01  1  2 15  2  7  2       -1 0.152073400101D-04 0.100000000000D+01
0.956913630684D-04 0.000000000000D+00 0.000000000000D+00 0.165670866461D-05 0.000000000000D+00  7 1 -1 23 -11 11 23 21 2 0.97307060D-01 0.12056618D+00 0.19193967D+06 0.19193967D+06 0.19193967D+06 0.10992001D+01  1  2 12  2  7  2       -1 0.292354653997D-03 0.100000000000D+01
-.999688981836D-04 0.000000000000D+00 -.563128163944D-05 0.165670866461D-05 0.000000000000D+00  7 1 -1 23 -11 11 23 21 2 0.97307060D-01 0.12144133D+00 0.14274883D+06 0.14274883D+06 0.14274883D+06 0.11092540D+01  1  2  5  2  7  2       -1 -.310029306934D-03 0.100000000000D+01
0.840079263265D-04 0.000000000000D+00 0.450559131686D-05 0.165670866461D-05 0.000000000000D+00  7 1 -1 23 -11 11 23 21 2 0.97307060D-01 0.60733382D-01 0.14274883D+06 0.14274883D+06 0.14274883D+06 0.11092540D+01  1  2  6  2  7  2       -1 0.112404320737D-02 0.100000000000D+01
0.710234114094D-05 0.000000000000D+00 0.000000000000D+00 0.165670866461D-05 0.000000000000D+00  7 1 21 23 -11 11 23 1 2 0.97307060D-01 0.12056618D+00 0.19193967D+06 0.19193967D+06 0.19193967D+06 0.10992001D+01  1  2 12  4  7  2       -1 0.144040150143D-03 0.100000000000D+01
-.715764922742D-05 0.000000000000D+00 -.422222315466D-06 0.165670866461D-05 0.000000000000D+00  7 1 21 23 -11 11 23 1 2 0.97307060D-01 0.12144133D+00 0.14274883D+06 0.14274883D+06 0.14274883D+06 0.11092540D+01  1  2  5  4  7  2       -1 -.148346072653D-03 0.100000000000D+01
  </mgrwgt>
  </event>
  <event>
  8     66 0.56006291E-06 0.39408976E+03 0.75467711E-02 0.91321401E-01
        1 -1    0    0  501    0 0.00000000E+00 0.00000000E+00 0.68859480E+03 0.68859488E+03 0.32000000E+00 0.0000E+00 0.9000E+01
       -1 -1    0    0    0  501 0.00000000E+00 0.00000000E+00 -.29505971E+03 0.29505988E+03 0.32000000E+00 0.0000E+00 0.9000E+01
       25  2    1    2    0    0 -.25538821E+03 -.26153373E+03 0.37891893E+03 0.60627052E+03 0.30060165E+03 0.0000E+00 0.0000E+00
       23  2    1    2    0    0 0.25538821E+03 0.26153373E+03 0.14616160E+02 0.37738424E+03 0.92640202E+02 0.0000E+00 0.0000E+00
       23  1    3    3    0    0 -.87839997E+02 -.10312144E+03 0.30760798E+03 0.34826400E+03 0.91188000E+02 0.0000E+00 0.9000E+01
      -13  1    4    4    0    0 0.30659802E+02 -.18319802E+01 -.19255365E+01 0.30774965E+02 0.10565837E+00 0.0000E+00 0.9000E+01
       13  1    4    4    0    0 0.22472841E+03 0.26336571E+03 0.16541697E+02 0.34660928E+03 0.10565837E+00 0.0000E+00 0.9000E+01
       23  1    3    3    0    0 -.16754821E+03 -.15841229E+03 0.71310956E+02 0.25800651E+03 0.91188000E+02 0.0000E+00 0.9000E+01
#aMCatNLO 1  0  0  2  2 0.46043577D+03 0.00000000D+00  -5  7  0 0.00000000D+00 0.00000000D+00 0.00000000D+00 0.00000000D+00 0.00000000D+00
  <mgrwgt>
 0.3273265732D-03    3    2    0
 0.450751266085709D+03 0.000000000000000D+00 0.000000000000000D+00 0.450751266085709D+03
 0.450751266085709D+03 0.000000000000000D+00 0.000000000000000D+00 -.450751266085709D+03
 0.245719785419542D+03 -.878399975990546D+02 -.103121436829205D+03 0.183611180734464D+03
 0.344195507036586D+02 0.306595494671802D+02 -.183232500857093D+01 -.155351241441522D+02
 0.370974580244030D+03 0.224728658433122D+03 0.263366054459768D+03 -.133257234791880D+03
 0.250388615804189D+03 -.167548210301247D+03 -.158412292621992D+03 -.348188217984320D+02
 0.000000000000000D+00 -.000000000000000D+00 -.000000000000000D+00 0.000000000000000D+00
 0.992661344362521D+03 0.000000000000000D+00 0.000000000000000D+00 0.992661344362521D+03
 0.615076334622310D+03 0.000000000000000D+00 0.000000000000000D+00 -.615076334622310D+03
 0.221795283114056D+03 -.841332372921966D+02 0.929671768288623D+01 0.183611180734464D+03
 0.382297123893311D+02 0.312355595744057D+02 0.156368361656220D+02 -.155351241441522D+02
 0.554781436843177D+03 0.232068647855788D+03 0.485972318886363D+03 -.133257234791880D+03
 0.197472144844512D+03 -.163997281994746D+03 -.507201911707425D+02 -.348188217984320D+02
 0.595459101793755D+03 -.151736881432515D+02 -.460185681564128D+03 0.377585009740211D+03
0.198860687479D-04 0.000000000000D+00 0.000000000000D+00 0.271659677044D-06 0.000000000000D+00  7 1 -1 23 -13 13 23 21 0 0.10593768D+00 0.45393820D-01 0.15530674D+06 0.15530674D+06 0.15530674D+06 0.11063623D+01  1  2  2  2  7  2       -1 0.323496209741D-03 0.100000000000D+01
-.108054068145D-05 0.000000000000D+00 -.763677401140D-07 0.271659677044D-06 0.000000000000D+00  7 1 -1 23 -13 13 23 21 2 0.10593768D+00 0.45393820D-01 0.15530674D+06 0.15530674D+06 0.15530674D+06 0.11063623D+01  1  2  3  2  7  2       -1 -.215157331362D-04 0.100000000000D+01
0.127290519291D-05 0.000000000000D+00 0.000000000000D+00 0.271659677044D-06 0.000000000000D+00  7 1 -1 23 -13 13 23 21 2 0.10593768D+00 0.45393820D-01 0.15530674D+06 0.15530674D+06 0.15530674D+06 0.11063623D+01  1  2 15  2  7  2       -1 0.253460965502D-04 0.100000000000D+01
  </mgrwgt>
  </event>
  <event>
  9     66 0.56006291E-06 0.22579027E+03 0.75467711E-02 0.10261289E+00
        1 -1    0    0  501    0 0.00000000E+00 0.00000000E+00 0.91749283E+03 0.91749288E+03 0.32000000E+00 0.0000E+00 0.9000E+01
       21 -1    0    0  502  501 0.00000000E+00 0.00000000E+00 -.11644706E+03 0.11644948E+03 0.75000000E+00 0.0000E+00 0.9000E+01
       25  2    1    2    0    0 -.42327793E+02 0.10985083E+03 0.53650557E+03 0.63177436E+03 0.31215663E+03 0.0000E+00 0.0000E+00
       23  2    1    2    0    0 0.31499663E+02 -.17141099E+03 0.89202931E+02 0.21602247E+03 0.91293971E+02 0.0000E+00 0.0000E+00
       23  1    3    3    0    0 -.48442765E+01 -.34002505E+02 0.39602033E+03 0.40783207E+03 0.91188000E+02 0.0000E+00 0.9000E+01
      -11  1    4    4    0    0 0.19046030E+02 -.17459025E+03 0.62550068E+02 0.18643234E+03 0.51099893E-03 0.0000E+00 0.9000E+01
       11  1    4    4    0    0 0.12453633E+02 0.31792614E+01 0.26652863E+02 0.29590130E+02 0.51099893E-03 0.0000E+00 0.9000E+01
       23  1    3    3    0    0 -.37483516E+02 0.14385333E+03 0.14048524E+03 0.22394229E+03 0.91188000E+02 0.0000E+00 0.9000E+01
        1  1    1    2  502    0 0.10828130E+02 0.61560160E+02 0.17533726E+03 0.18614553E+03 0.32000000E+00 0.0000E+00 0.9000E+01
#aMCatNLO 2  0  0  2  1 0.62505213D+02 0.00000000D+00  -5  7  0 0.00000000D+00 0.00000000D+00 0.00000000D+00 0.00000000D+00 0.00000000D+00
  <mgrwgt>
 0.4858883805D-04    1    2    0
 0.284315591508961D+03 0.000000000000000D+00 0.000000000000000D+00 0.284315591508961D+03
 0.284315591508961D+03 0.000000000000000D+00 0.000000000000000D+00 -.284315591508961D+03
 0.168509549220653D+03 -.161905012668582D+01 -.156664188841448D+02 0.140826697861525D+03
 0.190592901575158D+03 0.228285819538947D+02 -.153085664548804D+03 -.111217306595975D+03
 0.153703501728026D+02 0.127390841615393D+02 0.480211115370723D+01 0.713464278203428D+01
 0.194158382049310D+03 -.339486159887482D+02 0.163949972279242D+03 -.367440340475847D+02
 0.000000000000000D+00 0.000000000000000D+00 0.000000000000000D+00 0.000000000000000D+00
 0.356196656080780D+03 0.000000000000000D+00 0.000000000000000D+00 0.356196656080780D+03
 0.299947817011552D+03 0.000000000000000D+00 0.000000000000000D+00 -.299947817011552D+03
 0.171251415604610D+03 -.484427708351570D+01 -.340025021364574D+02 0.140826697861525D+03
 0.207879283330906D+03 0.190460307918833D+02 -.174590251339479D+03 -.111217306595975D+03
 0.147004693969345D+02 0.124536328356633D+02 0.317926124397866D+01 0.713464278203428D+01
 0.178225056141532D+03 -.374835161905644D+02 0.143853332490262D+03 -.367440340475847D+02
 0.840882486183492D+02 0.108281296465336D+02 0.615601597416967D+02 0.562488390692283D+02
0.607496317901D-07 0.000000000000D+00 0.000000000000D+00 0.251061991626D-08 0.516375363746D-13  7 1 21 23 -11 11 23 1 2 0.14115279D+00 0.17915105D-01 0.68335777D+05 0.68335777D+05 0.68335777D+05 0.11355490D+01  1  2  1  4  7  2       -1 0.485888380493D-04 0.100000000000D+01
  </mgrwgt>
  </event>
  <event>
  8     66 0.56006291E-06 0.15095002E+03 0.75467711E-02 0.98073759E-01
        1 -1    0    0  501    0 0.00000000E+00 0.00000000E+00 0.26541714E+04 0.26541715E+04 0.32000000E+00 0.0000E+00 0.9000E+01
       -1 -1    0    0    0  501 0.00000000E+00 0.00000000E+00 -.67954390E+02 0.67955144E+02 0.32000000E+00 0.0000E+00 0.9000E+01
       25  2    1    2    0    0 -.21961859E+03 -.26798023E+02 0.23721583E+04 0.24013822E+04 0.30091694E+03 0.0000E+00 0.0000E+00
       23  2    1    2    0    0 0.21961859E+03 0.26798023E+02 0.21405879E+03 0.32074444E+03 0.90029856E+02 0.0000E+00 0.0000E+00
       23  1    3    3    0    0 -.28902629E+01 0.20649507E+02 0.12691749E+04 0.12726174E+04 0.91188000E+02 0.0000E+00 0.9000E+01
      -11  1    4    4    0    0 0.54075631E+02 -.22077217E+02 0.21731856E+02 0.62320550E+02 0.51099893E-03 0.0000E+00 0.9000E+01
       11  1    4    4    0    0 0.16554296E+03 0.48875240E+02 0.19232693E+03 0.25842389E+03 0.51099893E-03 0.0000E+00 0.9000E+01
       23  1    3    3    0    0 -.21672832E+03 -.47447530E+02 0.11029833E+04 0.11287648E+04 0.91188000E+02 0.0000E+00 0.9000E+01
#aMCatNLO 1  0  0  1  2 0.14703667D+03 0.00000000D+00  -5  7  0 0.00000000D+00 0.00000000D+00 0.00000000D+00 0.00000000D+00 0.00000000D+00
  <mgrwgt>
 0.1603120069D-03    9    2    0
 0.424692421468962D+03 0.000000000000000D+00 0.000000000000000D+00 0.424692421468962D+03
 0.424692421468962D+03 0.000000000000000D+00 0.000000000000000D+00 -.424692421468962D+03
 0.214112366967210D+03 -.289026295101066D+01 0.206495071026547D+02 0.192598282912369D+03
 0.133556811553822D+03 0.540756313162688D+02 -.220772171070087D+02 -.120107637121792D+03
 0.242603057520332D+03 0.165542955909658D+03 0.488752400889041D+02 -.170478691258346D+03
 0.259112606896560D+03 -.216728324274916D+03 -.474475300845501D+02 0.979880454677697D+02
 0.000000000000000D+00 -.000000000000000D+00 -.000000000000000D+00 0.000000000000000D+00
 0.664460920223658D+03 0.000000000000000D+00 0.000000000000000D+00 0.664460920223658D+03
 0.454161082510387D+03 0.000000000000000D+00 0.000000000000000D+00 -.454161082510387D+03
 0.218718606558934D+03 0.289298990466442D+02 0.398941082296647D+02 0.192598282912369D+03
 0.141575397722352D+03 0.743023526126174D+02 -.984424407927518D+01 -.120107637121792D+03
 0.275111017101844D+03 0.203603415374324D+03 0.718939274595781D+02 -.170478691258346D+03
 0.226612608324488D+03 -.181019569633895D+03 -.258511365822364D+02 0.979880454677697D+02
 0.256604373026427D+03 -.125816097399691D+03 -.760926550277312D+02 0.210299837713271D+03
0.202581493140D-04 0.000000000000D+00 0.000000000000D+00 0.177844288295D-06 0.000000000000D+00  7 1 -1 23 -11 11 23 21 0 0.40833413D+00 0.10454581D-01 0.79644620D+05 0.79644620D+05 0.79644620D+05 0.11299247D+01  1  2  2  1  7  1        1 0.154648779274D-03 0.100000000000D+01
-.896883017186D-06 0.000000000000D+00 -.777966274589D-07 0.177844288295D-06 0.000000000000D+00  7 1 -1 23 -11 11 23 21 2 0.40833413D+00 0.10454581D-01 0.79644620D+05 0.79644620D+05 0.79644620D+05 0.11299247D+01  1  2  3  1  7  1        1 -.874141070463D-05 0.100000000000D+01
0.127466564122D-05 0.000000000000D+00 0.000000000000D+00 0.177844288295D-06 0.000000000000D+00  7 1 -1 23 -11 11 23 21 2 0.40833413D+00 0.10454581D-01 0.79644620D+05 0.79644620D+05 0.79644620D+05 0.11299247D+01  1  2 15  1  7  1        1 0.124234439358D-04 0.100000000000D+01
0.118101437465D-04 0.000000000000D+00 0.000000000000D+00 0.177844288295D-06 0.000000000000D+00  7 1 -1 23 -11 11 23 21 2 0.64646195D+00 0.10454581D-01 0.13909029D+06 0.13909029D+06 0.13909029D+06 0.11101492D+01  1  2 12  1  7  1        1 0.595700335454D-05 0.100000000000D+01
-.197932117085D-04 0.000000000000D+00 0.000000000000D+00 0.177844288295D-06 0.000000000000D+00  7 1 -1 23 -11 11 23 21 2 0.40833413D+00 0.10454581D-01 0.79644620D+05 0.79644620D+05 0.79644620D+05 0.11299247D+01  1  2  4  1  7  1        1 -.192913222117D-03 0.100000000000D+01
-.198647173813D-04 0.000000000000D+00 -.511617476563D-05 0.177844288295D-06 0.000000000000D+00  7 1 -1 23 -11 11 23 21 2 0.64562010D+00 0.10454581D-01 0.79644620D+05 0.79644620D+05 0.79644620D+05 0.11299247D+01  1  2  5  1  7  1        1 -.109679542791D-04 0.100000000000D+01
0.205117905206D-04 0.000000000000D+00 0.462254373592D-05 0.177844288295D-06 0.000000000000D+00  7 1 -1 23 -11 11 23 21 2 0.40833413D+00 0.10454581D-01 0.79644620D+05 0.79644620D+05 0.79644620D+05 0.11299247D+01  1  2  6  1  7  1        1 0.199916802740D-03 0.100000000000D+01
0.623479068137D-06 0.000000000000D+00 0.000000000000D+00 0.177844288295D-06 0.000000000000D+00  7 21 -1 23 -11 11 23 -1 2 0.64646195D+00 0.10454581D-01 0.13909029D+06 0.13909029D+06 0.13909029D+06 0.11101492D+01  1  2 12  3  7  1        1 0.223437795384D-07 0.100000000000D+01
-.838271366086D-06 0.000000000000D+00 -.269507015141D-06 0.177844288295D-06 0.000000000000D+00  7 21 -1 23 -11 11 23 -1 2 0.64562010D+00 0.10454581D-01 0.79644620D+05 0.79644620D+05 0.79644620D+05 0.11299247D+01  1  2  5  3  7  1        1 -.337790810274D-07 0.100000000000D+01
  </mgrwgt>
  </event>
  <event>
  8     66 0.56006291E-06 0.41976794E+03 0.75467711E-02 0.82722792E-01
        1 -1    0    0  501    0 0.00000000E+00 0.00000000E+00 0.13500551E+04 0.13500551E+04 0.32000000E+00 0.0000E+00 0.9000E+01
       -1 -1    0    0    0  501 0.00000000E+00 0.00000000E+00 -.13752939E+03 0.13752976E+03 0.32000000E+00 0.0000E+00 0.9000E+01
       25  2    1    2    0    0 0.35089457E+03 -.10509508E+03 0.79366276E+03 0.92482221E+03 0.30203240E+03 0.0000E+00 0.0000E+00
       23  2    1    2    0    0 -.35089457E+03 0.10509508E+03 0.41886294E+03 0.56276267E+03 0.84164648E+02 0.0000E+00 0.0000E+00
       23  1    3    3    0    0 0.67065183E+02 -.13193788E+03 0.32880655E+03 0.37193325E+03 0.91188000E+02 0.0000E+00 0.9000E+01
      -13  1    4    4    0    0 -.24429104E+03 0.69571659E+02 0.22823326E+03 0.34148025E+03 0.10565837E+00 0.0000E+00 0.9000E+01
       13  1    4    4    0    0 -.10660354E+03 0.35523419E+02 0.19062968E+03 0.22128243E+03 0.10565837E+00 0.0000E+00 0.9000E+01
       23  1    3    3    0    0 0.28382939E+03 0.26842800E+02 0.46485621E+03 0.55288896E+03 0.91188000E+02 0.0000E+00 0.9000E+01
#aMCatNLO 1  0  0  2  1 0.15611799D+04 0.00000000D+00  -5  7  0 0.00000000D+00 0.00000000D+00 0.00000000D+00 0.00000000D+00 0.00000000D+00
  <mgrwgt>
 0.4608235445D-03    5    2    0
 0.430897383845192D+03 0.000000000000000D+00 0.000000000000000D+00 0.430897383845192D+03
 0.430897383845192D+03 0.000000000000000D+00 0.000000000000000D+00 -.430897383845192D+03
 0.179388286034397D+03 0.670651846689654D+02 -.131937876518922D+03 0.442669579636311D+02
 0.268326493734691D+03 -.244291253166492D+03 0.695717126152498D+02 -.864908531006571D+02
 0.113754232502965D+03 -.106603321903137D+03 0.355233653673807D+02 0.177157467957297D+02
 0.300325755418330D+03 0.283829390400663D+03 0.268427985362917D+02 0.245081483412963D+02
 0.000000000000000D+00 0.000000000000000D+00 -.000000000000000D+00 -.000000000000000D+00
 0.142861892752466D+04 0.000000000000000D+00 0.000000000000000D+00 0.142861892752466D+04
 0.202630974795769D+04 0.000000000000000D+00 0.000000000000000D+00 -.202630974795769D+04
 0.141602290945872D+03 -.936729724848815D+02 -.316507206175817D+02 0.442669579636311D+02
 0.997401474741363D+03 -.878112915549525D+03 0.465023377575021D+03 -.864908531006571D+02
 0.433289580153480D+03 -.380539133838875D+03 0.206436382942077D+03 0.177157467957297D+02
 0.210954474136135D+03 0.278024295443254D+02 0.186582192050493D+03 0.245081483412963D+02
 0.167168085550549D+04 0.132452259232896D+04 -.826391231950009D+03 -.597690820433033D+03
0.249629488145D-04 0.000000000000D+00 0.000000000000D+00 0.345033454739D-08 0.000000000000D+00  7 1 -1 23 -13 13 23 21 0 0.20770081D+00 0.21158399D-01 0.17620512D+06 0.17620512D+06 0.17620512D+06 0.11020756D+01  1  2  2  2  7  2       -1 0.452912951949D-03 0.100000000000D+01
-.138567585583D-05 0.000000000000D+00 -.958642963431D-07 0.345033454739D-08 0.000000000000D+00  7 1 -1 23 -13 13 23 21 2 0.20770081D+00 0.21158399D-01 0.17620512D+06 0.17620512D+06 0.17620512D+06 0.11020756D+01  1  2  3  2  7  2       -1 -.305353745789D-04 0.100000000000D+01
0.164523574960D-05 0.000000000000D+00 0.000000000000D+00 0.345033454739D-08 0.000000000000D+00  7 1 -1 23 -13 13 23 21 2 0.20770081D+00 0.21158399D-01 0.17620512D+06 0.17620512D+06 0.17620512D+06 0.11020756D+01  1  2 15  2  7  2       -1 0.362551528002D-04 0.100000000000D+01
0.945244448978D-04 0.000000000000D+00 -.299400147822D-04 0.345033454739D-08 0.000000000000D+00  7 1 -1 23 -13 13 23 21 2 0.20770081D+00 0.37814469D+00 0.17620512D+06 0.17620512D+06 0.17620512D+06 0.11020756D+01  1  2  5  2  7  2       -1 0.484203806859D-06 0.100000000000D+01
0.225552105427D-04 0.000000000000D+00 -.944994491316D-05 0.345033454739D-08 0.000000000000D+00  7 1 21 23 -13 13 23 1 2 0.20770081D+00 0.37814469D+00 0.17620512D+06 0.17620512D+06 0.17620512D+06 0.11020756D+01  1  2  5  4  7  2       -1 0.170661053320D-05 0.100000000000D+01
  </mgrwgt>
  </event>
  <event>
  8     66 0.56006291E-06 0.14283476E+03 0.75467711E-02 0.92619237E-01
        1 -1    0    0  501    0 0.00000000E+00 0.00000000E+00 0.35358452E+03 0.35358467E+03 0.32000000E+00 0.0000E+00 0.9000E+01
       -1 -1    0    0    0  501 0.00000000E+00 0.00000000E+00 -.68586828E+03 0.68586835E+03 0.32000000E+00 0.0000E+00 0.9000E+01
       25  2    1    2    0    0 0.25457130E+03 0.24514327E+03 -.46101120E+03 0.65355397E+03 0.29949908E+03 0.0000E+00 0.0000E+00
       23  2    1    2    0    0 -.25457130E+03 -.24514327E+03 0.12872744E+03 0.38589905E+03 0.86287629E+02 0.0000E+00 0.0000E+00
       23  1    3    3    0    0 0.23910025E+03 0.92900045E+02 -.35093767E+03 0.44415295E+03 0.91188000E+02 0.0000E+00 0.9000E+01
      -13  1    4    4    0    0 -.22273393E+02 -.31006101E+02 -.12024482E+02 0.40026013E+02 0.10565837E+00 0.0000E+00 0.9000E+01
       13  1    4    4    0    0 -.23229791E+03 -.21413716E+03 0.14075192E+03 0.34587304E+03 0.10565837E+00 0.0000E+00 0.9000E+01
       23  1    3    3    0    0 0.15471053E+02 0.15224322E+03 -.11007353E+03 0.20940101E+03 0.91188000E+02 0.0000E+00 0.9000E+01
#aMCatNLO 1  0  0  1  2 0.35073798D+03 0.00000000D+00  -5  7  0 0.00000000D+00 0.00000000D+00 0.00000000D+00 0.00000000D+00 0.00000000D+00
  <mgrwgt>
 0.2738586717D-03    7    2    0
 0.492455601653452D+03 0.000000000000000D+00 0.000000000000000D+00 0.492455601653452D+03
 0.492455601653452D+03 0.000000000000000D+00 0.000000000000000D+00 -.492455601653452D+03
 0.350351624698496D+03 0.239100246622023D+03 0.929000447514633D+02 -.220525879060349D+03
 0.381852360379861D+02 -.222730782003631D+02 -.310058267388489D+02 0.812986468338849D+00
 0.412513229829302D+03 -.232298221049590D+03 -.214137438549367D+03 0.265235477817194D+03
 0.183861112741119D+03 0.154710526279300D+02 0.152243220536752D+03 -.455225852251834D+02
 0.000000000000000D+00 -.000000000000000D+00 -.000000000000000D+00 0.000000000000000D+00
 0.919791842949339D+03 0.000000000000000D+00 0.000000000000000D+00 0.919791842949339D+03
 0.600207673192907D+03 0.000000000000000D+00 0.000000000000000D+00 -.600207673192907D+03
 0.451687272137500D+03 0.327457488522027D+03 0.199614804918180D+03 -.220525879060349D+03
 0.269711168045695D+02 -.150950776667943D+02 -.223364908819957D+02 0.812986468338849D+00
 0.326395780343558D+03 -.150895732452723D+03 -.115822384109124D+03 0.265235477817194D+03
 0.240444375996728D+03 0.622149984088733D+02 0.208698909464941D+03 -.455225852251834D+02
 0.474500970859890D+03 -.223681676811384D+03 -.270154839392001D+03 0.319584169756432D+03
0.420790619885D-04 0.000000000000D+00 0.000000000000D+00 0.105906868042D-06 0.000000000000D+00  7 1 -1 23 -13 13 23 21 0 0.54397635D-01 0.10551821D+00 0.16180176D+06 0.16180176D+06 0.16180176D+06 0.11049656D+01  1  2  2  1  7  1        1 0.328923787624D-03 0.100000000000D+01
-.222135549388D-05 0.000000000000D+00 -.161594677707D-06 0.105906868042D-06 0.000000000000D+00  7 1 -1 23 -13 13 23 21 2 0.54397635D-01 0.10551821D+00 0.16180176D+06 0.16180176D+06 0.16180176D+06 0.11049656D+01  1  2  3  1  7  1        1 -.212004360117D-04 0.100000000000D+01
0.269670643654D-05 0.000000000000D+00 0.000000000000D+00 0.105906868042D-06 0.000000000000D+00  7 1 -1 23 -13 13 23 21 2 0.54397635D-01 0.10551821D+00 0.16180176D+06 0.16180176D+06 0.16180176D+06 0.11049656D+01  1  2 15  1  7  1        1 0.257371467141D-04 0.100000000000D+01
0.762951558902D-06 0.000000000000D+00 0.000000000000D+00 0.105906868042D-06 0.000000000000D+00  7 1 -1 23 -13 13 23 21 2 0.10313006D+00 0.10551821D+00 0.35892647D+06 0.35892647D+06 0.35892647D+06 0.10788363D+01  1  2 12  1  7  1        1 0.274499006607D-05 0.100000000000D+01
-.182223648689D-04 0.000000000000D+00 -.137839974139D-04 0.105906868042D-06 0.000000000000D+00  7 1 -1 23 -13 13 23 21 2 0.11707610D+00 0.10551821D+00 0.16180176D+06 0.16180176D+06 0.16180176D+06 0.11049656D+01  1  2  5  1  7  1        1 -.587972214984D-04 0.100000000000D+01
0.530436869206D-07 0.000000000000D+00 0.000000000000D+00 0.105906868042D-06 0.000000000000D+00  7 21 -1 23 -13 13 23 -1 2 0.10313006D+00 0.10551821D+00 0.35892647D+06 0.35892647D+06 0.35892647D+06 0.10788363D+01  1  2 12  3  7  1        1 0.403737492084D-06 0.100000000000D+01
-.649234637613D-06 0.000000000000D+00 -.114367109711D-05 0.105906868042D-06 0.000000000000D+00  7 21 -1 23 -13 13 23 -1 2 0.11707610D+00 0.10551821D+00 0.16180176D+06 0.16180176D+06 0.16180176D+06 0.11049656D+01  1  2  5  3  7  1        1 -.395333272286D-05 0.100000000000D+01
  </mgrwgt>
  </event>
  <event>
  8     66 0.56006291E-06 0.12364866E+03 0.75467711E-02 0.10080905E+00
        1 -1    0    0  501    0 0.00000000E+00 0.00000000E+00 0.23890212E+04 0.23890212E+04 0.32000000E+00 0.0000E+00 0.9000E+01
       -1 -1    0    0    0  501 0.00000000E+00 0.00000000E+00 -.19520761E+02 0.19523383E+02 0.32000000E+00 0.0000E+00 0.9000E+01
       25  2    1    2    0    0 0.73994406E+02 0.11042666E+02 0.18791654E+04 0.19043818E+04 0.29968379E+03 0.0000E+00 0.0000E+00
       23  2    1    2    0    0 -.73994406E+02 -.11042666E+02 0.49033499E+03 0.50416274E+03 0.90302586E+02 0.0000E+00 0.0000E+00
       23  1    3    3    0    0 -.78733193E+02 -.34338782E+02 0.77554332E+03 0.78559580E+03 0.91188000E+02 0.0000E+00 0.9000E+01
      -13  1    4    4    0    0 -.68317591E+02 -.44653452E+02 0.30569718E+03 0.31640480E+03 0.10565837E+00 0.0000E+00 0.9000E+01
       13  1    4    4    0    0 -.56768146E+01 0.33610786E+02 0.18463781E+03 0.18775794E+03 0.10565837E+00 0.0000E+00 0.9000E+01
       23  1    3    3    0    0 0.15272760E+03 0.45381448E+02 0.11036221E+04 0.11187860E+04 0.91188000E+02 0.0000E+00 0.9000E+01
#aMCatNLO 1  0  0  1  2 0.15095941D+03 0.00000000D+00  -5  7  0 0.00000000D+00 0.00000000D+00 0.00000000D+00 0.00000000D+00 0.00000000D+00
  <mgrwgt>
 0.4811609275D-03    8    2    0
 0.215959938527026D+03 0.000000000000000D+00 0.000000000000000D+00 0.215959938527026D+03
 0.215959938527026D+03 0.000000000000000D+00 0.000000000000000D+00 -.215959938527026D+03
 0.126162941749371D+03 -.787331773875567D+02 -.343387775708760D+02 0.149589993065229D+02
 0.873437965317820D+02 -.683176890928799D+02 -.446535595295121D+02 -.311077445491994D+02
 0.340895728672201D+02 -.567673447906476D+01 0.336108909523489D+02 -.426231525126926D+00
 0.184323565905679D+03 0.152727600959501D+03 0.453814461480392D+02 0.165749767678035D+02
 0.000000000000000D+00 -.000000000000000D+00 -.000000000000000D+00 0.000000000000000D+00
 0.406873138528340D+03 0.000000000000000D+00 0.000000000000000D+00 0.406873138528340D+03
 0.260758561854569D+03 0.000000000000000D+00 0.000000000000000D+00 -.260758561854569D+03
 0.115056542584993D+03 -.683469095077550D+02 0.526164880038412D+01 0.149589993065229D+02
 0.713710772436334D+02 -.614838497780782D+02 -.185977179364879D+02 -.311077445491994D+02
 0.469713159859861D+02 -.218646872160543D+01 0.469184633877942D+02 -.426231525126926D+00
 0.224141799356900D+03 0.170315030577573D+03 0.112438229172537D+03 0.165749767678035D+02
 0.210090965211397D+03 -.382978025701344D+02 -.146020623424227D+03 0.146114576673771D+03
0.367623381462D-05 0.000000000000D+00 0.000000000000D+00 0.799814386814D-07 0.000000000000D+00  7 1 -1 23 -13 13 23 21 0 0.36754192D+00 0.30033974D-02 0.45061345D+05 0.45061345D+05 0.45061345D+05 0.11512895D+01  1  2  2  1  7  1        1 0.275272283630D-03 0.100000000000D+01
-.204161724174D-06 0.000000000000D+00 -.141177058227D-07 0.799814386814D-07 0.000000000000D+00  7 1 -1 23 -13 13 23 21 2 0.36754192D+00 0.30033974D-02 0.45061345D+05 0.45061345D+05 0.45061345D+05 0.11512895D+01  1  2  3  1  7  1        1 -.202629536365D-04 0.100000000000D+01
0.241666667420D-06 0.000000000000D+00 0.000000000000D+00 0.799814386814D-07 0.000000000000D+00  7 1 -1 23 -13 13 23 21 2 0.36754192D+00 0.30033974D-02 0.45061345D+05 0.45061345D+05 0.45061345D+05 0.11512895D+01  1  2 15  1  7  1        1 0.239853013449D-04 0.100000000000D+01
0.355672736482D-06 0.000000000000D+00 0.000000000000D+00 0.799814386814D-07 0.000000000000D+00  7 1 -1 23 -13 13 23 21 2 0.70147124D+00 0.30033974D-02 0.89931580D+05 0.89931580D+05 0.89931580D+05 0.11255238D+01  1  2 12  1  7  1        1 0.520146741430D-06 0.100000000000D+01
-.181506945387D-05 0.000000000000D+00 -.836454485687D-06 0.799814386814D-07 0.000000000000D+00  7 1 -1 23 -13 13 23 21 2 0.71058183D+00 0.30033974D-02 0.45061345D+05 0.45061345D+05 0.45061345D+05 0.11512895D+01  1  2  5  1  7  1        1 -.249621530200D-05 0.100000000000D+01
0.205689937944D-05 0.000000000000D+00 0.682659418604D-06 0.799814386814D-07 0.000000000000D+00  7 1 -1 23 -13 13 23 21 2 0.36754192D+00 0.30033974D-02 0.45061345D+05 0.45061345D+05 0.45061345D+05 0.11512895D+01  1  2  6  1  7  1        1 0.204146281234D-03 0.100000000000D+01
0.249655755442D-07 0.000000000000D+00 0.000000000000D+00 0.799814386814D-07 0.000000000000D+00  7 21 -1 23 -13 13 23 -1 2 0.70147124D+00 0.30033974D-02 0.89931580D+05 0.89931580D+05 0.89931580D+05 0.11255238D+01  1  2 12  3  7  1        1 0.196920936154D-08 0.100000000000D+01
-.811057869504D-07 0.000000000000D+00 -.598038564365D-07 0.799814386814D-07 0.000000000000D+00  7 21 -1 23 -13 13 23 -1 2 0.71058183D+00 0.30033974D-02 0.45061345D+05 0.45061345D+05 0.45061345D+05 0.11512895D+01  1  2  5  3  7  1        1 -.588569017264D-08 0.100000000000D+01
  </mgrwgt>
  </event>
  <event>
  8     66 0.56006291E-06 0.28705661E+03 0.75467711E-02 0.98394353E-01
        1 -1    0    0  501    0 0.00000000E+00 0.00000000E+00 0.15418761E+04 0.15418761E+04 0.32000000E+00 0.0000E+00 0.9000E+01
       -1 -1    0    0    0  501 0.00000000E+00 0.00000000E+00 -.69143970E+02 0.69144711E+02 0.32000000E+00 0.0000E+00 0.9000E+01
       25  2    1    2    0    0 -.15096978E+03 0.18965140E+03 0.75525770E+03 0.84835163E+03 0.30087666E+03 0.0000E+00 0.0000E+00
       23  2    1    2    0    0 0.15096978E+03 -.18965140E+03 0.71747440E+03 0.76266918E+03 0.90195556E+02 0.0000E+00 0.0000E+00
       23  1    3    3    0    0 -.10722375E+03 0.32047937E+02 0.12531018E+03 0.19115935E+03 0.91188000E+02 0.0000E+00 0.9000E+01
      -13  1    4    4    0    0 0.92968418E+02 -.12183108E+03 0.57048720E+03 0.59071278E+03 0.10565837E+00 0.0000E+00 0.9000E+01
       13  1    4    4    0    0 0.58001367E+02 -.67820322E+02 0.14698720E+03 0.17195640E+03 0.10565837E+00 0.0000E+00 0.9000E+01
       23  1    3    3    0    0 -.43746033E+02 0.15760347E+03 0.62994753E+03 0.65719229E+03 0.91188000E+02 0.0000E+00 0.9000E+01
#aMCatNLO 1  0  0  2  1 0.13850671D+03 0.00000000D+00  -5  7  0 0.00000000D+00 0.00000000D+00 0.00000000D+00 0.00000000D+00 0.00000000D+00
  <mgrwgt>
 0.2889607511D-03    3    2    0
 0.326515017547908D+03 0.000000000000000D+00 0.000000000000000D+00 0.326515017547908D+03
 0.326515017547908D+03 0.000000000000000D+00 0.000000000000000D+00 -.326515017547908D+03
 0.188985736221522D+03 -.107223751483599D+03 0.320479382457807D+02 -.121968659594048D+03
 0.170705551210108D+03 0.929684663172052D+02 -.121831157073442D+03 0.751958685748078D+02
 0.927254419779740D+02 0.580013190560553D+02 -.678202484620732D+02 -.251846873379628D+02
 0.200613305686211D+03 -.437460338896613D+02 0.157603467289735D+03 0.719574783572033D+02
 0.000000000000000D+00 -.000000000000000D+00 -.000000000000000D+00 0.000000000000000D+00
 0.766598850398633D+03 0.000000000000000D+00 0.000000000000000D+00 0.766598850398633D+03
 0.344859368596874D+03 0.000000000000000D+00 0.000000000000000D+00 -.344859368596874D+03
 0.184060081549023D+03 -.824622151798545D+02 0.623417309696763D+02 -.121968659594048D+03
 0.166975043524566D+03 0.115382577151000D+03 -.944092548392612D+02 0.751958685748078D+02
 0.914362507997088D+02 0.702253575635143D+02 -.528650984967668D+02 -.251846873379628D+02
 0.225085615221069D+03 -.154895603349995D+02 0.192173040941096D+03 0.719574783572033D+02
 0.443901227901139D+03 -.876561591996606D+02 -.107240418574745D+03 0.421739481801759D+03
0.702588678606D-05 0.000000000000D+00 0.000000000000D+00 0.127896703222D-06 0.000000000000D+00  7 1 -1 23 -13 13 23 21 0 0.23721176D+00 0.10637593D-01 0.82401497D+05 0.82401497D+05 0.82401497D+05 0.11286865D+01  1  2  2  2  7  2       -1 0.285338724132D-03 0.100000000000D+01
-.382454441803D-06 0.000000000000D+00 -.269812552169D-07 0.127896703222D-06 0.000000000000D+00  7 1 -1 23 -13 13 23 21 2 0.23721176D+00 0.10637593D-01 0.82401497D+05 0.82401497D+05 0.82401497D+05 0.11286865D+01  1  2  3  2  7  2       -1 -.197872732983D-04 0.100000000000D+01
0.452462081334D-06 0.000000000000D+00 0.000000000000D+00 0.127896703222D-06 0.000000000000D+00  7 1 -1 23 -13 13 23 21 2 0.23721176D+00 0.10637593D-01 0.82401497D+05 0.82401497D+05 0.82401497D+05 0.11286865D+01  1  2 15  2  7  2       -1 0.234093002509D-04 0.100000000000D+01
  </mgrwgt>
  </event>
  <event>
  8     66 0.56006291E-06 0.20693920E+03 0.75467711E-02 0.84487061E-01
        1 -1    0    0  501    0 0.00000000E+00 0.00000000E+00 0.77531225E+03 0.77531231E+03 0.32000000E+00 0.0000E+00 0.9000E+01
       -1 -1    0    0    0  501 0.00000000E+00 0.00000000E+00 -.14916213E+03 0.14916247E+03 0.32000000E+00 0.0000E+00 0.9000E+01
       25  2    1    2    0    0 -.82019722E+02 0.12267497E+03 0.66685081E+03 0.74626178E+03 0.30073286E+03 0.0000E+00 0.0000E+00
       23  2    1    2    0    0 0.82019722E+02 -.12267497E+03 -.40700697E+02 0.17821300E+03 0.91252094E+02 0.0000E+00 0.0000E+00
       23  1    3    3    0    0 -.34303997E+02 0.90016397E+02 0.60995900E+03 0.62421547E+03 0.91188000E+02 0.0000E+00 0.9000E+01
      -11  1    4    4    0    0 0.81376417E+02 -.40172221E+02 -.26052607E+02 0.94417514E+02 0.51099893E-03 0.0000E+00 0.9000E+01
       11  1    4    4    0    0 0.64330582E+00 -.82502751E+02 -.14648089E+02 0.83795491E+02 0.51099893E-03 0.0000E+00 0.9000E+01
       23  1    3    3    0    0 -.47715726E+02 0.32658575E+02 0.56891812E+02 0.12204631E+03 0.91188000E+02 0.0000E+00 0.9000E+01
#aMCatNLO 1  0  0  2  1 0.13462477D+04 0.00000000D+00  -5  7  0 0.00000000D+00 0.00000000D+00 0.00000000D+00 0.00000000D+00 0.00000000D+00
  <mgrwgt>
 0.1751266428D-03    3    2    0
 0.340069721639063D+03 0.000000000000000D+00 0.000000000000000D+00 0.340069721639063D+03
 0.340069721639063D+03 0.000000000000000D+00 0.000000000000000D+00 -.340069721639063D+03
 0.286919930477466D+03 -.343039966243965D+02 0.900163972770293D+02 0.254417136211481D+03
 0.152320902426420D+03 0.813764166485762D+02 -.401722209540837D+02 -.122334495515584D+03
 0.127383763309325D+03 0.643305820023841D+00 -.825027514268701D+02 -.970541360245099D+02
 0.113514847064916D+03 -.477157258442036D+02 0.326585751039245D+02 -.350285046713874D+02
 0.000000000000000D+00 0.000000000000000D+00 -.000000000000000D+00 0.000000000000000D+00
 0.181824206285378D+04 0.000000000000000D+00 0.000000000000000D+00 0.181824206285378D+04
 0.117995584650695D+04 0.000000000000000D+00 0.000000000000000D+00 -.117995584650695D+04
 0.805969059869507D+03 -.533909994014366D+03 0.539891575426460D+03 0.254417136211481D+03
 0.164885975516400D+03 -.636323262643399D+02 0.904023405843619D+02 -.122334495515584D+03
 0.172269371766171D+03 -.136340875320729D+03 0.408460138327429D+02 -.970541360245099D+02
 0.365176803348701D+03 -.266546020192047D+03 0.229706485194135D+03 -.350285046713874D+02
 0.148989669885995D+04 0.100042921579148D+04 -.900846415037700D+03 0.638286216346822D+03
0.387869714330D-05 0.000000000000D+00 0.000000000000D+00 0.240947930174D-06 0.000000000000D+00  7 1 -1 23 -11 11 23 21 0 0.11927884D+00 0.22948052D-01 0.42823834D+05 0.42823834D+05 0.42823834D+05 0.11532611D+01  1  2  2  2  7  2       -1 0.169998186489D-03 0.100000000000D+01
-.150839212382D-06 0.000000000000D+00 -.148952183147D-07 0.240947930174D-06 0.000000000000D+00  7 1 -1 23 -11 11 23 21 2 0.11927884D+00 0.22948052D-01 0.42823834D+05 0.42823834D+05 0.42823834D+05 0.11532611D+01  1  2  3  2  7  2       -1 -.879281618648D-05 0.100000000000D+01
0.238816976302D-06 0.000000000000D+00 0.000000000000D+00 0.240947930174D-06 0.000000000000D+00  7 1 -1 23 -11 11 23 21 2 0.11927884D+00 0.22948052D-01 0.42823834D+05 0.42823834D+05 0.42823834D+05 0.11532611D+01  1  2 15  2  7  2       -1 0.139212724708D-04 0.100000000000D+01
  </mgrwgt>
  </event>
  <event>
  9     66 0.56006291E-06 0.26562925E+03 0.75467711E-02 0.10121277E+00
        1 -1    0    0  502    0 0.00000000E+00 0.00000000E+00 0.22167251E+03 0.22167275E+03 0.32000000E+00 0.0000E+00 0.9000E+01
       -1 -1    0    0    0  501 0.00000000E+00 0.00000000E+00 -.75193838E+03 0.75193845E+03 0.32000000E+00 0.0000E+00 0.9000E+01
       25  2    1    2    0    0 0.31761484E+02 0.17512878E+03 0.33982281E+02 0.34670181E+03 0.29558157E+03 0.0000E+00 0.0000E+00
       23  2    1    2    0    0 0.70724862E+01 -.20282363E+03 -.49371608E+03 0.54176000E+03 0.92525096E+02 0.0000E+00 0.0000E+00
       23  1    3    3    0    0 0.85640451E+01 -.21076781E+02 -.58021448E+02 0.11045050E+03 0.91188000E+02 0.0000E+00 0.9000E+01
      -11  1    4    4    0    0 0.42712353E+02 -.52927337E+02 -.17513053E+03 0.18787323E+03 0.51099893E-03 0.0000E+00 0.9000E+01
       11  1    4    4    0    0 -.35639867E+02 -.14989629E+03 -.31858555E+03 0.35388677E+03 0.51099893E-03 0.0000E+00 0.9000E+01
       23  1    3    3    0    0 0.23197439E+02 0.19620556E+03 0.92003729E+02 0.23625131E+03 0.91188000E+02 0.0000E+00 0.9000E+01
       21  1    1    2  502  501 -.38833970E+02 0.27694851E+02 -.70532068E+02 0.85149381E+02 0.75000000E+00 0.0000E+00 0.9000E+01
#aMCatNLO 2  0  0  1  2 0.47697820D+02 0.00000000D+00  -5  7  0 0.00000000D+00 0.00000000D+00 0.00000000D+00 0.00000000D+00 0.00000000D+00
  <mgrwgt>
 0.1367515818D-03    1    2    0
 0.379385735359626D+03 0.000000000000000D+00 0.000000000000000D+00 0.379385735359626D+03
 0.379385735359626D+03 0.000000000000000D+00 0.000000000000000D+00 -.379385735359626D+03
 0.929665133770802D+02 0.378457516477601D+01 -.176682519115138D+02 -.101544606173080D+01
 0.109756712554040D+03 0.370009991053925D+02 -.488542257703334D+02 -.910534273943275D+02
 0.217697988847907D+03 -.468527678716716D+02 -.141899693136455D+03 -.158308905557984D+03
 0.338350255940226D+03 0.606719360150303D+01 0.208422170818302D+03 0.250377779014042D+03
 0.000000000000000D+00 -.000000000000000D+00 0.000000000000000D+00 -.000000000000000D+00
 0.393092699846745D+03 0.000000000000000D+00 0.000000000000000D+00 0.393092699846745D+03
 0.424027605346767D+03 0.000000000000000D+00 0.000000000000000D+00 -.424027605346767D+03
 0.939885952032753D+02 0.856404511698420D+01 -.210767807033028D+02 -.101544606173080D+01
 0.113650229902612D+03 0.427123528987944D+02 -.529273372323919D+02 -.910534273943275D+02
 0.220909048163633D+03 -.356398667097720D+02 -.149896290422763D+03 -.158308905557984D+03
 0.331721307205966D+03 0.231974390716870D+02 0.196205557788115D+03 0.250377779014042D+03
 0.568511247180252D+02 -.388339703776936D+02 0.276948505703425D+02 -.309349055000216D+02
0.904699134402D-05 0.000000000000D+00 0.000000000000D+00 0.604716939246D-08 0.180513200699D-10  7 1 -1 23 -11 11 23 21 2 0.34103276D-01 0.11568214D+00 0.84497350D+05 0.84497350D+05 0.84497350D+05 0.11277753D+01  1  2  1  1  7  1        1 0.136751581794D-03 0.100000000000D+01
  </mgrwgt>
  </event>
  <event>
  8     66 0.56006291E-06 0.18387122E+03 0.75467711E-02 0.98027977E-01
        1 -1    0    0  501    0 0.00000000E+00 0.00000000E+00 0.62456753E+03 0.62456761E+03 0.32000000E+00 0.0000E+00 0.9000E+01
       -1 -1    0    0    0  501 0.00000000E+00 0.00000000E+00 -.68869306E+02 0.68870049E+02 0.32000000E+00 0.0000E+00 0.9000E+01
       25  2    1    2    0    0 -.23218582E+02 -.42035503E+02 0.47075038E+03 0.56044973E+03 0.30031965E+03 0.0000E+00 0.0000E+00
       23  2    1    2    0    0 0.23218582E+02 0.42035503E+02 0.84947839E+02 0.13298793E+03 0.90352460E+02 0.0000E+00 0.0000E+00
       23  1    3    3    0    0 -.96917244E+02 0.42389213E+02 0.33180738E+03 0.36000165E+03 0.91188000E+02 0.0000E+00 0.9000E+01
      -11  1    4    4    0    0 -.19844864E+02 0.34621375E+02 0.79498973E+02 0.88952487E+02 0.51099893E-03 0.0000E+00 0.9000E+01
       11  1    4    4    0    0 0.43063447E+02 0.74141281E+01 0.54488654E+01 0.44035439E+02 0.51099893E-03 0.0000E+00 0.9000E+01
       23  1    3    3    0    0 0.73698662E+02 -.84424715E+02 0.13894300E+03 0.20044808E+03 0.91188000E+02 0.0000E+00 0.9000E+01
#aMCatNLO 1  0  0  1  1 0.28234263D+03 0.00000000D+00  -5  7  0 0.00000000D+00 0.00000000D+00 0.00000000D+00 0.00000000D+00 0.00000000D+00
  <mgrwgt>
 0.4692754799D-03    3    2    0
 0.207397729527265D+03 0.000000000000000D+00 0.000000000000000D+00 0.207397729527265D+03
 0.207397729527265D+03 0.000000000000000D+00 0.000000000000000D+00 -.207397729527265D+03
 0.157315918857744D+03 -.969172441579161D+02 0.423892120909573D+02 0.724102856312492D+02
 0.422028877988094D+02 -.198448637892167D+02 0.346213748731912D+02 0.137341006853853D+02
 0.663167983795182D+02 0.430634465865822D+02 0.741412892656102D+01 -.498847472445696D+02
 0.148959854018459D+03 0.736986613605506D+02 -.844247158907095D+02 -.362596390720649D+02
 0.000000000000000D+00 -.000000000000000D+00 -.000000000000000D+00 -.000000000000000D+00
 0.324155039268375D+03 0.000000000000000D+00 0.000000000000000D+00 0.324155039268375D+03
 0.522882311005568D+03 0.000000000000000D+00 0.000000000000000D+00 -.522882311005568D+03
 0.157985983610680D+03 -.221978816776889D+02 0.104442923442703D+03 0.724102856312492D+02
 0.557165032584891D+02 0.335979947787571D+01 0.538926243672118D+02 0.137341006853853D+02
 0.105996224678993D+03 0.838977045760720D+02 0.413265871493287D+02 -.498847472445696D+02
 0.182070789409701D+03 0.152145376856815D+03 -.192754737356264D+02 -.362596390720649D+02
 0.345267849316081D+03 -.217204999233074D+03 -.180386661223618D+03 -.198727271737193D+03
0.230128120407D-05 0.000000000000D+00 0.000000000000D+00 0.652274826578D-07 0.000000000000D+00  7 1 -1 23 -11 11 23 21 0 0.96087376D-01 0.10595341D-01 0.33808626D+05 0.33808626D+05 0.33808626D+05 0.11625504D+01  1  2  2  1  7  1        1 0.463050975283D-03 0.100000000000D+01
-.125595488625D-06 0.000000000000D+00 -.883752576489D-08 0.652274826578D-07 0.000000000000D+00  7 1 -1 23 -11 11 23 21 2 0.96087376D-01 0.10595341D-01 0.33808626D+05 0.33808626D+05 0.33808626D+05 0.11625504D+01  1  2  3  1  7  1        1 -.341551914790D-04 0.100000000000D+01
0.148484240537D-06 0.000000000000D+00 0.000000000000D+00 0.652274826578D-07 0.000000000000D+00  7 1 -1 23 -11 11 23 21 2 0.96087376D-01 0.10595341D-01 0.33808626D+05 0.33808626D+05 0.33808626D+05 0.11625504D+01  1  2 15  1  7  1        1 0.403796961396D-04 0.100000000000D+01
  </mgrwgt>
  </event>
  <event>
  9     66 0.56006291E-06 0.40651699E+03 0.75467711E-02 0.94418836E-01
        1 -1    0    0  501    0 0.00000000E+00 0.00000000E+00 0.10265014E+04 0.10265015E+04 0.32000000E+00 0.0000E+00 0.9000E+01
       21 -1    0    0  502  501 0.00000000E+00 0.00000000E+00 -.26301872E+03 0.26301979E+03 0.75000000E+00 0.0000E+00 0.9000E+01
       25  2    1    2    0    0 0.66673080E+02 0.43252612E+03 0.33303961E+03 0.62896320E+03 0.30521333E+03 0.0000E+00 0.0000E+00
       23  2    1    2    0    0 -.14288285E+03 -.26581264E+03 0.26342915E+03 0.41257607E+03 0.98753363E+02 0.0000E+00 0.0000E+00
       23  1    3    3    0    0 -.47746572E+02 0.64204381E+02 0.14859527E+03 0.19182737E+03 0.91188000E+02 0.0000E+00 0.9000E+01
      -11  1    4    4    0    0 -.14868637E+03 -.18900214E+03 0.19747027E+03 0.31116547E+03 0.51099893E-03 0.0000E+00 0.9000E+01
       11  1    4    4    0    0 0.58035264E+01 -.76810503E+02 0.65958881E+02 0.10141059E+03 0.51099893E-03 0.0000E+00 0.9000E+01
       23  1    3    3    0    0 0.11441965E+03 0.36832174E+03 0.18444435E+03 0.43713583E+03 0.91188000E+02 0.0000E+00 0.9000E+01
        1  1    1    2  502    0 0.76209768E+02 -.16671348E+03 0.16701395E+03 0.24798201E+03 0.32000000E+00 0.0000E+00 0.9000E+01
#aMCatNLO 2  0  0  2  1 0.18330661D+03 0.00000000D+00  -5  7  0 0.00000000D+00 0.00000000D+00 0.00000000D+00 0.00000000D+00 0.00000000D+00
  <mgrwgt>
 0.2122186750D-04    1    2    0
 0.416961553753524D+03 0.000000000000000D+00 0.000000000000000D+00 0.416961553753524D+03
 0.416961553753524D+03 0.000000000000000D+00 0.000000000000000D+00 -.416961553753524D+03
 0.116102813339006D+03 -.366251838125520D+02 0.398756713177147D+02 0.472560966319740D+02
 0.271588666175336D+03 -.125512508453830D+03 -.239696372353890D+03 0.235087833992037D+02
 0.953665073665551D+02 0.136149799969699D+02 -.938985309361245D+02 0.961607690354976D+01
 0.350865120626150D+03 0.148522712269413D+03 0.293719231972300D+03 -.803809569347274D+02
 0.000000000000000D+00 0.000000000000000D+00 -.000000000000000D+00 0.000000000000000D+00
 0.535076743836922D+03 0.000000000000000D+00 0.000000000000000D+00 0.535076743836922D+03
 0.504581213119793D+03 0.000000000000000D+00 0.000000000000000D+00 -.504581213119793D+03
 0.130193423859382D+03 -.477465717061856D+02 0.642043806421668D+02 0.472560966319740D+02
 0.241623899451300D+03 -.148686374523182D+03 -.189002137343188D+03 0.235087833992037D+02
 0.776273357788940D+02 0.580352638031856D+01 -.768105032314404D+02 0.961607690354976D+01
 0.404387328355992D+03 0.114419651912946D+03 0.368321741157476D+03 -.803809569347274D+02
 0.185825969511146D+03 0.762097679361030D+02 -.166713481225014D+03 0.304955307171287D+02
0.179953767210D-06 0.000000000000D+00 0.000000000000D+00 0.155852980183D-09 0.169104888376D-14  7 1 21 23 -11 11 23 1 2 0.15792334D+00 0.40464494D-01 0.25930810D+06 0.25930810D+06 0.25930810D+06 0.10892668D+01  1  2  1  4  7  2       -1 0.212218675042D-04 0.100000000000D+01
  </mgrwgt>
  </event>
  <event>
  9     66 0.56006291E-06 0.31290607E+03 0.75467711E-02 0.95927356E-01
        1 -1    0    0  501    0 0.00000000E+00 0.00000000E+00 0.97254584E+03 0.97254589E+03 0.32000000E+00 0.0000E+00 0.9000E+01
       21 -1    0    0  502  501 0.00000000E+00 0.00000000E+00 -.23640384E+03 0.23640503E+03 0.75000000E+00 0.0000E+00 0.9000E+01
       25  2    1    2    0    0 -.12374094E+03 -.10975326E+02 0.38427197E+03 0.50308241E+03 0.29999115E+03 0.0000E+00 0.0000E+00
       23  2    1    2    0    0 0.29045762E+03 0.16550860E+03 0.32458649E+03 0.47691550E+03 0.10165271E+03 0.0000E+00 0.0000E+00
       23  1    3    3    0    0 -.17023523E+03 -.65970439E+02 0.28326181E+03 0.34911980E+03 0.91188000E+02 0.0000E+00 0.9000E+01
      -11  1    4    4    0    0 0.38013036E+02 -.82735977E+01 0.62689902E+02 0.73779856E+02 0.51099893E-03 0.0000E+00 0.9000E+01
       11  1    4    4    0    0 0.25244459E+03 0.17378220E+03 0.26189659E+03 0.40313564E+03 0.51099893E-03 0.0000E+00 0.9000E+01
       23  1    3    3    0    0 0.46494288E+02 0.54995113E+02 0.10101016E+03 0.15396261E+03 0.91188000E+02 0.0000E+00 0.9000E+01
        1  1    1    2  502    0 -.16671669E+03 -.15453328E+03 0.27283545E+02 0.22895301E+03 0.32000000E+00 0.0000E+00 0.9000E+01
#aMCatNLO 2  0  0  2  1 0.22732133D+03 0.00000000D+00  -5  7  0 0.00000000D+00 0.00000000D+00 0.00000000D+00 0.00000000D+00 0.00000000D+00
  <mgrwgt>
 0.7567595796D-04    2    2    0
 0.318685032093508D+03 0.000000000000000D+00 0.000000000000000D+00 0.318685032093508D+03
 0.318685032093508D+03 0.000000000000000D+00 0.000000000000000D+00 -.318685032093508D+03
 0.282284713441433D+03 -.232549063250202D+03 -.123730473485114D+03 0.445096754797772D+02
 0.357829420133451D+02 0.282487555363711D+02 -.173243193806872D+02 0.135016557418973D+02
 0.220409813061528D+03 0.185216749689244D+03 0.111467274179805D+03 -.430149754770812D+02
 0.988925956707090D+02 0.190835580245873D+02 0.295875186859956D+02 -.149963557445934D+02
 0.000000000000000D+00 -.000000000000000D+00 -.000000000000000D+00 -.000000000000000D+00
 0.389681931466205D+03 0.000000000000000D+00 0.000000000000000D+00 0.389681931466205D+03
 0.590004844007883D+03 0.000000000000000D+00 0.000000000000000D+00 -.590004844007883D+03
 0.208874349403424D+03 -.170235226747150D+03 -.659704392719559D+02 0.445096754797772D+02
 0.411793402831005D+02 0.380130364765302D+02 -.827359753750797D+01 0.135016557418973D+02
 0.309481520868743D+03 0.252444587766102D+03 0.173782202056308D+03 -.430149754770812D+02
 0.117159392589584D+03 0.464942876457241D+02 0.549951130434208D+02 -.149963557445934D+02
 0.302992172329236D+03 -.166716685141206D+03 -.154533278290265D+03 -.200322912541678D+03
-.279009380625D-07 0.000000000000D+00 0.000000000000D+00 0.818693803081D-08 0.000000000000D+00  7 1 21 23 -11 11 23 1 2 0.12236249D+00 0.36970582D-01 0.19935087D+06 0.19935087D+06 0.19935087D+06 0.10979338D+01  1  2 13  4  7  2       -1 -.626502111940D-05 0.100000000000D+01
0.492105899453D-06 0.000000000000D+00 0.000000000000D+00 0.818693803081D-08 0.187569859091D-12  7 1 21 23 -11 11 23 1 2 0.14962250D+00 0.36369909D-01 0.19935087D+06 0.19935087D+06 0.19935087D+06 0.10979338D+01  1  2  1  4  7  2       -1 0.819409790761D-04 0.100000000000D+01
  </mgrwgt>
  </event>
  <event>
  8     66 0.56006291E-06 0.23560325E+03 0.75467711E-02 0.99393750E-01
        1 -1    0    0  501    0 0.00000000E+00 0.00000000E+00 0.12623869E+04 0.12623869E+04 0.32000000E+00 0.0000E+00 0.9000E+01
       -1 -1    0    0    0  501 0.00000000E+00 0.00000000E+00 -.10244905E+03 0.10244955E+03 0.32000000E+00 0.0000E+00 0.9000E+01
       25  2    1    2    0    0 0.20406800E+02 -.12114165E+03 0.11702856E+04 0.12141957E+04 0.29935126E+03 0.0000E+00 0.0000E+00
       23  2    1    2    0    0 -.20406800E+02 0.12114165E+03 -.10347785E+02 0.15064072E+03 0.86566808E+02 0.0000E+00 0.0000E+00
       23  1    3    3    0    0 0.93390628E+02 0.27588691E+02 0.53307691E+03 0.54951723E+03 0.91188000E+02 0.0000E+00 0.9000E+01
      -11  1    4    4    0    0 -.43521298E+02 0.11748199E+03 -.59014844E+00 0.12528555E+03 0.51099893E-03 0.0000E+00 0.9000E+01
       11  1    4    4    0    0 0.23114498E+02 0.36596663E+01 -.97576370E+01 0.25355170E+02 0.51099893E-03 0.0000E+00 0.9000E+01
       23  1    3    3    0    0 -.72983828E+02 -.14873035E+03 0.63720870E+03 0.66467852E+03 0.91188000E+02 0.0000E+00 0.9000E+01
#aMCatNLO 1  0  0  1  1 0.19317425D+03 0.00000000D+00  -5  7  0 0.00000000D+00 0.00000000D+00 0.00000000D+00 0.00000000D+00 0.00000000D+00
  <mgrwgt>
 0.4128375097D-03    4    2    0
 0.359625790314126D+03 0.000000000000000D+00 0.000000000000000D+00 0.359625790314126D+03
 0.359625790314126D+03 0.000000000000000D+00 0.000000000000000D+00 -.359625790314126D+03
 0.183058462516191D+03 0.933906281300337D+02 0.275886911708190D+02 0.125348330869425D+03
 0.238690922435312D+03 -.435212983817565D+02 0.117481987676711D+03 -.203167998493157D+03
 0.638495827780834D+02 0.231144982898753D+02 0.365966633637763D+01 -.594061952328968D+02
 0.233652612898665D+03 -.729838280381525D+02 -.148730345183908D+03 0.137225862856630D+03
 0.000000000000000D+00 -.000000000000000D+00 0.000000000000000D+00 -.000000000000000D+00
 0.414876825856873D+03 0.000000000000000D+00 0.000000000000000D+00 0.414876825856873D+03
 0.591845368435308D+03 0.000000000000000D+00 0.000000000000000D+00 -.591845368435308D+03
 0.182140610587505D+03 0.933991967661150D+02 -.205994338000615D+02 0.125348330869425D+03
 0.215594829567486D+03 -.435106395121905D+02 0.575388492564627D+02 -.203167998493157D+03
 0.651305368070213D+02 0.231175245399068D+02 -.133592983299465D+02 -.594061952328968D+02
 0.281875003298510D+03 -.729717322557193D+02 -.216754365574002D+03 0.137225862856630D+03
 0.261981214031658D+03 -.343495381120028D-01 0.193174248447548D+03 -.176968542578435D+03
0.137424554598D-04 0.000000000000D+00 0.000000000000D+00 0.361899006055D-07 0.000000000000D+00  7 1 -1 23 -11 11 23 21 0 0.19421341D+00 0.15761434D-01 0.55508891D+05 0.55508891D+05 0.55508891D+05 0.11433240D+01  1  2  2  1  7  1        1 0.469788271990D-03 0.100000000000D+01
-.597442619872D-06 0.000000000000D+00 -.527746474374D-07 0.361899006055D-07 0.000000000000D+00  7 1 -1 23 -11 11 23 21 2 0.19421341D+00 0.15761434D-01 0.55508891D+05 0.55508891D+05 0.55508891D+05 0.11433240D+01  1  2  3  1  7  1        1 -.266976258073D-04 0.100000000000D+01
0.844869754069D-06 0.000000000000D+00 0.000000000000D+00 0.361899006055D-07 0.000000000000D+00  7 1 -1 23 -11 11 23 21 2 0.19421341D+00 0.15761434D-01 0.55508891D+05 0.55508891D+05 0.55508891D+05 0.11433240D+01  1  2 15  1  7  1        1 0.377542809967D-04 0.100000000000D+01
-.152187801072D-05 0.000000000000D+00 0.000000000000D+00 0.361899006055D-07 0.000000000000D+00  7 1 -1 23 -11 11 23 21 2 0.19421341D+00 0.15761434D-01 0.55508891D+05 0.55508891D+05 0.55508891D+05 0.11433240D+01  1  2  4  1  7  1        1 -.680074174541D-04 0.100000000000D+01
  </mgrwgt>
  </event>
  <event>
  8     66 0.56006291E-06 0.19482393E+03 0.75467711E-02 0.95819630E-01
        1 -1    0    0  501    0 0.00000000E+00 0.00000000E+00 0.27513828E+03 0.27513847E+03 0.32000000E+00 0.0000E+00 0.9000E+01
       -1 -1    0    0    0  501 0.00000000E+00 0.00000000E+00 -.97753707E+03 0.97753713E+03 0.32000000E+00 0.0000E+00 0.9000E+01
       25  2    1    2    0    0 0.33718309E+03 0.14803365E+03 -.72607865E+03 0.87312193E+03 0.31550800E+03 0.0000E+00 0.0000E+00
       23  2    1    2    0    0 -.33718309E+03 -.14803365E+03 0.23679861E+02 0.37955366E+03 0.88847311E+02 0.0000E+00 0.0000E+00
       23  1    3    3    0    0 0.12232474E+03 0.18951210E+03 -.42740025E+03 0.49179712E+03 0.91188000E+02 0.0000E+00 0.9000E+01
      -11  1    4    4    0    0 -.25505760E+02 -.35268474E+02 0.20447212E+02 0.48088435E+02 0.51099893E-03 0.0000E+00 0.9000E+01
       11  1    4    4    0    0 -.31167733E+03 -.11276518E+03 0.32326485E+01 0.33146523E+03 0.51099893E-03 0.0000E+00 0.9000E+01
       23  1    3    3    0    0 0.21485835E+03 -.41478454E+02 -.29867841E+03 0.38132482E+03 0.91188000E+02 0.0000E+00 0.9000E+01
#aMCatNLO 1  0  0  2  1 0.44768144D+02 0.00000000D+00  -5  7  0 0.00000000D+00 0.00000000D+00 0.00000000D+00 0.00000000D+00 0.00000000D+00
  <mgrwgt>
 0.3686480847D-03    9    2    0
 0.518611625796975D+03 0.000000000000000D+00 0.000000000000000D+00 0.518611625796975D+03
 0.518611625796975D+03 0.000000000000000D+00 0.000000000000000D+00 -.518611625796975D+03
 0.304521543202449D+03 0.122324742634619D+03 0.189512104715259D+03 -.183139123171888D+03
 0.719240582187205D+02 -.255057595290009D+02 -.352684744023692D+02 0.572595939107858D+02
 0.402506408644882D+03 -.311677334224812D+03 -.112765176642396D+03 0.228369576054965D+03
 0.258271241527899D+03 0.214858351119194D+03 -.414784536704934D+02 -.102490046793862D+03
 0.000000000000000D+00 -.000000000000000D+00 0.000000000000000D+00 -.000000000000000D+00
 0.535682826057069D+03 0.000000000000000D+00 0.000000000000000D+00 0.535682826057069D+03
 0.549299181090119D+03 0.000000000000000D+00 0.000000000000000D+00 -.549299181090119D+03
 0.296667542598070D+03 0.122427553504748D+03 0.176544428385184D+03 -.183139123171888D+03
 0.735044871913288D+02 -.254808894246555D+02 -.384053748394753D+02 0.572595939107858D+02
 0.407641465988592D+03 -.311538788782303D+03 -.130240103692603D+03 0.228369576054965D+03
 0.260375437087079D+03 0.214947046202949D+03 -.526656864676286D+02 -.102490046793862D+03
 0.467930742821181D+02 -.354921500739138D+00 0.447667366145232D+02 -.136163550330493D+02
0.357592931752D-04 0.000000000000D+00 0.000000000000D+00 0.878409124208D-09 0.000000000000D+00  7 1 -1 23 -11 11 23 21 0 0.42328985D-01 0.15039034D+00 0.18290005D+06 0.18290005D+06 0.18290005D+06 0.11008191D+01  1  2  2  2  7  2       -1 0.157827145812D-03 0.100000000000D+01
-.189683348601D-05 0.000000000000D+00 -.137325101431D-06 0.878409124208D-09 0.000000000000D+00  7 1 -1 23 -11 11 23 21 2 0.42328985D-01 0.15039034D+00 0.18290005D+06 0.18290005D+06 0.18290005D+06 0.11008191D+01  1  2  3  2  7  2       -1 -.101450425284D-04 0.100000000000D+01
0.226684357222D-05 0.000000000000D+00 0.000000000000D+00 0.878409124208D-09 0.000000000000D+00  7 1 -1 23 -11 11 23 21 2 0.42328985D-01 0.15039034D+00 0.18290005D+06 0.18290005D+06 0.18290005D+06 0.11008191D+01  1  2 15  2  7  2       -1 0.121240080456D-04 0.100000000000D+01
0.837017209919D-04 0.000000000000D+00 0.000000000000D+00 0.878409124208D-09 0.000000000000D+00  7 1 -1 23 -11 11 23 21 2 0.42328985D-01 0.16164914D+00 0.20307280D+06 0.20307280D+06 0.20307280D+06 0.10973172D+01  1  2 12  2  7  2       -1 0.357913754034D-03 0.100000000000D+01
-.766758409793D-04 0.000000000000D+00 0.000000000000D+00 0.878409124208D-09 0.000000000000D+00  7 1 -1 23 -11 11 23 21 2 0.42328985D-01 0.15039034D+00 0.18290005D+06 0.18290005D+06 0.18290005D+06 0.11008191D+01  1  2  4  2  7  2       -1 -.410093808116D-03 0.100000000000D+01
-.278728293146D-03 0.000000000000D+00 -.517842682061D-04 0.878409124208D-09 0.000000000000D+00  7 1 -1 23 -11 11 23 21 2 0.42328985D-01 0.16275039D+00 0.18290005D+06 0.18290005D+06 0.18290005D+06 0.11008191D+01  1  2  5  2  7  2       -1 -.118042106963D-02 0.100000000000D+01
0.282099122504D-03 0.000000000000D+00 0.516231616544D-04 0.878409124208D-09 0.000000000000D+00  7 1 -1 23 -11 11 23 21 2 0.42328985D-01 0.15039034D+00 0.18290005D+06 0.18290005D+06 0.18290005D+06 0.11008191D+01  1  2  6  2  7  2       -1 0.150878167016D-02 0.100000000000D+01
0.104722950393D-05 0.000000000000D+00 0.000000000000D+00 0.878409124208D-09 0.000000000000D+00  7 1 21 23 -11 11 23 1 2 0.42328985D-01 0.16164914D+00 0.20307280D+06 0.20307280D+06 0.20307280D+06 0.10973172D+01  1  2 12  4  7  2       -1 0.282079331078D-04 0.100000000000D+01
-.357133032460D-05 0.000000000000D+00 -.683857553129D-06 0.878409124208D-09 0.000000000000D+00  7 1 21 23 -11 11 23 1 2 0.42328985D-01 0.16275039D+00 0.18290005D+06 0.18290005D+06 0.18290005D+06 0.11008191D+01  1  2  5  4  7  2       -1 -.955465062178D-04 0.100000000000D+01
  </mgrwgt>
  </event>
  <event>
  7     66 0.56006291E-06 0.25363672E+03 0.75467711E-02 0.99392093E-01
        1 -1    0    0  501    0 0.00000000E+00 0.00000000E+00 0.12556869E+04 0.12556869E+04 0.32000000E+00 0.0000E+00 0.9000E+01
       -1 -1    0    0    0  501 0.00000000E+00 0.00000000E+00 -.99803517E+02 0.99804030E+02 0.32000000E+00 0.0000E+00 0.9000E+01
       23  2    1    2    0    0 -.38882272E+02 0.20274551E+03 0.88245703E+03 0.91088137E+03 0.91415943E+02 0.0000E+00 0.0000E+00
       23  1    1    2    0    0 0.49783586E+02 -.50890595E+02 0.23659237E+03 0.26336184E+03 0.91188000E+02 0.0000E+00 0.9000E+01
      -11  1    3    3    0    0 -.38206717E+02 0.20665307E+03 0.76453890E+03 0.79289657E+03 0.51099893E-03 0.0000E+00 0.9000E+01
       11  1    3    3    0    0 -.67555463E+00 -.39075597E+01 0.11791813E+03 0.11798479E+03 0.51099893E-03 0.0000E+00 0.9000E+01
       23  1    1    2    0    0 -.10901314E+02 -.15185492E+03 0.36833969E+02 0.18124775E+03 0.91188000E+02 0.0000E+00 0.9000E+01
#aMCatNLO 1  0  0  2  1 0.13968070D+03 0.00000000D+00  -5  7  0 0.00000000D+00 0.00000000D+00 0.00000000D+00 0.00000000D+00 0.00000000D+00
  <mgrwgt>
 0.4799975634D-03    4    2    0
 0.354008958522425D+03 0.000000000000000D+00 0.000000000000000D+00 0.354008958522425D+03
 0.354008958522425D+03 0.000000000000000D+00 0.000000000000000D+00 -.354008958522425D+03
 0.117950980113646D+03 0.497835859354035D+02 -.508905949041185D+02 0.229983540169059D+02
 0.269832626845160D+03 -.382067174688283D+02 0.206653073665625D+03 0.169246566863162D+03
 0.333716299888273D+02 -.675554632952388D+00 -.390755971852899D+01 0.331351820742730D+02
 0.286862680097216D+03 -.109013138336228D+02 -.151854919042977D+03 -.225380102954341D+03
 0.000000000000000D+00 -.000000000000000D+00 0.000000000000000D+00 0.000000000000000D+00
 0.445200423852293D+03 0.000000000000000D+00 0.000000000000000D+00 0.445200423852293D+03
 0.418646643383378D+03 0.000000000000000D+00 0.000000000000000D+00 -.418646643383378D+03
 0.131290054329877D+03 0.524796767171973D+02 -.750918521952521D+02 0.229983540169059D+02
 0.233680323550860D+03 -.327601158403788D+02 0.157762061440617D+03 0.169246566863162D+03
 0.347662638234988D+02 0.615067735227410D-01 -.105237363168560D+02 0.331351820742730D+02
 0.321928147389072D+03 -.431590007263824D+01 -.210968393216173D+03 -.225380102954341D+03
 0.142182278142363D+03 -.154651675777030D+02 0.138821920287664D+03 0.265537804689150D+02
0.209335198859D-04 0.000000000000D+00 0.000000000000D+00 0.144004846336D-08 0.000000000000D+00  7 1 -1 23 -11 11 23 21 0 0.19318264D+00 0.15354430D-01 0.64331586D+05 0.64331586D+05 0.64331586D+05 0.11377905D+01  1  2  2  2  7  2       -1 0.751371277172D-03 0.100000000000D+01
-.100578058763D-05 0.000000000000D+00 -.803902282843D-07 0.144004846336D-08 0.000000000000D+00  7 1 -1 23 -11 11 23 21 2 0.19318264D+00 0.15354430D-01 0.64331586D+05 0.64331586D+05 0.64331586D+05 0.11377905D+01  1  2  3  2  7  2       -1 -.467347787147D-04 0.100000000000D+01
0.132766852119D-05 0.000000000000D+00 0.000000000000D+00 0.144004846336D-08 0.000000000000D+00  7 1 -1 23 -11 11 23 21 2 0.19318264D+00 0.15354430D-01 0.64331586D+05 0.64331586D+05 0.64331586D+05 0.11377905D+01  1  2 15  2  7  2       -1 0.616916803797D-04 0.100000000000D+01
-.616212984352D-05 0.000000000000D+00 0.000000000000D+00 0.144004846336D-08 0.000000000000D+00  7 1 -1 23 -11 11 23 21 2 0.19318264D+00 0.15354430D-01 0.64331586D+05 0.64331586D+05 0.64331586D+05 0.11377905D+01  1  2  4  2  7  2       -1 -.286330615434D-03 0.100000000000D+01
  </mgrwgt>
  </event>
  <event>
  8     66 0.56006291E-06 0.37452481E+03 0.75467711E-02 0.94930196E-01
        1 -1    0    0  501    0 0.00000000E+00 0.00000000E+00 0.54243823E+03 0.54243832E+03 0.32000000E+00 0.0000E+00 0.9000E+01
       -1 -1    0    0    0  501 0.00000000E+00 0.00000000E+00 -.51562579E+03 0.51562589E+03 0.32000000E+00 0.0000E+00 0.9000E+01
       25  2    1    2    0    0 0.27133240E+03 -.35323376E+03 -.17190785E+03 0.56230459E+03 0.29705014E+03 0.0000E+00 0.0000E+00
       23  2    1    2    0    0 -.27133240E+03 0.35323376E+03 0.19872028E+03 0.49575962E+03 0.88839646E+02 0.0000E+00 0.0000E+00
       23  1    3    3    0    0 0.20428731E+02 -.41376723E+02 -.10472523E+03 0.14632837E+03 0.91188000E+02 0.0000E+00 0.9000E+01
      -13  1    4    4    0    0 -.27503232E+03 0.34005432E+03 0.20189546E+03 0.48170686E+03 0.10565837E+00 0.0000E+00 0.9000E+01
       13  1    4    4    0    0 0.36999119E+01 0.13179441E+02 -.31751714E+01 0.14052754E+02 0.10565837E+00 0.0000E+00 0.9000E+01
       23  1    3    3    0    0 0.25090367E+03 -.31185704E+03 -.67182621E+02 0.41597623E+03 0.91188000E+02 0.0000E+00 0.9000E+01
#aMCatNLO 1  0  0  2  1 0.97310020D+01 0.00000000D+00  -5  7  0 0.00000000D+00 0.00000000D+00 0.00000000D+00 0.00000000D+00 0.00000000D+00
  <mgrwgt>
 0.4851102823D-03   11    2    0
 0.528862213369463D+03 0.000000000000000D+00 0.000000000000000D+00 0.528862213369463D+03
 0.528862213369463D+03 0.000000000000000D+00 0.000000000000000D+00 -.528862213369463D+03
 0.149030069943858D+03 0.204287307070744D+02 -.413767233226001D+02 -.108468171056094D+03
 0.476744377208839D+03 -.275032711084110D+03 0.340054780877202D+03 0.189749716828580D+03
 0.141371019277896D+02 0.370030617509075D+01 0.131789788511608D+02 -.353269041496062D+01
 0.417812877658439D+03 0.250903674201945D+03 -.311857036405762D+03 -.777488553575256D+02
 0.000000000000000D+00 0.000000000000000D+00 0.000000000000000D+00 -.000000000000000D+00
 0.531922258751077D+03 0.000000000000000D+00 0.000000000000000D+00 0.531922258751077D+03
 0.536677784705933D+03 0.000000000000000D+00 0.000000000000000D+00 -.536677784705933D+03
 0.149091920661597D+03 0.192891105770484D+02 -.421394772565594D+02 -.108468171056094D+03
 0.477127194735711D+03 -.278679041375411D+03 0.337614272236711D+03 0.189749716828580D+03
 0.140419704967261D+02 0.359258705609781D+01 0.131068818605850D+02 -.353269041496062D+01
 0.417508102218653D+03 0.247710522962857D+03 -.313994229848708D+03 -.777488553575256D+02
 0.108308553443235D+02 0.808682077940726D+01 0.541255300797144D+01 -.475552595485583D+01
0.259032295708D-04 0.000000000000D+00 0.000000000000D+00 0.159033987828D-07 0.000000000000D+00  7 1 -1 23 -13 13 23 21 0 0.83452050D-01 0.79327059D-01 0.23220769D+06 0.23220769D+06 0.23220769D+06 0.10928795D+01  1  2  2  2  7  2       -1 0.205550621254D-03 0.100000000000D+01
-.142392404756D-05 0.000000000000D+00 -.994752220289D-07 0.159033987828D-07 0.000000000000D+00  7 1 -1 23 -13 13 23 21 2 0.83452050D-01 0.79327059D-01 0.23220769D+06 0.23220769D+06 0.23220769D+06 0.10928795D+01  1  2  3  2  7  2       -1 -.134957252191D-04 0.100000000000D+01
0.164347000772D-05 0.000000000000D+00 0.000000000000D+00 0.159033987828D-07 0.000000000000D+00  7 1 -1 23 -13 13 23 21 2 0.83452050D-01 0.79327059D-01 0.23220769D+06 0.23220769D+06 0.23220769D+06 0.10928795D+01  1  2 15  2  7  2       -1 0.155765468446D-04 0.100000000000D+01
0.202123259184D-04 0.000000000000D+00 0.000000000000D+00 0.159033987828D-07 0.000000000000D+00  7 1 -1 23 -13 13 23 21 2 0.83452050D-01 0.80726480D-01 0.23696871D+06 0.23696871D+06 0.23696871D+06 0.10922124D+01  1  2 12  2  7  2       -1 0.184500056746D-03 0.100000000000D+01
-.194639316015D-04 0.000000000000D+00 0.000000000000D+00 0.159033987828D-07 0.000000000000D+00  7 1 -1 23 -13 13 23 21 2 0.83452050D-01 0.79327059D-01 0.23220769D+06 0.23220769D+06 0.23220769D+06 0.10928795D+01  1  2  4  2  7  2       -1 -.184476042123D-03 0.100000000000D+01
-.143293722256D-02 0.000000000000D+00 -.162686533388D-03 0.159033987828D-07 0.000000000000D+00  7 1 -1 23 -13 13 23 21 2 0.83452050D-01 0.80856872D-01 0.23220769D+06 0.23220769D+06 0.23220769D+06 0.10928795D+01  1  2  5  2  7  2       -1 -.130617175978D-01 0.100000000000D+01
0.143581247611D-02 0.000000000000D+00 0.162656859070D-03 0.159033987828D-07 0.000000000000D+00  7 1 -1 23 -13 13 23 21 2 0.83452050D-01 0.79327059D-01 0.23220769D+06 0.23220769D+06 0.23220769D+06 0.10928795D+01  1  2  6  2  7  2       -1 0.136084018505D-01 0.100000000000D+01
0.232244474948D-09 0.000000000000D+00 0.000000000000D+00 0.159033987828D-07 0.106867522171D-08  7 1 -1 23 -13 13 23 21 2 0.83934911D-01 0.80499362D-01 0.23696871D+06 0.23696871D+06 0.23696871D+06 0.10922124D+01  1  2 11  2  7  2       -1 0.211480065245D-08 0.100000000000D+01
0.106828036093D-05 0.000000000000D+00 0.000000000000D+00 0.159033987828D-07 0.000000000000D+00  7 1 21 23 -13 13 23 1 2 0.83452050D-01 0.80726480D-01 0.23696871D+06 0.23696871D+06 0.23696871D+06 0.10922124D+01  1  2 12  4  7  2       -1 0.739168809070D-04 0.100000000000D+01
-.496638421863D-05 0.000000000000D+00 -.566318760670D-06 0.159033987828D-07 0.000000000000D+00  7 1 21 23 -13 13 23 1 2 0.83452050D-01 0.80856872D-01 0.23220769D+06 0.23220769D+06 0.23220769D+06 0.10928795D+01  1  2  5  4  7  2       -1 -.343148477513D-03 0.100000000000D+01
0.780763843402D-12 0.000000000000D+00 0.000000000000D+00 0.159033987828D-07 0.288193797097D-11  7 1 21 23 -13 13 23 1 2 0.83934911D-01 0.80499362D-01 0.23696871D+06 0.23696871D+06 0.23696871D+06 0.10922124D+01  1  2 11  4  7  2       -1 0.539494541711D-10 0.100000000000D+01
  </mgrwgt>
  </event>
  <event>
  7     66 0.56006291E-06 0.30085600E+03 0.75467711E-02 0.82455361E-01
        1 -1    0    0  501    0 0.00000000E+00 0.00000000E+00 0.11568829E+04 0.11568830E+04 0.32000000E+00 0.0000E+00 0.9000E+01
       -1 -1    0    0    0  501 0.00000000E+00 0.00000000E+00 -.52707754E+03 0.52707764E+03 0.32000000E+00 0.0000E+00 0.9000E+01
       25  2    1    2    0    0 -.23196461E+03 -.66098515E+02 -.43632360E+03 0.58178875E+03 0.29987210E+03 0.0000E+00 0.0000E+00
       23  1    3    3    0    0 -.22680008E+03 -.65386163E+02 -.41801293E+03 0.48863452E+03 0.91188000E+02 0.0000E+00 0.9000E+01
      -11  1    1    2    0    0 0.16096786E+03 0.93937116E+00 0.85594869E+03 0.87095333E+03 0.51099893E-03 0.0000E+00 0.9000E+01
       11  1    1    2    0    0 0.70996748E+02 0.65159144E+02 0.21018029E+03 0.23121852E+03 0.51099893E-03 0.0000E+00 0.9000E+01
       23  1    3    3    0    0 -.51645267E+01 -.71235154E+00 -.18310670E+02 0.93154236E+02 0.91188000E+02 0.0000E+00 0.9000E+01
#aMCatNLO 1  0  0  2  2 0.16897344D+04 0.00000000D+00  -5  7  0 0.00000000D+00 0.00000000D+00 0.00000000D+00 0.00000000D+00 0.00000000D+00
  <mgrwgt>
 0.2536758138D-03    5    2    0
 0.780875870197402D+03 0.000000000000000D+00 0.000000000000000D+00 0.780875870197402D+03
 0.780875870197402D+03 0.000000000000000D+00 0.000000000000000D+00 -.780875870197402D+03
 0.695442200712727D+03 -.226800078823121D+03 -.653861632150258D+02 -.647773862620285D+03
 0.593929223907385D+03 0.160967857329725D+03 0.939371293179825D+00 0.571699562269798D+03
 0.164552536345221D+03 0.709967482388677D+02 0.651591434650616D+02 0.133383975724416D+03
 0.107827779429472D+03 -.516452674547222D+01 -.712351543215572D+00 -.573096753739283D+02
 0.000000000000000D+00 0.000000000000000D+00 0.000000000000000D+00 -.000000000000000D+00
 0.180004021904294D+04 0.000000000000000D+00 0.000000000000000D+00 0.180004021904294D+04
 0.224933561920057D+04 0.000000000000000D+00 0.000000000000000D+00 -.224933561920057D+04
 0.124057971375994D+04 -.789851617789626D+03 -.698030242632649D+03 -.647773862620285D+03
 0.758491108918728D+03 -.232355350447470D+03 -.440998145038861D+03 0.571699562269798D+03
 0.138704220010063D+03 -.171991456667763D+02 -.339376642814667D+02 0.133383975724416D+03
 0.163153244256458D+03 -.839736979002526D+02 -.892622481057893D+02 -.573096753739283D+02
 0.174844755129833D+04 0.112337981180412D+04 0.126222830005877D+04 -.449295400157628D+03
0.986688260090D-04 0.000000000000D+00 0.000000000000D+00 0.579170823545D-08 0.000000000000D+00  7 1 -1 23 -11 11 23 21 0 0.17798200D+00 0.81088864D-01 0.90514330D+05 0.90514330D+05 0.90514330D+05 0.11252913D+01  1  2  2  2  7  2       -1 0.231987436071D-03 0.100000000000D+01
0.581424824803D-06 0.000000000000D+00 -.378914271973D-06 0.579170823545D-08 0.000000000000D+00  7 1 -1 23 -11 11 23 21 2 0.17798200D+00 0.81088864D-01 0.90514330D+05 0.90514330D+05 0.90514330D+05 0.11252913D+01  1  2  3  2  7  2       -1 0.173104351649D-05 0.100000000000D+01
0.590749565632D-05 0.000000000000D+00 0.000000000000D+00 0.579170823545D-08 0.000000000000D+00  7 1 -1 23 -11 11 23 21 2 0.17798200D+00 0.81088864D-01 0.90514330D+05 0.90514330D+05 0.90514330D+05 0.11252913D+01  1  2 15  2  7  2       -1 0.175880554430D-04 0.100000000000D+01
0.121389296188D-03 0.000000000000D+00 -.379612110644D-04 0.579170823545D-08 0.000000000000D+00  7 1 -1 23 -11 11 23 21 2 0.17798200D+00 0.40443045D+00 0.90514330D+05 0.90514330D+05 0.90514330D+05 0.11252913D+01  1  2  5  2  7  2       -1 0.570832433106D-06 0.100000000000D+01
0.227103625817D-04 0.000000000000D+00 -.743355682570D-05 0.579170823545D-08 0.000000000000D+00  7 1 21 23 -11 11 23 1 2 0.17798200D+00 0.40443045D+00 0.90514330D+05 0.90514330D+05 0.90514330D+05 0.11252913D+01  1  2  5  4  7  2       -1 0.179844638343D-05 0.100000000000D+01
  </mgrwgt>
  </event>
  <event>
  8     66 0.56006291E-06 0.36433146E+03 0.75467711E-02 0.92873318E-01
        1 -1    0    0  501    0 0.00000000E+00 0.00000000E+00 0.70232390E+03 0.70232397E+03 0.32000000E+00 0.0000E+00 0.9000E+01
       -1 -1    0    0    0  501 0.00000000E+00 0.00000000E+00 -.28252283E+03 0.28252301E+03 0.32000000E+00 0.0000E+00 0.9000E+01
       25  2    1    2    0    0 0.16943670E+03 0.27890724E+03 0.46429696E+03 0.64296249E+03 0.30221027E+03 0.0000E+00 0.0000E+00
       23  2    1    2    0    0 -.16943670E+03 -.27890724E+03 -.44495892E+02 0.34188449E+03 0.91690132E+02 0.0000E+00 0.0000E+00
       23  1    3    3    0    0 0.39680901E+02 0.17931714E+03 0.88985191E+02 0.22352366E+03 0.91188000E+02 0.0000E+00 0.9000E+01
      -11  1    4    4    0    0 -.16718975E+03 -.21479273E+03 -.19013452E+02 0.27285498E+03 0.51099893E-03 0.0000E+00 0.9000E+01
       11  1    4    4    0    0 -.22469504E+01 -.64114507E+02 -.25482440E+02 0.69029512E+02 0.51099893E-03 0.0000E+00 0.9000E+01
       23  1    3    3    0    0 0.12975580E+03 0.99590099E+02 0.37531177E+03 0.41943883E+03 0.91188000E+02 0.0000E+00 0.9000E+01
#aMCatNLO 1  0  0  1  2 0.35484528D+03 0.00000000D+00  -5  7  0 0.00000000D+00 0.00000000D+00 0.00000000D+00 0.00000000D+00 0.00000000D+00
  <mgrwgt>
 0.2460769896D-03    3    2    0
 0.445446584082284D+03 0.000000000000000D+00 0.000000000000000D+00 0.445446584082284D+03
 0.445446584082284D+03 0.000000000000000D+00 0.000000000000000D+00 -.445446584082284D+03
 0.205165474498100D+03 0.396809014025811D+02 0.179317136395287D+03 -.695781868858775D+01
 0.310589734525779D+03 -.167189754332552D+03 -.214792727711435D+03 -.149591621962247D+03
 0.883170562212275D+02 -.224695041443984D+01 -.641145073399548D+02 -.606974759110574D+02
 0.286820902919462D+03 0.129755803344411D+03 0.995900986561028D+02 0.217246916561892D+03
 0.000000000000000D+00 -.000000000000000D+00 -.000000000000000D+00 -.000000000000000D+00
 0.575428930789166D+03 0.000000000000000D+00 0.000000000000000D+00 0.575428930789166D+03
 0.807560374711852D+03 0.000000000000000D+00 0.000000000000000D+00 -.807560374711852D+03
 0.246720522647988D+03 0.125468064149031D+03 0.191742323417361D+03 -.695781868858775D+01
 0.256152252117533D+03 -.595980445861268D+02 -.199209427450355D+03 -.149591621962247D+03
 0.905185757886509D+02 0.317036512085086D+02 -.591971914948806D+02 -.606974759110574D+02
 0.365569444877990D+03 0.253607211208727D+03 0.117528410827699D+03 0.217246916561892D+03
 0.424028510068856D+03 -.351180881980139D+03 -.508641152998241D+02 -.232131443922686D+03
0.142021941404D-04 0.000000000000D+00 0.000000000000D+00 0.747160116952D-07 0.000000000000D+00  7 1 -1 23 -11 11 23 21 0 0.10804985D+00 0.43465070D-01 0.13273741D+06 0.13273741D+06 0.13273741D+06 0.11117666D+01  1  2  2  1  7  1        1 0.243103500672D-03 0.100000000000D+01
-.750248093477D-06 0.000000000000D+00 -.545401650228D-07 0.747160116952D-07 0.000000000000D+00  7 1 -1 23 -11 11 23 21 2 0.10804985D+00 0.43465070D-01 0.13273741D+06 0.13273741D+06 0.13273741D+06 0.11117666D+01  1  2  3  1  7  1        1 -.158733254377D-04 0.100000000000D+01
0.890789179309D-06 0.000000000000D+00 0.000000000000D+00 0.747160116952D-07 0.000000000000D+00  7 1 -1 23 -11 11 23 21 2 0.10804985D+00 0.43465070D-01 0.13273741D+06 0.13273741D+06 0.13273741D+06 0.11117666D+01  1  2 15  1  7  1        1 0.188468143572D-04 0.100000000000D+01
  </mgrwgt>
  </event>
  <event>
  8     66 0.56006291E-06 0.91269583E+02 0.75467711E-02 0.10909163E+00
        1 -1    0    0  501    0 0.00000000E+00 0.00000000E+00 0.10644722E+04 0.10644723E+04 0.32000000E+00 0.0000E+00 0.9000E+01
       -1 -1    0    0    0  501 0.00000000E+00 0.00000000E+00 -.71149898E+02 0.71150618E+02 0.32000000E+00 0.0000E+00 0.9000E+01
       25  2    1    2    0    0 -.29424078E+02 -.11394103E+02 0.26860119E+03 0.40473155E+03 0.30110701E+03 0.0000E+00 0.0000E+00
       23  2    1    2    0    0 0.29424078E+02 0.11394103E+02 0.72472113E+03 0.73089133E+03 0.89363398E+02 0.0000E+00 0.0000E+00
       23  1    3    3    0    0 0.79709924E+02 0.48462203E+02 0.55817893E+02 0.14189132E+03 0.91188000E+02 0.0000E+00 0.9000E+01
      -13  1    4    4    0    0 0.17702289E+02 0.78683980E+01 0.71499332E+03 0.71525572E+03 0.10565837E+00 0.0000E+00 0.9000E+01
       13  1    4    4    0    0 0.11721789E+02 0.35257053E+01 0.97278135E+01 0.15635615E+02 0.10565837E+00 0.0000E+00 0.9000E+01
       23  1    3    3    0    0 -.10913400E+03 -.59856307E+02 0.21278329E+03 0.26284023E+03 0.91188000E+02 0.0000E+00 0.9000E+01
#aMCatNLO 1  0  0  1  2 0.15576024D+02 0.00000000D+00  -5  7  0 0.00000000D+00 0.00000000D+00 0.00000000D+00 0.00000000D+00 0.00000000D+00
  <mgrwgt>
 0.2063484819D-03    9    2    0
 0.275204516190119D+03 0.000000000000000D+00 0.000000000000000D+00 0.275204516190119D+03
 0.275204516190119D+03 0.000000000000000D+00 0.000000000000000D+00 -.275204516190119D+03
 0.192020589489607D+03 0.797099240486542D+02 0.484622031610847D+02 -.140905636213984D+03
 0.185393158174702D+03 0.177022978962742D+02 0.786840436093009D+01 0.184378252405197D+03
 0.147039302364397D+02 0.117217803313359D+02 0.352569909085364D+01 -.814707776952871D+01
 0.158291354479489D+03 -.109134002276264D+03 -.598563066128684D+02 -.353255384216843D+02
 0.000000000000000D+00 0.000000000000000D+00 -.000000000000000D+00 0.000000000000000D+00
 0.341097659714662D+03 0.000000000000000D+00 0.000000000000000D+00 0.341097659714662D+03
 0.276236709397343D+03 0.000000000000000D+00 0.000000000000000D+00 -.276236709397343D+03
 0.191865951573275D+03 0.764925797289560D+02 0.528372875785665D+02 -.140905636213984D+03
 0.185349978743596D+03 0.145951081460720D+02 0.120936958148285D+02 0.184378252405197D+03
 0.145936770584803D+02 0.114762377547452D+02 0.385959854143248D+01 -.814707776952871D+01
 0.158819773841923D+03 -.111791703389185D+03 -.562422493127927D+02 -.353255384216843D+02
 0.667049878947293D+02 0.922777775941139D+01 -.125483326220348D+02 0.648609503173186D+02
0.211929256543D-05 0.000000000000D+00 0.000000000000D+00 0.427285359143D-07 0.000000000000D+00  7 1 -1 23 -13 13 23 21 0 0.16376502D+00 0.10946197D-01 0.25021416D+05 0.25021416D+05 0.25021416D+05 0.11747194D+01  1  2  2  1  7  1        1 0.176047630168D-03 0.100000000000D+01
-.738389278629D-07 0.000000000000D+00 -.813864147381D-08 0.427285359143D-07 0.000000000000D+00  7 1 -1 23 -13 13 23 21 2 0.16376502D+00 0.10946197D-01 0.25021416D+05 0.25021416D+05 0.25021416D+05 0.11747194D+01  1  2  3  1  7  1        1 -.846433617887D-05 0.100000000000D+01
0.135320905755D-06 0.000000000000D+00 0.000000000000D+00 0.427285359143D-07 0.000000000000D+00  7 1 -1 23 -13 13 23 21 2 0.16376502D+00 0.10946197D-01 0.25021416D+05 0.25021416D+05 0.25021416D+05 0.11747194D+01  1  2 15  1  7  1        1 0.155121650800D-04 0.100000000000D+01
0.391555865425D-04 0.000000000000D+00 0.000000000000D+00 0.427285359143D-07 0.000000000000D+00  7 1 -1 23 -13 13 23 21 2 0.20323405D+00 0.10946197D-01 0.27506749D+05 0.27506749D+05 0.27506749D+05 0.11708483D+01  1  2 12  1  7  1        1 0.297018010073D-02 0.100000000000D+01
-.385687437436D-04 0.000000000000D+00 0.000000000000D+00 0.427285359143D-07 0.000000000000D+00  7 1 -1 23 -13 13 23 21 2 0.16376502D+00 0.10946197D-01 0.25021416D+05 0.25021416D+05 0.25021416D+05 0.11747194D+01  1  2  4  1  7  1        1 -.442122905209D-02 0.100000000000D+01
-.405261409955D-04 0.000000000000D+00 -.132321009547D-05 0.427285359143D-07 0.000000000000D+00  7 1 -1 23 -13 13 23 21 2 0.20325506D+00 0.10946197D-01 0.25021416D+05 0.25021416D+05 0.25021416D+05 0.11747194D+01  1  2  5  1  7  1        1 -.309736075008D-02 0.100000000000D+01
0.399074410115D-04 0.000000000000D+00 0.129292314343D-05 0.427285359143D-07 0.000000000000D+00  7 1 -1 23 -13 13 23 21 2 0.16376502D+00 0.10946197D-01 0.25021416D+05 0.25021416D+05 0.25021416D+05 0.11747194D+01  1  2  6  1  7  1        1 0.457468718109D-02 0.100000000000D+01
0.118782933335D-05 0.000000000000D+00 0.000000000000D+00 0.427285359143D-07 0.000000000000D+00  7 21 -1 23 -13 13 23 -1 2 0.20323405D+00 0.10946197D-01 0.27506749D+05 0.27506749D+05 0.27506749D+05 0.11708483D+01  1  2 12  3  7  1        1 0.925557628453D-04 0.100000000000D+01
-.121246908002D-05 0.000000000000D+00 -.401556224536D-07 0.427285359143D-07 0.000000000000D+00  7 21 -1 23 -13 13 23 -1 2 0.20325506D+00 0.10946197D-01 0.25021416D+05 0.25021416D+05 0.25021416D+05 0.11747194D+01  1  2  5  3  7  1        1 -.955802196269D-04 0.100000000000D+01
  </mgrwgt>
  </event>
  <event>
  8     66 0.56006291E-06 0.29236950E+03 0.75467711E-02 0.93065322E-01
        3 -1    0    0  501    0 0.00000000E+00 0.00000000E+00 0.13670396E+04 0.13670397E+04 0.50000000E+00 0.0000E+00 0.9000E+01
       -3 -1    0    0    0  501 0.00000000E+00 0.00000000E+00 -.82943987E+02 0.82945494E+02 0.50000000E+00 0.0000E+00 0.9000E+01
       25  2    1    2    0    0 -.21376744E+03 0.67158193E+01 0.43278499E+03 0.56726312E+03 0.29789760E+03 0.0000E+00 0.0000E+00
       23  2    1    2    0    0 0.21376744E+03 -.67158193E+01 0.85131061E+03 0.88272205E+03 0.93417611E+02 0.0000E+00 0.0000E+00
       23  1    3    3    0    0 -.40278665E+01 0.69195884E+02 0.71149792E+02 0.13484005E+03 0.91188000E+02 0.0000E+00 0.9000E+01
      -11  1    4    4    0    0 0.22187058E+03 -.13869294E+02 0.80192547E+03 0.83216788E+03 0.51099893E-03 0.0000E+00 0.9000E+01
       11  1    4    4    0    0 -.81031403E+01 0.71534750E+01 0.49385135E+02 0.50554175E+02 0.51099893E-03 0.0000E+00 0.9000E+01
       23  1    3    3    0    0 -.20973957E+03 -.62480065E+02 0.36163519E+03 0.43242307E+03 0.91188000E+02 0.0000E+00 0.9000E+01
#aMCatNLO 1  0  0  1  2 0.42392406D+03 0.00000000D+00  -5  7  0 0.00000000D+00 0.00000000D+00 0.00000000D+00 0.00000000D+00 0.00000000D+00
  <mgrwgt>
 0.1214306815D-04    5    2    0
 0.336732642190851D+03 0.000000000000000D+00 0.000000000000000D+00 0.336732642190851D+03
 0.336732642190851D+03 0.000000000000000D+00 0.000000000000000D+00 -.336732642190851D+03
 0.154652268061022D+03 -.402786647413301D+01 0.691958838619551D+02 -.103912360288118D+03
 0.262644733080264D+03 0.221870575519602D+03 -.138692943067334D+02 0.139869032343965D+03
 0.146816329388173D+02 -.810314030290638D+01 0.715347500709010D+01 0.993565590711138D+01
 0.241486650301598D+03 -.209739568742562D+03 -.624800645623117D+02 -.458923279629579D+02
 0.000000000000000D+00 -.000000000000000D+00 0.000000000000000D+00 0.000000000000000D+00
 0.713922978762099D+03 0.000000000000000D+00 0.000000000000000D+00 0.713922978762099D+03
 0.540052657596221D+03 0.000000000000000D+00 0.000000000000000D+00 -.540052657596221D+03
 0.172269629668810D+03 0.887035619012013D+02 0.519179491854322D+02 -.103912360288118D+03
 0.449242982694280D+03 0.423797595964043D+03 -.514928048013908D+02 0.139869032343965D+03
 0.115089747858337D+02 -.674171851450664D+00 0.576929238565274D+01 0.993565590711138D+01
 0.162759223657421D+03 -.950751869212082D+02 -.838445979631604D+02 -.458923279629579D+02
 0.458194825551974D+03 -.416751799092585D+03 0.776501611934663D+02 0.173870321165878D+03
0.571662042813D-05 0.000000000000D+00 0.000000000000D+00 0.124522234248D-07 0.000000000000D+00  7 3 -3 23 -11 11 23 21 0 0.21031390D+00 0.12760736D-01 0.85479926D+05 0.85479926D+05 0.85479926D+05 0.11273566D+01  1  2  2  1  7  1        3 0.119969433502D-04 0.100000000000D+01
-.309883589908D-06 0.000000000000D+00 -.219533276647D-07 0.124522234248D-07 0.000000000000D+00  7 3 -3 23 -11 11 23 21 2 0.21031390D+00 0.12760736D-01 0.85479926D+05 0.85479926D+05 0.85479926D+05 0.11273566D+01  1  2  3  1  7  1        3 -.826518309649D-06 0.100000000000D+01
0.362561043032D-06 0.000000000000D+00 0.000000000000D+00 0.124522234248D-07 0.000000000000D+00  7 3 -3 23 -11 11 23 21 2 0.21031390D+00 0.12760736D-01 0.85479926D+05 0.85479926D+05 0.85479926D+05 0.11273566D+01  1  2 15  1  7  1        3 0.967019068421D-06 0.100000000000D+01
-.258642895808D-06 0.000000000000D+00 -.154614325241D-05 0.124522234248D-07 0.000000000000D+00  7 3 -3 23 -11 11 23 21 2 0.52446301D+00 0.12760736D-01 0.85479926D+05 0.85479926D+05 0.85479926D+05 0.11273566D+01  1  2  5  1  7  1        3 -.107991803954D-07 0.100000000000D+01
0.696744396182D-07 0.000000000000D+00 -.155456865715D-06 0.124522234248D-07 0.000000000000D+00  7 21 -3 23 -11 11 23 -3 2 0.52446301D+00 0.12760736D-01 0.85479926D+05 0.85479926D+05 0.85479926D+05 0.11273566D+01  1  2  5  3  7  1        3 0.164232211937D-07 0.100000000000D+01
  </mgrwgt>
  </event>
  <event>
  9     66 -.56006291E-06 0.87304575E+03 0.75467711E-02 0.88633025E-01
        1 -1    0    0  501    0 0.00000000E+00 0.00000000E+00 0.10557216E+04 0.10557217E+04 0.32000000E+00 0.0000E+00 0.9000E+01
       -1 -1    0    0    0  502 0.00000000E+00 0.00000000E+00 -.76999319E+03 0.76999326E+03 0.32000000E+00 0.0000E+00 0.9000E+01
       25  2    1    2    0    0 0.38636431E+02 -.85147254E+03 0.39297360E+02 0.90475722E+03 0.30090378E+03 0.0000E+00 0.0000E+00
       23  2    1    2    0    0 -.29940695E+02 0.86125242E+03 0.25605211E+03 0.90469764E+03 0.10130629E+03 0.0000E+00 0.0000E+00
       23  1    3    3    0    0 0.24553113E+02 -.68322838E+03 0.11354739E+03 0.69900797E+03 0.91188000E+02 0.0000E+00 0.9000E+01
      -11  1    4    4    0    0 -.12180155E+02 0.23209501E+02 0.22484124E+02 0.34533649E+02 0.51099893E-03 0.0000E+00 0.9000E+01
       11  1    4    4    0    0 -.17760540E+02 0.83804292E+03 0.23356798E+03 0.87016399E+03 0.51099893E-03 0.0000E+00 0.9000E+01
       23  1    3    3    0    0 0.14083318E+02 -.16824415E+03 -.74250031E+02 0.20574925E+03 0.91188000E+02 0.0000E+00 0.9000E+01
       21  1    1    2  501  502 -.86957361E+01 -.97798855E+01 -.96210569E+01 0.16260050E+02 0.75000000E+00 0.0000E+00 0.9000E+01
#aMCatNLO 2  0  0  2  1 0.13086710D+02 0.00000000D+00  -5  7  0 0.00000000D+00 0.00000000D+00 0.00000000D+00 0.00000000D+00 0.00000000D+00
  <mgrwgt>
 -.2393080490D-03    3    2    0
 0.892569930692106D+03 0.000000000000000D+00 0.000000000000000D+00 0.892569930692106D+03
 0.892569930692106D+03 0.000000000000000D+00 0.000000000000000D+00 -.892569930692106D+03
 0.693366172889578D+03 0.211845174276370D+02 -.687016961458863D+03 -.556104963233750D+00
 0.312162291533813D+02 -.123323763325364D+02 0.230383019044700D+02 0.170763609093858D+02
 0.838868034505093D+03 -.218576774451633D+02 0.833434968230399D+03 0.927791732121754D+02
 0.221689424836159D+03 0.130055363500627D+02 -.169456308676006D+03 -.109299429158327D+03
 0.000000000000000D+00 -.000000000000000D+00 -.000000000000000D+00 -.000000000000000D+00
 0.895401575048940D+03 0.000000000000000D+00 0.000000000000000D+00 0.895401575048940D+03
 0.907843443783156D+03 0.000000000000000D+00 0.000000000000000D+00 -.907843443783156D+03
 0.689724176577614D+03 0.245531126242523D+02 -.683228383353179D+03 -.556104963233750D+00
 0.312832100396584D+02 -.121801553943035D+02 0.232095011374308D+02 0.170763609093858D+02
 0.843350074887524D+03 -.177605395791213D+02 0.838042920777162D+03 0.927791732121754D+02
 0.220830368022071D+03 0.140833184697946D+02 -.168244153013724D+03 -.109299429158327D+03
 0.180571893052283D+02 -.869573612062212D+01 -.977988554768867D+01 -.124418687342162D+02
-.249237597194D-03 0.000000000000D+00 0.000000000000D+00 0.361425364913D-07 0.000000000000D+00  7 1 -1 23 -11 11 23 21 2 0.16190367D+00 0.11864231D+00 0.77364138D+06 0.77364138D+06 0.77364138D+06 0.10553651D+01  1  2 13  2  7  2       -1 -.296065928848D-03 0.100000000000D+01
-.407473680267D-02 0.000000000000D+00 0.000000000000D+00 0.361425364913D-07 0.000000000000D+00  7 1 -1 23 -11 11 23 21 2 0.16190367D+00 0.11646652D+00 0.76220888D+06 0.76220888D+06 0.76220888D+06 0.10558053D+01  1  2  8  2  7  2       -1 -.507435086104D-02 0.100000000000D+01
0.432818367839D-02 0.000000000000D+00 0.000000000000D+00 0.361425364913D-07 0.125386798888D-08  7 1 -1 23 -11 11 23 21 2 0.16241731D+00 0.11845947D+00 0.77364138D+06 0.77364138D+06 0.77364138D+06 0.10553651D+01  1  2  1  2  7  2       -1 0.513110874091D-02 0.100000000000D+01
  </mgrwgt>
  </event>
  <event>
  8     66 0.56006291E-06 0.11568170E+03 0.75467711E-02 0.10340588E+00
        1 -1    0    0  501    0 0.00000000E+00 0.00000000E+00 0.13713727E+03 0.13713764E+03 0.32000000E+00 0.0000E+00 0.9000E+01
       -1 -1    0    0    0  501 0.00000000E+00 0.00000000E+00 -.32074072E+03 0.32074088E+03 0.32000000E+00 0.0000E+00 0.9000E+01
       25  2    1    2    0    0 0.33338548E+02 0.53126242E+02 -.10869015E+03 0.32507943E+03 0.29988202E+03 0.0000E+00 0.0000E+00
       23  2    1    2    0    0 -.33338548E+02 -.53126242E+02 -.74913304E+02 0.13279909E+03 0.89942980E+02 0.0000E+00 0.0000E+00
       23  1    3    3    0    0 0.49565223E+01 0.14014950E+03 -.10152598E+03 0.19567632E+03 0.91188000E+02 0.0000E+00 0.9000E+01
      -13  1    4    4    0    0 -.14119413E+02 -.76981732E+02 -.46624484E+02 0.91101035E+02 0.10565837E+00 0.0000E+00 0.9000E+01
       13  1    4    4    0    0 -.19219135E+02 0.23855490E+02 -.28288820E+02 0.41698058E+02 0.10565837E+00 0.0000E+00 0.9000E+01
       23  1    3    3    0    0 0.28382026E+02 -.87023254E+02 -.71641732E+01 0.12940310E+03 0.91188000E+02 0.0000E+00 0.9000E+01
#aMCatNLO 1  0  0  1  2 0.79738692D+02 0.00000000D+00  -5  7  0 0.00000000D+00 0.00000000D+00 0.00000000D+00 0.00000000D+00 0.00000000D+00
  <mgrwgt>
 0.5320517534D-03    9    2    0
 0.209727507680395D+03 0.000000000000000D+00 0.000000000000000D+00 0.209727507680395D+03
 0.209727507680395D+03 0.000000000000000D+00 0.000000000000000D+00 -.209727507680395D+03
 0.169161083149535D+03 0.495653590920214D+01 0.140149496334126D+03 -.251748314273502D+02
 0.790378622562537D+02 -.141194208988083D+02 -.769818926215124D+02 -.110187944862750D+02
 0.331351187528114D+02 -.192191479446105D+02 0.238556167000987D+02 -.126281431296950D+02
 0.138120951202190D+03 0.283820329342167D+02 -.870232204127125D+02 0.488217690433203D+02
 0.000000000000000D+00 -.000000000000000D+00 0.000000000000000D+00 0.000000000000000D+00
 0.261422794660441D+03 0.000000000000000D+00 0.000000000000000D+00 0.261422794660441D+03
 0.246641317350994D+03 0.000000000000000D+00 0.000000000000000D+00 -.246641317350994D+03
 0.168644977645855D+03 0.363281575275560D+02 0.134804933049308D+03 -.251748314273502D+02
 0.802650792999479D+02 0.674841801584574D+00 -.795022874616762D+02 -.110187944862750D+02
 0.293652300407338D+02 -.134148196008575D+02 0.228667739639329D+02 -.126281431296950D+02
 0.148691654288066D+03 0.550179568534873D+02 -.915609960740397D+02 0.488217690433203D+02
 0.810971707368322D+02 -.786061365817703D+02 0.133915765224747D+02 0.147814773094467D+02
0.314609871856D-05 0.000000000000D+00 0.000000000000D+00 0.571507473615D-07 0.000000000000D+00  7 1 -1 23 -13 13 23 21 0 0.21098082D-01 0.49344767D-01 0.41083711D+05 0.41083711D+05 0.41083711D+05 0.11548748D+01  1  2  2  1  7  1        1 0.385297000580D-03 0.100000000000D+01
-.174535780923D-06 0.000000000000D+00 -.120818474661D-07 0.571507473615D-07 0.000000000000D+00  7 1 -1 23 -13 13 23 21 2 0.21098082D-01 0.49344767D-01 0.41083711D+05 0.41083711D+05 0.41083711D+05 0.11548748D+01  1  2  3  1  7  1        1 -.285087104901D-04 0.100000000000D+01
0.204282612022D-06 0.000000000000D+00 0.000000000000D+00 0.571507473615D-07 0.000000000000D+00  7 1 -1 23 -13 13 23 21 2 0.21098082D-01 0.49344767D-01 0.41083711D+05 0.41083711D+05 0.41083711D+05 0.11548748D+01  1  2 15  1  7  1        1 0.333675640232D-04 0.100000000000D+01
0.160233359146D-05 0.000000000000D+00 0.000000000000D+00 0.571507473615D-07 0.000000000000D+00  7 1 -1 23 -13 13 23 21 2 0.27769918D-01 0.49344767D-01 0.60752018D+05 0.60752018D+05 0.60752018D+05 0.11399283D+01  1  2 12  1  7  1        1 0.179206108768D-03 0.100000000000D+01
-.176276947043D-05 0.000000000000D+00 0.000000000000D+00 0.571507473615D-07 0.000000000000D+00  7 1 -1 23 -13 13 23 21 2 0.21098082D-01 0.49344767D-01 0.41083711D+05 0.41083711D+05 0.41083711D+05 0.11548748D+01  1  2  4  1  7  1        1 -.287931129236D-03 0.100000000000D+01
-.346801322925D-05 0.000000000000D+00 -.149944418086D-05 0.571507473615D-07 0.000000000000D+00  7 1 -1 23 -13 13 23 21 2 0.30651012D-01 0.49344767D-01 0.41083711D+05 0.41083711D+05 0.41083711D+05 0.11548748D+01  1  2  5  1  7  1        1 -.350711467044D-03 0.100000000000D+01
0.385486081094D-05 0.000000000000D+00 0.140061733339D-05 0.571507473615D-07 0.000000000000D+00  7 1 -1 23 -13 13 23 21 2 0.21098082D-01 0.49344767D-01 0.41083711D+05 0.41083711D+05 0.41083711D+05 0.11548748D+01  1  2  6  1  7  1        1 0.629653760720D-03 0.100000000000D+01
0.581158063387D-07 0.000000000000D+00 0.000000000000D+00 0.571507473615D-07 0.000000000000D+00  7 21 -1 23 -13 13 23 -1 2 0.27769918D-01 0.49344767D-01 0.60752018D+05 0.60752018D+05 0.60752018D+05 0.11399283D+01  1  2 12  3  7  1        1 0.448915401365D-04 0.100000000000D+01
-.110474861939D-06 0.000000000000D+00 -.678896309781D-07 0.571507473615D-07 0.000000000000D+00  7 21 -1 23 -13 13 23 -1 2 0.30651012D-01 0.49344767D-01 0.41083711D+05 0.41083711D+05 0.41083711D+05 0.11548748D+01  1  2  5  3  7  1        1 -.732129140783D-04 0.100000000000D+01
  </mgrwgt>
  </event>
  <event>
  8     66 0.56006291E-06 0.51968177E+03 0.75467711E-02 0.94170206E-01
        1 -1    0    0  501    0 0.00000000E+00 0.00000000E+00 0.17947325E+03 0.17947353E+03 0.32000000E+00 0.0000E+00 0.9000E+01
       -1 -1    0    0    0  501 0.00000000E+00 0.00000000E+00 -.16721858E+04 0.16721858E+04 0.32000000E+00 0.0000E+00 0.9000E+01
       25  2    1    2    0    0 0.14087315E+03 -.47751992E+03 -.91223641E+03 0.10817654E+04 0.30028401E+03 0.0000E+00 0.0000E+00
       23  2    1    2    0    0 -.14087315E+03 0.47751992E+03 -.58047616E+03 0.76989403E+03 0.88959125E+02 0.0000E+00 0.0000E+00
       23  1    3    3    0    0 0.56458985E+02 -.13062468E+03 -.50516773E+03 0.53269138E+03 0.91188000E+02 0.0000E+00 0.9000E+01
      -13  1    4    4    0    0 -.88548502E+02 0.18991031E+03 -.19613449E+03 0.28701134E+03 0.10565837E+00 0.0000E+00 0.9000E+01
       13  1    4    4    0    0 -.52324645E+02 0.28760961E+03 -.38434167E+03 0.48288268E+03 0.10565837E+00 0.0000E+00 0.9000E+01
       23  1    3    3    0    0 0.84414162E+02 -.34689524E+03 -.40706869E+03 0.54907397E+03 0.91188000E+02 0.0000E+00 0.9000E+01
#aMCatNLO 1  0  0  2  2 0.18214383D+01 0.00000000D+00  -5  7  0 0.00000000D+00 0.00000000D+00 0.00000000D+00 0.00000000D+00 0.00000000D+00
  <mgrwgt>
 0.7379975737D-04    6    2    0
 0.547825619859266D+03 0.000000000000000D+00 0.000000000000000D+00 0.547825619859266D+03
 0.547825619859266D+03 0.000000000000000D+00 0.000000000000000D+00 -.547825619859266D+03
 0.212013427490641D+03 0.564589852311285D+02 -.130624676605297D+03 -.128000073987331D+03
 0.217838215097350D+03 -.885485526458875D+02 0.189910168658881D+03 0.595547615314944D+02
 0.292449564770676D+03 -.523245942946254D+02 0.287609751040599D+03 0.833761793473992D+01
 0.373350032359864D+03 0.844141617093844D+02 -.346895243094183D+03 0.601076945210967D+02
 0.000000000000000D+00 0.000000000000000D+00 0.000000000000000D+00 0.000000000000000D+00
 0.549783359368018D+03 0.000000000000000D+00 0.000000000000000D+00 0.549783359368018D+03
 0.548250197385216D+03 0.000000000000000D+00 0.000000000000000D+00 -.548250197385216D+03
 0.211997929424131D+03 0.561268557104113D+02 -.130742601562839D+03 -.128000073987331D+03
 0.217871602228984D+03 -.888898456099565D+02 0.189788990155355D+03 0.595547615314944D+02
 0.292371962311470D+03 -.527826869620205D+02 0.287447101968524D+03 0.833761793473992D+01
 0.373411259755395D+03 0.838292210798573D+02 -.347102930440833D+03 0.601076945210967D+02
 0.238080303325426D+01 0.171645578170838D+01 0.609439879793384D+00 0.153316198280220D+01
0.695128511359D-04 0.000000000000D+00 0.000000000000D+00 0.264801202765D-06 0.000000000000D+00  7 1 -1 23 -13 13 23 21 0 0.27611293D-01 0.25725938D+00 0.27006915D+06 0.27006915D+06 0.27006915D+06 0.10879452D+01  1  2  2  2  7  2       -1 0.710288509954D-04 0.100000000000D+01
-.384876454303D-05 0.000000000000D+00 -.266947651516D-06 0.264801202765D-06 0.000000000000D+00  7 1 -1 23 -13 13 23 21 2 0.27611293D-01 0.25725938D+00 0.27006915D+06 0.27006915D+06 0.27006915D+06 0.10879452D+01  1  2  3  2  7  2       -1 -.465484351801D-05 0.100000000000D+01
0.438772856135D-05 0.000000000000D+00 0.000000000000D+00 0.264801202765D-06 0.000000000000D+00  7 1 -1 23 -13 13 23 21 2 0.27611293D-01 0.25725938D+00 0.27006915D+06 0.27006915D+06 0.27006915D+06 0.10879452D+01  1  2 15  2  7  2       -1 0.530668728218D-05 0.100000000000D+01
-.638636092618D-03 0.000000000000D+00 0.000000000000D+00 0.264801202765D-06 0.000000000000D+00  7 1 -1 23 -13 13 23 21 2 0.27611293D-01 0.25725938D+00 0.27006915D+06 0.27006915D+06 0.27006915D+06 0.10879452D+01  1  2  4  2  7  2       -1 -.772390995306D-03 0.100000000000D+01
0.638635068866D-03 0.000000000000D+00 0.000000000000D+00 0.264801202765D-06 0.503746971844D-06  7 1 -1 23 -13 13 23 21 2 0.27709966D-01 0.25745876D+00 0.27101637D+06 0.27101637D+06 0.27101637D+06 0.10878317D+01  1  2 11  2  7  2       -1 0.765516987036D-03 0.100000000000D+01
0.100697664001D-05 0.000000000000D+00 0.000000000000D+00 0.264801202765D-06 0.729998152098D-10  7 1 21 23 -13 13 23 1 2 0.27709966D-01 0.25745876D+00 0.27101637D+06 0.27101637D+06 0.27101637D+06 0.10878317D+01  1  2 11  4  7  2       -1 0.899307087829D-05 0.100000000000D+01
  </mgrwgt>
  </event>
  <event>
  9     66 0.56006291E-06 0.33211929E+03 0.75467711E-02 0.95330494E-01
        1 -1    0    0  502    0 0.00000000E+00 0.00000000E+00 0.36205023E+03 0.36205037E+03 0.32000000E+00 0.0000E+00 0.9000E+01
       -1 -1    0    0    0  501 0.00000000E+00 0.00000000E+00 -.75837380E+03 0.75837386E+03 0.32000000E+00 0.0000E+00 0.9000E+01
       25  2    1    2    0    0 -.13532346E+03 -.26313118E+03 -.26974108E+03 0.49819885E+03 0.29646482E+03 0.0000E+00 0.0000E+00
       23  2    1    2    0    0 -.10074484E+03 0.29307033E+03 0.46387042E+02 0.32804242E+03 0.97058377E+02 0.0000E+00 0.0000E+00
       23  1    3    3    0    0 -.63797961E+02 -.24662456E+03 -.26842166E+03 0.38112897E+03 0.91188000E+02 0.0000E+00 0.9000E+01
      -13  1    4    4    0    0 -.60249416E+02 0.95563921E+02 -.22100108E+02 0.11511247E+03 0.10565837E+00 0.0000E+00 0.9000E+01
       13  1    4    4    0    0 -.40495425E+02 0.19750641E+03 0.68487149E+02 0.21292995E+03 0.10565837E+00 0.0000E+00 0.9000E+01
       23  1    3    3    0    0 -.71525498E+02 -.16506625E+02 -.13194204E+01 0.11706988E+03 0.91188000E+02 0.0000E+00 0.9000E+01
       21  1    1    2  502  501 0.23606830E+03 -.29939149E+02 -.17296953E+03 0.29418296E+03 0.75000000E+00 0.0000E+00 0.9000E+01
#aMCatNLO 2  0  0  1  2 0.23795923D+03 0.00000000D+00  -5  7  0 0.00000000D+00 0.00000000D+00 0.00000000D+00 0.00000000D+00 0.00000000D+00
  <mgrwgt>
 0.3549087096D-04    1    2    0
 0.379527013689358D+03 0.000000000000000D+00 0.000000000000000D+00 0.379527013689358D+03
 0.379527013689358D+03 0.000000000000000D+00 0.000000000000000D+00 -.379527013689358D+03
 0.325766634757108D+03 0.343428239102754D+02 -.259071174905189D+03 -.171788665970964D+03
 0.962913324659963D+02 -.284124289058829D+02 0.915260996515392D+02 0.936630526524202D+01
 0.231545643399567D+03 0.311723922752792D+02 0.188417330554521D+03 0.130922024441511D+03
 0.105450416756045D+03 -.371027872796716D+02 -.208722553008710D+02 0.315003362642105D+02
 0.000000000000000D+00 0.000000000000000D+00 -.000000000000000D+00 -.000000000000000D+00
 0.477706753167529D+03 0.000000000000000D+00 0.000000000000000D+00 0.477706753167529D+03
 0.574764602046049D+03 0.000000000000000D+00 0.000000000000000D+00 -.574764602046049D+03
 0.320500311582995D+03 -.637979613543629D+02 -.246624558290007D+03 -.171788665970964D+03
 0.113358554021527D+03 -.602494346618603D+02 0.955637992048033D+02 0.936630526524202D+01
 0.240394021514958D+03 -.404954062629849D+02 0.197506534494092D+03 0.130922024441511D+03
 0.121226598237266D+03 -.715254981716201D+02 -.165066260248056D+02 0.315003362642105D+02
 0.256991869856831D+03 0.236068300450828D+03 -.299391493840833D+02 -.970578488785195D+02
0.500687224123D-05 0.000000000000D+00 0.000000000000D+00 0.433317138708D-07 0.541306145906D-11  7 1 -1 23 -13 13 23 21 2 0.55699991D-01 0.11667278D+00 0.22098446D+06 0.22098446D+06 0.22098446D+06 0.10945128D+01  1  2  1  1  7  1        1 0.354908709593D-04 0.100000000000D+01
  </mgrwgt>
  </event>
  <event>
  8     66 0.56006291E-06 0.29911469E+03 0.75467711E-02 0.93185198E-01
        1 -1    0    0  501    0 0.00000000E+00 0.00000000E+00 0.83927856E+03 0.83927862E+03 0.32000000E+00 0.0000E+00 0.9000E+01
       -1 -1    0    0    0  501 0.00000000E+00 0.00000000E+00 -.39037235E+03 0.39037249E+03 0.32000000E+00 0.0000E+00 0.9000E+01
       25  2    1    2    0    0 -.10924663E+02 -.52126672E+03 0.14441092E+03 0.61908240E+03 0.30094878E+03 0.0000E+00 0.0000E+00
       23  2    1    2    0    0 0.10924663E+02 0.52126672E+03 0.30449529E+03 0.61056871E+03 0.90765766E+02 0.0000E+00 0.0000E+00
       23  1    3    3    0    0 0.84160328E+02 -.26741984E+03 0.15463569E+03 0.33290205E+03 0.91188000E+02 0.0000E+00 0.9000E+01
      -13  1    4    4    0    0 0.21940030E+02 0.82403733E+02 0.82413678E+02 0.11859075E+03 0.10565837E+00 0.0000E+00 0.9000E+01
       13  1    4    4    0    0 -.11015367E+02 0.43886299E+03 0.22208161E+03 0.49197796E+03 0.10565837E+00 0.0000E+00 0.9000E+01
       23  1    3    3    0    0 -.95084991E+02 -.25384688E+03 -.10224766E+02 0.28618035E+03 0.91188000E+02 0.0000E+00 0.9000E+01
#aMCatNLO 1  0  0  1  2 0.31862473D+02 0.00000000D+00  -5  7  0 0.00000000D+00 0.00000000D+00 0.00000000D+00 0.00000000D+00 0.00000000D+00
  <mgrwgt>
 0.2383276399D-03    9    2    0
 0.572390833987094D+03 0.000000000000000D+00 0.000000000000000D+00 0.572390833987094D+03
 0.572390833987094D+03 0.000000000000000D+00 0.000000000000000D+00 -.572390833987094D+03
 0.296944357847852D+03 0.841603278423747D+02 -.267419835355533D+03 0.355579975470636D+02
 0.950650237980195D+02 0.219400742600478D+02 0.824032502712929D+02 0.420201884325651D+02
 0.441366227737727D+03 -.110154112061416D+02 0.438863469106367D+03 0.456252472575832D+02
 0.311406058590588D+03 -.950849908962808D+02 -.253846884022127D+03 -.123203433237212D+03
 0.000000000000000D+00 -.000000000000000D+00 0.000000000000000D+00 0.000000000000000D+00
 0.694820360638743D+03 0.000000000000000D+00 0.000000000000000D+00 0.694820360638743D+03
 0.574689321079037D+03 0.000000000000000D+00 0.000000000000000D+00 -.574689321079037D+03
 0.304726907513777D+03 0.851487898138365D+02 -.275732749637384D+03 0.355579975470636D+02
 0.928964724516584D+02 0.222488687826351D+02 0.798063042368618D+02 0.420201884325651D+02
 0.429371599026834D+03 -.958491040209740D+01 0.426833031004078D+03 0.456252472575832D+02
 0.318230013976968D+03 -.940505866469445D+02 -.262546170495230D+03 -.123203433237212D+03
 0.124284688748543D+03 -.376216154742974D+01 0.316395848916745D+02 0.120131039559706D+03
0.248456885768D-04 0.000000000000D+00 0.000000000000D+00 0.584615072890D-06 0.000000000000D+00  7 1 -1 23 -13 13 23 21 0 0.12911979D+00 0.60057300D-01 0.30530104D+06 0.30530104D+06 0.30530104D+06 0.10839895D+01  1  2  2  1  7  1        1 0.174088252120D-03 0.100000000000D+01
-.137822532951D-05 0.000000000000D+00 -.954139861551D-07 0.584615072890D-06 0.000000000000D+00  7 1 -1 23 -13 13 23 21 2 0.12911979D+00 0.60057300D-01 0.30530104D+06 0.30530104D+06 0.30530104D+06 0.10839895D+01  1  2  3  1  7  1        1 -.113472027829D-04 0.100000000000D+01
0.156112538230D-05 0.000000000000D+00 0.000000000000D+00 0.584615072890D-06 0.000000000000D+00  7 1 -1 23 -13 13 23 21 2 0.12911979D+00 0.60057300D-01 0.30530104D+06 0.30530104D+06 0.30530104D+06 0.10839895D+01  1  2 15  1  7  1        1 0.128530552321D-04 0.100000000000D+01
0.440911165952D-03 0.000000000000D+00 0.000000000000D+00 0.584615072890D-06 0.000000000000D+00  7 1 -1 23 -13 13 23 21 2 0.15696058D+00 0.60057300D-01 0.32359660D+06 0.32359660D+06 0.32359660D+06 0.10821274D+01  1  2 12  1  7  1        1 0.258913679231D-02 0.100000000000D+01
-.436598623943D-03 0.000000000000D+00 0.000000000000D+00 0.584615072890D-06 0.000000000000D+00  7 1 -1 23 -13 13 23 21 2 0.12911979D+00 0.60057300D-01 0.30530104D+06 0.30530104D+06 0.30530104D+06 0.10839895D+01  1  2  4  1  7  1        1 -.359460315707D-02 0.100000000000D+01
-.480944961803D-03 0.000000000000D+00 -.176078028316D-04 0.584615072890D-06 0.000000000000D+00  7 1 -1 23 -13 13 23 21 2 0.15698821D+00 0.60057300D-01 0.30530104D+06 0.30530104D+06 0.30530104D+06 0.10839895D+01  1  2  5  1  7  1        1 -.283968694810D-02 0.100000000000D+01
0.475605702897D-03 0.000000000000D+00 0.172768251300D-04 0.584615072890D-06 0.000000000000D+00  7 1 -1 23 -13 13 23 21 2 0.12911979D+00 0.60057300D-01 0.30530104D+06 0.30530104D+06 0.30530104D+06 0.10839895D+01  1  2  6  1  7  1        1 0.391575618291D-02 0.100000000000D+01
0.123866785428D-04 0.000000000000D+00 0.000000000000D+00 0.584615072890D-06 0.000000000000D+00  7 21 -1 23 -13 13 23 -1 2 0.15696058D+00 0.60057300D-01 0.32359660D+06 0.32359660D+06 0.32359660D+06 0.10821274D+01  1  2 12  3  7  1        1 0.938381119740D-04 0.100000000000D+01
-.133258843687D-04 0.000000000000D+00 -.495006002073D-06 0.584615072890D-06 0.000000000000D+00  7 21 -1 23 -13 13 23 -1 2 0.15698821D+00 0.60057300D-01 0.30530104D+06 0.30530104D+06 0.30530104D+06 0.10839895D+01  1  2  5  3  7  1        1 -.101707446647D-03 0.100000000000D+01
  </mgrwgt>
  </event>
  <event>
  8     66 0.56006291E-06 0.34400959E+03 0.75467711E-02 0.96828654E-01
        1 -1    0    0  501    0 0.00000000E+00 0.00000000E+00 0.13391450E+04 0.13391450E+04 0.32000000E+00 0.0000E+00 0.9000E+01
       -1 -1    0    0    0  501 0.00000000E+00 0.00000000E+00 -.11776910E+03 0.11776954E+03 0.32000000E+00 0.0000E+00 0.9000E+01
       25  2    1    2    0    0 0.28120999E+03 0.45053172E+02 0.10070809E+04 0.10887258E+04 0.30000503E+03 0.0000E+00 0.0000E+00
       23  2    1    2    0    0 -.28120999E+03 -.45053172E+02 0.21429493E+03 0.36818874E+03 0.92367658E+02 0.0000E+00 0.0000E+00
       23  1    3    3    0    0 0.20568528E+03 -.72440271E+02 0.70612161E+03 0.74463212E+03 0.91188000E+02 0.0000E+00 0.9000E+01
      -11  1    4    4    0    0 -.19791809E+03 -.29210404E+02 0.94070007E+02 0.22107461E+03 0.51099893E-03 0.0000E+00 0.9000E+01
       11  1    4    4    0    0 -.83291896E+02 -.15842768E+02 0.12022492E+03 0.14711412E+03 0.51099893E-03 0.0000E+00 0.9000E+01
       23  1    3    3    0    0 0.75524712E+02 0.11749344E+03 0.30095933E+03 0.34409368E+03 0.91188000E+02 0.0000E+00 0.9000E+01
#aMCatNLO 1  0  0  2  1 0.12897887D+03 0.00000000D+00  -5  7  0 0.00000000D+00 0.00000000D+00 0.00000000D+00 0.00000000D+00 0.00000000D+00
  <mgrwgt>
 0.1301249885D-03    4    2    0
 0.397127490246578D+03 0.000000000000000D+00 0.000000000000000D+00 0.397127490246578D+03
 0.397127490246578D+03 0.000000000000000D+00 0.000000000000000D+00 -.397127490246578D+03
 0.280042915545666D+03 0.205685275224001D+03 -.724402707062739D+02 0.150182415546380D+03
 0.260863310275838D+03 -.197918091695266D+03 -.292104039812254D+02 -.167406236225017D+03
 0.849763461106612D+02 -.832918957447801D+02 -.158427681639950D+02 -.569615646391989D+01
 0.168372408560991D+03 0.755247122160452D+02 0.117493442851494D+03 0.229199771425567D+02
 0.000000000000000D+00 0.000000000000000D+00 -.000000000000000D+00 0.000000000000000D+00
 0.485015065825882D+03 0.000000000000000D+00 0.000000000000000D+00 0.485015065825882D+03
 0.452627326515229D+03 0.000000000000000D+00 0.000000000000000D+00 -.452627326515229D+03
 0.255357323379619D+03 0.181663334714794D+03 -.365484081809120D+02 0.150182415546380D+03
 0.278214842570651D+03 -.222105050116289D+03 0.692801648573352D+01 -.167406236225017D+03
 0.914745685973862D+02 -.912087644118922D+02 -.401395018309867D+01 -.569615646391989D+01
 0.179612523940058D+03 0.599115825629461D+02 0.140821462620959D+03 0.229199771425567D+02
 0.132983133853397D+03 0.717388972504417D+02 -.107187120742681D+03 0.323877393106523D+02
0.868819712539D-05 0.000000000000D+00 0.000000000000D+00 0.101793555466D-05 0.000000000000D+00  7 1 -1 23 -11 11 23 21 0 0.20602234D+00 0.18118360D-01 0.11834260D+06 0.11834260D+06 0.11834260D+06 0.11157689D+01  1  2  2  2  7  2       -1 0.207916409191D-03 0.100000000000D+01
-.470577938496D-06 0.000000000000D+00 -.333649646163D-07 0.101793555466D-05 0.000000000000D+00  7 1 -1 23 -11 11 23 21 2 0.20602234D+00 0.18118360D-01 0.11834260D+06 0.11834260D+06 0.11834260D+06 0.11157689D+01  1  2  3  2  7  2       -1 -.140197152713D-04 0.100000000000D+01
0.554894340909D-06 0.000000000000D+00 0.000000000000D+00 0.101793555466D-05 0.000000000000D+00  7 1 -1 23 -11 11 23 21 2 0.20602234D+00 0.18118360D-01 0.11834260D+06 0.11834260D+06 0.11834260D+06 0.11157689D+01  1  2 15  2  7  2       -1 0.165317156390D-04 0.100000000000D+01
-.269541981405D-05 0.000000000000D+00 0.000000000000D+00 0.101793555466D-05 0.000000000000D+00  7 1 -1 23 -11 11 23 21 2 0.20602234D+00 0.18118360D-01 0.11834260D+06 0.11834260D+06 0.11834260D+06 0.11157689D+01  1  2  4  2  7  2       -1 -.803034210453D-04 0.100000000000D+01
  </mgrwgt>
  </event>
  <event>
  8     66 0.56006291E-06 0.19717583E+03 0.75467711E-02 0.10493290E+00
        1 -1    0    0  501    0 0.00000000E+00 0.00000000E+00 0.94628651E+01 0.94682742E+01 0.32000000E+00 0.0000E+00 0.9000E+01
       -1 -1    0    0    0  501 0.00000000E+00 0.00000000E+00 -.48023692E+04 0.48023692E+04 0.32000000E+00 0.0000E+00 0.9000E+01
       25  2    1    2    0    0 0.34489413E+02 -.62088204E+02 -.35591603E+04 0.35724935E+04 0.30007185E+03 0.0000E+00 0.0000E+00
       23  2    1    2    0    0 -.34489413E+02 0.62088204E+02 -.12337460E+04 0.12393440E+04 0.93807428E+02 0.0000E+00 0.0000E+00
       23  1    3    3    0    0 -.11632052E+02 -.12621175E+03 -.11812555E+04 0.11915303E+04 0.91188000E+02 0.0000E+00 0.9000E+01
      -11  1    4    4    0    0 0.32642113E+02 0.22312969E+02 -.39207496E+03 0.39406364E+03 0.51099893E-03 0.0000E+00 0.9000E+01
       11  1    4    4    0    0 -.67131526E+02 0.39775235E+02 -.84167102E+03 0.84528031E+03 0.51099893E-03 0.0000E+00 0.9000E+01
       23  1    3    3    0    0 0.46121465E+02 0.64123550E+02 -.23779048E+04 0.23809632E+04 0.91188000E+02 0.0000E+00 0.9000E+01
#aMCatNLO 1  0  0  1  1 0.43857696D+02 0.00000000D+00  -5  7  0 0.00000000D+00 0.00000000D+00 0.00000000D+00 0.00000000D+00 0.00000000D+00
  <mgrwgt>
 0.1966258612D-05    4    2    0
 0.213206967285946D+03 0.000000000000000D+00 0.000000000000000D+00 0.213206967285946D+03
 0.213206967285946D+03 0.000000000000000D+00 0.000000000000000D+00 -.213206967285946D+03
 0.168388775702442D+03 -.116320520193161D+02 -.126211754116133D+03 0.630461491870513D+02
 0.398477186593602D+02 0.326421126536793D+02 0.223129691143146D+02 0.494616752280750D+01
 0.780958496170319D+02 -.671315260236610D+02 0.397752354036337D+02 0.320165421713873D+01
 0.140081590593059D+03 0.461214653892978D+02 0.641235495981852D+02 -.711939709269975D+02
 0.000000000000000D+00 -.000000000000000D+00 0.000000000000000D+00 -.000000000000000D+00
 0.222378075223361D+03 0.000000000000000D+00 0.000000000000000D+00 0.222378075223361D+03
 0.274094709173795D+03 0.000000000000000D+00 0.000000000000000D+00 -.274094709173795D+03
 0.168397768579807D+03 0.563689459211210D+01 -.126633193163166D+03 0.630461491870513D+02
 0.433582612137209D+02 0.369085527730197D+02 0.222088490137332D+02 0.494616752280750D+01
 0.715054442445486D+02 -.594606234874506D+02 0.395880312893653D+02 0.320165421713873D+01
 0.145401961696692D+03 0.607598180985465D+02 0.637663087337176D+02 -.711939709269975D+02
 0.678093486623875D+02 -.438446419762277D+02 0.107000412634997D+01 -.517166339504346D+02
0.229012336649D-04 0.000000000000D+00 0.000000000000D+00 0.210087322704D-07 0.000000000000D+00  7 1 -1 23 -11 11 23 21 0 0.14562423D-02 0.73882644D+00 0.38878310D+05 0.38878310D+05 0.38878310D+05 0.11570319D+01  1  2  2  1  7  1        1 0.211678847421D-05 0.100000000000D+01
-.126283883818D-05 0.000000000000D+00 -.879467673066D-07 0.210087322704D-07 0.000000000000D+00  7 1 -1 23 -11 11 23 21 2 0.14562423D-02 0.73882644D+00 0.38878310D+05 0.38878310D+05 0.38878310D+05 0.11570319D+01  1  2  3  1  7  1        1 -.156263371098D-06 0.100000000000D+01
0.146888096773D-05 0.000000000000D+00 0.000000000000D+00 0.210087322704D-07 0.000000000000D+00  7 1 -1 23 -11 11 23 21 2 0.14562423D-02 0.73882644D+00 0.38878310D+05 0.38878310D+05 0.38878310D+05 0.11570319D+01  1  2 15  1  7  1        1 0.181758974163D-06 0.100000000000D+01
-.142254574548D-05 0.000000000000D+00 0.000000000000D+00 0.210087322704D-07 0.000000000000D+00  7 1 -1 23 -11 11 23 21 2 0.14562423D-02 0.73882644D+00 0.38878310D+05 0.38878310D+05 0.38878310D+05 0.11570319D+01  1  2  4  1  7  1        1 -.176025465015D-06 0.100000000000D+01
  </mgrwgt>
  </event>
  <event>
  8     66 0.56006291E-06 0.73161090E+02 0.75467711E-02 0.10446832E+00
        1 -1    0    0  501    0 0.00000000E+00 0.00000000E+00 0.37758255E+03 0.37758269E+03 0.32000000E+00 0.0000E+00 0.9000E+01
       -1 -1    0    0    0  501 0.00000000E+00 0.00000000E+00 -.13031221E+03 0.13031260E+03 0.32000000E+00 0.0000E+00 0.9000E+01
       25  2    1    2    0    0 -.41719279E+02 -.36461409E+01 0.83855287E+02 0.31488157E+03 0.30060756E+03 0.0000E+00 0.0000E+00
       23  2    1    2    0    0 0.41719279E+02 0.36461409E+01 0.16341505E+03 0.19301372E+03 0.93787119E+02 0.0000E+00 0.0000E+00
       23  1    3    3    0    0 -.11800348E+03 0.68852081E+02 0.44710446E+02 0.17023427E+03 0.91188000E+02 0.0000E+00 0.9000E+01
      -13  1    4    4    0    0 -.13191769E+02 -.85962704E+01 -.41274410E+01 0.16277763E+02 0.10565837E+00 0.0000E+00 0.9000E+01
       13  1    4    4    0    0 0.54911048E+02 0.12242411E+02 0.16754249E+03 0.17673596E+03 0.10565837E+00 0.0000E+00 0.9000E+01
       23  1    3    3    0    0 0.76284206E+02 -.72498222E+02 0.39144841E+02 0.14464730E+03 0.91188000E+02 0.0000E+00 0.9000E+01
#aMCatNLO 1  0  0  1  2 0.69752615D+02 0.00000000D+00  -5  7  0 0.00000000D+00 0.00000000D+00 0.00000000D+00 0.00000000D+00 0.00000000D+00
  <mgrwgt>
 0.2023847892D-03    9    2    0
 0.221819187099764D+03 0.000000000000000D+00 0.000000000000000D+00 0.221819187099764D+03
 0.221819187099764D+03 0.000000000000000D+00 0.000000000000000D+00 -.221819187099764D+03
 0.169970907087672D+03 -.118003480944761D+03 0.688520636015972D+02 -.436970220372852D+02
 0.209358186676909D+02 -.131918417697087D+02 -.859629255762700D+01 -.137981001689759D+02
 0.108951666650109D+03 0.549111531468822D+02 0.122424363473959D+02 0.933024848447036D+02
 0.143779981794056D+03 0.762841695675879D+02 -.724982073913661D+02 -.358073626384424D+02
 0.000000000000000D+00 -.000000000000000D+00 0.000000000000000D+00 0.000000000000000D+00
 0.264020754203835D+03 0.000000000000000D+00 0.000000000000000D+00 0.264020754203835D+03
 0.255356375153844D+03 0.000000000000000D+00 0.000000000000000D+00 -.255356375153844D+03
 0.150580837924197D+03 -.965711808709646D+02 0.558919913423541D+02 -.436970220372852D+02
 0.201175229265057D+02 -.104469884043142D+02 -.102561003166660D+02 -.137981001689759D+02
 0.116682009827443D+03 0.699971688565824D+02 0.311995051859627D+01 0.933024848447036D+02
 0.161708077512497D+03 0.967093017276933D+02 -.848492470739055D+02 -.358073626384424D+02
 0.702886811670359D+02 -.596883013089970D+02 0.360934055296211D+02 0.866437904999139D+01
0.927029010047D-06 0.000000000000D+00 0.000000000000D+00 0.320061563152D-07 0.000000000000D+00  7 1 -1 23 -13 13 23 21 0 0.58089664D-01 0.20048073D-01 0.35252434D+05 0.35252434D+05 0.35252434D+05 0.11608902D+01  1  2  2  1  7  1        1 0.137631086824D-03 0.100000000000D+01
-.497611460126D-07 0.000000000000D+00 -.356003549093D-08 0.320061563152D-07 0.000000000000D+00  7 1 -1 23 -13 13 23 21 2 0.58089664D-01 0.20048073D-01 0.35252434D+05 0.35252434D+05 0.35252434D+05 0.11608902D+01  1  2  3  1  7  1        1 -.995625191632D-05 0.100000000000D+01
0.584837882185D-07 0.000000000000D+00 0.000000000000D+00 0.320061563152D-07 0.000000000000D+00  7 1 -1 23 -13 13 23 21 2 0.58089664D-01 0.20048073D-01 0.35252434D+05 0.35252434D+05 0.35252434D+05 0.11608902D+01  1  2 15  1  7  1        1 0.117014854999D-04 0.100000000000D+01
0.553383665159D-06 0.000000000000D+00 0.000000000000D+00 0.320061563152D-07 0.000000000000D+00  7 1 -1 23 -13 13 23 21 2 0.72807220D-01 0.20048073D-01 0.52041976D+05 0.52041976D+05 0.52041976D+05 0.11457695D+01  1  2 12  1  7  1        1 0.799993983558D-04 0.100000000000D+01
-.568004554419D-06 0.000000000000D+00 0.000000000000D+00 0.320061563152D-07 0.000000000000D+00  7 1 -1 23 -13 13 23 21 2 0.58089664D-01 0.20048073D-01 0.35252434D+05 0.35252434D+05 0.35252434D+05 0.11608902D+01  1  2  4  1  7  1        1 -.113646828632D-03 0.100000000000D+01
-.125602363640D-05 0.000000000000D+00 -.505546475697D-06 0.320061563152D-07 0.000000000000D+00  7 1 -1 23 -13 13 23 21 2 0.78030904D-01 0.20048073D-01 0.35252434D+05 0.35252434D+05 0.35252434D+05 0.11608902D+01  1  2  5  1  7  1        1 -.169536195530D-03 0.100000000000D+01
0.136652141552D-05 0.000000000000D+00 0.484302982141D-06 0.320061563152D-07 0.000000000000D+00  7 1 -1 23 -13 13 23 21 2 0.58089664D-01 0.20048073D-01 0.35252434D+05 0.35252434D+05 0.35252434D+05 0.11608902D+01  1  2  6  1  7  1        1 0.273414753319D-03 0.100000000000D+01
0.173640728933D-07 0.000000000000D+00 0.000000000000D+00 0.320061563152D-07 0.000000000000D+00  7 21 -1 23 -13 13 23 -1 2 0.72807220D-01 0.20048073D-01 0.52041976D+05 0.52041976D+05 0.52041976D+05 0.11457695D+01  1  2 12  3  7  1        1 0.817717030887D-05 0.100000000000D+01
-.369298477442D-07 0.000000000000D+00 -.193115556501D-07 0.320061563152D-07 0.000000000000D+00  7 21 -1 23 -13 13 23 -1 2 0.78030904D-01 0.20048073D-01 0.35252434D+05 0.35252434D+05 0.35252434D+05 0.11608902D+01  1  2  5  3  7  1        1 -.153998290379D-04 0.100000000000D+01
  </mgrwgt>
  </event>
  <event>
  8     66 0.56006291E-06 0.38591113E+03 0.75467711E-02 0.86309524E-01
        1 -1    0    0  501    0 0.00000000E+00 0.00000000E+00 0.27891660E+03 0.27891679E+03 0.32000000E+00 0.0000E+00 0.9000E+01
       -1 -1    0    0    0  501 0.00000000E+00 0.00000000E+00 -.62644207E+03 0.62644215E+03 0.32000000E+00 0.0000E+00 0.9000E+01
       25  2    1    2    0    0 -.36971423E+02 0.34501237E+03 -.28870470E+03 0.54188001E+03 0.29980513E+03 0.0000E+00 0.0000E+00
       23  2    1    2    0    0 0.36971423E+02 -.34501237E+03 -.58820773E+02 0.36347893E+03 0.90865998E+02 0.0000E+00 0.0000E+00
       23  1    3    3    0    0 -.91613231E+02 0.16616010E+03 -.34402865E+02 0.21330956E+03 0.91188000E+02 0.0000E+00 0.9000E+01
      -13  1    4    4    0    0 0.53612452E+02 -.30843598E+03 -.71916034E+02 0.32121484E+03 0.10565837E+00 0.0000E+00 0.9000E+01
       13  1    4    4    0    0 -.16641030E+02 -.36576394E+02 0.13095261E+02 0.42264092E+02 0.10565837E+00 0.0000E+00 0.9000E+01
       23  1    3    3    0    0 0.54641808E+02 0.17885227E+03 -.25430183E+03 0.32857044E+03 0.91188000E+02 0.0000E+00 0.9000E+01
#aMCatNLO 1  0  0  2  2 0.10071040D+04 0.00000000D+00  -5  7  0 0.00000000D+00 0.00000000D+00 0.00000000D+00 0.00000000D+00 0.00000000D+00
  <mgrwgt>
 0.2190939194D-03    3    2    0
 0.418001453327799D+03 0.000000000000000D+00 0.000000000000000D+00 0.418001453327799D+03
 0.418001453327799D+03 0.000000000000000D+00 0.000000000000000D+00 -.418001453327799D+03
 0.216704808382417D+03 -.916132306154508D+02 0.166160097015833D+03 0.514155693146481D+02
 0.317968244257803D+03 0.536125474139379D+02 -.308436344798018D+03 0.556463864398756D+02
 0.512137082831250D+02 -.166411248957475D+02 -.365760261295276D+02 0.317507667763358D+02
 0.250116145732253D+03 0.546418080972603D+02 0.178852273911713D+03 -.138812722530860D+03
 0.000000000000000D+00 0.000000000000000D+00 0.000000000000000D+00 0.000000000000000D+00
 0.301918957514379D+04 0.000000000000000D+00 0.000000000000000D+00 0.301918957514379D+04
 0.761665311414038D+03 0.000000000000000D+00 0.000000000000000D+00 -.761665311414038D+03
 0.238643801426948D+03 -.214270291743457D+03 -.896068768170124D+01 0.514155693146481D+02
 0.765107756975229D+03 -.238135173843263D+03 -.724972412191312D+03 0.556463864398756D+02
 0.127772712363033D+03 -.648546208092849D+02 -.105411730814957D+03 0.317507667763358D+02
 0.177352825656099D+03 -.605053267009729D+02 0.144536129940563D+02 -.138812722530860D+03
 0.247197779013652D+04 0.577765413096978D+03 0.824891217693914D+03 0.225752426372975D+04
0.165420580743D-04 0.000000000000D+00 0.000000000000D+00 0.102577810930D-05 0.000000000000D+00  7 1 -1 23 -13 13 23 21 0 0.42910267D-01 0.96375724D-01 0.14892740D+06 0.14892740D+06 0.14892740D+06 0.11077979D+01  1  2  2  2  7  2       -1 0.217206416498D-03 0.100000000000D+01
-.911873864415D-06 0.000000000000D+00 -.635258586292D-07 0.102577810930D-05 0.000000000000D+00  7 1 -1 23 -13 13 23 21 2 0.42910267D-01 0.96375724D-01 0.14892740D+06 0.14892740D+06 0.14892740D+06 0.11077979D+01  1  2  3  2  7  2       -1 -.146939641382D-04 0.100000000000D+01
0.102900798787D-05 0.000000000000D+00 0.000000000000D+00 0.102577810930D-05 0.000000000000D+00  7 1 -1 23 -13 13 23 21 2 0.42910267D-01 0.96375724D-01 0.14892740D+06 0.14892740D+06 0.14892740D+06 0.11077979D+01  1  2 15  2  7  2       -1 0.165814670885D-04 0.100000000000D+01
  </mgrwgt>
  </event>
  <event>
  8     66 0.56006291E-06 0.43406830E+03 0.75467711E-02 0.88660204E-01
        1 -1    0    0  501    0 0.00000000E+00 0.00000000E+00 0.12455383E+04 0.12455383E+04 0.32000000E+00 0.0000E+00 0.9000E+01
       -1 -1    0    0    0  501 0.00000000E+00 0.00000000E+00 -.56665494E+03 0.56665503E+03 0.32000000E+00 0.0000E+00 0.9000E+01
       25  2    1    2    0    0 0.74524448E+03 -.28260439E+03 0.18951792E+03 0.87236548E+03 0.29974977E+03 0.0000E+00 0.0000E+00
       23  2    1    2    0    0 -.74524448E+03 0.28260439E+03 0.48936545E+03 0.93982790E+03 0.92430298E+02 0.0000E+00 0.0000E+00
       23  1    3    3    0    0 0.34535359E+03 -.15744992E+03 -.28327615E+02 0.39137870E+03 0.91188000E+02 0.0000E+00 0.9000E+01
      -13  1    4    4    0    0 -.10203221E+03 0.42306290E+02 0.32672488E+02 0.11518636E+03 0.10565837E+00 0.0000E+00 0.9000E+01
       13  1    4    4    0    0 -.64321226E+03 0.24029810E+03 0.45669296E+03 0.82464154E+03 0.10565837E+00 0.0000E+00 0.9000E+01
       23  1    3    3    0    0 0.39989089E+03 -.12515448E+03 0.21784553E+03 0.48098679E+03 0.91188000E+02 0.0000E+00 0.9000E+01
#aMCatNLO 1  0  0  1  2 0.13186950D+03 0.00000000D+00  -5  7  0 0.00000000D+00 0.00000000D+00 0.00000000D+00 0.00000000D+00 0.00000000D+00
  <mgrwgt>
 0.3309558257D-03    9    2    0
 0.840113418754708D+03 0.000000000000000D+00 0.000000000000000D+00 0.840113418754708D+03
 0.840113418754708D+03 0.000000000000000D+00 0.000000000000000D+00 -.840113418754708D+03
 0.433563500256090D+03 0.345353590270069D+03 -.157449916839532D+03 -.188686191294198D+03
 0.111031342679609D+03 -.102031503941149D+03 0.423060312400508D+02 -.113018131934631D+02
 0.704886960656552D+03 -.643212971768467D+03 0.240298363212820D+03 0.159371882368403D+03
 0.430745033917165D+03 0.399890885439548D+03 -.125154477613339D+03 0.406161221192587D+02
 0.000000000000000D+00 -.000000000000000D+00 -.000000000000000D+00 0.000000000000000D+00
 0.954231440820090D+03 0.000000000000000D+00 0.000000000000000D+00 0.954231440820090D+03
 0.881674784322694D+03 0.000000000000000D+00 0.000000000000000D+00 -.881674784322694D+03
 0.450048836374624D+03 0.373742318272006D+03 -.137633224643286D+03 -.188686191294198D+03
 0.106707053077609D+03 -.950359971600877D+02 0.471892301148856D+02 -.113018131934631D+02
 0.676455526340407D+03 -.598833152117686D+03 0.271277603483269D+03 0.159371882368403D+03
 0.452182244257056D+03 0.428257603859476D+03 -.105353149159772D+03 0.406161221192587D+02
 0.150512565093087D+03 -.108130772853709D+03 -.754804597950966D+02 0.725566564973963D+02
0.116333863712D-03 0.000000000000D+00 0.000000000000D+00 0.350469098920D-05 0.000000000000D+00  7 1 -1 23 -13 13 23 21 0 0.19162129D+00 0.87177693D-01 0.65307949D+06 0.65307949D+06 0.65307949D+06 0.10604077D+01  1  2  2  1  7  1        1 0.183175871240D-03 0.100000000000D+01
-.645115659441D-05 0.000000000000D+00 -.446752668062D-06 0.350469098920D-05 0.000000000000D+00  7 1 -1 23 -13 13 23 21 2 0.19162129D+00 0.87177693D-01 0.65307949D+06 0.65307949D+06 0.65307949D+06 0.10604077D+01  1  2  3  1  7  1        1 -.114220869349D-04 0.100000000000D+01
0.723714838267D-05 0.000000000000D+00 0.000000000000D+00 0.350469098920D-05 0.000000000000D+00  7 1 -1 23 -13 13 23 21 2 0.19162129D+00 0.87177693D-01 0.65307949D+06 0.65307949D+06 0.65307949D+06 0.10604077D+01  1  2 15  1  7  1        1 0.128137236754D-04 0.100000000000D+01
0.194142503790D-03 0.000000000000D+00 0.000000000000D+00 0.350469098920D-05 0.000000000000D+00  7 1 -1 23 -13 13 23 21 2 0.22191995D+00 0.87177693D-01 0.76941768D+06 0.76941768D+06 0.76941768D+06 0.10555269D+01  1  2 12  1  7  1        1 0.245963224553D-03 0.100000000000D+01
-.191380036962D-03 0.000000000000D+00 0.000000000000D+00 0.350469098920D-05 0.000000000000D+00  7 1 -1 23 -13 13 23 21 2 0.19162129D+00 0.87177693D-01 0.65307949D+06 0.65307949D+06 0.65307949D+06 0.10604077D+01  1  2  4  1  7  1        1 -.338847676040D-03 0.100000000000D+01
-.455451982995D-03 0.000000000000D+00 -.950451820318D-04 0.350469098920D-05 0.000000000000D+00  7 1 -1 23 -13 13 23 21 2 0.22330655D+00 0.87177693D-01 0.65307949D+06 0.65307949D+06 0.65307949D+06 0.10604077D+01  1  2  5  1  7  1        1 -.579626573605D-03 0.100000000000D+01
0.465635854904D-03 0.000000000000D+00 0.939431244777D-04 0.350469098920D-05 0.000000000000D+00  7 1 -1 23 -13 13 23 21 2 0.19162129D+00 0.87177693D-01 0.65307949D+06 0.65307949D+06 0.65307949D+06 0.10604077D+01  1  2  6  1  7  1        1 0.824430958526D-03 0.100000000000D+01
0.435169159332D-05 0.000000000000D+00 0.000000000000D+00 0.350469098920D-05 0.000000000000D+00  7 21 -1 23 -13 13 23 -1 2 0.22191995D+00 0.87177693D-01 0.76941768D+06 0.76941768D+06 0.76941768D+06 0.10555269D+01  1  2 12  3  7  1        1 0.434095186946D-05 0.100000000000D+01
-.987453065801D-05 0.000000000000D+00 -.220332882583D-05 0.350469098920D-05 0.000000000000D+00  7 21 -1 23 -13 13 23 -1 2 0.22330655D+00 0.87177693D-01 0.65307949D+06 0.65307949D+06 0.65307949D+06 0.10604077D+01  1  2  5  3  7  1        1 -.987256756591D-05 0.100000000000D+01
  </mgrwgt>
  </event>
  <event>
  8     66 0.56006291E-06 0.35747644E+03 0.75467711E-02 0.91463607E-01
        1 -1    0    0  501    0 0.00000000E+00 0.00000000E+00 0.45319987E+03 0.45319998E+03 0.32000000E+00 0.0000E+00 0.9000E+01
       -1 -1    0    0    0  501 0.00000000E+00 0.00000000E+00 -.32916766E+03 0.32916781E+03 0.32000000E+00 0.0000E+00 0.9000E+01
       25  2    1    2    0    0 0.21572363E+03 -.22105569E+03 0.15983264E+03 0.45832594E+03 0.29851951E+03 0.0000E+00 0.0000E+00
       23  2    1    2    0    0 -.21572363E+03 0.22105569E+03 -.35800430E+02 0.32404185E+03 0.91209362E+02 0.0000E+00 0.0000E+00
       23  1    3    3    0    0 0.22892647E+03 -.14459738E+03 0.17888084E+03 0.33708951E+03 0.91188000E+02 0.0000E+00 0.9000E+01
      -11  1    4    4    0    0 -.21084121E+03 0.21076490E+03 -.12823022E+02 0.29839619E+03 0.51099893E-03 0.0000E+00 0.9000E+01
       11  1    4    4    0    0 -.48824178E+01 0.10290790E+02 -.22977408E+02 0.25645655E+02 0.51099893E-03 0.0000E+00 0.9000E+01
       23  1    3    3    0    0 -.13202834E+02 -.76458310E+02 -.19048205E+02 0.12123644E+03 0.91188000E+02 0.0000E+00 0.9000E+01
#aMCatNLO 1  0  0  2  1 0.47485766D+03 0.00000000D+00  -5  7  0 0.00000000D+00 0.00000000D+00 0.00000000D+00 0.00000000D+00 0.00000000D+00
  <mgrwgt>
 0.4658249701D-03    3    2    0
 0.386236771676801D+03 0.000000000000000D+00 0.000000000000000D+00 0.386236771676801D+03
 0.386236771676801D+03 0.000000000000000D+00 0.000000000000000D+00 -.386236771676801D+03
 0.312685126535367D+03 0.228926465808460D+03 -.144597377269644D+03 0.127047269752746D+03
 0.304277139672838D+03 -.210841214400069D+03 0.210764896435231D+03 -.608992485046726D+02
 0.296635058478967D+02 -.488241781506753D+01 0.102907904858629D+02 -.273895090617445D+02
 0.125847771297500D+03 -.132028335933234D+02 -.764583096514503D+02 -.387585121863286D+02
 0.000000000000000D+00 -.000000000000000D+00 -.000000000000000D+00 0.000000000000000D+00
 0.109170245401202D+04 0.000000000000000D+00 0.000000000000000D+00 0.109170245401202D+04
 0.541690758172000D+03 0.000000000000000D+00 0.000000000000000D+00 -.541690758172000D+03
 0.353498859716233D+03 0.316237895833679D+03 0.223333151085303D+02 0.127047269752746D+03
 0.411907063810650D+03 -.116976654071236D+03 0.390224516337679D+03 -.608992485046726D+02
 0.390345149634906D+02 0.412128470665469D+01 0.275049661726439D+02 -.273895090617445D+02
 0.102314858744069D+03 0.167006253885331D+02 -.192858969341027D+02 -.387585121863286D+02
 0.726637914949575D+03 -.220083151857631D+03 -.420776900684751D+03 0.550011695840018D+03
0.189401468539D-04 0.000000000000D+00 0.000000000000D+00 0.150897556299D-06 0.000000000000D+00  7 1 -1 23 -11 11 23 21 0 0.69723077D-01 0.50641199D-01 0.12778940D+06 0.12778940D+06 0.12778940D+06 0.11130863D+01  1  2  2  2  7  2       -1 0.461460374449D-03 0.100000000000D+01
-.104456978577D-05 0.000000000000D+00 -.727351509740D-07 0.150897556299D-06 0.000000000000D+00  7 1 -1 23 -11 11 23 21 2 0.69723077D-01 0.50641199D-01 0.12778940D+06 0.12778940D+06 0.12778940D+06 0.11130863D+01  1  2  3  2  7  2       -1 -.315316131422D-04 0.100000000000D+01
0.118915879683D-05 0.000000000000D+00 0.000000000000D+00 0.150897556299D-06 0.000000000000D+00  7 1 -1 23 -11 11 23 21 2 0.69723077D-01 0.50641199D-01 0.12778940D+06 0.12778940D+06 0.12778940D+06 0.11130863D+01  1  2 15  2  7  2       -1 0.358962088096D-04 0.100000000000D+01
  </mgrwgt>
  </event>
  <event>
  9     66 0.56006291E-06 0.25716335E+03 0.75467711E-02 0.99837721E-01
        1 -1    0    0  502    0 0.00000000E+00 0.00000000E+00 0.82425998E+03 0.82426004E+03 0.32000000E+00 0.0000E+00 0.9000E+01
       -1 -1    0    0    0  501 0.00000000E+00 0.00000000E+00 -.15494829E+03 0.15494862E+03 0.32000000E+00 0.0000E+00 0.9000E+01
       25  2    1    2    0    0 -.10286707E+03 -.13876854E+03 0.30703680E+03 0.46284592E+03 0.30019395E+03 0.0000E+00 0.0000E+00
       23  2    1    2    0    0 0.17281688E+03 0.43949387E+02 0.34239051E+03 0.39686546E+03 0.92052755E+02 0.0000E+00 0.0000E+00
       23  1    3    3    0    0 -.58621547E+02 0.46290362E+02 0.18422893E+03 0.21871176E+03 0.91188000E+02 0.0000E+00 0.9000E+01
      -11  1    4    4    0    0 -.83492089E+01 0.14747900E+02 0.24031723E+02 0.29406352E+02 0.51099893E-03 0.0000E+00 0.9000E+01
       11  1    4    4    0    0 0.18116609E+03 0.29201487E+02 0.31835879E+03 0.36745911E+03 0.51099893E-03 0.0000E+00 0.9000E+01
       23  1    3    3    0    0 -.44245520E+02 -.18505891E+03 0.12280787E+03 0.24413416E+03 0.91188000E+02 0.0000E+00 0.9000E+01
       21  1    1    2  502  501 -.69949818E+02 0.94819157E+02 0.19884382E+02 0.11949728E+03 0.75000000E+00 0.0000E+00 0.9000E+01
#aMCatNLO 2  0  0  1  1 0.11782890D+03 0.00000000D+00  -5  7  0 0.00000000D+00 0.00000000D+00 0.00000000D+00 0.00000000D+00 0.00000000D+00
  <mgrwgt>
 0.2640186775D-04    1    2    0
 0.275437916695639D+03 0.000000000000000D+00 0.000000000000000D+00 0.275437916695639D+03
 0.275437916695639D+03 0.000000000000000D+00 0.000000000000000D+00 -.275437916695639D+03
 0.139551356828396D+03 -.750036017180376D+02 0.684967476496491D+02 0.290169801907170D+02
 0.211599911785993D+02 -.107557332550652D+02 0.180100189709817D+02 0.277464330845750D+01
 0.180175293639761D+03 0.157689926958394D+03 0.610241621487143D+02 0.622340341620082D+02
 0.209989191744523D+03 -.719305919852908D+02 -.147530928769345D+03 -.940256576611827D+02
 0.000000000000000D+00 -.000000000000000D+00 0.000000000000000D+00 -.000000000000000D+00
 0.307681763436546D+03 0.000000000000000D+00 0.000000000000000D+00 0.307681763436546D+03
 0.415095045186263D+03 0.000000000000000D+00 0.000000000000000D+00 -.415095045186263D+03
 0.121394068461209D+03 -.586215469261922D+02 0.462903619575015D+02 0.290169801907170D+02
 0.171729000245128D+02 -.834920888958801D+01 0.147479002125987D+02 0.277464330845750D+01
 0.193770367533919D+03 0.181166093684525D+03 0.292014866957460D+02 0.622340341620082D+02
 0.230999005217502D+03 -.442455202996260D+02 -.185058906033385D+03 -.940256576611827D+02
 0.159440467385666D+03 -.699498175691190D+02 0.948191571675386D+02 -.107413281749717D+03
0.568719282960D-06 0.000000000000D+00 0.000000000000D+00 0.306101526612D-06 0.164448287001D-09  7 1 -1 23 -11 11 23 21 2 0.12680891D+00 0.23838164D-01 0.10470164D+06 0.10470164D+06 0.10470164D+06 0.11200883D+01  1  2  1  1  7  1        1 0.264018677546D-04 0.100000000000D+01
  </mgrwgt>
  </event>
  <event>
  8     66 0.56006291E-06 0.15945323E+03 0.75467711E-02 0.10313003E+00
        1 -1    0    0  501    0 0.00000000E+00 0.00000000E+00 0.13379227E+04 0.13379227E+04 0.32000000E+00 0.0000E+00 0.9000E+01
       -1 -1    0    0    0  501 0.00000000E+00 0.00000000E+00 -.88311375E+02 0.88311954E+02 0.32000000E+00 0.0000E+00 0.9000E+01
       25  2    1    2    0    0 0.10014836E+03 0.71068417E+02 0.23612901E+03 0.40095998E+03 0.29988594E+03 0.0000E+00 0.0000E+00
       23  2    1    2    0    0 -.10014836E+03 -.71068417E+02 0.10134823E+04 0.10252747E+04 0.94664844E+02 0.0000E+00 0.0000E+00
       23  1    3    3    0    0 -.30690651E+02 0.12315576E+03 0.11434502E+03 0.19364734E+03 0.91188000E+02 0.0000E+00 0.9000E+01
      -13  1    4    4    0    0 -.20773658E+02 0.13583836E+02 0.62657181E+02 0.67394354E+02 0.10565837E+00 0.0000E+00 0.9000E+01
       13  1    4    4    0    0 -.79374702E+02 -.84652254E+02 0.95082509E+03 0.95788032E+03 0.10565837E+00 0.0000E+00 0.9000E+01
       23  1    3    3    0    0 0.13083901E+03 -.52087340E+02 0.12178399E+03 0.20731264E+03 0.91188000E+02 0.0000E+00 0.9000E+01
#aMCatNLO 1  0  0  1  2 0.34945999D+02 0.00000000D+00  -5  7  0 0.00000000D+00 0.00000000D+00 0.00000000D+00 0.00000000D+00 0.00000000D+00
  <mgrwgt>
 0.3568037489D-03    9    2    0
 0.343735697380298D+03 0.000000000000000D+00 0.000000000000000D+00 0.343735697380298D+03
 0.343735697380298D+03 0.000000000000000D+00 0.000000000000000D+00 -.343735697380298D+03
 0.193898564303622D+03 -.306906505243221D+02 0.123155757812393D+03 -.114769966380821D+03
 0.259252110746867D+02 -.207735824573282D+02 0.135839547282990D+02 0.748672258703169D+01
 0.258920655195295D+03 -.793747781669297D+02 -.846523731817081D+02 0.231459555845975D+03
 0.208726964186992D+03 0.130839011148580D+03 -.520873393589840D+02 -.124176312052186D+03
 0.000000000000000D+00 0.000000000000000D+00 -.000000000000000D+00 0.000000000000000D+00
 0.365303619568865D+03 0.000000000000000D+00 0.000000000000000D+00 0.365303619568865D+03
 0.358632461171965D+03 0.000000000000000D+00 0.000000000000000D+00 -.358632461171965D+03
 0.197761493573850D+03 -.400353930407236D+02 0.126567685913821D+03 -.114769966380821D+03
 0.271874360954295D+02 -.220408140838028D+02 0.140466430463343D+02 0.748672258703169D+01
 0.261569218748950D+03 -.917933124457682D+02 -.801181502204922D+02 0.231459555845975D+03
 0.201840872338273D+03 0.121043141897483D+03 -.485106970366225D+02 -.124176312052186D+03
 0.355770599843283D+02 0.328263776728111D+02 -.119854817030410D+02 0.667115839690031D+01
0.391648092356D-05 0.000000000000D+00 0.000000000000D+00 0.195907199724D-06 0.000000000000D+00  7 1 -1 23 -13 13 23 21 0 0.20583430D+00 0.13586413D-01 0.54037666D+05 0.54037666D+05 0.54037666D+05 0.11443406D+01  1  2  2  1  7  1        1 0.150080624419D-03 0.100000000000D+01
-.177105843059D-06 0.000000000000D+00 -.150403179796D-07 0.195907199724D-06 0.000000000000D+00  7 1 -1 23 -13 13 23 21 2 0.20583430D+00 0.13586413D-01 0.54037666D+05 0.54037666D+05 0.54037666D+05 0.11443406D+01  1  2  3  1  7  1        1 -.888734621799D-05 0.100000000000D+01
0.245458865249D-06 0.000000000000D+00 0.000000000000D+00 0.195907199724D-06 0.000000000000D+00  7 1 -1 23 -13 13 23 21 2 0.20583430D+00 0.13586413D-01 0.54037666D+05 0.54037666D+05 0.54037666D+05 0.11443406D+01  1  2 15  1  7  1        1 0.123173684169D-04 0.100000000000D+01
0.794586238420D-05 0.000000000000D+00 0.000000000000D+00 0.195907199724D-06 0.000000000000D+00  7 1 -1 23 -13 13 23 21 2 0.22297335D+00 0.13586413D-01 0.63276325D+05 0.63276325D+05 0.63276325D+05 0.11384069D+01  1  2 12  1  7  1        1 0.331657225362D-03 0.100000000000D+01
-.695484566388D-05 0.000000000000D+00 0.000000000000D+00 0.195907199724D-06 0.000000000000D+00  7 1 -1 23 -13 13 23 21 2 0.20583430D+00 0.13586413D-01 0.54037666D+05 0.54037666D+05 0.54037666D+05 0.11443406D+01  1  2  4  1  7  1        1 -.349001028086D-03 0.100000000000D+01
-.247858132479D-04 0.000000000000D+00 -.534694795442D-05 0.195907199724D-06 0.000000000000D+00  7 1 -1 23 -13 13 23 21 2 0.22440611D+00 0.13586413D-01 0.54037666D+05 0.54037666D+05 0.54037666D+05 0.11443406D+01  1  2  5  1  7  1        1 -.103407665141D-02 0.100000000000D+01
0.251736153757D-04 0.000000000000D+00 0.532705894136D-05 0.195907199724D-06 0.000000000000D+00  7 1 -1 23 -13 13 23 21 2 0.20583430D+00 0.13586413D-01 0.54037666D+05 0.54037666D+05 0.54037666D+05 0.11443406D+01  1  2  6  1  7  1        1 0.126323689574D-02 0.100000000000D+01
0.106148102092D-06 0.000000000000D+00 0.000000000000D+00 0.195907199724D-06 0.000000000000D+00  7 21 -1 23 -13 13 23 -1 2 0.22297335D+00 0.13586413D-01 0.63276325D+05 0.63276325D+05 0.63276325D+05 0.11384069D+01  1  2 12  3  7  1        1 0.386295616654D-05 0.100000000000D+01
-.340933536532D-06 0.000000000000D+00 -.764385601399D-07 0.195907199724D-06 0.000000000000D+00  7 21 -1 23 -13 13 23 -1 2 0.22440611D+00 0.13586413D-01 0.54037666D+05 0.54037666D+05 0.54037666D+05 0.11443406D+01  1  2  5  3  7  1        1 -.123862955162D-04 0.100000000000D+01
  </mgrwgt>
  </event>
  <event>
  9     66 0.56006291E-06 0.32292437E+03 0.75467711E-02 0.99237565E-01
        1 -1    0    0  502    0 0.00000000E+00 0.00000000E+00 0.68090713E+03 0.68090721E+03 0.32000000E+00 0.0000E+00 0.9000E+01
       -1 -1    0    0    0  501 0.00000000E+00 0.00000000E+00 -.23093041E+03 0.23093064E+03 0.32000000E+00 0.0000E+00 0.9000E+01
       25  2    1    2    0    0 0.22142821E+03 0.19842617E+03 0.41731072E+03 0.59366588E+03 0.29981251E+03 0.0000E+00 0.0000E+00
       23  2    1    2    0    0 -.21031970E+03 -.16763360E+03 0.23536718E+02 0.28417950E+03 0.88705198E+02 0.0000E+00 0.0000E+00
       23  1    3    3    0    0 0.17010032E+03 0.18550582E+03 0.15123989E+03 0.30746590E+03 0.91188000E+02 0.0000E+00 0.9000E+01
      -13  1    4    4    0    0 -.43417091E+02 -.12799193E+02 -.24550862E+02 0.51493875E+02 0.10565837E+00 0.0000E+00 0.9000E+01
       13  1    4    4    0    0 -.16690261E+03 -.15483441E+03 0.48087580E+02 0.23268563E+03 0.10565837E+00 0.0000E+00 0.9000E+01
       23  1    3    3    0    0 0.51327894E+02 0.12920355E+02 0.26607083E+03 0.28619998E+03 0.91188000E+02 0.0000E+00 0.9000E+01
       21  1    1    2  502  501 -.11108511E+02 -.30792569E+02 0.91292782E+01 0.33992463E+02 0.75000000E+00 0.0000E+00 0.9000E+01
#aMCatNLO 2  0  0  1  2 0.32735017D+02 0.00000000D+00  -5  7  0 0.00000000D+00 0.00000000D+00 0.00000000D+00 0.00000000D+00 0.00000000D+00
  <mgrwgt>
 0.1564035859D-03    2    2    0
 0.379207880614667D+03 0.000000000000000D+00 0.000000000000000D+00 0.379207880614667D+03
 0.379207880614667D+03 0.000000000000000D+00 0.000000000000000D+00 -.379207880614667D+03
 0.257948280668902D+03 0.166252361077387D+03 0.174839361634635D+03 -.366254220868321D+01
 0.750288677781631D+02 -.445063901674137D+02 -.158189913761908D+02 -.582946974104766D+02
 0.250106476180332D+03 -.170498830088068D+03 -.164802781482582D+03 -.795200703064806D+02
 0.175332136601936D+03 0.487528591780945D+02 0.578241122413834D+01 0.141477309925640D+03
 0.000000000000000D+00 -.000000000000000D+00 -.000000000000000D+00 -.000000000000000D+00
 0.391968628624597D+03 0.000000000000000D+00 0.000000000000000D+00 0.391968628624597D+03
 0.401152032248241D+03 0.000000000000000D+00 0.000000000000000D+00 -.401152032248241D+03
 0.267722226722926D+03 0.170100316093084D+03 0.185505815507451D+03 -.366254220868321D+01
 0.738045698385956D+02 -.434169161247813D+02 -.127989912530177D+02 -.582946974104766D+02
 0.241150859201895D+03 -.166902782561907D+03 -.154834610101738D+03 -.795200703064806D+02
 0.176444237087755D+03 0.513278936198384D+02 0.129203548803738D+02 0.141477309925640D+03
 0.339987680216655D+02 -.111085110262339D+02 -.307925690330688D+02 -.918340362364404D+01
-.142222852703D-06 0.000000000000D+00 0.000000000000D+00 0.177848549753D-06 0.000000000000D+00  7 1 -1 23 -13 13 23 21 2 0.10134355D+00 0.33583957D-01 0.10428015D+06 0.10428015D+06 0.10428015D+06 0.11202314D+01  1  2  8  1  7  1        1 -.527089076372D-05 0.100000000000D+01
0.508248669728D-05 0.000000000000D+00 0.000000000000D+00 0.177848549753D-06 0.110672146638D-08  7 1 -1 23 -13 13 23 21 2 0.10475387D+00 0.35527407D-01 0.11519065D+06 0.11519065D+06 0.11519065D+06 0.11167166D+01  1  2  1  1  7  1        1 0.161674476659D-03 0.100000000000D+01
  </mgrwgt>
  </event>
  <event>
  8     66 0.56006291E-06 0.13606650E+03 0.75467711E-02 0.10583520E+00
        1 -1    0    0  501    0 0.00000000E+00 0.00000000E+00 0.10217266E+03 0.10217316E+03 0.32000000E+00 0.0000E+00 0.9000E+01
       -1 -1    0    0    0  501 0.00000000E+00 0.00000000E+00 -.48409140E+03 0.48409150E+03 0.32000000E+00 0.0000E+00 0.9000E+01
       25  2    1    2    0    0 -.12718402E+02 -.54470934E+02 -.17251464E+03 0.35098381E+03 0.30049874E+03 0.0000E+00 0.0000E+00
       23  2    1    2    0    0 0.12718402E+02 0.54470934E+02 -.20940410E+03 0.23528086E+03 0.91532309E+02 0.0000E+00 0.0000E+00
       23  1    3    3    0    0 -.18581893E+02 0.19614915E+02 0.43833671E+02 0.10472189E+03 0.91188000E+02 0.0000E+00 0.9000E+01
      -11  1    4    4    0    0 -.52282309E+01 0.17976091E+02 -.18873470E+03 0.18966091E+03 0.51099893E-03 0.0000E+00 0.9000E+01
       11  1    4    4    0    0 0.17946632E+02 0.36494843E+02 -.20669399E+02 0.45619944E+02 0.51099893E-03 0.0000E+00 0.9000E+01
       23  1    3    3    0    0 0.58634915E+01 -.74085849E+02 -.21634831E+03 0.24626192E+03 0.91188000E+02 0.0000E+00 0.9000E+01
#aMCatNLO 1  0  0  2  2 0.11373711D+03 0.00000000D+00  -5  7  0 0.00000000D+00 0.00000000D+00 0.00000000D+00 0.00000000D+00 0.00000000D+00
  <mgrwgt>
 0.1736002217D-03    4    2    0
 0.222398481351370D+03 0.000000000000000D+00 0.000000000000000D+00 0.222398481351370D+03
 0.222398481351370D+03 0.000000000000000D+00 0.000000000000000D+00 -.222398481351370D+03
 0.175665863839210D+03 -.185818930901603D+02 0.196149148844486D+02 0.147692967800223D+03
 0.879281474880359D+02 -.522823084175478D+01 0.179760907213265D+02 -.859120764812594D+02
 0.423818770186095D+02 0.179466324300487D+02 0.364948430952077D+02 0.119276280750797D+02
 0.138821074356884D+03 0.586349150186633D+01 -.740858487009828D+02 -.737085193940432D+02
 0.000000000000000D+00 -.000000000000000D+00 -.000000000000000D+00 0.000000000000000D+00
 0.337002040846398D+03 0.000000000000000D+00 0.000000000000000D+00 0.337002040846398D+03
 0.259652787350501D+03 0.000000000000000D+00 0.000000000000000D+00 -.259652787350501D+03
 0.180380730805747D+03 0.178208134072254D+02 0.457292310659460D+02 0.147692967800223D+03
 0.923503024188017D+02 0.132036923909512D+02 0.311986534768331D+02 -.859120764812594D+02
 0.529139014013229D+02 0.276898073527577D+02 0.434843330267196D+02 0.119276280750797D+02
 0.133463405014585D+03 0.337022410796764D+02 -.541150833782266D+02 -.737085193940432D+02
 0.137546488556442D+03 -.924165542306107D+02 -.662971341912721D+02 0.773492534958971D+02
0.247423789216D-05 0.000000000000D+00 0.000000000000D+00 0.175847734007D-06 0.000000000000D+00  7 1 -1 23 -11 11 23 21 0 0.15718918D-01 0.74475647D-01 0.18514091D+05 0.18514091D+05 0.18514091D+05 0.11872992D+01  1  2  2  2  7  2       -1 0.206646960414D-03 0.100000000000D+01
-.971124714991D-07 0.000000000000D+00 -.950172498770D-08 0.175847734007D-06 0.000000000000D+00  7 1 -1 23 -11 11 23 21 2 0.15718918D-01 0.74475647D-01 0.18514091D+05 0.18514091D+05 0.18514091D+05 0.11872992D+01  1  2  3  2  7  2       -1 -.114335976181D-04 0.100000000000D+01
0.153394678768D-06 0.000000000000D+00 0.000000000000D+00 0.175847734007D-06 0.000000000000D+00  7 1 -1 23 -11 11 23 21 2 0.15718918D-01 0.74475647D-01 0.18514091D+05 0.18514091D+05 0.18514091D+05 0.11872992D+01  1  2 15  2  7  2       -1 0.180600185199D-04 0.100000000000D+01
-.336968179970D-06 0.000000000000D+00 0.000000000000D+00 0.175847734007D-06 0.000000000000D+00  7 1 -1 23 -11 11 23 21 2 0.15718918D-01 0.74475647D-01 0.18514091D+05 0.18514091D+05 0.18514091D+05 0.11872992D+01  1  2  4  2  7  2       -1 -.396731595893D-04 0.100000000000D+01
  </mgrwgt>
  </event>
  <event>
  8     66 0.56006291E-06 0.15037370E+03 0.75467711E-02 0.96658703E-01
        1 -1    0    0  501    0 0.00000000E+00 0.00000000E+00 0.11284654E+04 0.11284654E+04 0.32000000E+00 0.0000E+00 0.9000E+01
       -1 -1    0    0    0  501 0.00000000E+00 0.00000000E+00 -.20420259E+03 0.20420284E+03 0.32000000E+00 0.0000E+00 0.9000E+01
       25  2    1    2    0    0 0.95945282E+02 0.33495496E+03 0.84864492E+03 0.96424518E+03 0.29693475E+03 0.0000E+00 0.0000E+00
       23  2    1    2    0    0 -.95945282E+02 -.33495496E+03 0.75617880E+02 0.36842309E+03 0.92828798E+02 0.0000E+00 0.0000E+00
       23  1    3    3    0    0 0.14409542E+03 0.21563936E+03 0.67940236E+03 0.73291653E+03 0.91188000E+02 0.0000E+00 0.9000E+01
      -13  1    4    4    0    0 -.93078436E+02 -.27304149E+03 0.94625860E+02 0.30359400E+03 0.10565837E+00 0.0000E+00 0.9000E+01
       13  1    4    4    0    0 -.28668465E+01 -.61913473E+02 -.19007980E+02 0.64829094E+02 0.10565837E+00 0.0000E+00 0.9000E+01
       23  1    3    3    0    0 -.48150139E+02 0.11931560E+03 0.16924256E+03 0.23132865E+03 0.91188000E+02 0.0000E+00 0.9000E+01
#aMCatNLO 1  0  0  2  1 0.56036109D+02 0.00000000D+00  -5  7  0 0.00000000D+00 0.00000000D+00 0.00000000D+00 0.00000000D+00 0.00000000D+00
  <mgrwgt>
 0.4941993030D-03    6    2    0
 0.480037239604211D+03 0.000000000000000D+00 0.000000000000000D+00 0.480037239604211D+03
 0.480037239604211D+03 0.000000000000000D+00 0.000000000000000D+00 -.480037239604211D+03
 0.363292941442196D+03 0.144095421151306D+03 0.215639359298674D+03 0.237492497317722D+03
 0.330319375880482D+03 -.930785524089222D+02 -.273041764096139D+03 -.160920689231680D+03
 0.108287192121168D+03 -.286672982900278D+01 -.619131995508816D+02 -.887955717305030D+02
 0.158174969764577D+03 -.481501389133813D+02 0.119315604348347D+03 0.122237636444610D+02
 0.000000000000000D+00 0.000000000000000D+00 -.000000000000000D+00 0.000000000000000D+00
 0.511998026310713D+03 0.000000000000000D+00 0.000000000000000D+00 0.511998026310713D+03
 0.506060205378278D+03 0.000000000000000D+00 0.000000000000000D+00 -.506060205378278D+03
 0.366483027683296D+03 0.128668704212569D+03 0.230295975887478D+03 0.237492497317722D+03
 0.323843334649492D+03 -.106906882463851D+03 -.259903743058779D+03 -.160920689231680D+03
 0.106103774604173D+03 -.739873540032543D+01 -.576074312982469D+02 -.887955717305030D+02
 0.165278265425732D+03 -.549876091964590D+02 0.125811748717520D+03 0.122237636444610D+02
 0.563498293262987D+02 0.406245228480670D+02 -.385965502479719D+02 0.593782093243464D+01
0.251889471893D-04 0.000000000000D+00 0.000000000000D+00 0.238078129770D-07 0.000000000000D+00  7 1 -1 23 -13 13 23 21 0 0.17361008D+00 0.31415806D-01 0.15329918D+06 0.15329918D+06 0.15329918D+06 0.11068070D+01  1  2  2  2  7  2       -1 0.341142155815D-03 0.100000000000D+01
-.132872392554D-05 0.000000000000D+00 -.967321896091D-07 0.238078129770D-07 0.000000000000D+00  7 1 -1 23 -13 13 23 21 2 0.17361008D+00 0.31415806D-01 0.15329918D+06 0.15329918D+06 0.15329918D+06 0.11068070D+01  1  2  3  2  7  2       -1 -.220446879966D-04 0.100000000000D+01
0.153732116108D-05 0.000000000000D+00 0.000000000000D+00 0.238078129770D-07 0.000000000000D+00  7 1 -1 23 -13 13 23 21 2 0.17361008D+00 0.31415806D-01 0.15329918D+06 0.15329918D+06 0.15329918D+06 0.11068070D+01  1  2 15  2  7  2       -1 0.255054979407D-04 0.100000000000D+01
0.340257509257D-04 0.000000000000D+00 0.000000000000D+00 0.238078129770D-07 0.000000000000D+00  7 1 -1 23 -13 13 23 21 2 0.17361008D+00 0.34104130D-01 0.17601923D+06 0.17601923D+06 0.17601923D+06 0.11021112D+01  1  2 12  2  7  2       -1 0.484964044971D-03 0.100000000000D+01
-.243421372713D-04 0.000000000000D+00 0.000000000000D+00 0.238078129770D-07 0.000000000000D+00  7 1 -1 23 -13 13 23 21 2 0.17361008D+00 0.31415806D-01 0.15329918D+06 0.15329918D+06 0.15329918D+06 0.11068070D+01  1  2  4  2  7  2       -1 -.403857273134D-03 0.100000000000D+01
0.465083730870D-06 0.000000000000D+00 0.000000000000D+00 0.238078129770D-07 0.000000000000D+00  7 1 21 23 -13 13 23 1 2 0.17361008D+00 0.34104130D-01 0.17601923D+06 0.17601923D+06 0.17601923D+06 0.11021112D+01  1  2 12  4  7  2       -1 0.684895654407D-04 0.100000000000D+01
  </mgrwgt>
  </event>
  <event>
  8     66 0.56006291E-06 0.21673422E+03 0.75467711E-02 0.80998577E-01
        1 -1    0    0  501    0 0.00000000E+00 0.00000000E+00 0.21115652E+03 0.21115676E+03 0.32000000E+00 0.0000E+00 0.9000E+01
       -1 -1    0    0    0  501 0.00000000E+00 0.00000000E+00 -.60276336E+03 0.60276344E+03 0.32000000E+00 0.0000E+00 0.9000E+01
       25  2    1    2    0    0 0.16360552E+02 0.13139160E+03 -.51617682E+03 0.61098592E+03 0.29888770E+03 0.0000E+00 0.0000E+00
       23  2    1    2    0    0 -.16360552E+02 -.13139160E+03 0.12456998E+03 0.20293428E+03 0.90184381E+02 0.0000E+00 0.0000E+00
       23  1    3    3    0    0 -.45511621E+02 -.10172978E+01 -.37396107E+03 0.38760093E+03 0.91188000E+02 0.0000E+00 0.9000E+01
      -11  1    4    4    0    0 -.40843822E+02 -.12825275E+03 0.11266892E+03 0.17553140E+03 0.51099893E-03 0.0000E+00 0.9000E+01
       11  1    4    4    0    0 0.24483271E+02 -.31388533E+01 0.11901057E+02 0.27402885E+02 0.51099893E-03 0.0000E+00 0.9000E+01
       23  1    3    3    0    0 0.61872173E+02 0.13240890E+03 -.14221575E+03 0.22338499E+03 0.91188000E+02 0.0000E+00 0.9000E+01
#aMCatNLO 1  0  0  2  1 0.20139082D+04 0.00000000D+00  -5  7  0 0.00000000D+00 0.00000000D+00 0.00000000D+00 0.00000000D+00 0.00000000D+00
  <mgrwgt>
 0.2981518024D-03    3    2    0
 0.356759783766590D+03 0.000000000000000D+00 0.000000000000000D+00 0.356759783766590D+03
 0.356759783766590D+03 0.000000000000000D+00 0.000000000000000D+00 -.356759783766590D+03
 0.236896808362282D+03 -.455116214245758D+02 -.101729778746163D+01 -.213851593140555D+03
 0.262067757112030D+03 -.408438224232832D+02 -.128252750640760D+03 0.224861120340232D+03
 0.377905500995847D+02 0.244832707854897D+02 -.313885325843395D+01 0.286154281585236D+02
 0.176764451959283D+03 0.618721730623693D+02 0.132408901686656D+03 -.396249553582009D+02
 0.000000000000000D+00 -.000000000000000D+00 0.000000000000000D+00 0.000000000000000D+00
 0.232245721847716D+04 0.000000000000000D+00 0.000000000000000D+00 0.232245721847716D+04
 0.187675281425432D+04 0.000000000000000D+00 0.000000000000000D+00 -.187675281425432D+04
 0.691150428023264D+03 0.619413977864245D+02 -.647923160694423D+03 -.213851593140555D+03
 0.112294943505976D+04 0.119519005160392D+03 -.109369470953546D+04 0.224861120340232D+03
 0.133223366950050D+03 0.442839457873910D+02 -.122346045781266D+03 0.286154281585236D+02
 0.189247996035104D+03 0.104250557549544D+03 -.122724230789084D+03 -.396249553582009D+02
 0.206263880666330D+04 -.329994906283751D+03 0.198668814680023D+04 0.445704404222843D+03
0.137299739499D-04 0.000000000000D+00 0.000000000000D+00 0.122962667359D-06 0.000000000000D+00  7 1 -1 23 -11 11 23 21 0 0.32485643D-01 0.92732849D-01 0.46973722D+05 0.46973722D+05 0.46973722D+05 0.11496881D+01  1  2  2  2  7  2       -1 0.288838141705D-03 0.100000000000D+01
-.532410073529D-06 0.000000000000D+00 -.527267151527D-07 0.122962667359D-06 0.000000000000D+00  7 1 -1 23 -11 11 23 21 2 0.32485643D-01 0.92732849D-01 0.46973722D+05 0.46973722D+05 0.46973722D+05 0.11496881D+01  1  2  3  2  7  2       -1 -.148044114822D-04 0.100000000000D+01
0.867356640013D-06 0.000000000000D+00 0.000000000000D+00 0.122962667359D-06 0.000000000000D+00  7 1 -1 23 -11 11 23 21 2 0.32485643D-01 0.92732849D-01 0.46973722D+05 0.46973722D+05 0.46973722D+05 0.11496881D+01  1  2 15  2  7  2       -1 0.241180722135D-04 0.100000000000D+01
  </mgrwgt>
  </event>
  <event>
  9     66 0.56006291E-06 0.17151721E+03 0.75467711E-02 0.10106244E+00
        1 -1    0    0  501    0 0.00000000E+00 0.00000000E+00 0.16682498E+03 0.16682529E+03 0.32000000E+00 0.0000E+00 0.9000E+01
       21 -1    0    0  502  501 0.00000000E+00 0.00000000E+00 -.16009360E+04 0.16009361E+04 0.75000000E+00 0.0000E+00 0.9000E+01
       25  2    1    2    0    0 -.10633455E+03 0.13716000E+03 -.51858054E+03 0.62399739E+03 0.30054462E+03 0.0000E+00 0.0000E+00
       23  2    1    2    0    0 -.71644050E+01 0.43662619E+02 0.77421854E+02 0.12811980E+03 0.91993409E+02 0.0000E+00 0.0000E+00
       23  1    3    3    0    0 -.99399402E+02 0.12805453E+03 -.13568203E+03 0.23022395E+03 0.91188000E+02 0.0000E+00 0.9000E+01
      -11  1    4    4    0    0 -.30762301E+02 -.14479580E+02 0.87711200E+01 0.35112817E+02 0.51099893E-03 0.0000E+00 0.9000E+01
       11  1    4    4    0    0 0.23597896E+02 0.58142199E+02 0.68650734E+02 0.93006985E+02 0.51099893E-03 0.0000E+00 0.9000E+01
       23  1    3    3    0    0 -.69351502E+01 0.91054728E+01 -.38289850E+03 0.39377344E+03 0.91188000E+02 0.0000E+00 0.9000E+01
        1  1    1    2  502    0 0.11349896E+03 -.18082262E+03 -.99295231E+03 0.10156442E+04 0.32000000E+00 0.0000E+00 0.9000E+01
#aMCatNLO 2  0  0  2  2 0.21349200D+03 0.00000000D+00  -5  7  0 0.00000000D+00 0.00000000D+00 0.00000000D+00 0.00000000D+00 0.00000000D+00
  <mgrwgt>
 0.9348811696D-05    1    2    0
 0.285254473335043D+03 0.000000000000000D+00 0.000000000000000D+00 0.285254473335043D+03
 0.285254473335043D+03 0.000000000000000D+00 0.000000000000000D+00 -.285254473335043D+03
 0.138229564518579D+03 -.682045840326882D+02 0.783560200814384D+02 -.793723453914026D+00
 0.515419714009914D+02 -.210208341969221D+02 -.299993480440585D+02 0.362593224219313D+02
 0.161965789212923D+03 0.550136473348330D+02 0.809170861851215D+01 0.152121463751559D+03
 0.218771621537592D+03 0.342117708947773D+02 -.564483806558920D+02 -.187587062719576D+03
 0.000000000000000D+00 0.000000000000000D+00 -.000000000000000D+00 -.000000000000000D+00
 0.326799103856909D+03 0.000000000000000D+00 0.000000000000000D+00 0.326799103856909D+03
 0.817249685988804D+03 0.000000000000000D+00 0.000000000000000D+00 -.817249685988804D+03
 0.185994850823586D+03 -.993994024939489D+02 0.128054527353830D+03 -.793723453914026D+00
 0.497062958602406D+02 -.307623008085532D+02 -.144795799183636D+02 0.362593224219313D+02
 0.164554901804305D+03 0.235978957808409D+02 0.581421988629946D+02 0.152121463751559D+03
 0.208890314252440D+03 -.693515024526793D+01 0.910547284880398D+01 -.187587062719576D+03
 0.534902427105141D+03 0.113498957766929D+03 -.180822619147265D+03 -.490450582131895D+03
0.672277527032D-06 0.000000000000D+00 0.000000000000D+00 0.274443844858D-06 0.699262952942D-11  7 1 21 23 -11 11 23 1 2 0.25665415D-01 0.24629784D+00 0.86476241D+05 0.86476241D+05 0.86476241D+05 0.11269375D+01  1  2  1  4  7  2       -1 0.934881169558D-05 0.100000000000D+01
  </mgrwgt>
  </event>
  <event>
  7     66 0.56006291E-06 0.39310864E+03 0.75467711E-02 0.89760320E-01
        1 -1    0    0  501    0 0.00000000E+00 0.00000000E+00 0.18530918E+04 0.18530918E+04 0.32000000E+00 0.0000E+00 0.9000E+01
       -1 -1    0    0    0  501 0.00000000E+00 0.00000000E+00 -.13830964E+03 0.13831001E+03 0.32000000E+00 0.0000E+00 0.9000E+01
       25  2    1    2    0    0 0.24595170E+03 0.22680755E+03 0.32281541E+03 0.55402277E+03 0.30132630E+03 0.0000E+00 0.0000E+00
       23  1    3    3    0    0 0.27764569E+03 0.16783233E+03 0.24736876E+03 0.41804471E+03 0.91188000E+02 0.0000E+00 0.9000E+01
      -11  1    1    2    0    0 -.22031982E+03 -.21509528E+03 0.10489764E+04 0.10932330E+04 0.51099893E-03 0.0000E+00 0.9000E+01
       11  1    1    2    0    0 -.25631881E+02 -.11712266E+02 0.34299029E+03 0.34414606E+03 0.51099893E-03 0.0000E+00 0.9000E+01
       23  1    3    3    0    0 -.31693992E+02 0.58975226E+02 0.75446647E+02 0.13597807E+03 0.91188000E+02 0.0000E+00 0.9000E+01
#aMCatNLO 1  0  0  2  2 0.59244491D+03 0.00000000D+00  -5  7  0 0.00000000D+00 0.00000000D+00 0.00000000D+00 0.00000000D+00 0.00000000D+00
  <mgrwgt>
 0.1901581128D-03    5    2    0
 0.506261651913176D+03 0.000000000000000D+00 0.000000000000000D+00 0.506261651913176D+03
 0.506261651913176D+03 0.000000000000000D+00 0.000000000000000D+00 -.506261651913176D+03
 0.403261294043895D+03 0.277645695056636D+03 0.167832325202255D+03 -.221471439611699D+03
 0.373621141793028D+03 -.220319821914791D+03 -.215095283849550D+03 0.211626918259097D+03
 0.959775099054856D+02 -.256318811971511D+02 -.117122669193843D+02 0.917469992836923D+02
 0.139663358083943D+03 -.316939919446938D+02 0.589752255666786D+02 -.819024779310906D+02
 0.000000000000000D+00 0.000000000000000D+00 0.000000000000000D+00 -.000000000000000D+00
 0.674141060417167D+03 0.000000000000000D+00 0.000000000000000D+00 0.674141060417167D+03
 0.158842046515665D+04 0.000000000000000D+00 0.000000000000000D+00 -.158842046515665D+04
 0.338949900172042D+03 0.238027300368050D+03 -.294140986341100D+02 -.221471439611699D+03
 0.581656436121798D+03 -.271311459354276D+03 -.468965189724271D+03 0.211626918259097D+03
 0.120872148851179D+03 -.372070708947175D+02 -.693411736688613D+02 0.917469992836923D+02
 0.131634645230798D+03 -.461755727364026D+02 -.131236074404267D+02 -.819024779310906D+02
 0.108944839519801D+04 0.116666802617346D+03 0.580844069467669D+03 -.914279404739487D+03
0.229392978323D-04 0.000000000000D+00 0.000000000000D+00 0.496714463086D-09 0.000000000000D+00  7 1 -1 23 -11 11 23 21 0 0.28509108D+00 0.21278437D-01 0.15453441D+06 0.15453441D+06 0.15453441D+06 0.11065327D+01  1  2  2  2  7  2       -1 0.191779016019D-03 0.100000000000D+01
-.117524944438D-05 0.000000000000D+00 -.880929437318D-07 0.496714463086D-09 0.000000000000D+00  7 1 -1 23 -11 11 23 21 2 0.28509108D+00 0.21278437D-01 0.15453441D+06 0.15453441D+06 0.15453441D+06 0.11065327D+01  1  2  3  2  7  2       -1 -.120303843898D-04 0.100000000000D+01
0.146137874051D-05 0.000000000000D+00 0.000000000000D+00 0.496714463086D-09 0.000000000000D+00  7 1 -1 23 -11 11 23 21 2 0.28509108D+00 0.21278437D-01 0.15453441D+06 0.15453441D+06 0.15453441D+06 0.11065327D+01  1  2 15  2  7  2       -1 0.149593331623D-04 0.100000000000D+01
-.266754338900D-05 0.000000000000D+00 -.836386678979D-05 0.496714463086D-09 0.000000000000D+00  7 1 -1 23 -11 11 23 21 2 0.28509108D+00 0.88009388D-01 0.15453441D+06 0.15453441D+06 0.15453441D+06 0.11065327D+01  1  2  5  2  7  2       -1 -.214323420707D-05 0.100000000000D+01
-.403021838250D-06 0.000000000000D+00 -.142303440047D-05 0.496714463086D-09 0.000000000000D+00  7 1 21 23 -11 11 23 1 2 0.28509108D+00 0.88009388D-01 0.15453441D+06 0.15453441D+06 0.15453441D+06 0.11065327D+01  1  2  5  4  7  2       -1 -.240661775431D-05 0.100000000000D+01
  </mgrwgt>
  </event>
  <event>
  9     66 0.56006291E-06 0.18713872E+03 0.75467711E-02 0.10632363E+00
        3 -1    0    0  501    0 0.00000000E+00 0.00000000E+00 0.73609774E+02 0.73611472E+02 0.50000000E+00 0.0000E+00 0.9000E+01
       21 -1    0    0  502  501 0.00000000E+00 0.00000000E+00 -.10309667E+04 0.10309670E+04 0.75000000E+00 0.0000E+00 0.9000E+01
       25  2    1    2    0    0 0.48823206E+02 0.11783140E+03 -.76991967E+03 0.83573077E+03 0.29900114E+03 0.0000E+00 0.0000E+00
       23  2    1    2    0    0 -.61964237E+02 -.97829144E+02 -.19501282E+03 0.24373957E+03 0.89268532E+02 0.0000E+00 0.0000E+00
       23  1    3    3    0    0 0.14907646E+02 0.96891534E+02 -.70339744E+03 0.71602613E+03 0.91188000E+02 0.0000E+00 0.9000E+01
      -13  1    4    4    0    0 0.16860669E+02 0.33854528E+00 -.44055800E+02 0.47173312E+02 0.10565837E+00 0.0000E+00 0.9000E+01
       13  1    4    4    0    0 -.78824906E+02 -.98167689E+02 -.15095702E+03 0.19656626E+03 0.10565837E+00 0.0000E+00 0.9000E+01
       23  1    3    3    0    0 0.33915560E+02 0.20939867E+02 -.66522225E+02 0.11970464E+03 0.91188000E+02 0.0000E+00 0.9000E+01
        3  1    1    2  502    0 0.13141031E+02 -.20002257E+02 0.75755699E+01 0.25108091E+02 0.50000000E+00 0.0000E+00 0.9000E+01
#aMCatNLO 2  0  0  2  2 0.23932760D+02 0.00000000D+00  -5  7  0 0.00000000D+00 0.00000000D+00 0.00000000D+00 0.00000000D+00 0.00000000D+00
  <mgrwgt>
 0.1695003427D-04    1    2    0
 0.241655095986531D+03 0.000000000000000D+00 0.000000000000000D+00 0.241655095986531D+03
 0.241655095986531D+03 0.000000000000000D+00 0.000000000000000D+00 -.241655095986531D+03
 0.191296986182093D+03 0.201514929055136D+02 0.889097612069327D+02 -.141309084188375D+03
 0.178478163077054D+02 0.173394530406479D+02 -.389883150131293D+00 -.421140194400934D+01
 0.139562406433339D+03 -.750610814770126D+02 -.103897037775290D+03 0.552168894314571D+02
 0.134602983049924D+03 0.375701355308511D+02 0.153771597184884D+02 0.903035967009272D+02
 0.000000000000000D+00 0.000000000000000D+00 -.000000000000000D+00 0.000000000000000D+00
 0.310991453652157D+03 0.000000000000000D+00 0.000000000000000D+00 0.310991453652157D+03
 0.244025261498762D+03 0.000000000000000D+00 0.000000000000000D+00 -.244025261498762D+03
 0.194663083927572D+03 0.149076474084337D+02 0.968915356198951D+02 -.141309084188375D+03
 0.173820957842958D+02 0.168608019308746D+02 0.338682400255705D+00 -.421140194400934D+01
 0.137474415470310D+03 -.788250415432755D+02 -.981678300469082D+02 0.552168894314571D+02
 0.134382790284149D+03 0.339155610152136D+02 0.209398692558735D+02 0.903035967009272D+02
 0.711143296845925D+02 0.131410311887536D+02 -.200022572291161D+02 0.669661921533948D+02
0.142442422251D-06 0.000000000000D+00 0.000000000000D+00 0.212637151791D-07 0.567306987573D-12  7 3 21 23 -13 13 23 3 2 0.11324692D-01 0.15860984D+00 0.40019960D+05 0.40019960D+05 0.40019960D+05 0.11558989D+01  1  2  1  4  7  2       -3 0.169500342680D-04 0.100000000000D+01
  </mgrwgt>
  </event>
  <event>
  9     66 -.56006291E-06 0.41955656E+03 0.75467711E-02 0.96466459E-01
        1 -1    0    0  501    0 0.00000000E+00 0.00000000E+00 0.61799558E+03 0.61799567E+03 0.32000000E+00 0.0000E+00 0.9000E+01
       -1 -1    0    0    0  502 0.00000000E+00 0.00000000E+00 -.54260204E+03 0.54260214E+03 0.32000000E+00 0.0000E+00 0.9000E+01
       25  2    1    2    0    0 -.20816280E+03 0.31116916E+03 -.31797715E+03 0.57495495E+03 0.29884065E+03 0.0000E+00 0.0000E+00
       23  2    1    2    0    0 0.20073810E+03 -.29885661E+03 0.41671092E+03 0.55821925E+03 0.91376620E+02 0.0000E+00 0.0000E+00
       23  1    3    3    0    0 -.13580217E+03 0.20660671E+02 -.90757960E+02 0.18820561E+03 0.91188000E+02 0.0000E+00 0.9000E+01
      -13  1    4    4    0    0 0.98142301E+02 -.16502157E+03 0.15441047E+03 0.24638716E+03 0.10565837E+00 0.0000E+00 0.9000E+01
       13  1    4    4    0    0 0.10259580E+03 -.13383504E+03 0.26230045E+03 0.31183209E+03 0.10565837E+00 0.0000E+00 0.9000E+01
       23  1    3    3    0    0 -.72360630E+02 0.29050849E+03 -.22721919E+03 0.38674934E+03 0.91188000E+02 0.0000E+00 0.9000E+01
       21  1    1    2  501  502 0.74246981E+01 -.12312550E+02 -.23340231E+02 0.27423601E+02 0.75000000E+00 0.0000E+00 0.9000E+01
#aMCatNLO 2  0  0  2  1 0.14377936D+02 0.00000000D+00  -5  7  0 0.00000000D+00 0.00000000D+00 0.00000000D+00 0.00000000D+00 0.00000000D+00
  <mgrwgt>
 -.1055526044D-03    3    2    0
 0.564386545482238D+03 0.000000000000000D+00 0.000000000000000D+00 0.564386545482238D+03
 0.564386545482238D+03 0.000000000000000D+00 0.000000000000000D+00 -.564386545482238D+03
 0.195759399449697D+03 -.134510957045996D+03 0.185194188842282D+02 -.107565443743177D+03
 0.236287060275441D+03 0.996883455766515D+02 -.167585460027091D+03 0.133450073800311D+03
 0.292239290488204D+03 0.104510886606751D+03 -.137010816662283D+03 0.236028205101115D+03
 0.404487340751134D+03 -.696882751374064D+02 0.286076857805145D+03 -.261912835158248D+03
 0.000000000000000D+00 0.000000000000000D+00 -.000000000000000D+00 -.000000000000000D+00
 0.566298493981151D+03 0.000000000000000D+00 0.000000000000000D+00 0.566298493981151D+03
 0.592126159313684D+03 0.000000000000000D+00 0.000000000000000D+00 -.592126159313684D+03
 0.196862056503448D+03 -.135802172067624D+03 0.206606708704112D+02 -.107565443743177D+03
 0.233822504589464D+03 0.981422952455745D+02 -.165021608703564D+03 0.133450073800311D+03
 0.290081057917983D+03 0.102595808431932D+03 -.133834997858411D+03 0.236028205101115D+03
 0.408099038915445D+03 -.723606297015457D+02 0.290508485707860D+03 -.261912835158248D+03
 0.295599953684949D+02 0.742469809166256D+01 -.123125500162965D+02 -.258276653325325D+02
-.151461223824D-03 0.000000000000D+00 0.000000000000D+00 0.585652784404D-06 0.000000000000D+00  7 1 -1 23 -13 13 23 21 2 0.94754465D-01 0.83607563D-01 0.18183985D+06 0.18183985D+06 0.18183985D+06 0.11010147D+01  1  2 13  2  7  2       -1 -.109917253147D-02 0.100000000000D+01
-.153187419052D-03 0.000000000000D+00 0.000000000000D+00 0.585652784404D-06 0.000000000000D+00  7 1 -1 23 -13 13 23 21 2 0.94754465D-01 0.79565887D-01 0.17602771D+06 0.17602771D+06 0.17602771D+06 0.11021096D+01  1  2  8  2  7  2       -1 -.123440001866D-02 0.100000000000D+01
0.307531070014D-03 0.000000000000D+00 0.000000000000D+00 0.585652784404D-06 0.183369965073D-07  7 1 -1 23 -13 13 23 21 2 0.95075461D-01 0.83476552D-01 0.18183985D+06 0.18183985D+06 0.18183985D+06 0.11010147D+01  1  2  1  2  7  2       -1 0.222801994575D-02 0.100000000000D+01
  </mgrwgt>
  </event>
  <event>
  8     66 0.56006291E-06 0.20824014E+03 0.75467711E-02 0.96414089E-01
        1 -1    0    0  501    0 0.00000000E+00 0.00000000E+00 0.69288333E+03 0.69288340E+03 0.32000000E+00 0.0000E+00 0.9000E+01
       -1 -1    0    0    0  501 0.00000000E+00 0.00000000E+00 -.35001068E+03 0.35001083E+03 0.32000000E+00 0.0000E+00 0.9000E+01
       25  2    1    2    0    0 0.35467157E+03 -.59188961E+02 0.45687091E+03 0.65423134E+03 0.29998727E+03 0.0000E+00 0.0000E+00
       23  2    1    2    0    0 -.35467157E+03 0.59188961E+02 -.11399827E+03 0.38866289E+03 0.93637531E+02 0.0000E+00 0.0000E+00
       23  1    3    3    0    0 0.23677647E+03 -.61488419E+02 0.12300292E+03 0.28859815E+03 0.91188000E+02 0.0000E+00 0.9000E+01
      -11  1    4    4    0    0 -.24865517E+03 0.84399123E+02 -.81705268E+02 0.27500610E+03 0.51099893E-03 0.0000E+00 0.9000E+01
       11  1    4    4    0    0 -.10601640E+03 -.25210162E+02 -.32292998E+02 0.11365679E+03 0.51099893E-03 0.0000E+00 0.9000E+01
       23  1    3    3    0    0 0.11789509E+03 0.22994582E+01 0.33386800E+03 0.36563319E+03 0.91188000E+02 0.0000E+00 0.9000E+01
#aMCatNLO 1  0  0  1  2 0.72168174D+02 0.00000000D+00  -5  7  0 0.00000000D+00 0.00000000D+00 0.00000000D+00 0.00000000D+00 0.00000000D+00
  <mgrwgt>
 0.1978040693D-03    9    2    0
 0.492459828946717D+03 0.000000000000000D+00 0.000000000000000D+00 0.492459828946717D+03
 0.492459828946717D+03 0.000000000000000D+00 0.000000000000000D+00 -.492459828946717D+03
 0.262765606719375D+03 0.236776472265525D+03 -.614884190951513D+02 0.297756482594936D+02
 0.319637014865141D+03 -.248655169550249D+03 0.843991225108652D+02 -.182250421253919D+03
 0.131588802409492D+03 -.106016396381375D+03 -.252101616127102D+02 -.737603170365511D+02
 0.270928233899426D+03 0.117895093666099D+03 0.229945819699628D+01 0.226235090030976D+03
 0.000000000000000D+00 -.000000000000000D+00 0.000000000000000D+00 0.000000000000000D+00
 0.538932174784750D+03 0.000000000000000D+00 0.000000000000000D+00 0.538932174784750D+03
 0.522617272153922D+03 0.000000000000000D+00 0.000000000000000D+00 -.522617272153922D+03
 0.273095789411358D+03 0.242809782334565D+03 -.801428675777268D+02 0.297756482594936D+02
 0.309003064552019D+03 -.241577256216064D+03 0.625148553099703D+02 -.182250421253919D+03
 0.131308670074340D+03 -.103056410871476D+03 -.343621688146854D+02 -.737603170365511D+02
 0.274152589529935D+03 0.124032206069013D+03 -.166759377037417D+02 0.226235090030976D+03
 0.739893333710210D+02 -.222083213160382D+02 0.686661187861837D+02 0.163149026308279D+02
0.897993479764D-05 0.000000000000D+00 0.000000000000D+00 0.307964181487D-06 0.000000000000D+00  7 1 -1 23 -11 11 23 21 0 0.10659745D+00 0.53847814D-01 0.15276257D+06 0.15276257D+06 0.15276257D+06 0.11069270D+01  1  2  2  1  7  1        1 0.106395290828D-03 0.100000000000D+01
-.466491978713D-06 0.000000000000D+00 -.344853140941D-07 0.307964181487D-06 0.000000000000D+00  7 1 -1 23 -11 11 23 21 2 0.10659745D+00 0.53847814D-01 0.15276257D+06 0.15276257D+06 0.15276257D+06 0.11069270D+01  1  2  3  1  7  1        1 -.677222467074D-05 0.100000000000D+01
0.564575693699D-06 0.000000000000D+00 0.000000000000D+00 0.307964181487D-06 0.000000000000D+00  7 1 -1 23 -11 11 23 21 2 0.10659745D+00 0.53847814D-01 0.15276257D+06 0.15276257D+06 0.15276257D+06 0.11069270D+01  1  2 15  1  7  1        1 0.819613973196D-05 0.100000000000D+01
0.135923805017D-04 0.000000000000D+00 0.000000000000D+00 0.307964181487D-06 0.000000000000D+00  7 1 -1 23 -11 11 23 21 2 0.11966569D+00 0.53847814D-01 0.18346279D+06 0.18346279D+06 0.18346279D+06 0.11007158D+01  1  2 12  1  7  1        1 0.162442803700D-03 0.100000000000D+01
-.122547167805D-04 0.000000000000D+00 0.000000000000D+00 0.307964181487D-06 0.000000000000D+00  7 1 -1 23 -11 11 23 21 2 0.10659745D+00 0.53847814D-01 0.15276257D+06 0.15276257D+06 0.15276257D+06 0.11069270D+01  1  2  4  1  7  1        1 -.177905942869D-03 0.100000000000D+01
-.372358760821D-04 0.000000000000D+00 -.908620059050D-05 0.307964181487D-06 0.000000000000D+00  7 1 -1 23 -11 11 23 21 2 0.12200614D+00 0.53847814D-01 0.15276257D+06 0.15276257D+06 0.15276257D+06 0.11069270D+01  1  2  5  1  7  1        1 -.439070690714D-03 0.100000000000D+01
0.381961560050D-04 0.000000000000D+00 0.900401246720D-05 0.307964181487D-06 0.000000000000D+00  7 1 -1 23 -11 11 23 21 2 0.10659745D+00 0.53847814D-01 0.15276257D+06 0.15276257D+06 0.15276257D+06 0.11069270D+01  1  2  6  1  7  1        1 0.554506747872D-03 0.100000000000D+01
0.249978432824D-06 0.000000000000D+00 0.000000000000D+00 0.307964181487D-06 0.000000000000D+00  7 21 -1 23 -11 11 23 -1 2 0.11966569D+00 0.53847814D-01 0.18346279D+06 0.18346279D+06 0.18346279D+06 0.11007158D+01  1  2 12  3  7  1        1 0.547140836297D-05 0.100000000000D+01
-.727239637296D-06 0.000000000000D+00 -.190181171583D-06 0.307964181487D-06 0.000000000000D+00  7 21 -1 23 -11 11 23 -1 2 0.12200614D+00 0.53847814D-01 0.15276257D+06 0.15276257D+06 0.15276257D+06 0.11069270D+01  1  2  5  3  7  1        1 -.154594628959D-04 0.100000000000D+01
  </mgrwgt>
  </event>
  <event>
  8     66 0.56006291E-06 0.26600370E+03 0.75467711E-02 0.86225592E-01
        1 -1    0    0  501    0 0.00000000E+00 0.00000000E+00 0.99132812E+03 0.99132817E+03 0.32000000E+00 0.0000E+00 0.9000E+01
       -1 -1    0    0    0  501 0.00000000E+00 0.00000000E+00 -.16439372E+03 0.16439403E+03 0.32000000E+00 0.0000E+00 0.9000E+01
       25  2    1    2    0    0 0.13624824E+03 -.10205737E+03 0.88744860E+03 0.95260212E+03 0.30150704E+03 0.0000E+00 0.0000E+00
       23  2    1    2    0    0 -.13624824E+03 0.10205737E+03 -.60514190E+02 0.20312008E+03 0.92825160E+02 0.0000E+00 0.0000E+00
       23  1    3    3    0    0 0.12726625E+03 0.50348601E+02 0.35504699E+03 0.39128672E+03 0.91188000E+02 0.0000E+00 0.9000E+01
      -13  1    4    4    0    0 -.10696707E+02 -.14758119E+02 0.59891237E+01 0.19185995E+02 0.10565837E+00 0.0000E+00 0.9000E+01
       13  1    4    4    0    0 -.12555153E+03 0.11681549E+03 -.66503313E+02 0.18393409E+03 0.10565837E+00 0.0000E+00 0.9000E+01
       23  1    3    3    0    0 0.89819918E+01 -.15240597E+03 0.53240161E+03 0.56131540E+03 0.91188000E+02 0.0000E+00 0.9000E+01
#aMCatNLO 1  0  0  2  2 0.10766902D+04 0.00000000D+00  -5  7  0 0.00000000D+00 0.00000000D+00 0.00000000D+00 0.00000000D+00 0.00000000D+00
  <mgrwgt>
 0.2450511486D-03    5    2    0
 0.403693352480940D+03 0.000000000000000D+00 0.000000000000000D+00 0.403693352480940D+03
 0.403693352480940D+03 0.000000000000000D+00 0.000000000000000D+00 -.403693352480940D+03
 0.196458741426895D+03 0.127266249302212D+03 0.503486011636961D+02 0.107466766437099D+03
 0.213289899877168D+02 -.106965579805542D+02 -.147582893862789D+02 -.110771095352357D+02
 0.331403661185361D+03 -.125551683188434D+03 0.116815660353682D+03 -.283582903207768D+03
 0.258195312361908D+03 0.898199186677600D+01 -.152405972131099D+03 0.187193246305904D+03
 0.000000000000000D+00 -.000000000000000D+00 -.000000000000000D+00 -.000000000000000D+00
 0.858642599386480D+03 0.000000000000000D+00 0.000000000000000D+00 0.858642599386480D+03
 0.223313282545463D+04 0.000000000000000D+00 0.000000000000000D+00 -.223313282545463D+04
 0.506008354536835D+03 0.419983734330027D+03 0.244527627328354D+03 0.107466766437099D+03
 0.127857352192106D+02 0.351902111541299D+01 -.532814787983871D+01 -.110771095352357D+02
 0.498989073714162D+03 0.220472314720940D+03 0.346356450980723D+03 -.283582903207768D+03
 0.328001061441830D+03 0.253249558644188D+03 0.963299262681895D+01 0.187193246305904D+03
 0.174599119992908D+04 -.897224628810567D+03 -.595188923056058D+03 -.137449022606815D+04
0.936008507352D-05 0.000000000000D+00 0.000000000000D+00 0.743601944666D-07 0.000000000000D+00  7 1 -1 23 -13 13 23 21 0 0.15251205D+00 0.25291369D-01 0.70757966D+05 0.70757966D+05 0.70757966D+05 0.11342622D+01  1  2  2  2  7  2       -1 0.233549045579D-03 0.100000000000D+01
-.409986758303D-06 0.000000000000D+00 -.359451912493D-07 0.743601944666D-07 0.000000000000D+00  7 1 -1 23 -13 13 23 21 2 0.15251205D+00 0.25291369D-01 0.70757966D+05 0.70757966D+05 0.70757966D+05 0.11342622D+01  1  2  3  2  7  2       -1 -.131611870901D-04 0.100000000000D+01
0.587974825848D-06 0.000000000000D+00 0.000000000000D+00 0.743601944666D-07 0.000000000000D+00  7 1 -1 23 -13 13 23 21 2 0.15251205D+00 0.25291369D-01 0.70757966D+05 0.70757966D+05 0.70757966D+05 0.11342622D+01  1  2 15  2  7  2       -1 0.188748698111D-04 0.100000000000D+01
0.148976533932D-04 0.000000000000D+00 -.651984473662D-05 0.743601944666D-07 0.000000000000D+00  7 1 -1 23 -13 13 23 21 2 0.15251205D+00 0.24911711D+00 0.70757966D+05 0.70757966D+05 0.70757966D+05 0.11342622D+01  1  2  5  2  7  2       -1 0.228218691783D-05 0.100000000000D+01
0.303815101553D-05 0.000000000000D+00 -.177764289052D-05 0.743601944666D-07 0.000000000000D+00  7 1 21 23 -13 13 23 1 2 0.15251205D+00 0.24911711D+00 0.70757966D+05 0.70757966D+05 0.70757966D+05 0.11342622D+01  1  2  5  4  7  2       -1 0.350623340250D-05 0.100000000000D+01
  </mgrwgt>
  </event>
  <event>
  8     66 0.56006291E-06 0.42765877E+03 0.75467711E-02 0.89437643E-01
        1 -1    0    0  501    0 0.00000000E+00 0.00000000E+00 0.10468113E+04 0.10468113E+04 0.32000000E+00 0.0000E+00 0.9000E+01
       -1 -1    0    0    0  501 0.00000000E+00 0.00000000E+00 -.17760575E+03 0.17760604E+03 0.32000000E+00 0.0000E+00 0.9000E+01
       25  2    1    2    0    0 -.36960296E+03 0.45732284E+02 0.45550786E+03 0.66051945E+03 0.30016784E+03 0.0000E+00 0.0000E+00
       23  2    1    2    0    0 0.36960296E+03 -.45732284E+02 0.41369764E+03 0.56389789E+03 0.90206993E+02 0.0000E+00 0.0000E+00
       23  1    3    3    0    0 -.23744938E+03 0.14127125E+03 0.29255817E+03 0.41260794E+03 0.91188000E+02 0.0000E+00 0.9000E+01
      -13  1    4    4    0    0 0.25921272E+03 -.60426357E+02 0.24499350E+03 0.36175186E+03 0.10565837E+00 0.0000E+00 0.9000E+01
       13  1    4    4    0    0 0.11039024E+03 0.14694073E+02 0.16870414E+03 0.20214603E+03 0.10565837E+00 0.0000E+00 0.9000E+01
       23  1    3    3    0    0 -.13215358E+03 -.95538965E+02 0.16294969E+03 0.24791151E+03 0.91188000E+02 0.0000E+00 0.9000E+01
#aMCatNLO 1  0  0  1  2 0.58547373D+03 0.00000000D+00  -5  7  0 0.00000000D+00 0.00000000D+00 0.00000000D+00 0.00000000D+00 0.00000000D+00
  <mgrwgt>
 0.1480009892D-03    5    2    0
 0.431184300954055D+03 0.000000000000000D+00 0.000000000000000D+00 0.431184300954055D+03
 0.431184300954055D+03 0.000000000000000D+00 0.000000000000000D+00 -.431184300954055D+03
 0.290955788402831D+03 -.237449378726033D+03 0.141271249459053D+03 -.496064523927810D+00
 0.266690741403147D+03 0.259212924055387D+03 -.604264600895480D+02 -.167706432155209D+02
 0.116971286853844D+03 0.110390038159438D+03 0.146941759992720D+02 0.357827139147435D+02
 0.187750785248289D+03 -.132153583488793D+03 -.955389653687769D+02 -.185160061752948D+02
 0.000000000000000D+00 -.000000000000000D+00 0.000000000000000D+00 0.000000000000000D+00
 0.172806994367330D+04 0.000000000000000D+00 0.000000000000000D+00 0.172806994367330D+04
 0.592170671654952D+03 0.000000000000000D+00 0.000000000000000D+00 -.592170671654952D+03
 0.171585007327437D+03 -.998023786411877D+02 0.105666468347843D+03 -.496064523927810D+00
 0.502994717945127D+03 0.488262762396562D+03 -.119674168740435D+03 -.167706432155209D+02
 0.211440614799637D+03 0.208121770088922D+03 -.105858295280831D+02 0.357827139147435D+02
 0.156313142595429D+03 -.297639825232720D+02 -.122023809413285D+03 -.185160061752948D+02
 0.127790713266063D+04 -.566818171321025D+03 0.146617339333960D+03 0.113589927201835D+04
0.750182515025D-05 0.000000000000D+00 0.000000000000D+00 0.645058816027D-06 0.000000000000D+00  7 1 -1 23 -13 13 23 21 0 0.16104791D+00 0.27323987D-01 0.18289202D+06 0.18289202D+06 0.18289202D+06 0.11008205D+01  1  2  2  1  7  1        1 0.146554763591D-03 0.100000000000D+01
-.416733908223D-06 0.000000000000D+00 -.288089838529D-07 0.645058816027D-06 0.000000000000D+00  7 1 -1 23 -13 13 23 21 2 0.16104791D+00 0.27323987D-01 0.18289202D+06 0.18289202D+06 0.18289202D+06 0.11008205D+01  1  2  3  1  7  1        1 -.986563155613D-05 0.100000000000D+01
0.487541215957D-06 0.000000000000D+00 0.000000000000D+00 0.645058816027D-06 0.000000000000D+00  7 1 -1 23 -13 13 23 21 2 0.16104791D+00 0.27323987D-01 0.18289202D+06 0.18289202D+06 0.18289202D+06 0.11008205D+01  1  2 15  1  7  1        1 0.115419021830D-04 0.100000000000D+01
-.329243212871D-05 0.000000000000D+00 -.259240132722D-05 0.645058816027D-06 0.000000000000D+00  7 1 -1 23 -13 13 23 21 2 0.67380364D+00 0.27323987D-01 0.18289202D+06 0.18289202D+06 0.18289202D+06 0.11008205D+01  1  2  5  1  7  1        1 -.227713239092D-06 0.100000000000D+01
-.554805394074D-06 0.000000000000D+00 -.445242262247D-06 0.645058816027D-06 0.000000000000D+00  7 21 -1 23 -13 13 23 -1 2 0.67380364D+00 0.27323987D-01 0.18289202D+06 0.18289202D+06 0.18289202D+06 0.11008205D+01  1  2  5  3  7  1        1 -.233174415199D-08 0.100000000000D+01
  </mgrwgt>
  </event>
  <event>
  9     66 0.56006291E-06 0.23656376E+03 0.75467711E-02 0.97992673E-01
        3 -1    0    0  501    0 0.00000000E+00 0.00000000E+00 0.43506333E+03 0.43506362E+03 0.50000000E+00 0.0000E+00 0.9000E+01
       21 -1    0    0  502  501 0.00000000E+00 0.00000000E+00 -.51097718E+03 0.51097773E+03 0.75000000E+00 0.0000E+00 0.9000E+01
       25  2    1    2    0    0 0.19340327E+03 -.19999367E+03 0.20021019E+03 0.45602442E+03 0.30078541E+03 0.0000E+00 0.0000E+00
       23  2    1    2    0    0 0.21480051E+02 0.14959808E+03 -.73015073E+02 0.19007016E+03 0.89187939E+02 0.0000E+00 0.0000E+00
       23  1    3    3    0    0 0.63083000E+01 -.11148128E+03 -.13578157E+02 0.14480155E+03 0.91188000E+02 0.0000E+00 0.9000E+01
      -13  1    4    4    0    0 0.30528605E+02 0.42408282E+02 -.63270404E+02 0.82058597E+02 0.10565837E+00 0.0000E+00 0.9000E+01
       13  1    4    4    0    0 -.90485539E+01 0.10718980E+03 -.97446684E+01 0.10801157E+03 0.10565837E+00 0.0000E+00 0.9000E+01
       23  1    3    3    0    0 0.18709497E+03 -.88512394E+02 0.21378835E+03 0.31122288E+03 0.91188000E+02 0.0000E+00 0.9000E+01
        3  1    1    2  502    0 -.21488332E+03 0.50395595E+02 -.20310896E+03 0.29994676E+03 0.50000000E+00 0.0000E+00 0.9000E+01
#aMCatNLO 2  0  0  2  1 0.22071374D+03 0.00000000D+00  -5  7  0 0.00000000D+00 0.00000000D+00 0.00000000D+00 0.00000000D+00 0.00000000D+00
  <mgrwgt>
 0.3882798046D-05    2    2    0
 0.296877526350619D+03 0.000000000000000D+00 0.000000000000000D+00 0.296877526350619D+03
 0.296877526350619D+03 0.000000000000000D+00 0.000000000000000D+00 -.296877526350619D+03
 0.148729441075698D+03 -.460723785155219D+02 -.991966808383308D+02 -.429249315348372D+02
 0.953968709949730D+02 -.305509256585247D+01 0.502844348068538D+02 -.810105241385393D+02
 0.131992933387574D+03 -.517934538658267D+02 0.117214639950034D+03 -.316275320296909D+02
 0.217635807242992D+03 0.100920924947201D+03 -.683023939185565D+02 0.155562987703067D+03
 0.000000000000000D+00 -.000000000000000D+00 0.000000000000000D+00 -.000000000000000D+00
 0.356388102679293D+03 0.000000000000000D+00 0.000000000000000D+00 0.356388102679293D+03
 0.623779583022569D+03 0.000000000000000D+00 0.000000000000000D+00 -.623779583022569D+03
 0.150418322088079D+03 0.630830123562905D+01 -.111481280330122D+03 -.429249315348372D+02
 0.964010314334720D+02 0.305286601515182D+02 0.424081920103828D+02 -.810105241385393D+02
 0.112124262758398D+03 -.904860918493757D+01 0.107189888462688D+03 -.316275320296909D+02
 0.274506949912220D+03 0.187094967773930D+03 -.885123951584044D+02 0.155562987703067D+03
 0.346717119509693D+03 -.214883319976140D+03 0.503955950154562D+02 -.267391480343276D+03
-.801232019931D-09 0.000000000000D+00 0.000000000000D+00 0.539396601161D-07 0.000000000000D+00  7 3 21 23 -13 13 23 3 2 0.55756238D-01 0.78608083D-01 0.14095337D+06 0.14095337D+06 0.14095337D+06 0.11096902D+01  1  2 13  4  7  2       -3 -.295903904342D-07 0.100000000000D+01
0.155506096427D-06 0.000000000000D+00 0.000000000000D+00 0.539396601161D-07 0.777754930688D-12  7 3 21 23 -13 13 23 3 2 0.66932853D-01 0.78611901D-01 0.14095337D+06 0.14095337D+06 0.14095337D+06 0.11096902D+01  1  2  1  4  7  2       -3 0.391238843596D-05 0.100000000000D+01
  </mgrwgt>
  </event>
  <event>
  8     66 0.56006291E-06 0.74951024E+03 0.75467711E-02 0.88404712E-01
        1 -1    0    0  501    0 0.00000000E+00 0.00000000E+00 0.33380233E+04 0.33380234E+04 0.32000000E+00 0.0000E+00 0.9000E+01
       -1 -1    0    0    0  501 0.00000000E+00 0.00000000E+00 -.21907231E+03 0.21907254E+03 0.32000000E+00 0.0000E+00 0.9000E+01
       25  2    1    2    0    0 0.71881805E+03 0.11259076E+03 0.78334656E+03 0.11092628E+04 0.29572986E+03 0.0000E+00 0.0000E+00
       23  2    1    2    0    0 -.71881805E+03 -.11259076E+03 0.23356045E+04 0.24478331E+04 0.86384958E+02 0.0000E+00 0.0000E+00
       23  1    3    3    0    0 0.44533365E+03 -.17675730E+02 0.35648735E+03 0.57795586E+03 0.91188000E+02 0.0000E+00 0.9000E+01
      -13  1    4    4    0    0 -.39870630E+03 -.70343078E+02 0.14385869E+04 0.14944722E+04 0.10565837E+00 0.0000E+00 0.9000E+01
       13  1    4    4    0    0 -.32011175E+03 -.42247681E+02 0.89701759E+03 0.95336088E+03 0.10565837E+00 0.0000E+00 0.9000E+01
       23  1    3    3    0    0 0.27348440E+03 0.13026649E+03 0.42685921E+03 0.53130699E+03 0.91188000E+02 0.0000E+00 0.9000E+01
#aMCatNLO 1  0  0  1  2 0.27830547D+03 0.00000000D+00  -5  7  0 0.00000000D+00 0.00000000D+00 0.00000000D+00 0.00000000D+00 0.00000000D+00
  <mgrwgt>
 0.6191787421D-03    4    2    0
 0.855142633462120D+03 0.000000000000000D+00 0.000000000000000D+00 0.855142633462120D+03
 0.855142633462120D+03 0.000000000000000D+00 0.000000000000000D+00 -.855142633462120D+03
 0.551941733689894D+03 0.445333648428715D+03 -.176757300001546D+02 -.312553893258006D+03
 0.484772442872978D+03 -.398706416779801D+03 -.703431204068460D+02 0.266625880212469D+03
 0.346984095206556D+03 -.320111633866520D+03 -.422476386208627D+02 0.127049758837161D+03
 0.326586995154811D+03 0.273484402217606D+03 0.130266489027863D+03 -.811217457916236D+02
 0.000000000000000D+00 -.000000000000000D+00 0.000000000000000D+00 -.000000000000000D+00
 0.932670561732418D+03 0.000000000000000D+00 0.000000000000000D+00 0.932670561732418D+03
 0.115853664684434D+04 0.000000000000000D+00 0.000000000000000D+00 -.115853664684434D+04
 0.625709965606096D+03 0.531054626718497D+03 -.590657004099863D+02 -.312553893258006D+03
 0.437700616496975D+03 -.331559829089712D+03 -.102764533846842D+03 0.266625880212469D+03
 0.307629070259324D+03 -.272462502142215D+03 -.652547973289223D+02 0.127049758837161D+03
 0.361741242169348D+03 0.323587645751480D+03 0.106074373997477D+03 -.811217457916236D+02
 0.358426314045018D+03 -.250619941238051D+03 0.121010657588274D+03 -.225866085111925D+03
0.232756524203D-02 0.000000000000D+00 0.000000000000D+00 0.618634384865D-08 0.000000000000D+00  7 1 -1 23 -13 13 23 21 0 0.51354207D+00 0.33703451D-01 0.56176560D+06 0.56176560D+06 0.56176560D+06 0.10649536D+01  1  2  2  1  7  1        1 0.739882489358D-03 0.100000000000D+01
-.126576052496D-03 0.000000000000D+00 -.893846339141D-05 0.618634384865D-08 0.000000000000D+00  7 1 -1 23 -13 13 23 21 2 0.51354207D+00 0.33703451D-01 0.56176560D+06 0.56176560D+06 0.56176560D+06 0.10649536D+01  1  2  3  1  7  1        1 -.456324494733D-04 0.100000000000D+01
0.141288260565D-03 0.000000000000D+00 0.000000000000D+00 0.618634384865D-08 0.000000000000D+00  7 1 -1 23 -13 13 23 21 2 0.51354207D+00 0.33703451D-01 0.56176560D+06 0.56176560D+06 0.56176560D+06 0.10649536D+01  1  2 15  1  7  1        1 0.509364076719D-04 0.100000000000D+01
-.349522283547D-03 0.000000000000D+00 0.000000000000D+00 0.618634384865D-08 0.000000000000D+00  7 1 -1 23 -13 13 23 21 2 0.51354207D+00 0.33703451D-01 0.56176560D+06 0.56176560D+06 0.56176560D+06 0.10649536D+01  1  2  4  1  7  1        1 -.126007705481D-03 0.100000000000D+01
  </mgrwgt>
  </event>
  <event>
  8     66 0.56006291E-06 0.25566827E+03 0.75467711E-02 0.88349658E-01
        1 -1    0    0  501    0 0.00000000E+00 0.00000000E+00 0.58206484E+03 0.58206493E+03 0.32000000E+00 0.0000E+00 0.9000E+01
       -1 -1    0    0    0  501 0.00000000E+00 0.00000000E+00 -.67081911E+03 0.67081919E+03 0.32000000E+00 0.0000E+00 0.9000E+01
       25  2    1    2    0    0 -.10421080E+03 -.16887239E+03 -.59907401E+03 0.69828808E+03 0.29889598E+03 0.0000E+00 0.0000E+00
       23  2    1    2    0    0 0.10421080E+03 0.16887239E+03 0.51031974E+03 0.55459604E+03 0.88163250E+02 0.0000E+00 0.0000E+00
       23  1    3    3    0    0 0.96495262E+01 -.12199645E+03 -.48163703E+03 0.50523829E+03 0.91188000E+02 0.0000E+00 0.9000E+01
      -11  1    4    4    0    0 0.10388808E+02 0.63779252E+02 0.25422498E+03 0.26230910E+03 0.51099893E-03 0.0000E+00 0.9000E+01
       11  1    4    4    0    0 0.93821997E+02 0.10509314E+03 0.25609475E+03 0.29228694E+03 0.51099893E-03 0.0000E+00 0.9000E+01
       23  1    3    3    0    0 -.11386033E+03 -.46875934E+02 -.11743697E+03 0.19304979E+03 0.91188000E+02 0.0000E+00 0.9000E+01
#aMCatNLO 1  0  0  2  2 0.83585974D+03 0.00000000D+00  -5  7  0 0.00000000D+00 0.00000000D+00 0.00000000D+00 0.00000000D+00 0.00000000D+00
  <mgrwgt>
 0.4042844582D-03    3    2    0
 0.624868246022868D+03 0.000000000000000D+00 0.000000000000000D+00 0.624868246022868D+03
 0.624868246022868D+03 0.000000000000000D+00 0.000000000000000D+00 -.624868246022868D+03
 0.472305714851975D+03 0.964952616445160D+01 -.121996453356793D+03 -.446968890361511D+03
 0.281024404062243D+03 0.103888079342960D+02 0.637792523539747D+02 0.273494049875699D+03
 0.311210543420363D+03 0.938219969066243D+02 0.105093135251254D+03 0.277497510178943D+03
 0.185195829711154D+03 -.113860331005372D+03 -.468759342484358D+02 -.104022669693131D+03
 0.000000000000000D+00 -.000000000000000D+00 -.000000000000000D+00 0.000000000000000D+00
 0.172071210842111D+04 0.000000000000000D+00 0.000000000000000D+00 0.172071210842111D+04
 0.932008413427346D+03 0.000000000000000D+00 0.000000000000000D+00 -.932008413427346D+03
 0.493474411253145D+03 0.107744321062345D+03 0.154310451834772D+03 -.446968890361511D+03
 0.380610575633458D+03 0.775914204919470D+02 0.253071109438953D+03 0.273494049875699D+03
 0.461635061123651D+03 0.172320331068071D+03 0.326202030961971D+03 0.277497510178943D+03
 0.167776811608341D+03 -.780087143496831D+02 0.541085191525721D+02 -.104022669693131D+03
 0.114922366222986D+04 -.279647358272679D+03 -.787692111388269D+03 0.788703694993765D+03
0.870012081642D-04 0.000000000000D+00 0.000000000000D+00 0.971242200001D-07 0.000000000000D+00  7 1 -1 23 -11 11 23 21 0 0.89548450D-01 0.10320295D+00 0.65366264D+05 0.65366264D+05 0.65366264D+05 0.11371969D+01  1  2  2  2  7  2       -1 0.374874328942D-03 0.100000000000D+01
-.140093565694D-06 0.000000000000D+00 -.334107547295D-06 0.971242200001D-07 0.000000000000D+00  7 1 -1 23 -11 11 23 21 2 0.89548450D-01 0.10320295D+00 0.65366264D+05 0.65366264D+05 0.65366264D+05 0.11371969D+01  1  2  3  2  7  2       -1 -.780638449710D-06 0.100000000000D+01
0.541804249832D-05 0.000000000000D+00 0.000000000000D+00 0.971242200001D-07 0.000000000000D+00  7 1 -1 23 -11 11 23 21 2 0.89548450D-01 0.10320295D+00 0.65366264D+05 0.65366264D+05 0.65366264D+05 0.11371969D+01  1  2 15  2  7  2       -1 0.301907676872D-04 0.100000000000D+01
  </mgrwgt>
  </event>
  <event>
  8     66 0.56006291E-06 0.30314633E+03 0.75467711E-02 0.87888959E-01
        1 -1    0    0  501    0 0.00000000E+00 0.00000000E+00 0.48830240E+03 0.48830250E+03 0.32000000E+00 0.0000E+00 0.9000E+01
       -1 -1    0    0    0  501 0.00000000E+00 0.00000000E+00 -.40988526E+03 0.40988539E+03 0.32000000E+00 0.0000E+00 0.9000E+01
       25  2    1    2    0    0 0.20073609E+03 -.97065650E+02 0.36139747E+03 0.52013483E+03 0.30035877E+03 0.0000E+00 0.0000E+00
       23  2    1    2    0    0 -.20073609E+03 0.97065650E+02 -.28298033E+03 0.37805306E+03 0.11458416E+03 0.0000E+00 0.0000E+00
       23  1    3    3    0    0 0.14417054E+03 -.16710310E+03 0.28142846E+03 0.36908782E+03 0.91188000E+02 0.0000E+00 0.9000E+01
      -13  1    4    4    0    0 -.15048556E+03 0.11124746E+03 -.26156593E+03 0.32161879E+03 0.10565837E+00 0.0000E+00 0.9000E+01
       13  1    4    4    0    0 -.50250527E+02 -.14181805E+02 -.21414409E+02 0.56434273E+02 0.10565837E+00 0.0000E+00 0.9000E+01
       23  1    3    3    0    0 0.56565549E+02 0.70037447E+02 0.79969015E+02 0.15104701E+03 0.91188000E+02 0.0000E+00 0.9000E+01
#aMCatNLO 1  0  0  2  2 0.84957429D+03 0.00000000D+00  -5  7  0 0.00000000D+00 0.00000000D+00 0.00000000D+00 0.00000000D+00 0.00000000D+00
  <mgrwgt>
 0.2889772649D-03    3    2    0
 0.447379101002902D+03 0.000000000000000D+00 0.000000000000000D+00 0.447379101002902D+03
 0.447379101002902D+03 0.000000000000000D+00 0.000000000000000D+00 -.447379101002902D+03
 0.345838030388773D+03 0.144170551722279D+03 -.167103103414427D+03 0.250160142238021D+03
 0.345775617398388D+03 -.150485699879996D+03 0.111247517300697D+03 -.290755604612010D+03
 0.585270916992083D+02 -.502504058577807D+02 -.141818587158243D+02 -.264422400197157D+02
 0.144617462519434D+03 0.565655540154968D+02 0.700374448295545D+02 0.670377023937045D+02
 0.000000000000000D+00 0.000000000000000D+00 0.000000000000000D+00 0.000000000000000D+00
 0.179044006834561D+04 0.000000000000000D+00 0.000000000000000D+00 0.179044006834561D+04
 0.770684864432298D+03 0.000000000000000D+00 0.000000000000000D+00 -.770684864432298D+03
 0.424117419422839D+03 -.131568525540055D+03 -.302770474842838D+03 0.250160142238021D+03
 0.558389487603439D+03 -.474288397564654D+03 -.480678082326232D+02 -.290755604612010D+03
 0.129463265473535D+03 -.117574155087313D+03 -.473060578078035D+02 -.264422400197157D+02
 0.121872894771023D+03 -.388708835557411D+02 0.230814212135644D+02 0.670377023937045D+02
 0.132728186550707D+04 0.762301961747764D+03 0.375062919669701D+03 0.101975520391331D+04
0.191800078279D-04 0.000000000000D+00 0.000000000000D+00 0.699650111616D-08 0.000000000000D+00  7 1 -1 23 -13 13 23 21 0 0.75123464D-01 0.63059289D-01 0.91897698D+05 0.91897698D+05 0.91897698D+05 0.11247458D+01  1  2  2  2  7  2       -1 0.283677690444D-03 0.100000000000D+01
-.869318174332D-06 0.000000000000D+00 -.736562802711D-07 0.699650111616D-08 0.000000000000D+00  7 1 -1 23 -13 13 23 21 2 0.75123464D-01 0.63059289D-01 0.91897698D+05 0.91897698D+05 0.91897698D+05 0.11247458D+01  1  2  3  2  7  2       -1 -.162653695862D-04 0.100000000000D+01
0.115255897785D-05 0.000000000000D+00 0.000000000000D+00 0.699650111616D-08 0.000000000000D+00  7 1 -1 23 -13 13 23 21 2 0.75123464D-01 0.63059289D-01 0.91897698D+05 0.91897698D+05 0.91897698D+05 0.11247458D+01  1  2 15  2  7  2       -1 0.215649439966D-04 0.100000000000D+01
  </mgrwgt>
  </event>
  <event>
  7     66 0.56006291E-06 0.31211190E+03 0.75467711E-02 0.92760141E-01
        1 -1    0    0  501    0 0.00000000E+00 0.00000000E+00 0.80485664E+03 0.80485670E+03 0.32000000E+00 0.0000E+00 0.9000E+01
       -1 -1    0    0    0  501 0.00000000E+00 0.00000000E+00 -.31723633E+03 0.31723649E+03 0.32000000E+00 0.0000E+00 0.9000E+01
       23  2    1    2    0    0 -.12524087E+03 0.19882010E+03 0.64632526E+03 0.69389369E+03 0.92398049E+02 0.0000E+00 0.0000E+00
       23  1    1    2    0    0 -.49370603E+02 -.14741500E+03 -.18873751E+02 0.18121840E+03 0.91188000E+02 0.0000E+00 0.9000E+01
      -11  1    3    3    0    0 -.92477743E+02 0.99583835E+02 0.46665581E+03 0.48604189E+03 0.51099893E-03 0.0000E+00 0.9000E+01
       11  1    3    3    0    0 -.32763129E+02 0.99236261E+02 0.17966945E+03 0.20785180E+03 0.51099893E-03 0.0000E+00 0.9000E+01
       23  1    1    2    0    0 0.17461148E+03 -.51405097E+02 -.13983120E+03 0.24698111E+03 0.91188000E+02 0.0000E+00 0.9000E+01
#aMCatNLO 1  0  0  1  2 0.48026288D+03 0.00000000D+00  -5  7  0 0.00000000D+00 0.00000000D+00 0.00000000D+00 0.00000000D+00 0.00000000D+00
  <mgrwgt>
 0.1965902944D-03    5    2    0
 0.505301786072518D+03 0.000000000000000D+00 0.000000000000000D+00 0.505301786072518D+03
 0.505301786072518D+03 0.000000000000000D+00 0.000000000000000D+00 -.505301786072518D+03
 0.210317045753417D+03 -.493706028131403D+02 -.147414999589008D+03 -.108394510306033D+03
 0.314498641415148D+03 -.924777433500688D+02 0.995838350903111D+02 0.283620031425072D+03
 0.144090737884419D+03 -.327631294824065D+02 0.992362612964705D+02 0.992012224445553D+02
 0.341697147092050D+03 0.174611475645616D+03 -.514050967977732D+02 -.274426743563594D+03
 0.000000000000000D+00 -.000000000000000D+00 0.000000000000000D+00 0.000000000000000D+00
 0.825807902312583D+03 0.000000000000000D+00 0.000000000000000D+00 0.825807902312583D+03
 0.775951422395030D+03 0.000000000000000D+00 0.000000000000000D+00 -.775951422395030D+03
 0.249893576784731D+03 0.387938078635864D+02 -.202181153872523D+03 -.108394510306033D+03
 0.285902243111659D+03 0.225434829357359D+02 0.281347075308358D+02 0.283620031425072D+03
 0.121423541752047D+03 0.181025151680802D+02 0.676394330380320D+02 0.992012224445553D+02
 0.461696192779391D+03 0.328520787779108D+03 -.147010807415850D+03 -.274426743563594D+03
 0.482843770279785D+03 -.407960593746511D+03 0.253417820719505D+03 0.498564799175531D+02
0.162401756278D-04 0.000000000000D+00 0.000000000000D+00 0.102335913354D-08 0.000000000000D+00  7 1 -1 23 -11 11 23 21 0 0.12382412D+00 0.48805607D-01 0.97413836D+05 0.97413836D+05 0.97413836D+05 0.11226570D+01  1  2  2  1  7  1        1 0.184994792337D-03 0.100000000000D+01
-.647594318062D-06 0.000000000000D+00 -.623665505471D-07 0.102335913354D-08 0.000000000000D+00  7 1 -1 23 -11 11 23 21 2 0.12382412D+00 0.48805607D-01 0.97413836D+05 0.97413836D+05 0.97413836D+05 0.11226570D+01  1  2  3  1  7  1        1 -.929749656016D-05 0.100000000000D+01
0.102347976409D-05 0.000000000000D+00 0.000000000000D+00 0.102335913354D-08 0.000000000000D+00  7 1 -1 23 -11 11 23 21 2 0.12382412D+00 0.48805607D-01 0.97413836D+05 0.97413836D+05 0.97413836D+05 0.11226570D+01  1  2 15  1  7  1        1 0.146940751650D-04 0.100000000000D+01
0.167172169526D-05 0.000000000000D+00 -.492658333847D-05 0.102335913354D-08 0.000000000000D+00  7 1 -1 23 -11 11 23 21 2 0.26715812D+00 0.48805607D-01 0.97413836D+05 0.97413836D+05 0.97413836D+05 0.11226570D+01  1  2  5  1  7  1        1 0.526600607472D-05 0.100000000000D+01
0.447772802281D-06 0.000000000000D+00 -.410134349853D-06 0.102335913354D-08 0.000000000000D+00  7 21 -1 23 -11 11 23 -1 2 0.26715812D+00 0.48805607D-01 0.97413836D+05 0.97413836D+05 0.97413836D+05 0.11226570D+01  1  2  5  3  7  1        1 0.932917381122D-06 0.100000000000D+01
  </mgrwgt>
  </event>
  <event>
  8     66 0.56006291E-06 0.25295979E+03 0.75467711E-02 0.95631826E-01
        1 -1    0    0  501    0 0.00000000E+00 0.00000000E+00 0.17202777E+04 0.17202777E+04 0.32000000E+00 0.0000E+00 0.9000E+01
       -1 -1    0    0    0  501 0.00000000E+00 0.00000000E+00 -.75878982E+02 0.75879657E+02 0.32000000E+00 0.0000E+00 0.9000E+01
       25  2    1    2    0    0 0.13895028E+03 -.15860092E+03 0.45333615E+03 0.58310724E+03 0.30006493E+03 0.0000E+00 0.0000E+00
       23  2    1    2    0    0 -.13895028E+03 0.15860092E+03 0.11910626E+04 0.12130502E+04 0.91647038E+02 0.0000E+00 0.0000E+00
       23  1    3    3    0    0 0.95016842E+02 -.44963531E+02 0.43296667E+02 0.14573871E+03 0.91188000E+02 0.0000E+00 0.9000E+01
      -11  1    4    4    0    0 -.52373075E+02 0.32560877E+02 0.57486599E+03 0.57816438E+03 0.51099893E-03 0.0000E+00 0.9000E+01
       11  1    4    4    0    0 -.86577201E+02 0.12604004E+03 0.61619660E+03 0.63488578E+03 0.51099893E-03 0.0000E+00 0.9000E+01
       23  1    3    3    0    0 0.43933434E+02 -.11363739E+03 0.41003948E+03 0.43736853E+03 0.91188000E+02 0.0000E+00 0.9000E+01
#aMCatNLO 1  0  0  2  2 0.31143852D+03 0.00000000D+00  -5  7  0 0.00000000D+00 0.00000000D+00 0.00000000D+00 0.00000000D+00 0.00000000D+00
  <mgrwgt>
 0.2789430971D-03    3    2    0
 0.361294277111753D+03 0.000000000000000D+00 0.000000000000000D+00 0.361294277111753D+03
 0.361294277111753D+03 0.000000000000000D+00 0.000000000000000D+00 -.361294277111753D+03
 0.263736091394656D+03 0.950168419399643D+02 -.449635305794235D+02 -.224034718795367D+03
 0.128932755476064D+03 -.523730745142924D+02 0.325608773818670D+02 0.113227672256803D+03
 0.175870327318253D+03 -.865772013429192D+02 0.126040044685364D+03 0.868830672477004D+02
 0.154049380034533D+03 0.439334339172473D+02 -.113637391487807D+03 0.239239792908640D+02
 0.000000000000000D+00 -.000000000000000D+00 -.000000000000000D+00 0.000000000000000D+00
 0.657833594872531D+03 0.000000000000000D+00 0.000000000000000D+00 0.657833594872531D+03
 0.485131358876928D+03 0.000000000000000D+00 0.000000000000000D+00 -.485131358876928D+03
 0.299487394029583D+03 0.171369681646066D+03 0.426418201468629D+02 -.224034718795367D+03
 0.136146915335771D+03 -.164378087829687D+02 0.737921082038336D+02 0.113227672256803D+03
 0.207945547986344D+03 -.345455784397740D+02 0.185739835692922D+03 0.868830672477004D+02
 0.143267121628689D+03 0.842388540230369D+02 -.673919541454708D+02 0.239239792908640D+02
 0.356117974769073D+03 -.204625148446360D+03 -.234781809898148D+03 0.172702235995603D+03
0.100704219593D-04 0.000000000000D+00 0.000000000000D+00 0.854056998193D-06 0.000000000000D+00  7 1 -1 23 -11 11 23 21 0 0.26465816D+00 0.11673744D-01 0.63988657D+05 0.63988657D+05 0.63988657D+05 0.11379896D+01  1  2  2  2  7  2       -1 0.272608242228D-03 0.100000000000D+01
-.473034063191D-06 0.000000000000D+00 -.386730719269D-07 0.854056998193D-06 0.000000000000D+00  7 1 -1 23 -11 11 23 21 2 0.26465816D+00 0.11673744D-01 0.63988657D+05 0.63988657D+05 0.63988657D+05 0.11379896D+01  1  2  3  2  7  2       -1 -.165828928504D-04 0.100000000000D+01
0.653738488489D-06 0.000000000000D+00 0.000000000000D+00 0.854056998193D-06 0.000000000000D+00  7 1 -1 23 -11 11 23 21 2 0.26465816D+00 0.11673744D-01 0.63988657D+05 0.63988657D+05 0.63988657D+05 0.11379896D+01  1  2 15  2  7  2       -1 0.229177476854D-04 0.100000000000D+01
  </mgrwgt>
  </event>
  <event>
  8     66 0.56006291E-06 0.22192106E+03 0.75467711E-02 0.91910639E-01
        1 -1    0    0  501    0 0.00000000E+00 0.00000000E+00 0.74279613E+03 0.74279620E+03 0.32000000E+00 0.0000E+00 0.9000E+01
       -1 -1    0    0    0  501 0.00000000E+00 0.00000000E+00 -.78558865E+02 0.78559517E+02 0.32000000E+00 0.0000E+00 0.9000E+01
       25  2    1    2    0    0 -.10413380E+03 -.70679319E+02 0.46008217E+03 0.56347541E+03 0.29998254E+03 0.0000E+00 0.0000E+00
       23  2    1    2    0    0 0.10413380E+03 0.70679319E+02 0.20415510E+03 0.25788030E+03 0.94781505E+02 0.0000E+00 0.0000E+00
       23  1    3    3    0    0 0.46961592E+02 0.35512851E+02 0.23213919E+03 0.25626238E+03 0.91188000E+02 0.0000E+00 0.9000E+01
      -11  1    4    4    0    0 0.48411435E+02 0.15300717E+02 0.15978121E+03 0.16765385E+03 0.51099893E-03 0.0000E+00 0.9000E+01
       11  1    4    4    0    0 0.55722363E+02 0.55378602E+02 0.44373892E+02 0.90226457E+02 0.51099893E-03 0.0000E+00 0.9000E+01
       23  1    3    3    0    0 -.15109539E+03 -.10619217E+03 0.22794298E+03 0.30721304E+03 0.91188000E+02 0.0000E+00 0.9000E+01
#aMCatNLO 1  0  0  2  1 0.56989811D+03 0.00000000D+00  -5  7  0 0.00000000D+00 0.00000000D+00 0.00000000D+00 0.00000000D+00 0.00000000D+00
  <mgrwgt>
 0.2256924733D-03    5    2    0
 0.241564727114810D+03 0.000000000000000D+00 0.000000000000000D+00 0.241564727114810D+03
 0.241564727114810D+03 0.000000000000000D+00 0.000000000000000D+00 -.241564727114810D+03
 0.116505154460831D+03 0.469615916228215D+02 0.355128511850874D+02 0.423278393601585D+02
 0.653464922122651D+02 0.484114354467310D+02 0.153007172951016D+02 0.411386073256010D+02
 0.923835701131357D+02 0.557223630312586D+02 0.553786020899972D+02 -.486102120507517D+02
 0.208894237443388D+03 -.151095390100811D+03 -.106192170570186D+03 -.348562346350078D+02
 0.000000000000000D+00 0.000000000000000D+00 0.000000000000000D+00 -.000000000000000D+00
 0.623914169196236D+03 0.000000000000000D+00 0.000000000000000D+00 0.623914169196236D+03
 0.697891786072760D+03 0.000000000000000D+00 0.000000000000000D+00 -.697891786072760D+03
 0.135935652101942D+03 0.419388189786908D+02 -.813187533484947D+02 0.423278393601585D+02
 0.805690166672124D+02 0.455081788919236D+02 -.522301358218820D+02 0.411386073256010D+02
 0.747774533798698D+02 0.523963880139954D+02 -.219848434483029D+02 -.486102120507517D+02
 0.455844321508176D+03 -.164321582390648D+03 -.413838440185239D+03 -.348562346350078D+02
 0.574679511611797D+03 0.244781965060382D+02 0.569372172803919D+03 -.739776168765240D+02
0.154053417381D-05 0.000000000000D+00 0.000000000000D+00 0.316570496436D-07 0.000000000000D+00  7 1 -1 23 -11 11 23 21 0 0.11427638D+00 0.12086035D-01 0.49248957D+05 0.49248957D+05 0.49248957D+05 0.11478740D+01  1  2  2  2  7  2       -1 0.196913132996D-03 0.100000000000D+01
-.848366606988D-07 0.000000000000D+00 -.591605685940D-08 0.316570496436D-07 0.000000000000D+00  7 1 -1 23 -11 11 23 21 2 0.11427638D+00 0.12086035D-01 0.49248957D+05 0.49248957D+05 0.49248957D+05 0.11478740D+01  1  2  3  2  7  2       -1 -.142881283569D-04 0.100000000000D+01
0.100391428565D-06 0.000000000000D+00 0.000000000000D+00 0.316570496436D-07 0.000000000000D+00  7 1 -1 23 -11 11 23 21 2 0.11427638D+00 0.12086035D-01 0.49248957D+05 0.49248957D+05 0.49248957D+05 0.11478740D+01  1  2 15  2  7  2       -1 0.169078509863D-04 0.100000000000D+01
0.191679471016D-05 0.000000000000D+00 -.857807018720D-06 0.316570496436D-07 0.000000000000D+00  7 1 -1 23 -11 11 23 21 2 0.11427638D+00 0.89730608D-01 0.49248957D+05 0.49248957D+05 0.49248957D+05 0.11478740D+01  1  2  5  2  7  2       -1 0.104260590703D-04 0.100000000000D+01
0.378035805356D-06 0.000000000000D+00 -.209662751718D-06 0.316570496436D-07 0.000000000000D+00  7 1 21 23 -11 11 23 1 2 0.11427638D+00 0.89730608D-01 0.49248957D+05 0.49248957D+05 0.49248957D+05 0.11478740D+01  1  2  5  4  7  2       -1 0.157335585982D-04 0.100000000000D+01
  </mgrwgt>
  </event>
  <event>
  8     66 0.56006291E-06 0.16050897E+03 0.75467711E-02 0.10328480E+00
        1 -1    0    0  501    0 0.00000000E+00 0.00000000E+00 0.51455114E+03 0.51455124E+03 0.32000000E+00 0.0000E+00 0.9000E+01
       -1 -1    0    0    0  501 0.00000000E+00 0.00000000E+00 -.93947507E+02 0.93948052E+02 0.32000000E+00 0.0000E+00 0.9000E+01
       25  2    1    2    0    0 0.10438380E+02 -.25454724E+02 0.17289997E+03 0.34474681E+03 0.29698326E+03 0.0000E+00 0.0000E+00
       23  2    1    2    0    0 -.10438380E+02 0.25454724E+02 0.24770366E+03 0.26375249E+03 0.86321313E+02 0.0000E+00 0.0000E+00
       23  1    3    3    0    0 -.34959649E+02 0.93165398E+02 0.43552952E+02 0.14182411E+03 0.91188000E+02 0.0000E+00 0.9000E+01
      -11  1    4    4    0    0 -.84906448E+01 0.66465737E+01 -.38797391E+01 0.11459510E+02 0.51099893E-03 0.0000E+00 0.9000E+01
       11  1    4    4    0    0 -.19477356E+01 0.18808151E+02 0.25158340E+03 0.25229298E+03 0.51099893E-03 0.0000E+00 0.9000E+01
       23  1    3    3    0    0 0.45398030E+02 -.11862012E+03 0.12934702E+03 0.20292269E+03 0.91188000E+02 0.0000E+00 0.9000E+01
#aMCatNLO 1  0  0  1  1 0.13328282D+03 0.00000000D+00  -5  7  0 0.00000000D+00 0.00000000D+00 0.00000000D+00 0.00000000D+00 0.00000000D+00
  <mgrwgt>
 0.4355523193D-03    4    2    0
 0.219865852003008D+03 0.000000000000000D+00 0.000000000000000D+00 0.219865852003008D+03
 0.219865852003008D+03 0.000000000000000D+00 0.000000000000000D+00 -.219865852003008D+03
 0.154597321243964D+03 -.349596491715285D+02 0.931653983432499D+02 -.753864170335513D+02
 0.195686049451697D+02 -.849064484564551D+01 0.664657366780143D+01 -.163297981642065D+02
 0.108482527031351D+03 -.194773567016961D+01 0.188081506486627D+02 0.106821900685412D+03
 0.157083250785532D+03 0.453980296873437D+02 -.118620122659714D+03 -.151056854876547D+02
 0.000000000000000D+00 -.000000000000000D+00 -.000000000000000D+00 -.000000000000000D+00
 0.280943458500980D+03 0.000000000000000D+00 0.000000000000000D+00 0.280943458500980D+03
 0.316483332972980D+03 0.000000000000000D+00 0.000000000000000D+00 -.316483332972980D+03
 0.174689064220393D+03 -.130687811278926D+01 0.128515360990966D+03 -.753864170335513D+02
 0.201324013025022D+02 -.443323788006326D+01 0.109086055946691D+02 -.163297981642065D+02
 0.117078070806229D+03 0.211043536173849D+02 0.430228132048162D+02 0.106821900685412D+03
 0.147587440013944D+03 0.765350989935162D+02 -.859127347595814D+02 -.151056854876547D+02
 0.137939815130893D+03 -.918993366180486D+02 -.965340450308697D+02 -.355398744720001D+02
0.376444141121D-05 0.000000000000D+00 0.000000000000D+00 0.762169243571D-09 0.000000000000D+00  7 1 -1 23 -11 11 23 21 0 0.79161763D-01 0.14453512D-01 0.25763129D+05 0.25763129D+05 0.25763129D+05 0.11735210D+01  1  2  2  1  7  1        1 0.615227016076D-03 0.100000000000D+01
-.183958046960D-06 0.000000000000D+00 -.144564462192D-07 0.762169243571D-09 0.000000000000D+00  7 1 -1 23 -11 11 23 21 2 0.79161763D-01 0.14453512D-01 0.25763129D+05 0.25763129D+05 0.25763129D+05 0.11735210D+01  1  2  3  1  7  1        1 -.414033431707D-04 0.100000000000D+01
0.239000086389D-06 0.000000000000D+00 0.000000000000D+00 0.762169243571D-09 0.000000000000D+00  7 1 -1 23 -11 11 23 21 2 0.79161763D-01 0.14453512D-01 0.25763129D+05 0.25763129D+05 0.25763129D+05 0.11735210D+01  1  2 15  1  7  1        1 0.537916267218D-04 0.100000000000D+01
-.853349706922D-06 0.000000000000D+00 0.000000000000D+00 0.762169243571D-09 0.000000000000D+00  7 1 -1 23 -11 11 23 21 2 0.79161763D-01 0.14453512D-01 0.25763129D+05 0.25763129D+05 0.25763129D+05 0.11735210D+01  1  2  4  1  7  1        1 -.192062980359D-03 0.100000000000D+01
  </mgrwgt>
  </event>
  <event>
  9     66 0.56006291E-06 0.72115823E+03 0.75467711E-02 0.90498334E-01
        1 -1    0    0  501    0 0.00000000E+00 0.00000000E+00 0.15525720E+04 0.15525720E+04 0.32000000E+00 0.0000E+00 0.9000E+01
       21 -1    0    0  502  501 0.00000000E+00 0.00000000E+00 -.77171390E+03 0.77171426E+03 0.75000000E+00 0.0000E+00 0.9000E+01
       25  2    1    2    0    0 0.79803243E+02 0.71143910E+03 0.11795854E+04 0.14121155E+04 0.30022375E+03 0.0000E+00 0.0000E+00
       23  2    1    2    0    0 -.71804047E+02 -.69206198E+03 -.22442974E+03 0.73661667E+03 0.90165395E+02 0.0000E+00 0.0000E+00
       23  1    3    3    0    0 0.88106914E+02 0.47056390E+03 0.94672364E+03 0.10647977E+04 0.91188000E+02 0.0000E+00 0.9000E+01
      -13  1    4    4    0    0 -.60900224E+01 -.29509089E+03 -.13430309E+03 0.32427312E+03 0.10565837E+00 0.0000E+00 0.9000E+01
       13  1    4    4    0    0 -.65714025E+02 -.39697109E+03 -.90126648E+02 0.41234355E+03 0.10565837E+00 0.0000E+00 0.9000E+01
       23  1    3    3    0    0 -.83036711E+01 0.24087520E+03 0.23286180E+03 0.34731784E+03 0.91188000E+02 0.0000E+00 0.9000E+01
        1  1    1    2  502    0 -.79991956E+01 -.19377122E+02 -.17429763E+03 0.17555406E+03 0.32000000E+00 0.0000E+00 0.9000E+01
#aMCatNLO 2  0  0  2  1 0.20963301D+02 0.00000000D+00  -5  7  0 0.00000000D+00 0.00000000D+00 0.00000000D+00 0.00000000D+00 0.00000000D+00
  <mgrwgt>
 0.7289202762D-06    2    2    0
 0.962326373448718D+03 0.000000000000000D+00 0.000000000000000D+00 0.962326373448718D+03
 0.962326373448718D+03 0.000000000000000D+00 0.000000000000000D+00 -.962326373448718D+03
 0.713829361357444D+03 0.851296845466185D+02 0.463351910896132D+03 0.528483726589450D+03
 0.431674224133147D+03 -.787772229947014D+01 -.299421446223841D+03 -.310849440748332D+03
 0.509348435913433D+03 -.678220509038984D+02 -.402077478630433D+03 -.305237120542118D+03
 0.269800725493412D+03 -.942991134324994D+01 0.238147013958142D+03 0.876028347009996D+02
 0.000000000000000D+00 -.000000000000000D+00 -.000000000000000D+00 -.000000000000000D+00
 0.962772928057447D+03 0.000000000000000D+00 0.000000000000000D+00 0.962772928057447D+03
 0.124446955495090D+04 0.000000000000000D+00 0.000000000000000D+00 -.124446955495090D+04
 0.718890476016113D+03 0.881069141554263D+02 0.470563903812021D+03 0.528483726589450D+03
 0.428652556816972D+03 -.608994055828165D+01 -.295090752610402D+03 -.310849440748332D+03
 0.505048710830060D+03 -.657141068791188D+02 -.396971229072513D+03 -.305237120542118D+03
 0.272175165895614D+03 -.830367114679854D+01 0.240875200018890D+03 0.876028347009996D+02
 0.282475573449592D+03 -.799919557122733D+01 -.193771221479967D+02 -.281696626893456D+03
-.386700031675D-03 0.000000000000D+00 0.000000000000D+00 0.420973650697D-05 0.000000000000D+00  7 1 21 23 -13 13 23 1 2 0.23874645D+00 0.11874221D+00 0.53548051D+06 0.53548051D+06 0.53548051D+06 0.10664125D+01  1  2 13  4  7  2       -1 -.137649779074D-02 0.100000000000D+01
0.387185583020D-03 0.000000000000D+00 0.000000000000D+00 0.420973650697D-05 0.207532322841D-08  7 1 21 23 -13 13 23 1 2 0.23885723D+00 0.11872523D+00 0.53548051D+06 0.53548051D+06 0.53548051D+06 0.10664125D+01  1  2  1  4  7  2       -1 0.137722671102D-02 0.100000000000D+01
  </mgrwgt>
  </event>
  <event>
  8     66 0.56006291E-06 0.21611944E+03 0.75467711E-02 0.97625640E-01
        1 -1    0    0  501    0 0.00000000E+00 0.00000000E+00 0.10621839E+04 0.10621839E+04 0.32000000E+00 0.0000E+00 0.9000E+01
       -1 -1    0    0    0  501 0.00000000E+00 0.00000000E+00 -.12613130E+03 0.12613170E+03 0.32000000E+00 0.0000E+00 0.9000E+01
       25  2    1    2    0    0 0.28252338E+03 -.16516446E+02 0.39894800E+03 0.57406791E+03 0.30050324E+03 0.0000E+00 0.0000E+00
       23  2    1    2    0    0 -.28252338E+03 0.16516446E+02 0.53710459E+03 0.61424773E+03 0.93416723E+02 0.0000E+00 0.0000E+00
       23  1    3    3    0    0 0.31168481E+02 0.82279551E+02 0.10451773E+03 0.16425774E+03 0.91188000E+02 0.0000E+00 0.9000E+01
      -11  1    4    4    0    0 -.26724965E+03 0.16976653E+02 0.53569929E+03 0.59890259E+03 0.51099893E-03 0.0000E+00 0.9000E+01
       11  1    4    4    0    0 -.15273728E+02 -.46020719E+00 0.14053001E+01 0.15345143E+02 0.51099893E-03 0.0000E+00 0.9000E+01
       23  1    3    3    0    0 0.25135490E+03 -.98795997E+02 0.29443027E+03 0.40981016E+03 0.91188000E+02 0.0000E+00 0.9000E+01
#aMCatNLO 1  0  0  1  2 0.76069938D+02 0.00000000D+00  -5  7  0 0.00000000D+00 0.00000000D+00 0.00000000D+00 0.00000000D+00 0.00000000D+00
  <mgrwgt>
 0.2759777620D-03    7    2    0
 0.366025820188805D+03 0.000000000000000D+00 0.000000000000000D+00 0.366025820188805D+03
 0.366025820188805D+03 0.000000000000000D+00 0.000000000000000D+00 -.366025820188805D+03
 0.132990551595241D+03 0.311684807311528D+02 0.822795511382987D+02 -.403712365800004D+02
 0.287196413450713D+03 -.267249652395296D+03 0.169766527654473D+02 0.103784374808676D+03
 0.231123567703970D+02 -.152737276354206D+02 -.460207191089137D+00 -.173401986419525D+02
 0.288752318561259D+03 0.251354899299564D+03 -.987959967126569D+02 -.460729395867229D+02
 0.000000000000000D+00 -.000000000000000D+00 -.000000000000000D+00 0.000000000000000D+00
 0.768003325046685D+03 0.000000000000000D+00 0.000000000000000D+00 0.768003325046685D+03
 0.371613271749831D+03 0.000000000000000D+00 0.000000000000000D+00 -.371613271749831D+03
 0.142558783902728D+03 0.394058275077561D+02 0.939420009327848D+02 -.403712365800004D+02
 0.274162256610578D+03 -.250468243639615D+03 0.407358002678645D+02 0.103784374808676D+03
 0.222820918449740D+02 -.139166936425723D+02 0.146108387995772D+01 -.173401986419525D+02
 0.296990236918907D+03 0.268865246557649D+03 -.740048168194585D+02 -.460729395867229D+02
 0.403623227519328D+03 -.438861367832173D+02 -.621340682611486D+02 0.396390053296855D+03
0.829463455260D-05 0.000000000000D+00 0.000000000000D+00 0.139817079545D-06 0.000000000000D+00  7 1 -1 23 -11 11 23 21 0 0.16341294D+00 0.19404850D-01 0.12069953D+06 0.12069953D+06 0.12069953D+06 0.11150782D+01  1  2  2  1  7  1        1 0.278390355389D-03 0.100000000000D+01
-.459287867551D-06 0.000000000000D+00 -.318535807094D-07 0.139817079545D-06 0.000000000000D+00  7 1 -1 23 -11 11 23 21 2 0.16341294D+00 0.19404850D-01 0.12069953D+06 0.12069953D+06 0.12069953D+06 0.11150782D+01  1  2  3  1  7  1        1 -.191669295225D-04 0.100000000000D+01
0.542729210327D-06 0.000000000000D+00 0.000000000000D+00 0.139817079545D-06 0.000000000000D+00  7 1 -1 23 -11 11 23 21 2 0.16341294D+00 0.19404850D-01 0.12069953D+06 0.12069953D+06 0.12069953D+06 0.11150782D+01  1  2 15  1  7  1        1 0.226490906011D-04 0.100000000000D+01
0.645029861839D-04 0.000000000000D+00 0.000000000000D+00 0.139817079545D-06 0.000000000000D+00  7 1 -1 23 -11 11 23 21 2 0.34272585D+00 0.19404850D-01 0.14974581D+06 0.14974581D+06 0.14974581D+06 0.11076100D+01  1  2 12  1  7  1        1 0.434323430057D-03 0.100000000000D+01
-.647285413975D-04 0.000000000000D+00 -.241700157365D-05 0.139817079545D-06 0.000000000000D+00  7 1 -1 23 -11 11 23 21 2 0.34404447D+00 0.19404850D-01 0.12069953D+06 0.12069953D+06 0.12069953D+06 0.11150782D+01  1  2  5  1  7  1        1 -.440299132545D-03 0.100000000000D+01
0.516670900685D-05 0.000000000000D+00 0.000000000000D+00 0.139817079545D-06 0.000000000000D+00  7 21 -1 23 -11 11 23 -1 2 0.34272585D+00 0.19404850D-01 0.14974581D+06 0.14974581D+06 0.14974581D+06 0.11076100D+01  1  2 12  3  7  1        1 0.151653952625D-04 0.100000000000D+01
-.506222426015D-05 0.000000000000D+00 -.194622937833D-06 0.139817079545D-06 0.000000000000D+00  7 21 -1 23 -11 11 23 -1 2 0.34404447D+00 0.19404850D-01 0.12069953D+06 0.12069953D+06 0.12069953D+06 0.11150782D+01  1  2  5  3  7  1        1 -.150844472893D-04 0.100000000000D+01
  </mgrwgt>
  </event>
  <event>
  8     66 0.56006291E-06 0.32072119E+03 0.75467711E-02 0.95471634E-01
        1 -1    0    0  501    0 0.00000000E+00 0.00000000E+00 0.23155202E+03 0.23155224E+03 0.32000000E+00 0.0000E+00 0.9000E+01
       -1 -1    0    0    0  501 0.00000000E+00 0.00000000E+00 -.51528254E+03 0.51528264E+03 0.32000000E+00 0.0000E+00 0.9000E+01
       25  2    1    2    0    0 -.25022754E+03 0.17138871E+02 -.55293941E+02 0.39527866E+03 0.30046669E+03 0.0000E+00 0.0000E+00
       23  2    1    2    0    0 0.25022754E+03 -.17138871E+02 -.22843658E+03 0.35155622E+03 0.92200551E+02 0.0000E+00 0.0000E+00
       23  1    3    3    0    0 -.14585777E+03 -.10840811E+03 -.43327431E+02 0.20789258E+03 0.91188000E+02 0.0000E+00 0.9000E+01
      -13  1    4    4    0    0 0.30813454E+02 0.19052059E+01 -.80572498E+02 0.86284630E+02 0.10565837E+00 0.0000E+00 0.9000E+01
       13  1    4    4    0    0 0.21941409E+03 -.19044077E+02 -.14786408E+03 0.26527159E+03 0.10565837E+00 0.0000E+00 0.9000E+01
       23  1    3    3    0    0 -.10436978E+03 0.12554698E+03 -.11966509E+02 0.18738608E+03 0.91188000E+02 0.0000E+00 0.9000E+01
#aMCatNLO 1  0  0  1  2 0.24291447D+03 0.00000000D+00  -5  7  0 0.00000000D+00 0.00000000D+00 0.00000000D+00 0.00000000D+00 0.00000000D+00
  <mgrwgt>
 0.1961471141D-03    3    2    0
 0.345419793100197D+03 0.000000000000000D+00 0.000000000000000D+00 0.345419793100197D+03
 0.345419793100197D+03 0.000000000000000D+00 0.000000000000000D+00 -.345419793100197D+03
 0.206948353173213D+03 -.145857766912119D+03 -.108408109749210D+03 0.385430033743861D+02
 0.601866844185467D+02 0.308132074149477D+02 0.190523326224490D+01 -.516657847740415D+02
 0.226044771242075D+03 0.219414337763349D+03 -.190441046980104D+02 -.509009731341578D+02
 0.197659777366559D+03 -.104369778266178D+03 0.125546981184976D+03 0.640237545338131D+02
 0.000000000000000D+00 0.000000000000000D+00 -.000000000000000D+00 -.000000000000000D+00
 0.438876021356103D+03 0.000000000000000D+00 0.000000000000000D+00 0.438876021356103D+03
 0.568996075764920D+03 0.000000000000000D+00 0.000000000000000D+00 -.568996075764920D+03
 0.199062608575992D+03 -.167379907126019D+03 -.425332149084212D+02 0.385430033743861D+02
 0.610709930390578D+02 0.243854875203638D+02 0.215791768344683D+02 -.516657847740415D+02
 0.209286467088067D+03 0.196337965858347D+03 0.515879773087380D+02 -.509009731341578D+02
 0.262882310573911D+03 -.128782546208094D+03 0.200269499715340D+03 0.640237545338131D+02
 0.275569717843995D+03 0.754389999554028D+02 -.230903438950125D+03 -.130120054408817D+03
0.761194762894D-05 0.000000000000D+00 0.000000000000D+00 0.322284727567D-06 0.000000000000D+00  7 1 -1 23 -13 13 23 21 0 0.35623412D-01 0.79274262D-01 0.10286208D+06 0.10286208D+06 0.10286208D+06 0.11207177D+01  1  2  2  1  7  1        1 0.193478171829D-03 0.100000000000D+01
-.420056049716D-06 0.000000000000D+00 -.292318831670D-07 0.322284727567D-06 0.000000000000D+00  7 1 -1 23 -13 13 23 21 2 0.35623412D-01 0.79274262D-01 0.10286208D+06 0.10286208D+06 0.10286208D+06 0.11207177D+01  1  2  3  1  7  1        1 -.134102205643D-04 0.100000000000D+01
0.503656864004D-06 0.000000000000D+00 0.000000000000D+00 0.322284727567D-06 0.000000000000D+00  7 1 -1 23 -13 13 23 21 2 0.35623412D-01 0.79274262D-01 0.10286208D+06 0.10286208D+06 0.10286208D+06 0.11207177D+01  1  2 15  1  7  1        1 0.160791628632D-04 0.100000000000D+01
  </mgrwgt>
  </event>
  <event>
  8     66 0.56006291E-06 0.27495974E+03 0.75467711E-02 0.93797156E-01
        1 -1    0    0  501    0 0.00000000E+00 0.00000000E+00 0.96043833E+03 0.96043838E+03 0.32000000E+00 0.0000E+00 0.9000E+01
       -1 -1    0    0    0  501 0.00000000E+00 0.00000000E+00 -.59424331E+03 0.59424340E+03 0.32000000E+00 0.0000E+00 0.9000E+01
       25  2    1    2    0    0 -.42071945E+03 -.24697868E+03 -.35854668E+03 0.67560956E+03 0.29981533E+03 0.0000E+00 0.0000E+00
       23  2    1    2    0    0 0.42071945E+03 0.24697868E+03 0.72474169E+03 0.87907222E+03 0.97540382E+02 0.0000E+00 0.0000E+00
       23  1    3    3    0    0 -.31814362E+03 -.69489237E+02 -.27613220E+03 0.43658717E+03 0.91188000E+02 0.0000E+00 0.9000E+01
      -11  1    4    4    0    0 0.68681836E+02 0.85990620E+02 0.17455100E+03 0.20634833E+03 0.51099893E-03 0.0000E+00 0.9000E+01
       11  1    4    4    0    0 0.35203762E+03 0.16098806E+03 0.55019069E+03 0.67272389E+03 0.51099893E-03 0.0000E+00 0.9000E+01
       23  1    3    3    0    0 -.10257583E+03 -.17748944E+03 -.82414482E+02 0.23902238E+03 0.91188000E+02 0.0000E+00 0.9000E+01
#aMCatNLO 1  0  0  1  2 0.16701015D+02 0.00000000D+00  -5  7  0 0.00000000D+00 0.00000000D+00 0.00000000D+00 0.00000000D+00 0.00000000D+00
  <mgrwgt>
 0.3143818908D-03    9    2    0
 0.755469498320712D+03 0.000000000000000D+00 0.000000000000000D+00 0.755469498320712D+03
 0.755469498320712D+03 0.000000000000000D+00 0.000000000000000D+00 -.755469498320712D+03
 0.516150792162616D+03 -.318143622555011D+03 -.694892367610570D+02 -.389938803285895D+03
 0.170017639777087D+03 0.686818356803264D+02 0.859906201143391D+02 0.129593273495592D+03
 0.558854125606374D+03 0.352037615522235D+03 0.160988056031611D+03 0.403076043420900D+03
 0.265916439095346D+03 -.102575828647550D+03 -.177489439384893D+03 -.142730513630596D+03
 0.000000000000000D+00 0.000000000000000D+00 -.000000000000000D+00 0.000000000000000D+00
 0.791064716667890D+03 0.000000000000000D+00 0.000000000000000D+00 0.791064716667890D+03
 0.757477189093072D+03 0.000000000000000D+00 0.000000000000000D+00 -.757477189093072D+03
 0.519508481276144D+03 -.323777638016146D+03 -.684805197592389D+02 -.389938803285895D+03
 0.169448252926901D+03 0.668351317139999D+02 0.863212549343904D+02 0.129593273495592D+03
 0.555371567950864D+03 0.345976196534645D+03 0.162073295578804D+03 0.403076043420900D+03
 0.266702993173329D+03 -.105473293280237D+03 -.176970675839191D+03 -.142730513630596D+03
 0.375106104337238D+02 0.164396030477373D+02 -.294335491476490D+01 0.335875275748178D+02
0.418921414755D-04 0.000000000000D+00 0.000000000000D+00 0.208901810903D-06 0.000000000000D+00  7 1 -1 23 -11 11 23 21 0 0.14775975D+00 0.91422059D-01 0.28073552D+06 0.28073552D+06 0.28073552D+06 0.10866908D+01  1  2  2  1  7  1        1 0.101181668803D-03 0.100000000000D+01
-.197121882875D-05 0.000000000000D+00 -.160876853720D-06 0.208901810903D-06 0.000000000000D+00  7 1 -1 23 -11 11 23 21 2 0.14775975D+00 0.91422059D-01 0.28073552D+06 0.28073552D+06 0.28073552D+06 0.10866908D+01  1  2  3  1  7  1        1 -.562232741246D-05 0.100000000000D+01
0.265729061469D-05 0.000000000000D+00 0.000000000000D+00 0.208901810903D-06 0.000000000000D+00  7 1 -1 23 -11 11 23 21 2 0.14775975D+00 0.91422059D-01 0.28073552D+06 0.28073552D+06 0.28073552D+06 0.10866908D+01  1  2 15  1  7  1        1 0.757914730115D-05 0.100000000000D+01
0.466140672538D-03 0.000000000000D+00 0.000000000000D+00 0.208901810903D-06 0.000000000000D+00  7 1 -1 23 -11 11 23 21 2 0.15491286D+00 0.91422059D-01 0.28971235D+06 0.28971235D+06 0.28971235D+06 0.10856748D+01  1  2 12  1  7  1        1 0.121984470322D-02 0.100000000000D+01
-.473130540546D-03 0.000000000000D+00 0.000000000000D+00 0.208901810903D-06 0.000000000000D+00  7 1 -1 23 -11 11 23 21 2 0.14775975D+00 0.91422059D-01 0.28073552D+06 0.28073552D+06 0.28073552D+06 0.10866908D+01  1  2  4  1  7  1        1 -.134946702466D-02 0.100000000000D+01
-.152356296436D-02 0.000000000000D+00 -.109785404549D-03 0.208901810903D-06 0.000000000000D+00  7 1 -1 23 -11 11 23 21 2 0.15490815D+00 0.91422059D-01 0.28073552D+06 0.28073552D+06 0.28073552D+06 0.10866908D+01  1  2  5  1  7  1        1 -.400110625316D-02 0.100000000000D+01
0.152716746910D-02 0.000000000000D+00 0.109662994593D-03 0.208901810903D-06 0.000000000000D+00  7 1 -1 23 -11 11 23 21 2 0.14775975D+00 0.91422059D-01 0.28073552D+06 0.28073552D+06 0.28073552D+06 0.10866908D+01  1  2  6  1  7  1        1 0.435580027937D-02 0.100000000000D+01
0.855184678941D-05 0.000000000000D+00 0.000000000000D+00 0.208901810903D-06 0.000000000000D+00  7 21 -1 23 -11 11 23 -1 2 0.15491286D+00 0.91422059D-01 0.28971235D+06 0.28971235D+06 0.28971235D+06 0.10856748D+01  1  2 12  3  7  1        1 0.294804530011D-04 0.100000000000D+01
-.125029441466D-04 0.000000000000D+00 -.907178616497D-06 0.208901810903D-06 0.000000000000D+00  7 21 -1 23 -11 11 23 -1 2 0.15490815D+00 0.91422059D-01 0.28073552D+06 0.28073552D+06 0.28073552D+06 0.10866908D+01  1  2  5  3  7  1        1 -.433087556384D-04 0.100000000000D+01
  </mgrwgt>
  </event>
  <event>
  8     66 0.56006291E-06 0.17526067E+03 0.75467711E-02 0.10009410E+00
        1 -1    0    0  501    0 0.00000000E+00 0.00000000E+00 0.16692421E+03 0.16692452E+03 0.32000000E+00 0.0000E+00 0.9000E+01
       -1 -1    0    0    0  501 0.00000000E+00 0.00000000E+00 -.54348617E+03 0.54348627E+03 0.32000000E+00 0.0000E+00 0.9000E+01
       25  2    1    2    0    0 0.20288088E+03 -.70136759E+02 -.23219055E+03 0.43472241E+03 0.29831410E+03 0.0000E+00 0.0000E+00
       23  2    1    2    0    0 -.20288088E+03 0.70136759E+02 -.14437141E+03 0.27568838E+03 0.95295121E+02 0.0000E+00 0.0000E+00
       23  1    3    3    0    0 0.78088212E+02 -.15002514E+03 -.10295789E+03 0.21799286E+03 0.91188000E+02 0.0000E+00 0.9000E+01
      -11  1    4    4    0    0 -.16681203E+03 0.77650836E+02 -.78151068E+02 0.19990872E+03 0.51099893E-03 0.0000E+00 0.9000E+01
       11  1    4    4    0    0 -.36068854E+02 -.75140767E+01 -.66220340E+02 0.75779661E+02 0.51099893E-03 0.0000E+00 0.9000E+01
       23  1    3    3    0    0 0.12479267E+03 0.79888377E+02 -.12923267E+03 0.21672955E+03 0.91188000E+02 0.0000E+00 0.9000E+01
#aMCatNLO 1  0  0  1  2 0.45527675D+02 0.00000000D+00  -5  7  0 0.00000000D+00 0.00000000D+00 0.00000000D+00 0.00000000D+00 0.00000000D+00
  <mgrwgt>
 0.1966416366D-03    9    2    0
 0.301199508867920D+03 0.000000000000000D+00 0.000000000000000D+00 0.301199508867920D+03
 0.301199508867920D+03 0.000000000000000D+00 0.000000000000000D+00 -.301199508867920D+03
 0.192720197070890D+03 0.780882118337276D+02 -.150025136370928D+03 0.148496681625528D+02
 0.186900353074451D+03 -.166812029117028D+03 0.776508357725408D+02 0.327999485524002D+02
 0.479725672863362D+02 -.360688539653600D+02 -.751407667785492D+01 -.307236657537298D+02
 0.174805900304164D+03 0.124792671248660D+03 0.798883772762420D+02 -.169259509612232D+02
 0.000000000000000D+00 0.000000000000000D+00 -.000000000000000D+00 0.000000000000000D+00
 0.383181335922777D+03 0.000000000000000D+00 0.000000000000000D+00 0.383181335922777D+03
 0.308446246967929D+03 0.000000000000000D+00 0.000000000000000D+00 -.308446246967929D+03
 0.181808486552383D+03 0.777879226869559D+02 -.135895551354628D+03 0.148496681625528D+02
 0.193568560938722D+03 -.167117081014407D+03 0.920045237587345D+02 0.327999485524002D+02
 0.475995357734634D+02 -.361454816484665D+02 -.390849394302677D+01 -.307236657537298D+02
 0.181140413465527D+03 0.124507281051508D+03 0.933169180571296D+02 -.169259509612232D+02
 0.875105861606104D+02 0.967358924409582D+00 -.455173965182091D+02 0.747350889548484D+02
0.444494531358D-05 0.000000000000D+00 0.000000000000D+00 0.402713680552D-08 0.000000000000D+00  7 1 -1 23 -11 11 23 21 0 0.25680679D-01 0.83613288D-01 0.86134836D+05 0.86134836D+05 0.86134836D+05 0.11270805D+01  1  2  2  1  7  1        1 0.155476837536D-03 0.100000000000D+01
-.246739403583D-06 0.000000000000D+00 -.170697603851D-07 0.402713680552D-08 0.000000000000D+00  7 1 -1 23 -11 11 23 21 2 0.25680679D-01 0.83613288D-01 0.86134836D+05 0.86134836D+05 0.86134836D+05 0.11270805D+01  1  2  3  1  7  1        1 -.109634605957D-04 0.100000000000D+01
0.293997287946D-06 0.000000000000D+00 0.000000000000D+00 0.402713680552D-08 0.000000000000D+00  7 1 -1 23 -11 11 23 21 2 0.25680679D-01 0.83613288D-01 0.86134836D+05 0.86134836D+05 0.86134836D+05 0.11270805D+01  1  2 15  1  7  1        1 0.130632871557D-04 0.100000000000D+01
0.160614564525D-04 0.000000000000D+00 0.000000000000D+00 0.402713680552D-08 0.000000000000D+00  7 1 -1 23 -11 11 23 21 2 0.32920479D-01 0.83613288D-01 0.10055309D+06 0.10055309D+06 0.10055309D+06 0.11215255D+01  1  2 12  1  7  1        1 0.510778357780D-03 0.100000000000D+01
-.161009312701D-04 0.000000000000D+00 0.000000000000D+00 0.402713680552D-08 0.000000000000D+00  7 1 -1 23 -11 11 23 21 2 0.25680679D-01 0.83613288D-01 0.86134836D+05 0.86134836D+05 0.86134836D+05 0.11270805D+01  1  2  4  1  7  1        1 -.715418465676D-03 0.100000000000D+01
-.209733553270D-04 0.000000000000D+00 -.278420896811D-05 0.402713680552D-08 0.000000000000D+00  7 1 -1 23 -11 11 23 21 2 0.33260535D-01 0.83613288D-01 0.86134836D+05 0.86134836D+05 0.86134836D+05 0.11270805D+01  1  2  5  1  7  1        1 -.666526738967D-03 0.100000000000D+01
0.210752273276D-04 0.000000000000D+00 0.269361652423D-05 0.402713680552D-08 0.000000000000D+00  7 1 -1 23 -11 11 23 21 2 0.25680679D-01 0.83613288D-01 0.86134836D+05 0.86134836D+05 0.86134836D+05 0.11270805D+01  1  2  6  1  7  1        1 0.936443150126D-03 0.100000000000D+01
0.540931082440D-06 0.000000000000D+00 0.000000000000D+00 0.402713680552D-08 0.000000000000D+00  7 21 -1 23 -11 11 23 -1 2 0.32920479D-01 0.83613288D-01 0.10055309D+06 0.10055309D+06 0.10055309D+06 0.11215255D+01  1  2 12  3  7  1        1 0.104901441655D-03 0.100000000000D+01
-.678444432602D-06 0.000000000000D+00 -.966101627862D-07 0.402713680552D-08 0.000000000000D+00  7 21 -1 23 -11 11 23 -1 2 0.33260535D-01 0.83613288D-01 0.86134836D+05 0.86134836D+05 0.86134836D+05 0.11270805D+01  1  2  5  3  7  1        1 -.131112772463D-03 0.100000000000D+01
  </mgrwgt>
  </event>
  <event>
  8     66 -.56006291E-06 0.84102368E+02 0.75467711E-02 0.10885248E+00
        1 -1    0    0  501    0 0.00000000E+00 0.00000000E+00 0.47062918E+03 0.47062929E+03 0.32000000E+00 0.0000E+00 0.9000E+01
       -1 -1    0    0    0  501 0.00000000E+00 0.00000000E+00 -.37410245E+03 0.37410258E+03 0.32000000E+00 0.0000E+00 0.9000E+01
       25  2    1    2    0    0 0.40846052E+02 0.29134727E+02 0.41192584E+03 0.51142461E+03 0.29892307E+03 0.0000E+00 0.0000E+00
       23  2    1    2    0    0 -.40846052E+02 -.29134727E+02 -.31539911E+03 0.33330726E+03 0.95393406E+02 0.0000E+00 0.0000E+00
       23  1    3    3    0    0 0.52017556E+01 -.34891476E+02 0.16624909E+02 0.99177176E+02 0.91188000E+02 0.0000E+00 0.9000E+01
      -11  1    4    4    0    0 -.49856209E+02 -.31515465E+02 -.89325383E+02 0.10704153E+03 0.51099893E-03 0.0000E+00 0.9000E+01
       11  1    4    4    0    0 0.90101562E+01 0.23807382E+01 -.22607372E+03 0.22626573E+03 0.51099893E-03 0.0000E+00 0.9000E+01
       23  1    3    3    0    0 0.35644297E+02 0.64026203E+02 0.39530093E+03 0.41224744E+03 0.91188000E+02 0.0000E+00 0.9000E+01
#aMCatNLO 1  0  0  1  2 0.42070786D+02 0.00000000D+00  -5  7  0 0.00000000D+00 0.00000000D+00 0.00000000D+00 0.00000000D+00 0.00000000D+00
  <mgrwgt>
 -.2754810436D-04    9    2    0
 0.419599369885021D+03 0.000000000000000D+00 0.000000000000000D+00 0.419599369885021D+03
 0.419599369885021D+03 0.000000000000000D+00 0.000000000000000D+00 -.419599369885021D+03
 0.979188477044207D+02 0.520175556846303D+01 -.348914759534249D+02 0.532691623353236D+01
 0.118021726070093D+03 -.498562085915045D+02 -.315154651767879D+02 -.102226521725701D+03
 0.253761138759118D+03 0.901015619419525D+01 0.238073822481269D+01 -.253589953892470D+03
 0.369497027236410D+03 0.356442968288462D+02 0.640262029054000D+02 0.350489559384639D+03
 0.000000000000000D+00 -.000000000000000D+00 0.000000000000000D+00 0.000000000000000D+00
 0.609612172094546D+03 0.000000000000000D+00 0.000000000000000D+00 0.609612172094546D+03
 0.422461515085931D+03 0.000000000000000D+00 0.000000000000000D+00 -.422461515085931D+03
 0.990184103463204D+02 0.967144441377936D+01 -.369794722772567D+02 0.532691623353236D+01
 0.116574141353693D+03 -.445318197878824D+02 -.340027309873071D+02 -.102226521725701D+03
 0.254438549635411D+03 0.205442584808484D+02 -.300736909242670D+01 -.253589953892470D+03
 0.370221524870656D+03 0.524329522298198D+02 0.561834532258457D+02 0.350489559384639D+03
 0.191821060974397D+03 -.381168353365652D+02 0.178061191311448D+02 0.187150657008615D+03
0.719139151872D-05 0.000000000000D+00 0.000000000000D+00 0.237672120277D-07 0.000000000000D+00  7 1 -1 23 -11 11 23 21 0 0.72404508D-01 0.57554241D-01 0.20030537D+05 0.20030537D+05 0.20030537D+05 0.11839711D+01  1  2  2  1  7  1        1 0.137064940490D-03 0.100000000000D+01
0.174219648258D-06 0.000000000000D+00 -.276168369688D-07 0.237672120277D-07 0.000000000000D+00  7 1 -1 23 -11 11 23 21 2 0.72404508D-01 0.57554241D-01 0.20030537D+05 0.20030537D+05 0.20030537D+05 0.11839711D+01  1  2  3  1  7  1        1 0.465471129060D-05 0.100000000000D+01
0.440890654129D-06 0.000000000000D+00 0.000000000000D+00 0.237672120277D-07 0.000000000000D+00  7 1 -1 23 -11 11 23 21 2 0.72404508D-01 0.57554241D-01 0.20030537D+05 0.20030537D+05 0.20030537D+05 0.11839711D+01  1  2 15  1  7  1        1 0.117794905811D-04 0.100000000000D+01
0.861946215053D-04 0.000000000000D+00 0.000000000000D+00 0.237672120277D-07 0.000000000000D+00  7 1 -1 23 -11 11 23 21 2 0.10535238D+00 0.57554241D-01 0.28390602D+05 0.28390602D+05 0.28390602D+05 0.11695643D+01  1  2 12  1  7  1        1 0.132256867655D-02 0.100000000000D+01
-.876198622985D-04 0.000000000000D+00 0.000000000000D+00 0.237672120277D-07 0.000000000000D+00  7 1 -1 23 -11 11 23 21 2 0.72404508D-01 0.57554241D-01 0.20030537D+05 0.20030537D+05 0.20030537D+05 0.11839711D+01  1  2  4  1  7  1        1 -.234098258376D-02 0.100000000000D+01
-.892727544837D-04 0.000000000000D+00 -.323148011465D-05 0.237672120277D-07 0.000000000000D+00  7 1 -1 23 -11 11 23 21 2 0.10547672D+00 0.57554241D-01 0.20030537D+05 0.20030537D+05 0.20030537D+05 0.11839711D+01  1  2  5  1  7  1        1 -.141607024774D-02 0.100000000000D+01
0.846431459505D-04 0.000000000000D+00 0.301553718407D-05 0.237672120277D-07 0.000000000000D+00  7 1 -1 23 -11 11 23 21 2 0.72404508D-01 0.57554241D-01 0.20030537D+05 0.20030537D+05 0.20030537D+05 0.11839711D+01  1  2  6  1  7  1        1 0.226145220167D-02 0.100000000000D+01
0.391440981362D-05 0.000000000000D+00 0.000000000000D+00 0.237672120277D-07 0.000000000000D+00  7 21 -1 23 -11 11 23 -1 2 0.10535238D+00 0.57554241D-01 0.28390602D+05 0.28390602D+05 0.28390602D+05 0.11695643D+01  1  2 12  3  7  1        1 0.136654697830D-03 0.100000000000D+01
-.396211002137D-05 0.000000000000D+00 -.147088310207D-06 0.237672120277D-07 0.000000000000D+00  7 21 -1 23 -11 11 23 -1 2 0.10547672D+00 0.57554241D-01 0.20030537D+05 0.20030537D+05 0.20030537D+05 0.11839711D+01  1  2  5  3  7  1        1 -.144669991273D-03 0.100000000000D+01
  </mgrwgt>
  </event>
  <event>
  8     66 0.56006291E-06 0.17790559E+03 0.75467711E-02 0.10361805E+00
        1 -1    0    0  501    0 0.00000000E+00 0.00000000E+00 0.62319091E+03 0.62319099E+03 0.32000000E+00 0.0000E+00 0.9000E+01
       -1 -1    0    0    0  501 0.00000000E+00 0.00000000E+00 -.10116212E+03 0.10116262E+03 0.32000000E+00 0.0000E+00 0.9000E+01
       25  2    1    2    0    0 0.58668677E+02 -.99338945E+02 0.21477787E+03 0.38212025E+03 0.29423818E+03 0.0000E+00 0.0000E+00
       23  2    1    2    0    0 -.58668677E+02 0.99338945E+02 0.30725092E+03 0.34223337E+03 0.97006760E+02 0.0000E+00 0.0000E+00
       23  1    3    3    0    0 -.75124811E+02 -.41837218E+02 0.15689455E+03 0.20081146E+03 0.91188000E+02 0.0000E+00 0.9000E+01
      -11  1    4    4    0    0 -.53904597E+02 0.10152426E+03 0.31359858E+03 0.33400143E+03 0.51099893E-03 0.0000E+00 0.9000E+01
       11  1    4    4    0    0 -.47640802E+01 -.21853153E+01 -.63476633E+01 0.82319434E+01 0.51099893E-03 0.0000E+00 0.9000E+01
       23  1    3    3    0    0 0.13379349E+03 -.57501726E+02 0.57883317E+02 0.18130879E+03 0.91188000E+02 0.0000E+00 0.9000E+01
#aMCatNLO 1  0  0  1  2 0.66448358D+02 0.00000000D+00  -5  7  0 0.00000000D+00 0.00000000D+00 0.00000000D+00 0.00000000D+00 0.00000000D+00
  <mgrwgt>
 0.3652170319D-03    9    2    0
 0.251084697270344D+03 0.000000000000000D+00 0.000000000000000D+00 0.251084697270344D+03
 0.251084697270344D+03 0.000000000000000D+00 0.000000000000000D+00 -.251084697270344D+03
 0.126560944212850D+03 -.751248109774869D+02 -.418372187167495D+02 0.175593610843879D+02
 0.155779407623723D+03 -.539045975158199D+02 0.101524260169595D+03 0.105139634787610D+03
 0.184728515664567D+02 -.476408025135842D+01 -.218531496844346D+01 -.177136722009767D+02
 0.201356191137657D+03 0.133793488744665D+03 -.575017264844023D+02 -.104985323671021D+03
 0.000000000000000D+00 -.000000000000000D+00 0.000000000000000D+00 0.000000000000000D+00
 0.393392271256370D+03 0.000000000000000D+00 0.000000000000000D+00 0.393392271256370D+03
 0.261151234227712D+03 0.000000000000000D+00 0.000000000000000D+00 -.261151234227712D+03
 0.128738992988109D+03 -.683668744130533D+02 -.572373679766131D+02 0.175593610843879D+02
 0.141969440077321D+03 -.460230138109521D+02 0.835635166346717D+02 0.105139634787610D+03
 0.186453509776581D+02 -.378154002463884D+01 -.442435139635791D+01 -.177136722009767D+02
 0.217192842693294D+03 0.144872723039612D+03 -.827493535078850D+02 -.104985323671021D+03
 0.147996878747701D+03 -.267012947909674D+02 0.608475562461843D+02 0.132241037028658D+03
0.313005686508D-05 0.000000000000D+00 0.000000000000D+00 0.147699369416D-09 0.000000000000D+00  7 1 -1 23 -11 11 23 21 0 0.95875570D-01 0.15563448D-01 0.43544508D+05 0.43544508D+05 0.43544508D+05 0.11526139D+01  1  2  2  1  7  1        1 0.350195721740D-03 0.100000000000D+01
-.166654312052D-06 0.000000000000D+00 -.120202425248D-07 0.147699369416D-09 0.000000000000D+00  7 1 -1 23 -11 11 23 21 2 0.95875570D-01 0.15563448D-01 0.43544508D+05 0.43544508D+05 0.43544508D+05 0.11526139D+01  1  2  3  1  7  1        1 -.247709625959D-04 0.100000000000D+01
0.200448122062D-06 0.000000000000D+00 0.000000000000D+00 0.147699369416D-09 0.000000000000D+00  7 1 -1 23 -11 11 23 21 2 0.95875570D-01 0.15563448D-01 0.43544508D+05 0.43544508D+05 0.43544508D+05 0.11526139D+01  1  2 15  1  7  1        1 0.297939661618D-04 0.100000000000D+01
0.707379231898D-05 0.000000000000D+00 0.000000000000D+00 0.147699369416D-09 0.000000000000D+00  7 1 -1 23 -11 11 23 21 2 0.15123741D+00 0.15563448D-01 0.58888041D+05 0.58888041D+05 0.58888041D+05 0.11410972D+01  1  2 12  1  7  1        1 0.507373758153D-03 0.100000000000D+01
-.729650487417D-05 0.000000000000D+00 0.000000000000D+00 0.147699369416D-09 0.000000000000D+00  7 1 -1 23 -11 11 23 21 2 0.95875570D-01 0.15563448D-01 0.43544508D+05 0.43544508D+05 0.43544508D+05 0.11526139D+01  1  2  4  1  7  1        1 -.108452908954D-02 0.100000000000D+01
-.806798596656D-05 0.000000000000D+00 -.119549770333D-05 0.147699369416D-09 0.000000000000D+00  7 1 -1 23 -11 11 23 21 2 0.15283153D+00 0.15563448D-01 0.43544508D+05 0.43544508D+05 0.43544508D+05 0.11526139D+01  1  2  5  1  7  1        1 -.581820341957D-03 0.100000000000D+01
0.787306713140D-05 0.000000000000D+00 0.107635116892D-05 0.147699369416D-09 0.000000000000D+00  7 1 -1 23 -11 11 23 21 2 0.95875570D-01 0.15563448D-01 0.43544508D+05 0.43544508D+05 0.43544508D+05 0.11526139D+01  1  2  6  1  7  1        1 0.117022745481D-02 0.100000000000D+01
0.371185923676D-06 0.000000000000D+00 0.000000000000D+00 0.147699369416D-09 0.000000000000D+00  7 21 -1 23 -11 11 23 -1 2 0.15123741D+00 0.15563448D-01 0.58888041D+05 0.58888041D+05 0.58888041D+05 0.11410972D+01  1  2 12  3  7  1        1 0.385595376808D-04 0.100000000000D+01
-.381089539787D-06 0.000000000000D+00 -.638329588489D-07 0.147699369416D-09 0.000000000000D+00  7 21 -1 23 -11 11 23 -1 2 0.15283153D+00 0.15563448D-01 0.43544508D+05 0.43544508D+05 0.43544508D+05 0.11526139D+01  1  2  5  3  7  1        1 -.398130125152D-04 0.100000000000D+01
  </mgrwgt>
  </event>
  <event>
  9     66 -.56006291E-06 0.15850638E+03 0.75467711E-02 0.10951289E+00
        1 -1    0    0  501    0 0.00000000E+00 0.00000000E+00 0.63620477E+03 0.63620485E+03 0.32000000E+00 0.0000E+00 0.9000E+01
       -1 -1    0    0    0  502 0.00000000E+00 0.00000000E+00 -.66021684E+02 0.66022459E+02 0.32000000E+00 0.0000E+00 0.9000E+01
       25  2    1    2    0    0 0.21302968E+01 -.45712991E+02 0.42583937E+03 0.52227877E+03 0.29890087E+03 0.0000E+00 0.0000E+00
       23  2    1    2    0    0 -.30258197E+01 0.40122618E+02 0.14264639E+03 0.17399055E+03 0.91135821E+02 0.0000E+00 0.0000E+00
       23  1    3    3    0    0 -.86774327E+02 -.17085852E+02 0.34762183E+03 0.37010525E+03 0.91188000E+02 0.0000E+00 0.9000E+01
      -11  1    4    4    0    0 -.16873604E+02 0.42171632E+02 0.18479907E+02 0.49037455E+02 0.51099893E-03 0.0000E+00 0.9000E+01
       11  1    4    4    0    0 0.13847784E+02 -.20490136E+01 0.12416649E+03 0.12495310E+03 0.51099893E-03 0.0000E+00 0.9000E+01
       23  1    3    3    0    0 0.88904624E+02 -.28627139E+02 0.78217542E+02 0.15217352E+03 0.91188000E+02 0.0000E+00 0.9000E+01
       21  1    1    2  501  502 0.89552288E+00 0.55903725E+01 0.16973239E+01 0.59579891E+01 0.75000000E+00 0.0000E+00 0.9000E+01
#aMCatNLO 2  0  0  2  1 0.56616452D+01 0.00000000D+00  -5  7  0 0.00000000D+00 0.00000000D+00 0.00000000D+00 0.00000000D+00 0.00000000D+00
  <mgrwgt>
 -.7712708601D-04    3    2    0
 0.200986847211583D+03 0.000000000000000D+00 0.000000000000000D+00 0.200986847211583D+03
 0.200986847211583D+03 0.000000000000000D+00 0.000000000000000D+00 -.200986847211583D+03
 0.149018822954547D+03 -.864418925533746D+02 -.150106117896896D+02 0.787009466032568D+02
 0.593530294916018D+02 -.167420008800715D+02 0.429931764351132D+02 -.373373043534460D+02
 0.408361873313012D+02 0.139387479024104D+02 -.148116344702334D+01 0.383550734259938D+02
 0.152765654645716D+03 0.892451455310357D+02 -.265014011984002D+02 -.797187156758046D+02
 0.000000000000000D+00 0.000000000000000D+00 0.000000000000000D+00 -.000000000000000D+00
 0.202205710867757D+03 0.000000000000000D+00 0.000000000000000D+00 0.202205710867757D+03
 0.207690710212441D+03 0.000000000000000D+00 0.000000000000000D+00 -.207690710212441D+03
 0.149434936865234D+03 -.867743258942484D+02 -.170858532495874D+02 0.787009466032568D+02
 0.587982949922752D+02 -.168736039784897D+02 0.421716336699665D+02 -.373373043534460D+02
 0.408297836501895D+02 0.138477840908455D+02 -.204901224526243D+01 0.383550734259938D+02
 0.152950547987494D+03 0.889046229031352D+02 -.286271406732524D+02 -.797187156758046D+02
 0.788285758500550D+01 0.895522878757561D+00 0.559037249813574D+01 -.548499934468438D+01
-.175369849552D-05 0.000000000000D+00 0.000000000000D+00 0.402593135644D-07 0.000000000000D+00  7 1 -1 23 -11 11 23 21 2 0.97279204D-01 0.10185553D-01 0.26025169D+05 0.26025169D+05 0.26025169D+05 0.11731068D+01  1  2 13  2  7  2       -1 -.505173572794D-03 0.100000000000D+01
-.469255283495D-05 0.000000000000D+00 0.000000000000D+00 0.402593135644D-07 0.000000000000D+00  7 1 -1 23 -11 11 23 21 2 0.97279204D-01 0.98285297D-02 0.25124273D+05 0.25124273D+05 0.25124273D+05 0.11745509D+01  1  2  8  2  7  2       -1 -.142952407238D-02 0.100000000000D+01
0.647621736380D-05 0.000000000000D+00 0.000000000000D+00 0.402593135644D-07 0.922432431554D-08  7 1 -1 23 -11 11 23 21 2 0.97869144D-01 0.10156358D-01 0.26025169D+05 0.26025169D+05 0.26025169D+05 0.11731068D+01  1  2  1  2  7  2       -1 0.185757055916D-02 0.100000000000D+01
  </mgrwgt>
  </event>
  <event>
  8     66 0.56006291E-06 0.16899371E+03 0.75467711E-02 0.94335795E-01
        1 -1    0    0  501    0 0.00000000E+00 0.00000000E+00 0.12392330E+04 0.12392331E+04 0.32000000E+00 0.0000E+00 0.9000E+01
       -1 -1    0    0    0  501 0.00000000E+00 0.00000000E+00 -.12300826E+03 0.12300867E+03 0.32000000E+00 0.0000E+00 0.9000E+01
       25  2    1    2    0    0 -.12824562E+03 -.29723987E+03 0.58330389E+03 0.73162588E+03 0.30039060E+03 0.0000E+00 0.0000E+00
       23  2    1    2    0    0 0.12824562E+03 0.29723987E+03 0.53292089E+03 0.63061588E+03 0.94197824E+02 0.0000E+00 0.0000E+00
       23  1    3    3    0    0 0.43012187E+02 -.16041348E+03 0.16786616E+03 0.25313402E+03 0.91188000E+02 0.0000E+00 0.9000E+01
      -13  1    4    4    0    0 0.27504070E+02 0.76910746E+02 0.22134168E+03 0.23593196E+03 0.10565837E+00 0.0000E+00 0.9000E+01
       13  1    4    4    0    0 0.10074155E+03 0.22032912E+03 0.31157920E+03 0.39468392E+03 0.10565837E+00 0.0000E+00 0.9000E+01
       23  1    3    3    0    0 -.17125781E+03 -.13682639E+03 0.41543773E+03 0.47849186E+03 0.91188000E+02 0.0000E+00 0.9000E+01
#aMCatNLO 1  0  0  1  2 0.23744497D+03 0.00000000D+00  -5  7  0 0.00000000D+00 0.00000000D+00 0.00000000D+00 0.00000000D+00 0.00000000D+00
  <mgrwgt>
 0.1961998380D-03    7    2    0
 0.390430799909885D+03 0.000000000000000D+00 0.000000000000000D+00 0.390430799909885D+03
 0.390430799909885D+03 0.000000000000000D+00 0.000000000000000D+00 -.390430799909885D+03
 0.201640549388765D+03 0.430121863643093D+02 -.160413478440108D+03 -.690009244337330D+02
 0.951886313047140D+02 0.275039785092675D+02 0.769105664043764D+02 0.488791517027919D+02
 0.243145045977132D+03 0.100741645425047D+03 0.220329304602702D+03 -.206308456822699D+02
 0.240887373149160D+03 -.171257810298624D+03 -.136826392566970D+03 0.407526184132110D+02
 0.000000000000000D+00 -.000000000000000D+00 -.000000000000000D+00 0.000000000000000D+00
 0.800480563392217D+03 0.000000000000000D+00 0.000000000000000D+00 0.800480563392217D+03
 0.444002610387686D+03 0.000000000000000D+00 0.000000000000000D+00 -.444002610387686D+03
 0.217580207498235D+03 0.104844081779735D+03 -.152553224462905D+03 -.690009244337330D+02
 0.110738114736739D+03 0.578766182588452D+02 0.807716264735494D+02 0.488791517027919D+02
 0.292975774058998D+03 0.179815417250333D+03 0.230381397059293D+03 -.206308456822699D+02
 0.194870685888677D+03 -.106986787716316D+03 -.128656069508339D+03 0.407526184132110D+02
 0.428318391597255D+03 -.235549329572598D+03 -.299437295615994D+02 0.356477953004531D+03
0.805418026186D-05 0.000000000000D+00 0.000000000000D+00 0.120602276887D-06 0.000000000000D+00  7 1 -1 23 -13 13 23 21 0 0.19065127D+00 0.18924383D-01 0.14093678D+06 0.14093678D+06 0.14093678D+06 0.11096942D+01  1  2  2  1  7  1        1 0.209707578094D-03 0.100000000000D+01
-.446617724045D-06 0.000000000000D+00 -.309301729199D-07 0.120602276887D-06 0.000000000000D+00  7 1 -1 23 -13 13 23 21 2 0.19065127D+00 0.18924383D-01 0.14093678D+06 0.14093678D+06 0.14093678D+06 0.11096942D+01  1  2  3  1  7  1        1 -.143197480547D-04 0.100000000000D+01
0.512078541707D-06 0.000000000000D+00 0.000000000000D+00 0.120602276887D-06 0.000000000000D+00  7 1 -1 23 -13 13 23 21 2 0.19065127D+00 0.18924383D-01 0.14093678D+06 0.14093678D+06 0.14093678D+06 0.11096942D+01  1  2 15  1  7  1        1 0.164185953818D-04 0.100000000000D+01
0.257427660959D-05 0.000000000000D+00 0.000000000000D+00 0.120602276887D-06 0.000000000000D+00  7 1 -1 23 -13 13 23 21 2 0.39116575D+00 0.18924383D-01 0.26315429D+06 0.26315429D+06 0.26315429D+06 0.10887877D+01  1  2 12  1  7  1        1 0.103553989782D-04 0.100000000000D+01
-.689941847343D-05 0.000000000000D+00 -.226490281093D-05 0.120602276887D-06 0.000000000000D+00  7 1 -1 23 -13 13 23 21 2 0.40520614D+00 0.18924383D-01 0.14093678D+06 0.14093678D+06 0.14093678D+06 0.11096942D+01  1  2  5  1  7  1        1 -.257292051607D-04 0.100000000000D+01
0.200057181122D-06 0.000000000000D+00 0.000000000000D+00 0.120602276887D-06 0.000000000000D+00  7 21 -1 23 -13 13 23 -1 2 0.39116575D+00 0.18924383D-01 0.26315429D+06 0.26315429D+06 0.26315429D+06 0.10887877D+01  1  2 12  3  7  1        1 0.265576080640D-06 0.100000000000D+01
-.421720864870D-06 0.000000000000D+00 -.184745167425D-06 0.120602276887D-06 0.000000000000D+00  7 21 -1 23 -13 13 23 -1 2 0.40520614D+00 0.18924383D-01 0.14093678D+06 0.14093678D+06 0.14093678D+06 0.11096942D+01  1  2  5  3  7  1        1 -.498357312631D-06 0.100000000000D+01
  </mgrwgt>
  </event>
  <event>
  8     66 0.56006291E-06 0.33281483E+03 0.75467711E-02 0.94599776E-01
        1 -1    0    0  501    0 0.00000000E+00 0.00000000E+00 0.13596676E+04 0.13596676E+04 0.32000000E+00 0.0000E+00 0.9000E+01
       -1 -1    0    0    0  501 0.00000000E+00 0.00000000E+00 -.22035534E+03 0.22035557E+03 0.32000000E+00 0.0000E+00 0.9000E+01
       25  2    1    2    0    0 0.23120827E+02 0.41579936E+03 0.10125317E+04 0.11349418E+04 0.29907989E+03 0.0000E+00 0.0000E+00
       23  2    1    2    0    0 -.23120827E+02 -.41579936E+03 0.12678048E+03 0.44508133E+03 0.92738425E+02 0.0000E+00 0.0000E+00
       23  1    3    3    0    0 -.64809552E+02 0.17353465E+03 0.24626022E+03 0.32136257E+03 0.91188000E+02 0.0000E+00 0.9000E+01
      -11  1    4    4    0    0 -.18342745E+02 -.27357100E+03 0.36630312E+02 0.27662128E+03 0.51099893E-03 0.0000E+00 0.9000E+01
       11  1    4    4    0    0 -.47780818E+01 -.14222836E+03 0.90150170E+02 0.16846005E+03 0.51099893E-03 0.0000E+00 0.9000E+01
       23  1    3    3    0    0 0.87930379E+02 0.24226471E+03 0.76627152E+03 0.81357927E+03 0.91188000E+02 0.0000E+00 0.9000E+01
#aMCatNLO 1  0  0  1  2 0.99677001D+02 0.00000000D+00  -5  7  0 0.00000000D+00 0.00000000D+00 0.00000000D+00 0.00000000D+00 0.00000000D+00
  <mgrwgt>
 0.1898963110D-03    9    2    0
 0.547366623875719D+03 0.000000000000000D+00 0.000000000000000D+00 0.547366623875719D+03
 0.547366623875719D+03 0.000000000000000D+00 0.000000000000000D+00 -.547366623875719D+03
 0.207532773957057D+03 -.648095519540549D+02 0.173534652505360D+03 0.209773038703626D+02
 0.361124196215343D+03 -.183427449809887D+02 -.273571004294703D+03 -.235017306613635D+03
 0.149316370826062D+03 -.477808182360478D+01 -.142228358634067D+03 -.452066646747166D+02
 0.376759906752976D+03 0.879303787586484D+02 0.242264710423410D+03 0.259246667417989D+03
 0.000000000000000D+00 -.000000000000000D+00 0.000000000000000D+00 0.000000000000000D+00
 0.662824153346589D+03 0.000000000000000D+00 0.000000000000000D+00 0.662824153346589D+03
 0.571574544631636D+03 0.000000000000000D+00 0.000000000000000D+00 -.571574544631636D+03
 0.192024918465191D+03 -.545362742888584D+02 0.158568803604568D+03 0.209773038703626D+02
 0.382208996972181D+03 0.769559540237768D+00 -.301413322095536D+03 -.235017306613635D+03
 0.160364482977502D+03 0.318431624570085D+01 -.153827777074482D+03 -.452066646747166D+02
 0.364663348481423D+03 0.106993575670917D+03 0.214493931334904D+03 0.259246667417989D+03
 0.135136951081928D+03 -.564111771679969D+02 0.821783642305450D+02 0.912496087149531D+02
0.152661505853D-04 0.000000000000D+00 0.000000000000D+00 0.369681670216D-06 0.000000000000D+00  7 1 -1 23 -11 11 23 21 0 0.20917965D+00 0.33900842D-01 0.20086012D+06 0.20086012D+06 0.20086012D+06 0.10976823D+01  1  2  2  1  7  1        1 0.124157358808D-03 0.100000000000D+01
-.806897947577D-06 0.000000000000D+00 -.586260379174D-07 0.369681670216D-06 0.000000000000D+00  7 1 -1 23 -11 11 23 21 2 0.20917965D+00 0.33900842D-01 0.20086012D+06 0.20086012D+06 0.20086012D+06 0.10976823D+01  1  2  3  1  7  1        1 -.790705639052D-05 0.100000000000D+01
0.925758527401D-06 0.000000000000D+00 0.000000000000D+00 0.369681670216D-06 0.000000000000D+00  7 1 -1 23 -11 11 23 21 2 0.20917965D+00 0.33900842D-01 0.20086012D+06 0.20086012D+06 0.20086012D+06 0.10976823D+01  1  2 15  1  7  1        1 0.907181001283D-05 0.100000000000D+01
0.263915585757D-04 0.000000000000D+00 0.000000000000D+00 0.369681670216D-06 0.000000000000D+00  7 1 -1 23 -11 11 23 21 2 0.25723809D+00 0.33900842D-01 0.25114398D+06 0.25114398D+06 0.25114398D+06 0.10903100D+01  1  2 12  1  7  1        1 0.156064031795D-03 0.100000000000D+01
-.272090485885D-04 0.000000000000D+00 0.000000000000D+00 0.369681670216D-06 0.000000000000D+00  7 1 -1 23 -11 11 23 21 2 0.20917965D+00 0.33900842D-01 0.20086012D+06 0.20086012D+06 0.20086012D+06 0.10976823D+01  1  2  4  1  7  1        1 -.266630349188D-03 0.100000000000D+01
-.435808148254D-04 0.000000000000D+00 -.922439260193D-05 0.369681670216D-06 0.000000000000D+00  7 1 -1 23 -11 11 23 21 2 0.25812750D+00 0.33900842D-01 0.20086012D+06 0.20086012D+06 0.20086012D+06 0.10976823D+01  1  2  5  1  7  1        1 -.261471807512D-03 0.100000000000D+01
0.447281998308D-04 0.000000000000D+00 0.902418000208D-05 0.369681670216D-06 0.000000000000D+00  7 1 -1 23 -11 11 23 21 2 0.20917965D+00 0.33900842D-01 0.20086012D+06 0.20086012D+06 0.20086012D+06 0.10976823D+01  1  2  6  1  7  1        1 0.438306231129D-03 0.100000000000D+01
0.774822405134D-06 0.000000000000D+00 0.000000000000D+00 0.369681670216D-06 0.000000000000D+00  7 21 -1 23 -11 11 23 -1 2 0.25723809D+00 0.33900842D-01 0.25114398D+06 0.25114398D+06 0.25114398D+06 0.10903100D+01  1  2 12  3  7  1        1 0.306351518679D-05 0.100000000000D+01
-.117996283552D-05 0.000000000000D+00 -.274249220536D-06 0.369681670216D-06 0.000000000000D+00  7 21 -1 23 -11 11 23 -1 2 0.25812750D+00 0.33900842D-01 0.20086012D+06 0.20086012D+06 0.20086012D+06 0.10976823D+01  1  2  5  3  7  1        1 -.475742286647D-05 0.100000000000D+01
  </mgrwgt>
  </event>
  <event>
  8     66 0.56006291E-06 0.96620448E+02 0.75467711E-02 0.11031992E+00
        1 -1    0    0  501    0 0.00000000E+00 0.00000000E+00 0.38578300E+04 0.38578300E+04 0.32000000E+00 0.0000E+00 0.9000E+01
       -1 -1    0    0    0  501 0.00000000E+00 0.00000000E+00 -.64446536E+02 0.64447330E+02 0.32000000E+00 0.0000E+00 0.9000E+01
       25  2    1    2    0    0 0.53295992E+02 0.15462823E+02 0.38010974E+04 0.38133627E+04 0.30052186E+03 0.0000E+00 0.0000E+00
       23  2    1    2    0    0 -.53295992E+02 -.15462823E+02 -.77139639E+01 0.10891470E+03 0.93398855E+02 0.0000E+00 0.0000E+00
       23  1    3    3    0    0 0.20617163E+02 0.66718890E+02 0.32184111E+04 0.32204599E+04 0.91188000E+02 0.0000E+00 0.9000E+01
      -13  1    4    4    0    0 -.53907230E+01 -.12651344E+02 -.45692158E+02 0.47716882E+02 0.10565837E+00 0.0000E+00 0.9000E+01
       13  1    4    4    0    0 -.47905269E+02 -.28114789E+01 0.37978194E+02 0.61197823E+02 0.10565837E+00 0.0000E+00 0.9000E+01
       23  1    3    3    0    0 0.32678829E+02 -.51256067E+02 0.58268630E+03 0.59290274E+03 0.91188000E+02 0.0000E+00 0.9000E+01
#aMCatNLO 1  0  0  1  2 0.16422940D+02 0.00000000D+00  -5  7  0 0.00000000D+00 0.00000000D+00 0.00000000D+00 0.00000000D+00 0.00000000D+00
  <mgrwgt>
 0.2573666971D-03    9    2    0
 0.498623468492990D+03 0.000000000000000D+00 0.000000000000000D+00 0.498623468492990D+03
 0.498623468492990D+03 0.000000000000000D+00 0.000000000000000D+00 -.498623468492990D+03
 0.424036718005815D+03 0.206171629856747D+02 0.667188898779732D+02 0.408185508313335D+03
 0.361482243525332D+03 -.539066911044841D+01 -.126513564323639D+02 -.361220564546193D+03
 0.962335813804762D+02 -.479053225189373D+02 -.281146628546709D+01 -.834150940597385D+02
 0.115494394074357D+03 0.326788286437110D+02 -.512560671601421D+02 0.364501502925960D+02
 0.000000000000000D+00 0.000000000000000D+00 0.000000000000000D+00 0.000000000000000D+00
 0.513323084492233D+03 0.000000000000000D+00 0.000000000000000D+00 0.513323084492233D+03
 0.503299348630430D+03 0.000000000000000D+00 0.000000000000000D+00 -.503299348630430D+03
 0.423180990210759D+03 0.149310248344555D+02 0.626781814680029D+02 0.408185508313335D+03
 0.361724308863467D+03 -.102445010462871D+02 -.161006077523517D+02 -.361220564546193D+03
 0.969165305938004D+02 -.492016578173591D+02 -.373267375583981D+01 -.834150940597385D+02
 0.115560326924052D+03 0.311280949286969D+02 -.523580563481006D+02 0.364501502925960D+02
 0.192402765305854D+02 0.133870391004939D+02 0.951315638828923D+01 0.100237358618031D+02
0.575558455214D-04 0.000000000000D+00 0.000000000000D+00 0.485130685886D-06 0.000000000000D+00  7 1 -1 23 -13 13 23 21 0 0.59351237D+00 0.99149137D-02 0.20475701D+05 0.20475701D+05 0.20475701D+05 0.11830469D+01  1  2  2  1  7  1        1 0.610566969023D-04 0.100000000000D+01
0.286107795332D-05 0.000000000000D+00 -.221029601604D-06 0.485130685886D-06 0.000000000000D+00  7 1 -1 23 -13 13 23 21 2 0.59351237D+00 0.99149137D-02 0.20475701D+05 0.20475701D+05 0.20475701D+05 0.11830469D+01  1  2  3  1  7  1        1 0.424793159177D-05 0.100000000000D+01
0.334330115893D-05 0.000000000000D+00 0.000000000000D+00 0.485130685886D-06 0.000000000000D+00  7 1 -1 23 -13 13 23 21 2 0.59351237D+00 0.99149137D-02 0.20475701D+05 0.20475701D+05 0.20475701D+05 0.11830469D+01  1  2 15  1  7  1        1 0.496390341177D-05 0.100000000000D+01
0.676636915470D-04 0.000000000000D+00 0.000000000000D+00 0.485130685886D-06 0.000000000000D+00  7 1 -1 23 -13 13 23 21 2 0.61373705D+00 0.99149137D-02 0.23434285D+05 0.23434285D+05 0.23434285D+05 0.11774213D+01  1  2 12  1  7  1        1 0.753648025922D-04 0.100000000000D+01
-.667666766947D-04 0.000000000000D+00 0.000000000000D+00 0.485130685886D-06 0.000000000000D+00  7 1 -1 23 -13 13 23 21 2 0.59351237D+00 0.99149137D-02 0.20475701D+05 0.20475701D+05 0.20475701D+05 0.11830469D+01  1  2  4  1  7  1        1 -.991305654150D-04 0.100000000000D+01
-.631823662986D-03 0.000000000000D+00 -.108681930673D-03 0.485130685886D-06 0.000000000000D+00  7 1 -1 23 -13 13 23 21 2 0.61220120D+00 0.99149137D-02 0.20475701D+05 0.20475701D+05 0.20475701D+05 0.11830469D+01  1  2  5  1  7  1        1 -.732782359405D-03 0.100000000000D+01
0.635717304614D-03 0.000000000000D+00 0.110318892948D-03 0.485130685886D-06 0.000000000000D+00  7 1 -1 23 -13 13 23 21 2 0.59351237D+00 0.99149137D-02 0.20475701D+05 0.20475701D+05 0.20475701D+05 0.11830469D+01  1  2  6  1  7  1        1 0.943869291842D-03 0.100000000000D+01
0.151298883006D-05 0.000000000000D+00 0.000000000000D+00 0.485130685886D-06 0.000000000000D+00  7 21 -1 23 -13 13 23 -1 2 0.61373705D+00 0.99149137D-02 0.23434285D+05 0.23434285D+05 0.23434285D+05 0.11774213D+01  1  2 12  3  7  1        1 0.156231632136D-06 0.100000000000D+01
-.347018810066D-05 0.000000000000D+00 -.603397921344D-06 0.485130685886D-06 0.000000000000D+00  7 21 -1 23 -13 13 23 -1 2 0.61220120D+00 0.99149137D-02 0.20475701D+05 0.20475701D+05 0.20475701D+05 0.11830469D+01  1  2  5  3  7  1        1 -.379236055394D-06 0.100000000000D+01
  </mgrwgt>
  </event>
  <event>
  8     66 0.56006291E-06 0.12527844E+03 0.75467711E-02 0.95955230E-01
        1 -1    0    0  501    0 0.00000000E+00 0.00000000E+00 0.36744217E+03 0.36744231E+03 0.32000000E+00 0.0000E+00 0.9000E+01
       -1 -1    0    0    0  501 0.00000000E+00 0.00000000E+00 -.84054413E+03 0.84054420E+03 0.32000000E+00 0.0000E+00 0.9000E+01
       25  2    1    2    0    0 0.31811623E+03 -.30715135E+02 -.68553783E+03 0.81356420E+03 0.29963851E+03 0.0000E+00 0.0000E+00
       23  2    1    2    0    0 -.31811623E+03 0.30715135E+02 0.21243587E+03 0.39442231E+03 0.91096669E+02 0.0000E+00 0.0000E+00
       23  1    3    3    0    0 0.28722288E+03 -.50413636E+02 -.35327483E+03 0.46707267E+03 0.91188000E+02 0.0000E+00 0.9000E+01
      -13  1    4    4    0    0 -.31537348E+03 0.14766418E+02 0.19752613E+03 0.37241786E+03 0.10565837E+00 0.0000E+00 0.9000E+01
       13  1    4    4    0    0 -.27427499E+01 0.15948717E+02 0.14909740E+02 0.22004449E+02 0.10565837E+00 0.0000E+00 0.9000E+01
       23  1    3    3    0    0 0.30893348E+02 0.19698501E+02 -.33226300E+03 0.34649153E+03 0.91188000E+02 0.0000E+00 0.9000E+01
#aMCatNLO 1  0  0  2  1 0.14025161D+03 0.00000000D+00  -5  7  0 0.00000000D+00 0.00000000D+00 0.00000000D+00 0.00000000D+00 0.00000000D+00
  <mgrwgt>
 0.2265513068D-03    9    2    0
 0.555744080270585D+03 0.000000000000000D+00 0.000000000000000D+00 0.555744080270585D+03
 0.555744080270585D+03 0.000000000000000D+00 0.000000000000000D+00 -.555744080270585D+03
 0.357252985758956D+03 0.287222882734239D+03 -.504136356838373D+02 -.185137585218830D+03
 0.488827907108042D+03 -.315373901229499D+03 0.147664165034972D+02 0.373194290061571D+03
 0.302605282166822D+02 -.274232937659906D+01 0.159487183988470D+02 0.255698568431100D+02
 0.235146739457491D+03 0.308933478718588D+02 0.196985007814931D+02 -.213626561685851D+03
 0.000000000000000D+00 0.000000000000000D+00 0.000000000000000D+00 -.000000000000000D+00
 0.603815202715276D+03 0.000000000000000D+00 0.000000000000000D+00 0.603815202715276D+03
 0.672774695740371D+03 0.000000000000000D+00 0.000000000000000D+00 -.672774695740371D+03
 0.342607074718969D+03 0.259955242565721D+03 -.849217445971670D+02 -.185137585218830D+03
 0.515914573653685D+03 -.354520236296435D+03 -.347745773521858D+02 0.373194290061571D+03
 0.291360159621681D+02 -.505651143296097D+01 0.130200437518047D+02 0.255698568431100D+02
 0.232644279008221D+03 0.126674797506275D+02 -.336694376304725D+01 -.213626561685851D+03
 0.156287955112606D+03 0.869540254130471D+02 0.110043221960595D+03 -.689594930250954D+02
0.360901950611D-04 0.000000000000D+00 0.000000000000D+00 0.237464855962D-05 0.000000000000D+00  7 1 -1 23 -13 13 23 21 0 0.56529580D-01 0.12931450D+00 0.13531884D+06 0.13531884D+06 0.13531884D+06 0.11110994D+01  1  2  2  2  7  2       -1 0.165312077483D-03 0.100000000000D+01
-.158997569942D-05 0.000000000000D+00 -.138595851801D-06 0.237464855962D-05 0.000000000000D+00  7 1 -1 23 -13 13 23 21 2 0.56529580D-01 0.12931450D+00 0.13531884D+06 0.13531884D+06 0.13531884D+06 0.11110994D+01  1  2  3  2  7  2       -1 -.899107532151D-05 0.100000000000D+01
0.227284601347D-05 0.000000000000D+00 0.000000000000D+00 0.237464855962D-05 0.000000000000D+00  7 1 -1 23 -13 13 23 21 2 0.56529580D-01 0.12931450D+00 0.13531884D+06 0.13531884D+06 0.13531884D+06 0.11110994D+01  1  2 15  2  7  2       -1 0.128526050485D-04 0.100000000000D+01
0.296385030182D-04 0.000000000000D+00 0.000000000000D+00 0.237464855962D-05 0.000000000000D+00  7 1 -1 23 -13 13 23 21 2 0.56529580D-01 0.16123830D+00 0.19840032D+06 0.19840032D+06 0.19840032D+06 0.10980933D+01  1  2 12  2  7  2       -1 0.871859561568D-04 0.100000000000D+01
-.346119191197D-04 0.000000000000D+00 0.000000000000D+00 0.237464855962D-05 0.000000000000D+00  7 1 -1 23 -13 13 23 21 2 0.56529580D-01 0.12931450D+00 0.13531884D+06 0.13531884D+06 0.13531884D+06 0.11110994D+01  1  2  4  2  7  2       -1 -.195725237776D-03 0.100000000000D+01
-.564167511781D-04 0.000000000000D+00 -.192837503869D-04 0.237464855962D-05 0.000000000000D+00  7 1 -1 23 -13 13 23 21 2 0.56529580D-01 0.16506249D+00 0.13531884D+06 0.13531884D+06 0.13531884D+06 0.11110994D+01  1  2  5  2  7  2       -1 -.161209911979D-03 0.100000000000D+01
0.598911111306D-04 0.000000000000D+00 0.187232711831D-04 0.237464855962D-05 0.000000000000D+00  7 1 -1 23 -13 13 23 21 2 0.56529580D-01 0.12931450D+00 0.13531884D+06 0.13531884D+06 0.13531884D+06 0.11110994D+01  1  2  6  2  7  2       -1 0.338675296397D-03 0.100000000000D+01
0.913880747969D-06 0.000000000000D+00 0.000000000000D+00 0.237464855962D-05 0.000000000000D+00  7 1 21 23 -13 13 23 1 2 0.56529580D-01 0.16123830D+00 0.19840032D+06 0.19840032D+06 0.19840032D+06 0.10980933D+01  1  2 12  4  7  2       -1 0.169471629250D-04 0.100000000000D+01
-.156510135930D-05 0.000000000000D+00 -.641160863060D-06 0.237464855962D-05 0.000000000000D+00  7 1 21 23 -13 13 23 1 2 0.56529580D-01 0.16506249D+00 0.13531884D+06 0.13531884D+06 0.13531884D+06 0.11110994D+01  1  2  5  4  7  2       -1 -.284955661684D-04 0.100000000000D+01
  </mgrwgt>
  </event>
  <event>
  8     66 0.56006291E-06 0.18000726E+03 0.75467711E-02 0.94866712E-01
        1 -1    0    0  501    0 0.00000000E+00 0.00000000E+00 0.17344009E+03 0.17344038E+03 0.32000000E+00 0.0000E+00 0.9000E+01
       -1 -1    0    0    0  501 0.00000000E+00 0.00000000E+00 -.30761065E+03 0.30761082E+03 0.32000000E+00 0.0000E+00 0.9000E+01
       25  2    1    2    0    0 -.47997363E+02 0.48380738E+02 -.18662679E+03 0.35901711E+03 0.29903058E+03 0.0000E+00 0.0000E+00
       23  2    1    2    0    0 0.47997363E+02 -.48380738E+02 0.52456228E+02 0.12203409E+03 0.86580712E+02 0.0000E+00 0.0000E+00
       23  1    3    3    0    0 -.75718262E+02 -.70376938E+02 -.31004652E+02 0.14128945E+03 0.91188000E+02 0.0000E+00 0.9000E+01
      -11  1    4    4    0    0 0.46585037E+02 -.40014231E+02 -.71510878E+01 0.61825904E+02 0.51099893E-03 0.0000E+00 0.9000E+01
       11  1    4    4    0    0 0.14123263E+01 -.83665074E+01 0.59607316E+02 0.60208183E+02 0.51099893E-03 0.0000E+00 0.9000E+01
       23  1    3    3    0    0 0.27720899E+02 0.11875768E+03 -.15562214E+03 0.21772766E+03 0.91188000E+02 0.0000E+00 0.9000E+01
#aMCatNLO 1  0  0  2  1 0.42585343D+03 0.00000000D+00  -5  7  0 0.00000000D+00 0.00000000D+00 0.00000000D+00 0.00000000D+00 0.00000000D+00
  <mgrwgt>
 0.1797832139D-03    5    2    0
 0.230980798358458D+03 0.000000000000000D+00 0.000000000000000D+00 0.230980798358458D+03
 0.230980798358458D+03 0.000000000000000D+00 0.000000000000000D+00 -.230980798358458D+03
 0.138123055764740D+03 -.757182620979236D+02 -.703769380183435D+02 0.874977541550841D+01
 0.623037930908711D+02 0.465850370252846D+02 -.400142305391097D+02 0.105099149961323D+02
 0.800083080755121D+02 0.141232642572833D+01 -.836650754273094D+01 0.795571256815546D+02
 0.181526439785792D+03 0.277208986469107D+02 0.118757676100184D+03 -.988168160931953D+02
 0.000000000000000D+00 0.000000000000000D+00 0.000000000000000D+00 -.000000000000000D+00
 0.388396659924418D+03 0.000000000000000D+00 0.000000000000000D+00 0.388396659924418D+03
 0.924782871894354D+03 0.000000000000000D+00 0.000000000000000D+00 -.924782871894354D+03
 0.273944991688397D+03 -.135235608902062D+03 -.219921301019758D+03 0.874977541550841D+01
 0.103129601082292D+03 0.226905449508667D+02 -.100051963878774D+03 0.105099149961323D+02
 0.115501164090246D+03 -.268262257510374D+02 -.793192049345277D+02 0.795571256815546D+02
 0.135723265189800D+03 -.181012922054149D+02 0.362400986182561D+01 -.988168160931953D+02
 0.684880509768036D+03 0.157472581907647D+03 0.395668459971234D+03 -.536386211969936D+03
0.179541986518D-05 0.000000000000D+00 0.000000000000D+00 0.442400198115D-08 0.000000000000D+00  7 1 -1 23 -11 11 23 21 0 0.26683126D-01 0.47324751D-01 0.32402614D+05 0.32402614D+05 0.32402614D+05 0.11642442D+01  1  2  2  2  7  2       -1 0.174927179287D-03 0.100000000000D+01
-.922059210783D-07 0.000000000000D+00 -.689488502720D-08 0.442400198115D-08 0.000000000000D+00  7 1 -1 23 -11 11 23 21 2 0.26683126D-01 0.47324751D-01 0.32402614D+05 0.32402614D+05 0.32402614D+05 0.11642442D+01  1  2  3  2  7  2       -1 -.121769428009D-04 0.100000000000D+01
0.110185577540D-06 0.000000000000D+00 0.000000000000D+00 0.442400198115D-08 0.000000000000D+00  7 1 -1 23 -11 11 23 21 2 0.26683126D-01 0.47324751D-01 0.32402614D+05 0.32402614D+05 0.32402614D+05 0.11642442D+01  1  2 15  2  7  2       -1 0.145513808604D-04 0.100000000000D+01
0.693603441851D-06 0.000000000000D+00 -.763883915044D-06 0.442400198115D-08 0.000000000000D+00  7 1 -1 23 -11 11 23 21 2 0.26683126D-01 0.25909039D+00 0.32402614D+05 0.32402614D+05 0.32402614D+05 0.11642442D+01  1  2  5  2  7  2       -1 0.109787557683D-05 0.100000000000D+01
0.109212567584D-06 0.000000000000D+00 -.158921734584D-06 0.442400198115D-08 0.000000000000D+00  7 1 21 23 -11 11 23 1 2 0.26683126D-01 0.25909039D+00 0.32402614D+05 0.32402614D+05 0.32402614D+05 0.11642442D+01  1  2  5  4  7  2       -1 0.138372097468D-05 0.100000000000D+01
  </mgrwgt>
  </event>
  <event>
  8     66 0.56006291E-06 0.81009323E+03 0.75467711E-02 0.81800718E-01
        1 -1    0    0  501    0 0.00000000E+00 0.00000000E+00 0.92545065E+03 0.92545070E+03 0.32000000E+00 0.0000E+00 0.9000E+01
       -1 -1    0    0    0  501 0.00000000E+00 0.00000000E+00 -.11262439E+04 0.11262439E+04 0.32000000E+00 0.0000E+00 0.9000E+01
       25  2    1    2    0    0 0.49421578E+03 0.60507467E+03 -.72567223E+03 0.11059905E+04 0.29368396E+03 0.0000E+00 0.0000E+00
       23  2    1    2    0    0 -.49421578E+03 -.60507467E+03 0.52487898E+03 0.94570412E+03 0.92161456E+02 0.0000E+00 0.0000E+00
       23  1    3    3    0    0 0.31626921E+03 0.20866287E+03 -.36531135E+03 0.53416668E+03 0.91188000E+02 0.0000E+00 0.9000E+01
      -11  1    4    4    0    0 0.36663634E+01 -.96693473E+01 0.46252353E+01 0.11328341E+02 0.51099893E-03 0.0000E+00 0.9000E+01
       11  1    4    4    0    0 -.49788214E+03 -.59540532E+03 0.52025375E+03 0.93437578E+03 0.51099893E-03 0.0000E+00 0.9000E+01
       23  1    3    3    0    0 0.17794657E+03 0.39641180E+03 -.36036088E+03 0.57182385E+03 0.91188000E+02 0.0000E+00 0.9000E+01
#aMCatNLO 1  0  0  2  2 0.15697061D+04 0.00000000D+00  -5  7  0 0.00000000D+00 0.00000000D+00 0.00000000D+00 0.00000000D+00 0.00000000D+00
  <mgrwgt>
 0.7155907837D-03    5    2    0
 0.102092274308269D+04 0.000000000000000D+00 0.000000000000000D+00 0.102092274308269D+04
 0.102092274308269D+04 0.000000000000000D+00 0.000000000000000D+00 -.102092274308269D+04
 0.500818926682403D+03 0.316269211500439D+03 0.208662867225621D+03 -.314544018664141D+03
 0.118378260267439D+02 0.366636341723522D+01 -.966934732238734D+01 0.576156460445038D+01
 0.990044168615277D+03 -.497882143873784D+03 -.595405322770981D+03 0.614648947153368D+03
 0.539144564840947D+03 0.177946568956110D+03 0.396411802867747D+03 -.305866493093678D+03
 0.000000000000000D+00 -.000000000000000D+00 -.000000000000000D+00 -.000000000000000D+00
 0.178070103352360D+04 0.000000000000000D+00 0.000000000000000D+00 0.178070103352360D+04
 0.253732450416455D+04 0.000000000000000D+00 0.000000000000000D+00 -.253732450416455D+04
 0.911597107912639D+03 0.774627289824732D+03 0.351722416106922D+03 -.314544018664141D+03
 0.154075020654093D+02 0.125080332381352D+02 -.690974657408233D+01 0.576156460445038D+01
 0.747044378274569D+03 0.658388481920216D+02 -.419460630981790D+03 0.614648947153368D+03
 0.901433516777265D+03 0.645443811265411D+03 0.542323804315450D+03 -.305866493093678D+03
 0.174254303265827D+04 -.149841798252030D+04 -.467675842866500D+03 -.756623470640959D+03
0.152771383801D-02 0.000000000000D+00 0.000000000000D+00 0.747037669001D-07 0.000000000000D+00  7 1 -1 23 -11 11 23 21 0 0.14237703D+00 0.17326830D+00 0.65625105D+06 0.65625105D+06 0.65625105D+06 0.10602625D+01  1  2  2  2  7  2       -1 0.708096784434D-03 0.100000000000D+01
-.793515765126D-04 0.000000000000D+00 -.586682339424D-05 0.747037669001D-07 0.000000000000D+00  7 1 -1 23 -11 11 23 21 2 0.14237703D+00 0.17326830D+00 0.65625105D+06 0.65625105D+06 0.65625105D+06 0.10602625D+01  1  2  3  2  7  2       -1 -.413459489495D-04 0.100000000000D+01
0.927645877686D-04 0.000000000000D+00 0.000000000000D+00 0.747037669001D-07 0.000000000000D+00  7 1 -1 23 -11 11 23 21 2 0.14237703D+00 0.17326830D+00 0.65625105D+06 0.65625105D+06 0.65625105D+06 0.10602625D+01  1  2 15  2  7  2       -1 0.483347663495D-04 0.100000000000D+01
0.194968100559D-03 0.000000000000D+00 -.408623110755D-03 0.747037669001D-07 0.000000000000D+00  7 1 -1 23 -11 11 23 21 2 0.14237703D+00 0.52469834D+00 0.65625105D+06 0.65625105D+06 0.65625105D+06 0.10602625D+01  1  2  5  2  7  2       -1 0.720873778887D-07 0.100000000000D+01
0.446844451618D-04 0.000000000000D+00 -.516050958201D-04 0.747037669001D-07 0.000000000000D+00  7 1 21 23 -11 11 23 1 2 0.14237703D+00 0.52469834D+00 0.65625105D+06 0.65625105D+06 0.65625105D+06 0.10602625D+01  1  2  5  4  7  2       -1 0.433094438778D-06 0.100000000000D+01
  </mgrwgt>
  </event>
  <event>
  9     66 0.56006291E-06 0.24107746E+03 0.75467711E-02 0.10268504E+00
        3 -1    0    0  501    0 0.00000000E+00 0.00000000E+00 0.77938924E+02 0.77940528E+02 0.50000000E+00 0.0000E+00 0.9000E+01
       21 -1    0    0  502  501 0.00000000E+00 0.00000000E+00 -.11780470E+04 0.11780472E+04 0.75000000E+00 0.0000E+00 0.9000E+01
       25  2    1    2    0    0 0.71109633E+02 -.10967964E+03 -.92419253E+03 0.98072394E+03 0.30100069E+03 0.0000E+00 0.0000E+00
       23  2    1    2    0    0 -.10574521E+03 0.10126957E+03 -.15551986E+03 0.23419576E+03 0.96039848E+02 0.0000E+00 0.0000E+00
       23  1    3    3    0    0 0.15445206E+03 -.81361359E+02 -.63836755E+03 0.66805950E+03 0.91188000E+02 0.0000E+00 0.9000E+01
      -13  1    4    4    0    0 0.49271158E+01 0.26877884E+02 -.71597180E+02 0.76634617E+02 0.10565837E+00 0.0000E+00 0.9000E+01
       13  1    4    4    0    0 -.11067233E+03 0.74391689E+02 -.83922678E+02 0.15756114E+03 0.10565837E+00 0.0000E+00 0.9000E+01
       23  1    3    3    0    0 -.83342427E+02 -.28318277E+02 -.28582498E+03 0.31266444E+03 0.91188000E+02 0.0000E+00 0.9000E+01
        3  1    1    2  502    0 0.34635577E+02 0.84100635E+01 -.20395699E+02 0.41068076E+02 0.50000000E+00 0.0000E+00 0.9000E+01
#aMCatNLO 2  0  0  2  2 0.35642002D+02 0.00000000D+00  -5  7  0 0.00000000D+00 0.00000000D+00 0.00000000D+00 0.00000000D+00 0.00000000D+00
  <mgrwgt>
 0.1131687888D-04    1    2    0
 0.277930157314471D+03 0.000000000000000D+00 0.000000000000000D+00 0.277930157314471D+03
 0.277930157314471D+03 0.000000000000000D+00 0.000000000000000D+00 -.277930157314471D+03
 0.228565675802523D+03 0.168404104829028D+03 -.779736048481243D+02 -.974022137057797D+02
 0.291388419586207D+02 0.671697494664089D+01 0.273123924176876D+02 -.761495756245014D+01
 0.175591460338085D+03 -.995745760643913D+02 0.770865284346779D+02 0.122372104170631D+03
 0.122564336529714D+03 -.755465037112774D+02 -.264253160042412D+02 -.173549329024010D+02
 0.000000000000000D+00 0.000000000000000D+00 0.000000000000000D+00 0.000000000000000D+00
 0.321080637311333D+03 0.000000000000000D+00 0.000000000000000D+00 0.321080637311333D+03
 0.285959586342685D+03 0.000000000000000D+00 0.000000000000000D+00 -.285959586342685D+03
 0.219721550186742D+03 0.154452074360170D+03 -.813613775910862D+02 -.974022137057797D+02
 0.283669164804521D+02 0.492722487712647D+01 0.268778129121634D+02 -.761495756245014D+01
 0.180990228738883D+03 -.110672457739828D+03 0.743917879717337D+02 0.122372104170631D+03
 0.127923137373286D+03 -.833424181727025D+02 -.283182868214875D+02 -.173549329024010D+02
 0.500383908746548D+02 0.346355766752339D+02 0.841006352867657D+01 0.351210509686478D+02
0.166904080061D-06 0.000000000000D+00 0.000000000000D+00 0.105423744516D-07 0.305335795296D-12  7 3 21 23 -13 13 23 3 2 0.11990694D-01 0.18123737D+00 0.67603120D+05 0.67603120D+05 0.67603120D+05 0.11359482D+01  1  2  1  4  7  2       -3 0.113168788790D-04 0.100000000000D+01
  </mgrwgt>
  </event>
  <event>
  8     66 0.56006291E-06 0.57534484E+03 0.75467711E-02 0.88033386E-01
        1 -1    0    0  501    0 0.00000000E+00 0.00000000E+00 0.10049470E+04 0.10049471E+04 0.32000000E+00 0.0000E+00 0.9000E+01
       -1 -1    0    0    0  501 0.00000000E+00 0.00000000E+00 -.37869402E+03 0.37869416E+03 0.32000000E+00 0.0000E+00 0.9000E+01
       25  2    1    2    0    0 -.92564386E+02 0.53712875E+03 0.11842080E+03 0.63303633E+03 0.29939281E+03 0.0000E+00 0.0000E+00
       23  2    1    2    0    0 0.92564386E+02 -.53712875E+03 0.50783218E+03 0.75060488E+03 0.91862446E+02 0.0000E+00 0.0000E+00
       23  1    3    3    0    0 -.14117090E+03 0.28156052E+03 -.11892202E+02 0.32811922E+03 0.91188000E+02 0.0000E+00 0.9000E+01
      -13  1    4    4    0    0 0.20161442E+01 -.13107970E+03 0.78630064E+02 0.15286809E+03 0.10565837E+00 0.0000E+00 0.9000E+01
       13  1    4    4    0    0 0.90548242E+02 -.40604904E+03 0.42920211E+03 0.59773679E+03 0.10565837E+00 0.0000E+00 0.9000E+01
       23  1    3    3    0    0 0.48606518E+02 0.25556823E+03 0.13031300E+03 0.30491711E+03 0.91188000E+02 0.0000E+00 0.9000E+01
#aMCatNLO 1  0  0  1  2 0.58971207D+03 0.00000000D+00  -5  7  0 0.00000000D+00 0.00000000D+00 0.00000000D+00 0.00000000D+00 0.00000000D+00
  <mgrwgt>
 0.2900699869D-03    3    2    0
 0.616901574554176D+03 0.000000000000000D+00 0.000000000000000D+00 0.616901574554176D+03
 0.616901574554176D+03 0.000000000000000D+00 0.000000000000000D+00 -.616901574554176D+03
 0.374003591299640D+03 -.141170903236153D+03 0.281560519246306D+03 -.179882975965674D+03
 0.131521587409401D+03 0.201602710843109D+01 -.131079340492050D+03 0.105863159576951D+02
 0.452474678372528D+03 0.905483586350210D+02 -.406049406324276D+03 0.177927538454646D+03
 0.275803292026783D+03 0.486065174927014D+02 0.255568227570019D+03 -.863087844666772D+01
 0.000000000000000D+00 -.000000000000000D+00 -.000000000000000D+00 -.000000000000000D+00
 0.837922284283258D+03 0.000000000000000D+00 0.000000000000000D+00 0.837922284283258D+03
 0.124764322432425D+04 0.000000000000000D+00 0.000000000000000D+00 -.124764322432425D+04
 0.548602903246810D+03 -.139629486467907D+03 0.490709298437751D+03 -.179882975965674D+03
 0.831302188877329D+02 0.237465009181200D+01 -.824191982714447D+02 0.105863159576951D+02
 0.307749791008376D+03 0.918184805685451D+02 -.233711556306600D+03 0.177927538454646D+03
 0.428007685736267D+03 0.497823882991750D+02 0.415117512829541D+03 -.863087844666772D+01
 0.718074909728326D+03 -.434603249162530D+01 -.589696056689248D+03 -.409720940040995D+03
0.527087136868D-04 0.000000000000D+00 0.000000000000D+00 0.133635246414D-05 0.000000000000D+00  7 1 -1 23 -13 13 23 21 0 0.15460725D+00 0.58260633D-01 0.33102169D+06 0.33102169D+06 0.33102169D+06 0.10814042D+01  1  2  2  1  7  1        1 0.287266018235D-03 0.100000000000D+01
-.291094561449D-05 0.000000000000D+00 -.202415339080D-06 0.133635246414D-05 0.000000000000D+00  7 1 -1 23 -13 13 23 21 2 0.15460725D+00 0.58260633D-01 0.33102169D+06 0.33102169D+06 0.33102169D+06 0.10814042D+01  1  2  3  1  7  1        1 -.185529104188D-04 0.100000000000D+01
0.335088738797D-05 0.000000000000D+00 0.000000000000D+00 0.133635246414D-05 0.000000000000D+00  7 1 -1 23 -13 13 23 21 2 0.15460725D+00 0.58260633D-01 0.33102169D+06 0.33102169D+06 0.33102169D+06 0.10814042D+01  1  2 15  1  7  1        1 0.213568790921D-04 0.100000000000D+01
  </mgrwgt>
  </event>
  <event>
  8     66 0.56006291E-06 0.56084637E+03 0.75467711E-02 0.88177486E-01
        1 -1    0    0  501    0 0.00000000E+00 0.00000000E+00 0.22224265E+04 0.22224266E+04 0.32000000E+00 0.0000E+00 0.9000E+01
       -1 -1    0    0    0  501 0.00000000E+00 0.00000000E+00 -.19824485E+03 0.19824511E+03 0.32000000E+00 0.0000E+00 0.9000E+01
       25  2    1    2    0    0 -.43671141E+03 0.28992954E+03 0.43135062E+03 0.74134074E+03 0.29790392E+03 0.0000E+00 0.0000E+00
       23  2    1    2    0    0 0.43671141E+03 -.28992954E+03 0.15928311E+04 0.16793309E+04 0.90915080E+02 0.0000E+00 0.0000E+00
       23  1    3    3    0    0 -.25659120E+03 0.28322134E+03 0.34025166E+03 0.51974977E+03 0.91188000E+02 0.0000E+00 0.9000E+01
      -13  1    4    4    0    0 0.28862060E+03 -.22064698E+03 0.12013310E+04 0.12550630E+04 0.10565837E+00 0.0000E+00 0.9000E+01
       13  1    4    4    0    0 0.14809081E+03 -.69282564E+02 0.39150003E+03 0.42426790E+03 0.10565837E+00 0.0000E+00 0.9000E+01
       23  1    3    3    0    0 -.18012021E+03 0.67081969E+01 0.91098958E+02 0.22159098E+03 0.91188000E+02 0.0000E+00 0.9000E+01
#aMCatNLO 1  0  0  2  2 0.60418539D+03 0.00000000D+00  -5  7  0 0.00000000D+00 0.00000000D+00 0.00000000D+00 0.00000000D+00 0.00000000D+00
  <mgrwgt>
 0.2135675543D-03    3    2    0
 0.663765738648147D+03 0.000000000000000D+00 0.000000000000000D+00 0.663765738648147D+03
 0.663765738648147D+03 0.000000000000000D+00 0.000000000000000D+00 -.663765738648147D+03
 0.428925685442459D+03 -.256591200346051D+03 0.283221343973385D+03 -.172071550557217D+03
 0.456775413633806D+03 0.288620794820956D+03 -.220647180956651D+03 0.276869349753881D+03
 0.176677976409201D+03 0.148090615325220D+03 -.692823599371569D+02 0.669644054866918D+02
 0.265152401810829D+03 -.180120209800125D+03 0.670819692042207D+01 -.171762204683355D+03
 0.000000000000000D+00 0.000000000000000D+00 -.000000000000000D+00 0.000000000000000D+00
 0.161382851886697D+04 0.000000000000000D+00 0.000000000000000D+00 0.161382851886697D+04
 0.832447929383961D+03 0.000000000000000D+00 0.000000000000000D+00 -.832447929383961D+03
 0.610998942541508D+03 -.477749861651263D+03 0.327339132435881D+03 -.172071550557217D+03
 0.353393313241055D+03 0.116323854979895D+03 -.186276562597042D+03 0.276869349753881D+03
 0.121850267985359D+03 0.846032191087383D+02 -.566175902203247D+02 0.669644054866918D+02
 0.372311488792899D+03 -.315688362416765D+03 0.337519809806724D+02 -.171762204683355D+03
 0.987722435690111D+03 0.592511149979394D+03 -.118196960599186D+03 0.781380589483010D+03
0.834729093812D-04 0.000000000000D+00 0.000000000000D+00 0.200966851677D-06 0.000000000000D+00  7 1 -1 23 -13 13 23 21 0 0.34191180D+00 0.30499229D-01 0.31454865D+06 0.31454865D+06 0.31454865D+06 0.10830335D+01  1  2  2  2  7  2       -1 0.211375586154D-03 0.100000000000D+01
-.447733117379D-05 0.000000000000D+00 -.320557950945D-06 0.200966851677D-06 0.000000000000D+00  7 1 -1 23 -13 13 23 21 2 0.34191180D+00 0.30499229D-01 0.31454865D+06 0.31454865D+06 0.31454865D+06 0.10830335D+01  1  2  3  2  7  2       -1 -.132987952738D-04 0.100000000000D+01
0.521530534902D-05 0.000000000000D+00 0.000000000000D+00 0.200966851677D-06 0.000000000000D+00  7 1 -1 23 -13 13 23 21 2 0.34191180D+00 0.30499229D-01 0.31454865D+06 0.31454865D+06 0.31454865D+06 0.10830335D+01  1  2 15  2  7  2       -1 0.154907634560D-04 0.100000000000D+01
  </mgrwgt>
  </event>
  <event>
  8     66 0.56006291E-06 0.74207263E+02 0.75467711E-02 0.10529080E+00
        1 -1    0    0  501    0 0.00000000E+00 0.00000000E+00 0.17902567E+03 0.17902596E+03 0.32000000E+00 0.0000E+00 0.9000E+01
       -1 -1    0    0    0  501 0.00000000E+00 0.00000000E+00 -.35968684E+03 0.35968699E+03 0.32000000E+00 0.0000E+00 0.9000E+01
       25  2    1    2    0    0 0.62673817E+02 -.59176713E+02 -.24356977E+03 0.39583731E+03 0.29988507E+03 0.0000E+00 0.0000E+00
       23  2    1    2    0    0 -.62673817E+02 0.59176713E+02 0.62908595E+02 0.14287563E+03 0.95005600E+02 0.0000E+00 0.0000E+00
       23  1    3    3    0    0 -.72805650E+02 0.27606763E+02 -.13828339E+03 0.18303099E+03 0.91188000E+02 0.0000E+00 0.9000E+01
      -11  1    4    4    0    0 0.20981341E+02 0.60306086E+01 0.32601633E+02 0.39235843E+02 0.51099893E-03 0.0000E+00 0.9000E+01
       11  1    4    4    0    0 -.83655157E+02 0.53146104E+02 0.30306961E+02 0.10363979E+03 0.51099893E-03 0.0000E+00 0.9000E+01
       23  1    3    3    0    0 0.13547947E+03 -.86783476E+02 -.10528638E+03 0.21280632E+03 0.91188000E+02 0.0000E+00 0.9000E+01
#aMCatNLO 1  0  0  2  1 0.44912303D+01 0.00000000D+00  -5  7  0 0.00000000D+00 0.00000000D+00 0.00000000D+00 0.00000000D+00 0.00000000D+00
  <mgrwgt>
 0.1653415437D-03   11    2    0
 0.253758336322951D+03 0.000000000000000D+00 0.000000000000000D+00 0.253758336322951D+03
 0.253758336322951D+03 0.000000000000000D+00 0.000000000000000D+00 -.253758336322951D+03
 0.145056755941273D+03 -.728056496433166D+02 0.276067626862256D+02 -.816297441758040D+02
 0.532528432992766D+02 0.209813404389774D+02 0.603060858351446D+01 0.485724246147285D+02
 0.120798762898236D+03 -.836551572196566D+02 0.531461044431827D+02 0.690626336799651D+02
 0.188408310507116D+03 0.135479466423996D+03 -.867834757129227D+02 -.360053141188896D+02
 0.000000000000000D+00 -.000000000000000D+00 0.000000000000000D+00 -.000000000000000D+00
 0.254449109230082D+03 0.000000000000000D+00 0.000000000000000D+00 0.254449109230082D+03
 0.261175020549998D+03 0.000000000000000D+00 0.000000000000000D+00 -.261175020549998D+03
 0.144375264802189D+03 -.716450033173542D+02 0.270655520570216D+02 -.816297441758040D+02
 0.534006517660527D+02 0.214090297695520D+02 0.583117658900730D+01 0.485724246147285D+02
 0.119933791181090D+03 -.826897997802344D+02 0.526959572316596D+02 0.690626336799651D+02
 0.189826836908871D+03 0.136996220627869D+03 -.874907398283244D+02 -.360053141188896D+02
 0.808758512187747D+01 -.407044729983269D+01 0.189805395063588D+01 -.672591131991599D+01
0.145683041174D-05 0.000000000000D+00 0.000000000000D+00 0.340110457147D-07 0.000000000000D+00  7 1 -1 23 -11 11 23 21 0 0.27542444D-01 0.55336470D-01 0.45323170D+05 0.45323170D+05 0.45323170D+05 0.11510658D+01  1  2  2  2  7  2       -1 0.103163410297D-03 0.100000000000D+01
-.779008172698D-07 0.000000000000D+00 -.559461237333D-08 0.340110457147D-07 0.000000000000D+00  7 1 -1 23 -11 11 23 21 2 0.27542444D-01 0.55336470D-01 0.45323170D+05 0.45323170D+05 0.45323170D+05 0.11510658D+01  1  2  3  2  7  2       -1 -.730901806105D-05 0.100000000000D+01
0.923772550851D-07 0.000000000000D+00 0.000000000000D+00 0.340110457147D-07 0.000000000000D+00  7 1 -1 23 -11 11 23 21 2 0.27542444D-01 0.55336470D-01 0.45323170D+05 0.45323170D+05 0.45323170D+05 0.11510658D+01  1  2 15  2  7  2       -1 0.866726498528D-05 0.100000000000D+01
0.130018948254D-05 0.000000000000D+00 0.000000000000D+00 0.340110457147D-07 0.000000000000D+00  7 1 -1 23 -11 11 23 21 2 0.27542444D-01 0.57027881D-01 0.46267504D+05 0.46267504D+05 0.46267504D+05 0.11502709D+01  1  2 12  2  7  2       -1 0.115322057622D-03 0.100000000000D+01
-.298649724918D-04 0.000000000000D+00 0.000000000000D+00 0.340110457147D-07 0.000000000000D+00  7 1 -1 23 -11 11 23 21 2 0.27542444D-01 0.55336470D-01 0.45323170D+05 0.45323170D+05 0.45323170D+05 0.11510658D+01  1  2  4  2  7  2       -1 -.280207103064D-02 0.100000000000D+01
-.692756038520D-04 0.000000000000D+00 -.590519950634D-05 0.340110457147D-07 0.000000000000D+00  7 1 -1 23 -11 11 23 21 2 0.27542444D-01 0.57053065D-01 0.45323170D+05 0.45323170D+05 0.45323170D+05 0.11510658D+01  1  2  5  2  7  2       -1 -.614833877934D-02 0.100000000000D+01
0.694263602980D-04 0.000000000000D+00 0.590244498061D-05 0.340110457147D-07 0.000000000000D+00  7 1 -1 23 -11 11 23 21 2 0.27542444D-01 0.55336470D-01 0.45323170D+05 0.45323170D+05 0.45323170D+05 0.11510658D+01  1  2  6  2  7  2       -1 0.651390497706D-02 0.100000000000D+01
0.285504595572D-04 0.000000000000D+00 0.000000000000D+00 0.340110457147D-07 0.119025299154D-07  7 1 -1 23 -11 11 23 21 2 0.27617419D-01 0.56953809D-01 0.46267504D+05 0.46267504D+05 0.46267504D+05 0.11502709D+01  1  2 11  2  7  2       -1 0.252948919896D-02 0.100000000000D+01
0.416814925878D-07 0.000000000000D+00 0.000000000000D+00 0.340110457147D-07 0.000000000000D+00  7 1 21 23 -11 11 23 1 2 0.27542444D-01 0.57027881D-01 0.46267504D+05 0.46267504D+05 0.46267504D+05 0.11502709D+01  1  2 12  4  7  2       -1 0.335522132258D-04 0.100000000000D+01
-.377254578562D-06 0.000000000000D+00 -.323274983177D-07 0.340110457147D-07 0.000000000000D+00  7 1 21 23 -11 11 23 1 2 0.27542444D-01 0.57053065D-01 0.45323170D+05 0.45323170D+05 0.45323170D+05 0.11510658D+01  1  2  5  4  7  2       -1 -.304023167113D-03 0.100000000000D+01
0.152882573360D-06 0.000000000000D+00 0.000000000000D+00 0.340110457147D-07 0.619407756846D-10  7 1 21 23 -11 11 23 1 2 0.27617419D-01 0.56953809D-01 0.46267504D+05 0.46267504D+05 0.46267504D+05 0.11502709D+01  1  2 11  4  7  2       -1 0.122984416752D-03 0.100000000000D+01
  </mgrwgt>
  </event>
  <event>
  8     66 0.56006291E-06 0.23573431E+03 0.75467711E-02 0.99101403E-01
        1 -1    0    0  501    0 0.00000000E+00 0.00000000E+00 0.46302874E+03 0.46302885E+03 0.32000000E+00 0.0000E+00 0.9000E+01
       -1 -1    0    0    0  501 0.00000000E+00 0.00000000E+00 -.13874915E+03 0.13874952E+03 0.32000000E+00 0.0000E+00 0.9000E+01
       25  2    1    2    0    0 0.11338375E+03 -.26766735E+02 0.30837319E+03 0.44562213E+03 0.29985451E+03 0.0000E+00 0.0000E+00
       23  2    1    2    0    0 -.11338375E+03 0.26766735E+02 0.15906399E+02 0.15615624E+03 0.10275906E+03 0.0000E+00 0.0000E+00
       23  1    3    3    0    0 0.10008744E+02 0.98103449E+02 0.10914547E+03 0.17306775E+03 0.91188000E+02 0.0000E+00 0.9000E+01
      -11  1    4    4    0    0 0.17692927E+02 0.35012851E+01 0.14306551E+02 0.23021209E+02 0.51099893E-03 0.0000E+00 0.9000E+01
       11  1    4    4    0    0 -.13107668E+03 0.23265450E+02 0.15998474E+01 0.13313503E+03 0.51099893E-03 0.0000E+00 0.9000E+01
       23  1    3    3    0    0 0.10337500E+03 -.12487018E+03 0.19922771E+03 0.27255438E+03 0.91188000E+02 0.0000E+00 0.9000E+01
#aMCatNLO 1  0  0  1  2 0.18701098D+03 0.00000000D+00  -5  7  0 0.00000000D+00 0.00000000D+00 0.00000000D+00 0.00000000D+00 0.00000000D+00
  <mgrwgt>
 0.1838204030D-03    3    2    0
 0.253465951237697D+03 0.000000000000000D+00 0.000000000000000D+00 0.253465951237697D+03
 0.253465951237697D+03 0.000000000000000D+00 0.000000000000000D+00 -.253465951237697D+03
 0.135629225607185D+03 0.100087443051092D+02 0.981034491386594D+02 0.188566645867751D+02
 0.181766880438766D+02 0.176929268463507D+02 0.350128506874450D+01 0.225684087198730D+01
 0.157021055036857D+03 -.131076676419993D+03 0.232654500882362D+02 -.832660522408013D+02
 0.196104933787475D+03 0.103375005268533D+03 -.124870184295640D+03 0.621525467820389D+02
 0.000000000000000D+00 -.000000000000000D+00 0.000000000000000D+00 -.000000000000000D+00
 0.311979464897488D+03 0.000000000000000D+00 0.000000000000000D+00 0.311979464897488D+03
 0.479252351218591D+03 0.000000000000000D+00 0.000000000000000D+00 -.479252351218591D+03
 0.125630606498961D+03 0.471758469496219D+02 0.699046751694364D+02 0.188566645867751D+02
 0.237932368872542D+02 0.236636131754458D+02 -.102868962004490D+01 0.225684087198730D+01
 0.123654749335321D+03 -.911474368318212D+02 -.702896410592609D+01 -.832660522408013D+02
 0.267248214585488D+03 0.169292118846250D+03 -.174881663647692D+03 0.621525467820389D+02
 0.250905008809055D+03 -.148984142139497D+03 0.113034642204226D+03 -.167272886321103D+03
0.177031781592D-05 0.000000000000D+00 0.000000000000D+00 0.422988068711D-08 0.000000000000D+00  7 1 -1 23 -11 11 23 21 0 0.71235227D-01 0.21346060D-01 0.55570667D+05 0.55570667D+05 0.55570667D+05 0.11432819D+01  1  2  2  1  7  1        1 0.181673203528D-03 0.100000000000D+01
-.977220267800D-07 0.000000000000D+00 -.679848654851D-08 0.422988068711D-08 0.000000000000D+00  7 1 -1 23 -11 11 23 21 2 0.71235227D-01 0.21346060D-01 0.55570667D+05 0.55570667D+05 0.55570667D+05 0.11432819D+01  1  2  3  1  7  1        1 -.131080706379D-04 0.100000000000D+01
0.113729621540D-06 0.000000000000D+00 0.000000000000D+00 0.422988068711D-08 0.000000000000D+00  7 1 -1 23 -11 11 23 21 2 0.71235227D-01 0.21346060D-01 0.55570667D+05 0.55570667D+05 0.55570667D+05 0.11432819D+01  1  2 15  1  7  1        1 0.152552700950D-04 0.100000000000D+01
  </mgrwgt>
  </event>
  <event>
  8     66 0.56006291E-06 0.55687726E+03 0.75467711E-02 0.81775578E-01
        1 -1    0    0  501    0 0.00000000E+00 0.00000000E+00 0.12261801E+04 0.12261801E+04 0.32000000E+00 0.0000E+00 0.9000E+01
       -1 -1    0    0    0  501 0.00000000E+00 0.00000000E+00 -.27239118E+03 0.27239137E+03 0.32000000E+00 0.0000E+00 0.9000E+01
       25  2    1    2    0    0 0.43570472E+03 0.30829221E+03 0.54149151E+03 0.81739570E+03 0.30006663E+03 0.0000E+00 0.0000E+00
       23  2    1    2    0    0 -.43570472E+03 -.30829221E+03 0.41229737E+03 0.68117576E+03 0.95543797E+02 0.0000E+00 0.0000E+00
       23  1    3    3    0    0 0.35971513E+03 0.23285034E+03 0.27840702E+03 0.51907608E+03 0.91188000E+02 0.0000E+00 0.9000E+01
      -11  1    4    4    0    0 -.27413929E+03 -.17193353E+03 0.30241379E+03 0.44290811E+03 0.51099893E-03 0.0000E+00 0.9000E+01
       11  1    4    4    0    0 -.16156543E+03 -.13635868E+03 0.10988357E+03 0.23826766E+03 0.51099893E-03 0.0000E+00 0.9000E+01
       23  1    3    3    0    0 0.75989583E+02 0.75441869E+02 0.26308449E+03 0.29831961E+03 0.91188000E+02 0.0000E+00 0.9000E+01
#aMCatNLO 1  0  0  2  2 0.17089012D+04 0.00000000D+00  -5  7  0 0.00000000D+00 0.00000000D+00 0.00000000D+00 0.00000000D+00 0.00000000D+00
  <mgrwgt>
 0.3628321077D-03    3    2    0
 0.577928023822064D+03 0.000000000000000D+00 0.000000000000000D+00 0.577928023822064D+03
 0.577928023822064D+03 0.000000000000000D+00 0.000000000000000D+00 -.577928023822064D+03
 0.443248174843032D+03 0.359715134367176D+03 0.232850340391514D+03 -.673753237056406D+02
 0.324686225375541D+03 -.274139290665423D+03 -.171933528814440D+03 0.266018031623773D+02
 0.218241175186677D+03 -.161565426484525D+03 -.136358680997857D+03 -.541491793867657D+02
 0.169680472238878D+03 0.759895827827723D+02 0.754418694207825D+02 0.949226999300290D+02
 0.000000000000000D+00 0.000000000000000D+00 0.000000000000000D+00 0.000000000000000D+00
 0.238141789539608D+04 0.000000000000000D+00 0.000000000000000D+00 0.238141789539608D+04
 0.157240129997546D+04 0.000000000000000D+00 0.000000000000000D+00 -.157240129997546D+04
 0.167735250901168D+03 0.604042720202681D+02 0.107850603744899D+03 -.673753237056406D+02
 0.105149642742782D+04 -.948308833080936D+03 -.453483669014285D+03 0.266018031623773D+02
 0.687651098457008D+03 -.605347346243526D+03 -.321693161221667D+03 -.541491793867657D+02
 0.156208727245832D+03 -.836582459754335D+02 0.876892479557104D+01 0.949226999300290D+02
 0.189072769133971D+04 0.157691015327963D+04 0.658557301695482D+03 0.809016595420627D+03
0.524169249130D-04 0.000000000000D+00 0.000000000000D+00 0.212597610694D-06 0.000000000000D+00  7 1 -1 23 -11 11 23 21 0 0.18864310D+00 0.41906353D-01 0.31011229D+06 0.31011229D+06 0.31011229D+06 0.10834883D+01  1  2  2  2  7  2       -1 0.359250765517D-03 0.100000000000D+01
-.290717685064D-05 0.000000000000D+00 -.201294793359D-06 0.212597610694D-06 0.000000000000D+00  7 1 -1 23 -11 11 23 21 2 0.18864310D+00 0.41906353D-01 0.31011229D+06 0.31011229D+06 0.31011229D+06 0.10834883D+01  1  2  3  2  7  2       -1 -.233908518663D-04 0.100000000000D+01
0.335229082166D-05 0.000000000000D+00 0.000000000000D+00 0.212597610694D-06 0.000000000000D+00  7 1 -1 23 -11 11 23 21 2 0.18864310D+00 0.41906353D-01 0.31011229D+06 0.31011229D+06 0.31011229D+06 0.10834883D+01  1  2 15  2  7  2       -1 0.269721940050D-04 0.100000000000D+01
  </mgrwgt>
  </event>
  <event>
  8     66 0.56006291E-06 0.46050648E+03 0.75467711E-02 0.85136481E-01
        1 -1    0    0  501    0 0.00000000E+00 0.00000000E+00 0.91296733E+03 0.91296739E+03 0.32000000E+00 0.0000E+00 0.9000E+01
       -1 -1    0    0    0  501 0.00000000E+00 0.00000000E+00 -.16138110E+04 0.16138110E+04 0.32000000E+00 0.0000E+00 0.9000E+01
       25  2    1    2    0    0 0.11098572E+04 0.29256897E+03 -.69556213E+03 0.13754146E+04 0.30096326E+03 0.0000E+00 0.0000E+00
       23  2    1    2    0    0 -.11098572E+04 -.29256897E+03 -.52815204E+01 0.11513638E+04 0.90725397E+02 0.0000E+00 0.0000E+00
       23  1    3    3    0    0 0.51830145E+03 0.24776280E+02 -.36630111E+03 0.64167127E+03 0.91188000E+02 0.0000E+00 0.9000E+01
      -13  1    4    4    0    0 -.16310150E+03 -.13280489E+02 -.13950045E+02 0.16423484E+03 0.10565837E+00 0.0000E+00 0.9000E+01
       13  1    4    4    0    0 -.94675574E+03 -.27928848E+03 0.86685244E+01 0.98712899E+03 0.10565837E+00 0.0000E+00 0.9000E+01
       23  1    3    3    0    0 0.59155579E+03 0.26779269E+03 -.32926103E+03 0.73374331E+03 0.91188000E+02 0.0000E+00 0.9000E+01
#aMCatNLO 1  0  0  1  2 0.19808121D+03 0.00000000D+00  -5  7  0 0.00000000D+00 0.00000000D+00 0.00000000D+00 0.00000000D+00 0.00000000D+00
  <mgrwgt>
 0.1761630796D-03    9    2    0
 0.121381910915868D+04 0.000000000000000D+00 0.000000000000000D+00 0.121381910915868D+04
 0.121381910915868D+04 0.000000000000000D+00 0.000000000000000D+00 -.121381910915868D+04
 0.562127125383527D+03 0.518301451559437D+03 0.247762802192108D+02 -.196013762266395D+03
 0.166913428401771D+03 -.163100432731215D+03 -.132801285610112D+02 0.328934584549313D+02
 0.102994520719559D+04 -.946756804452443D+03 -.279288843506430D+03 0.294000722687912D+03
 0.668652457336459D+03 0.591555785624221D+03 0.267792691848230D+03 -.130880418876449D+03
 0.000000000000000D+00 0.000000000000000D+00 0.000000000000000D+00 0.000000000000000D+00
 0.144731702292486D+04 0.000000000000000D+00 0.000000000000000D+00 0.144731702292486D+04
 0.126060059199040D+04 0.000000000000000D+00 0.000000000000000D+00 -.126060059199040D+04
 0.521678649201493D+03 0.474300126500320D+03 0.212451569221678D+02 -.196013762266395D+03
 0.180820211391796D+03 -.177218036897336D+03 -.144130717372096D+02 0.328934584549313D+02
 0.111219323456509D+04 -.103372527436453D+04 -.286268096740330D+03 0.294000722687912D+03
 0.621013856522738D+03 0.539196748585837D+03 0.263590858943231D+03 -.130880418876449D+03
 0.272211663234133D+03 0.197446436175708D+03 0.158451526121414D+02 0.186716430934460D+03
0.107323103464D-02 0.000000000000D+00 0.000000000000D+00 0.257467059155D-05 0.000000000000D+00  7 1 -1 23 -13 13 23 21 0 0.14045652D+00 0.24827862D+00 0.13610668D+07 0.13610668D+07 0.13610668D+07 0.10390666D+01  1  2  2  1  7  1        1 0.116157496532D-03 0.100000000000D+01
-.595100500199D-04 0.000000000000D+00 -.412148976124D-05 0.257467059155D-05 0.000000000000D+00  7 1 -1 23 -13 13 23 21 2 0.14045652D+00 0.24827862D+00 0.13610668D+07 0.13610668D+07 0.13610668D+07 0.10390666D+01  1  2  3  1  7  1        1 -.695394313907D-05 0.100000000000D+01
0.672119756573D-04 0.000000000000D+00 0.000000000000D+00 0.257467059155D-05 0.000000000000D+00  7 1 -1 23 -13 13 23 21 2 0.14045652D+00 0.24827862D+00 0.13610668D+07 0.13610668D+07 0.13610668D+07 0.10390666D+01  1  2 15  1  7  1        1 0.785393823108D-05 0.100000000000D+01
0.226735046995D-02 0.000000000000D+00 0.000000000000D+00 0.257467059155D-05 0.000000000000D+00  7 1 -1 23 -13 13 23 21 2 0.16981959D+00 0.24827862D+00 0.16116739D+07 0.16116739D+07 0.16116739D+07 0.10343387D+01  1  2 12  1  7  1        1 0.183655882920D-03 0.100000000000D+01
-.230315117737D-02 0.000000000000D+00 0.000000000000D+00 0.257467059155D-05 0.000000000000D+00  7 1 -1 23 -13 13 23 21 2 0.14045652D+00 0.24827862D+00 0.13610668D+07 0.13610668D+07 0.13610668D+07 0.10390666D+01  1  2  4  1  7  1        1 -.269130715278D-03 0.100000000000D+01
-.397135261875D-02 0.000000000000D+00 -.748912182668D-03 0.257467059155D-05 0.000000000000D+00  7 1 -1 23 -13 13 23 21 2 0.17086281D+00 0.24827862D+00 0.13610668D+07 0.13610668D+07 0.13610668D+07 0.10390666D+01  1  2  5  1  7  1        1 -.325405081694D-03 0.100000000000D+01
0.405417225448D-02 0.000000000000D+00 0.734759056537D-03 0.257467059155D-05 0.000000000000D+00  7 1 -1 23 -13 13 23 21 2 0.14045652D+00 0.24827862D+00 0.13610668D+07 0.13610668D+07 0.13610668D+07 0.10390666D+01  1  2  6  1  7  1        1 0.473743230331D-03 0.100000000000D+01
0.623283820504D-04 0.000000000000D+00 0.000000000000D+00 0.257467059155D-05 0.000000000000D+00  7 21 -1 23 -13 13 23 -1 2 0.16981959D+00 0.24827862D+00 0.16116739D+07 0.16116739D+07 0.16116739D+07 0.10343387D+01  1  2 12  3  7  1        1 0.554746351029D-05 0.100000000000D+01
-.103553380183D-03 0.000000000000D+00 -.210982727370D-04 0.257467059155D-05 0.000000000000D+00  7 21 -1 23 -13 13 23 -1 2 0.17086281D+00 0.24827862D+00 0.13610668D+07 0.13610668D+07 0.13610668D+07 0.10390666D+01  1  2  5  3  7  1        1 -.930519177298D-05 0.100000000000D+01
  </mgrwgt>
  </event>
  <event>
  8     66 0.56006291E-06 0.27052557E+03 0.75467711E-02 0.91571686E-01
        1 -1    0    0  501    0 0.00000000E+00 0.00000000E+00 0.26085634E+03 0.26085653E+03 0.32000000E+00 0.0000E+00 0.9000E+01
       -1 -1    0    0    0  501 0.00000000E+00 0.00000000E+00 -.39425681E+03 0.39425694E+03 0.32000000E+00 0.0000E+00 0.9000E+01
       25  2    1    2    0    0 -.22821537E+03 0.39510601E+02 -.14817688E+03 0.40685870E+03 0.29989044E+03 0.0000E+00 0.0000E+00
       23  2    1    2    0    0 0.22821537E+03 -.39510601E+02 0.14776405E+02 0.24825478E+03 0.88140515E+02 0.0000E+00 0.0000E+00
       23  1    3    3    0    0 -.16517097E+03 0.40075013E+02 -.20568155E+03 0.28197094E+03 0.91188000E+02 0.0000E+00 0.9000E+01
      -13  1    4    4    0    0 0.97418961E+02 -.42954065E+02 -.28890759E+02 0.11031860E+03 0.10565837E+00 0.0000E+00 0.9000E+01
       13  1    4    4    0    0 0.13079641E+03 0.34434637E+01 0.43667164E+02 0.13793618E+03 0.10565837E+00 0.0000E+00 0.9000E+01
       23  1    3    3    0    0 -.63044392E+02 -.56441144E+00 0.57504676E+02 0.12488776E+03 0.91188000E+02 0.0000E+00 0.9000E+01
#aMCatNLO 1  0  0  2  1 0.55310781D+03 0.00000000D+00  -5  7  0 0.00000000D+00 0.00000000D+00 0.00000000D+00 0.00000000D+00 0.00000000D+00
  <mgrwgt>
 0.1291666323D-03    5    2    0
 0.320693771314100D+03 0.000000000000000D+00 0.000000000000000D+00 0.320693771314100D+03
 0.320693771314100D+03 0.000000000000000D+00 0.000000000000000D+00 -.320693771314100D+03
 0.245226067681198D+03 -.165170974119935D+03 0.400750129085247D+02 -.151436836915715D+03
 0.106670482304732D+03 0.974189131588400D+02 -.429541315094103D+02 -.656427759520290D+01
 0.149970343242322D+03 0.130796453586017D+03 0.344352998588688D+01 0.732907475932480D+02
 0.139520649399948D+03 -.630443926249219D+02 -.564411385001282D+00 0.847103669176702D+02
 0.000000000000000D+00 0.000000000000000D+00 -.000000000000000D+00 -.000000000000000D+00
 0.611471638365768D+03 0.000000000000000D+00 0.000000000000000D+00 0.611471638365768D+03
 0.830284879799249D+03 0.000000000000000D+00 0.000000000000000D+00 -.830284879799249D+03
 0.470334172184006D+03 -.421844113036945D+03 0.109605706516816D+03 -.151436836915715D+03
 0.500831626114606D+02 0.411910125073157D+02 -.277224444348128D+02 -.656427759520290D+01
 0.899393227193269D+02 0.447402928489307D+02 0.267554533548953D+02 0.732907475932480D+02
 0.236582673819587D+03 -.197953538144329D+03 0.359813935311074D+02 0.847103669176702D+02
 0.594817186830637D+03 0.533866345825027D+03 -.144620108968006D+03 -.218813241433481D+03
0.338679188150D-05 0.000000000000D+00 0.000000000000D+00 0.901589248019D-07 0.000000000000D+00  7 1 -1 23 -13 13 23 21 0 0.40131769D-01 0.60654919D-01 0.73184085D+05 0.73184085D+05 0.73184085D+05 0.11330210D+01  1  2  2  2  7  2       -1 0.124279327353D-03 0.100000000000D+01
-.181534334249D-06 0.000000000000D+00 -.130061725878D-07 0.901589248019D-07 0.000000000000D+00  7 1 -1 23 -13 13 23 21 2 0.40131769D-01 0.60654919D-01 0.73184085D+05 0.73184085D+05 0.73184085D+05 0.11330210D+01  1  2  3  2  7  2       -1 -.855155468180D-05 0.100000000000D+01
0.216760510592D-06 0.000000000000D+00 0.000000000000D+00 0.901589248019D-07 0.000000000000D+00  7 1 -1 23 -13 13 23 21 2 0.40131769D-01 0.60654919D-01 0.73184085D+05 0.73184085D+05 0.73184085D+05 0.11330210D+01  1  2 15  2  7  2       -1 0.102109574304D-04 0.100000000000D+01
0.129615137040D-05 0.000000000000D+00 -.117216964920D-05 0.901589248019D-07 0.000000000000D+00  7 1 -1 23 -13 13 23 21 2 0.40131769D-01 0.24601834D+00 0.73184085D+05 0.73184085D+05 0.73184085D+05 0.11330210D+01  1  2  5  2  7  2       -1 0.139726734052D-05 0.100000000000D+01
0.227958262667D-06 0.000000000000D+00 -.196218809622D-06 0.901589248019D-07 0.000000000000D+00  7 1 21 23 -13 13 23 1 2 0.40131769D-01 0.24601834D+00 0.73184085D+05 0.73184085D+05 0.73184085D+05 0.11330210D+01  1  2  5  4  7  2       -1 0.183063489093D-05 0.100000000000D+01
  </mgrwgt>
  </event>
  <event>
  8     66 0.56006291E-06 0.24439825E+03 0.75467711E-02 0.10316112E+00
        1 -1    0    0  501    0 0.00000000E+00 0.00000000E+00 0.20532757E+03 0.20532782E+03 0.32000000E+00 0.0000E+00 0.9000E+01
       -1 -1    0    0    0  501 0.00000000E+00 0.00000000E+00 -.32456723E+03 0.32456739E+03 0.32000000E+00 0.0000E+00 0.9000E+01
       25  2    1    2    0    0 0.98740666E+02 0.10134305E+03 -.14223558E+03 0.36097474E+03 0.30008610E+03 0.0000E+00 0.0000E+00
       23  2    1    2    0    0 -.98740666E+02 -.10134305E+03 0.22995915E+02 0.16892048E+03 0.89359844E+02 0.0000E+00 0.0000E+00
       23  1    3    3    0    0 -.35281743E+02 0.12498405E+03 -.27691392E+02 0.16108346E+03 0.91188000E+02 0.0000E+00 0.9000E+01
      -11  1    4    4    0    0 -.99070723E+02 -.43083787E+02 0.58589774E+01 0.10819218E+03 0.51099893E-03 0.0000E+00 0.9000E+01
       11  1    4    4    0    0 0.33005626E+00 -.58259267E+02 0.17136938E+02 0.60728295E+02 0.51099893E-03 0.0000E+00 0.9000E+01
       23  1    3    3    0    0 0.13402241E+03 -.23640999E+02 -.11454418E+03 0.19989128E+03 0.91188000E+02 0.0000E+00 0.9000E+01
#aMCatNLO 1  0  0  2  1 0.13293414D+02 0.00000000D+00  -5  7  0 0.00000000D+00 0.00000000D+00 0.00000000D+00 0.00000000D+00 0.00000000D+00
  <mgrwgt>
 0.8960000229D-04    4    2    0
 0.258152494816187D+03 0.000000000000000D+00 0.000000000000000D+00 0.258152494816187D+03
 0.258152494816187D+03 0.000000000000000D+00 0.000000000000000D+00 -.258152494816187D+03
 0.158928233849079D+03 -.352817432588934D+02 0.124984053760529D+03 0.878163245564827D+01
 0.112393146781036D+03 -.990707226174370D+02 -.430837874125001D+02 0.309999778321980D+02
 0.662845338236708D+02 0.330056256713895D+00 -.582592673954735D+02 0.316131024993037D+02
 0.178699075178588D+03 0.134022409619617D+03 -.236409989525555D+02 -.713947127871500D+02
 0.000000000000000D+00 0.000000000000000D+00 -.000000000000000D+00 0.000000000000000D+00
 0.296187072816976D+03 0.000000000000000D+00 0.000000000000000D+00 0.296187072816976D+03
 0.259402207024403D+03 0.000000000000000D+00 0.000000000000000D+00 -.259402207024403D+03
 0.162283897126422D+03 -.357719193707383D+02 0.129089366868408D+03 0.878163245564827D+01
 0.111631348610409D+03 -.994125884609701D+02 -.402205994792691D+02 0.309999778321980D+02
 0.648160591132834D+02 0.129994139784386D+00 -.565837111797096D+02 0.316131024993037D+02
 0.177744790590763D+03 0.133478469178503D+03 -.190853999161119D+02 -.713947127871500D+02
 0.391131844005008D+02 0.157604451342088D+01 -.131996562933175D+02 0.367848657925726D+02
0.141359211985D-05 0.000000000000D+00 0.000000000000D+00 0.878850819919D-07 0.000000000000D+00  7 1 -1 23 -11 11 23 21 0 0.31588889D-01 0.49933452D-01 0.59730505D+05 0.59730505D+05 0.59730505D+05 0.11405639D+01  1  2  2  2  7  2       -1 0.100892470434D-03 0.100000000000D+01
-.782466599455D-07 0.000000000000D+00 -.542856594758D-08 0.878850819919D-07 0.000000000000D+00  7 1 -1 23 -11 11 23 21 2 0.31588889D-01 0.49933452D-01 0.59730505D+05 0.59730505D+05 0.59730505D+05 0.11405639D+01  1  2  3  2  7  2       -1 -.726506856315D-05 0.100000000000D+01
0.910704725777D-07 0.000000000000D+00 0.000000000000D+00 0.878850819919D-07 0.000000000000D+00  7 1 -1 23 -11 11 23 21 2 0.31588889D-01 0.49933452D-01 0.59730505D+05 0.59730505D+05 0.59730505D+05 0.11405639D+01  1  2 15  2  7  2       -1 0.845573763552D-05 0.100000000000D+01
-.134446603508D-06 0.000000000000D+00 0.000000000000D+00 0.878850819919D-07 0.000000000000D+00  7 1 -1 23 -11 11 23 21 2 0.31588889D-01 0.49933452D-01 0.59730505D+05 0.59730505D+05 0.59730505D+05 0.11405639D+01  1  2  4  2  7  2       -1 -.124831372131D-04 0.100000000000D+01
  </mgrwgt>
  </event>
  <event>
  8     66 0.56006291E-06 0.53284497E+03 0.75467711E-02 0.92071401E-01
        1 -1    0    0  501    0 0.00000000E+00 0.00000000E+00 0.12286205E+04 0.12286205E+04 0.32000000E+00 0.0000E+00 0.9000E+01
       -1 -1    0    0    0  501 0.00000000E+00 0.00000000E+00 -.25005680E+03 0.25005700E+03 0.32000000E+00 0.0000E+00 0.9000E+01
       25  2    1    2    0    0 -.49088853E+03 -.24868013E+00 0.69331631E+03 0.90096110E+03 0.30011962E+03 0.0000E+00 0.0000E+00
       23  2    1    2    0    0 0.49088853E+03 0.24868013E+00 0.28524734E+03 0.57771640E+03 0.10685776E+03 0.0000E+00 0.0000E+00
       23  1    3    3    0    0 -.43369362E+03 0.47243461E+02 0.61543614E+03 0.75986775E+03 0.91188000E+02 0.0000E+00 0.9000E+01
      -13  1    4    4    0    0 0.47092967E+03 -.23269738E+02 0.26933249E+03 0.54300666E+03 0.10565837E+00 0.0000E+00 0.9000E+01
       13  1    4    4    0    0 0.19958859E+02 0.23518418E+02 0.15914852E+02 0.34709735E+02 0.10565837E+00 0.0000E+00 0.9000E+01
       23  1    3    3    0    0 -.57194906E+02 -.47492142E+02 0.77880174E+02 0.14109335E+03 0.91188000E+02 0.0000E+00 0.9000E+01
#aMCatNLO 1  0  0  1  1 0.18196211D+03 0.00000000D+00  -5  7  0 0.00000000D+00 0.00000000D+00 0.00000000D+00 0.00000000D+00 0.00000000D+00
  <mgrwgt>
 0.2077396050D-03    4    2    0
 0.554278882751851D+03 0.000000000000000D+00 0.000000000000000D+00 0.554278882751851D+03
 0.554278882751851D+03 0.000000000000000D+00 0.000000000000000D+00 -.554278882751851D+03
 0.470301074057534D+03 -.433693625122403D+03 0.472434614707338D+02 0.150152401885957D+03
 0.486554024293633D+03 0.470930111332262D+03 -.232697787273780D+02 -.120075668621463D+03
 0.322493920654058D+02 0.199584204613978D+02 0.235184588585102D+02 -.941099538810204D+01
 0.119453275087128D+03 -.571949066712566D+02 -.474921416018661D+02 -.206657378763918D+02
 0.000000000000000D+00 -.000000000000000D+00 -.000000000000000D+00 -.000000000000000D+00
 0.614460615968190D+03 0.000000000000000D+00 0.000000000000000D+00 0.614460615968190D+03
 0.718573786911797D+03 0.000000000000000D+00 0.000000000000000D+00 -.718573786911797D+03
 0.406271384218408D+03 -.362466036759176D+03 0.530454022014627D+02 0.150152401885957D+03
 0.569799709373352D+03 0.556766174509031D+03 -.162778846796520D+02 -.120075668621463D+03
 0.362595893400834D+02 0.255252500835966D+02 0.239719125871604D+02 -.941099538810204D+01
 0.111061736605686D+03 -.384639641126763D+02 -.459663870304579D+02 -.206657378763918D+02
 0.209641983342457D+03 -.181361423720775D+03 -.147730430785132D+02 -.104113170943608D+03
0.351284433430D-04 0.000000000000D+00 0.000000000000D+00 0.200829745127D-07 0.000000000000D+00  7 1 -1 23 -13 13 23 21 0 0.18901855D+00 0.38470296D-01 0.28392377D+06 0.28392377D+06 0.28392377D+06 0.10863260D+01  1  2  2  1  7  1        1 0.279587897671D-03 0.100000000000D+01
-.194788968601D-05 0.000000000000D+00 -.134902471969D-06 0.200829745127D-07 0.000000000000D+00  7 1 -1 23 -13 13 23 21 2 0.18901855D+00 0.38470296D-01 0.28392377D+06 0.28392377D+06 0.28392377D+06 0.10863260D+01  1  2  3  1  7  1        1 -.182954946681D-04 0.100000000000D+01
0.217564656109D-05 0.000000000000D+00 0.000000000000D+00 0.200829745127D-07 0.000000000000D+00  7 1 -1 23 -13 13 23 21 2 0.18901855D+00 0.38470296D-01 0.28392377D+06 0.28392377D+06 0.28392377D+06 0.10863260D+01  1  2 15  1  7  1        1 0.204346941944D-04 0.100000000000D+01
-.787732037324D-05 0.000000000000D+00 0.000000000000D+00 0.200829745127D-07 0.000000000000D+00  7 1 -1 23 -13 13 23 21 2 0.18901855D+00 0.38470296D-01 0.28392377D+06 0.28392377D+06 0.28392377D+06 0.10863260D+01  1  2  4  1  7  1        1 -.739874921678D-04 0.100000000000D+01
  </mgrwgt>
  </event>
  <event>
  8     66 0.56006291E-06 0.24697544E+03 0.75467711E-02 0.92074278E-01
        1 -1    0    0  501    0 0.00000000E+00 0.00000000E+00 0.15813909E+04 0.15813909E+04 0.32000000E+00 0.0000E+00 0.9000E+01
       -1 -1    0    0    0  501 0.00000000E+00 0.00000000E+00 -.50377018E+03 0.50377028E+03 0.32000000E+00 0.0000E+00 0.9000E+01
       25  2    1    2    0    0 0.24797051E+03 -.33872247E+03 0.14356460E+04 0.15255944E+04 0.30022748E+03 0.0000E+00 0.0000E+00
       23  2    1    2    0    0 -.24797051E+03 0.33872247E+03 -.35802524E+03 0.55956686E+03 0.93331186E+02 0.0000E+00 0.0000E+00
       23  1    3    3    0    0 0.25582443E+03 -.24184696E+03 0.84209643E+03 0.91726645E+03 0.91188000E+02 0.0000E+00 0.9000E+01
      -11  1    4    4    0    0 -.24061235E+02 0.74403075E+02 -.10342082E+03 0.12965580E+03 0.51099893E-03 0.0000E+00 0.9000E+01
       11  1    4    4    0    0 -.22390927E+03 0.26431939E+03 -.25460442E+03 0.42991105E+03 0.51099893E-03 0.0000E+00 0.9000E+01
       23  1    3    3    0    0 -.78539189E+01 -.96875506E+02 0.59354953E+03 0.60832791E+03 0.91188000E+02 0.0000E+00 0.9000E+01
#aMCatNLO 1  0  0  2  1 0.29732019D+03 0.00000000D+00  -5  7  0 0.00000000D+00 0.00000000D+00 0.00000000D+00 0.00000000D+00 0.00000000D+00
  <mgrwgt>
 0.1581314818D-03    6    2    0
 0.892556845773296D+03 0.000000000000000D+00 0.000000000000000D+00 0.892556845773296D+03
 0.892556845773296D+03 0.000000000000000D+00 0.000000000000000D+00 -.892556845773296D+03
 0.563094591962794D+03 0.255824427068129D+03 -.241846960124100D+03 0.429911826480431D+03
 0.213880875466924D+03 -.240612353084657D+02 0.744030751404849D+02 -.199073524747938D+03
 0.655869067921516D+03 -.223909272860492D+03 0.264319391330646D+03 -.556923810902283D+03
 0.352269156195358D+03 -.785391889917160D+01 -.968755063470310D+02 0.326085509169789D+03
 0.000000000000000D+00 -.000000000000000D+00 -.000000000000000D+00 0.000000000000000D+00
 0.105440780701923D+04 0.000000000000000D+00 0.000000000000000D+00 0.105440780701923D+04
 0.105262219775757D+04 0.000000000000000D+00 0.000000000000000D+00 -.105262219775757D+04
 0.535252799616549D+03 0.265334971609168D+03 -.151504067426506D+03 0.429911826480431D+03
 0.228731749659917D+03 -.202286709322333D+02 0.110809502838134D+03 -.199073524747938D+03
 0.704781486753285D+03 -.212127456101756D+03 0.376237631408725D+03 -.556923810902283D+03
 0.340938412195286D+03 -.185146329549932D+01 -.398567730679141D+02 0.326085509169789D+03
 0.297325556551769D+03 -.311273812796794D+02 -.295686293752439D+03 0.178560926165924D+01
0.189783057033D-03 0.000000000000D+00 0.000000000000D+00 0.174986014989D-05 0.000000000000D+00  7 1 -1 23 -11 11 23 21 0 0.24329092D+00 0.77503115D-01 0.21231103D+06 0.21231103D+06 0.21231103D+06 0.10958385D+01  1  2  2  2  7  2       -1 0.239538288977D-03 0.100000000000D+01
-.493929492873D-05 0.000000000000D+00 -.728816910033D-06 0.174986014989D-05 0.000000000000D+00  7 1 -1 23 -11 11 23 21 2 0.24329092D+00 0.77503115D-01 0.21231103D+06 0.21231103D+06 0.21231103D+06 0.10958385D+01  1  2  3  2  7  2       -1 -.748644344193D-05 0.100000000000D+01
0.114065415415D-04 0.000000000000D+00 0.000000000000D+00 0.174986014989D-05 0.000000000000D+00  7 1 -1 23 -11 11 23 21 2 0.24329092D+00 0.77503115D-01 0.21231103D+06 0.21231103D+06 0.21231103D+06 0.10958385D+01  1  2 15  2  7  2       -1 0.172887890581D-04 0.100000000000D+01
0.297269166633D-04 0.000000000000D+00 0.000000000000D+00 0.174986014989D-05 0.000000000000D+00  7 1 -1 23 -11 11 23 21 2 0.24329092D+00 0.97258713D-01 0.39707214D+06 0.39707214D+06 0.39707214D+06 0.10756577D+01  1  2 12  2  7  2       -1 0.258342567300D-04 0.100000000000D+01
-.809638184561D-04 0.000000000000D+00 0.000000000000D+00 0.174986014989D-05 0.000000000000D+00  7 1 -1 23 -11 11 23 21 2 0.24329092D+00 0.77503115D-01 0.21231103D+06 0.21231103D+06 0.21231103D+06 0.10958385D+01  1  2  4  2  7  2       -1 -.122716107554D-03 0.100000000000D+01
0.936574935091D-06 0.000000000000D+00 0.000000000000D+00 0.174986014989D-05 0.000000000000D+00  7 1 21 23 -11 11 23 1 2 0.24329092D+00 0.97258713D-01 0.39707214D+06 0.39707214D+06 0.39707214D+06 0.10756577D+01  1  2 12  4  7  2       -1 0.567269803258D-05 0.100000000000D+01
  </mgrwgt>
  </event>
  <event>
  8     66 0.56006291E-06 0.26888641E+03 0.75467711E-02 0.99791998E-01
        1 -1    0    0  501    0 0.00000000E+00 0.00000000E+00 0.32509034E+04 0.32509034E+04 0.32000000E+00 0.0000E+00 0.9000E+01
       -1 -1    0    0    0  501 0.00000000E+00 0.00000000E+00 -.23901113E+02 0.23903255E+02 0.32000000E+00 0.0000E+00 0.9000E+01
       25  2    1    2    0    0 -.93637844E+02 -.16058228E+03 0.20092897E+04 0.20400120E+04 0.29974873E+03 0.0000E+00 0.0000E+00
       23  2    1    2    0    0 0.93637844E+02 0.16058228E+03 0.12177126E+04 0.12347946E+04 0.85668690E+02 0.0000E+00 0.0000E+00
       23  1    3    3    0    0 -.26943499E+02 -.20458210E+03 0.14739572E+04 0.14911220E+04 0.91188000E+02 0.0000E+00 0.9000E+01
      -13  1    4    4    0    0 0.50225897E+02 0.44887511E+02 0.66677645E+03 0.67017041E+03 0.10565837E+00 0.0000E+00 0.9000E+01
       13  1    4    4    0    0 0.43411948E+02 0.11569477E+03 0.55093612E+03 0.56462421E+03 0.10565837E+00 0.0000E+00 0.9000E+01
       23  1    3    3    0    0 -.66694345E+02 0.43999821E+02 0.53533251E+03 0.54889003E+03 0.91188000E+02 0.0000E+00 0.9000E+01
#aMCatNLO 1  0  0  1  1 0.10176106D+03 0.00000000D+00  -5  7  0 0.00000000D+00 0.00000000D+00 0.00000000D+00 0.00000000D+00 0.00000000D+00
  <mgrwgt>
 0.2006173116D-03    4    2    0
 0.278753910555168D+03 0.000000000000000D+00 0.000000000000000D+00 0.278753910555168D+03
 0.278753910555168D+03 0.000000000000000D+00 0.000000000000000D+00 -.278753910555168D+03
 0.227213082064341D+03 -.269434997799483D+02 -.204582101913665D+03 0.270322901984249D+02
 0.771098570312125D+02 0.502259067609911D+02 0.448874039143684D+02 0.375287797728438D+02
 0.127644930659965D+03 0.434119384463434D+02 0.115694877998510D+03 -.319894846539923D+02
 0.125539951354817D+03 -.666943454273862D+02 0.439998200007867D+02 -.325715853172763D+02
 0.000000000000000D+00 0.000000000000000D+00 -.000000000000000D+00 -.000000000000000D+00
 0.326285056799151D+03 0.000000000000000D+00 0.000000000000000D+00 0.326285056799151D+03
 0.343669073246868D+03 0.000000000000000D+00 0.000000000000000D+00 -.343669073246868D+03
 0.208594577556562D+03 -.553468171245630D+02 -.177207312385264D+03 0.270322901984249D+02
 0.774686190601510D+02 0.401514130843789D+02 0.545970846765259D+02 0.375287797728438D+02
 0.138703023906477D+03 0.260529836170034D+02 0.132425238368767D+03 -.319894846539923D+02
 0.141952655353356D+03 -.841279017863530D+02 0.608020804645176D+02 -.325715853172763D+02
 0.103235254169474D+03 0.732703222095336D+02 -.706170911245463D+02 -.173840164477172D+02
0.235685678655D-04 0.000000000000D+00 0.000000000000D+00 0.134418373725D-07 0.000000000000D+00  7 1 -1 23 -13 13 23 21 0 0.50013914D+00 0.36772603D-02 0.72299901D+05 0.72299901D+05 0.72299901D+05 0.11334680D+01  1  2  2  1  7  1        1 0.316807724031D-03 0.100000000000D+01
-.130729702784D-05 0.000000000000D+00 -.905095063499D-07 0.134418373725D-07 0.000000000000D+00  7 1 -1 23 -13 13 23 21 2 0.50013914D+00 0.36772603D-02 0.72299901D+05 0.72299901D+05 0.72299901D+05 0.11334680D+01  1  2  3  1  7  1        1 -.225764367874D-04 0.100000000000D+01
0.151167216065D-05 0.000000000000D+00 0.000000000000D+00 0.134418373725D-07 0.000000000000D+00  7 1 -1 23 -13 13 23 21 2 0.50013914D+00 0.36772603D-02 0.72299901D+05 0.72299901D+05 0.72299901D+05 0.11334680D+01  1  2 15  1  7  1        1 0.261059042065D-04 0.100000000000D+01
-.693242448217D-05 0.000000000000D+00 0.000000000000D+00 0.134418373725D-07 0.000000000000D+00  7 1 -1 23 -13 13 23 21 2 0.50013914D+00 0.36772603D-02 0.72299901D+05 0.72299901D+05 0.72299901D+05 0.11334680D+01  1  2  4  1  7  1        1 -.119719879853D-03 0.100000000000D+01
  </mgrwgt>
  </event>
  <event>
  8     66 0.56006291E-06 0.71180781E+03 0.75467711E-02 0.80838336E-01
        1 -1    0    0  501    0 0.00000000E+00 0.00000000E+00 0.61882073E+03 0.61882082E+03 0.32000000E+00 0.0000E+00 0.9000E+01
       -1 -1    0    0    0  501 0.00000000E+00 0.00000000E+00 -.95701251E+03 0.95701256E+03 0.32000000E+00 0.0000E+00 0.9000E+01
       25  2    1    2    0    0 0.48844757E+03 -.47823514E+03 0.10848312E+03 0.75426286E+03 0.29975656E+03 0.0000E+00 0.0000E+00
       23  2    1    2    0    0 -.48844757E+03 0.47823514E+03 -.44667490E+03 0.82157052E+03 0.90386755E+02 0.0000E+00 0.0000E+00
       23  1    3    3    0    0 0.11364131E+03 -.24969689E+03 -.14122905E+02 0.28944359E+03 0.91188000E+02 0.0000E+00 0.9000E+01
      -11  1    4    4    0    0 -.44562914E+03 0.40966976E+03 -.36602412E+03 0.70738129E+03 0.51099893E-03 0.0000E+00 0.9000E+01
       11  1    4    4    0    0 -.42818436E+02 0.68565386E+02 -.80650780E+02 0.11418922E+03 0.51099893E-03 0.0000E+00 0.9000E+01
       23  1    3    3    0    0 0.37480626E+03 -.22853825E+03 0.12260603E+03 0.46481927E+03 0.91188000E+02 0.0000E+00 0.9000E+01
#aMCatNLO 1  0  0  2  1 0.18400707D+04 0.00000000D+00  -5  7  0 0.00000000D+00 0.00000000D+00 0.00000000D+00 0.00000000D+00 0.00000000D+00
  <mgrwgt>
 0.3077807377D-03    5    2    0
 0.769557854321702D+03 0.000000000000000D+00 0.000000000000000D+00 0.769557854321702D+03
 0.769557854321702D+03 0.000000000000000D+00 0.000000000000000D+00 -.769557854321702D+03
 0.293245416159488D+03 0.113641312524024D+03 -.249696892864374D+03 0.491399688262584D+02
 0.643829895990622D+03 -.445629138584840D+03 0.409669756494001D+03 -.219322357340911D+03
 0.991918665891513D+02 -.428184357510270D+02 0.685653855372397D+02 -.574838748120276D+02
 0.502848529904143D+03 0.374806261811843D+03 -.228538249166867D+03 0.227666263326680D+03
 0.000000000000000D+00 -.000000000000000D+00 -.000000000000000D+00 -.000000000000000D+00
 0.190664342176589D+04 0.000000000000000D+00 0.000000000000000D+00 0.190664342176589D+04
 0.239639017972796D+04 0.000000000000000D+00 0.000000000000000D+00 -.239639017972796D+04
 0.446154545511064D+03 0.423164395463632D+03 -.962069904520304D+02 0.491399688262584D+02
 0.743777423498052D+03 0.135242538047824D+03 0.697719152079266D+03 -.219322357340911D+03
 0.145158725880265D+03 0.594701125583011D+02 0.119289419262900D+03 -.574838748120276D+02
 0.106381265623440D+04 0.103063237135049D+04 0.966804214296486D+02 0.227666263326680D+03
 0.190413025037007D+04 -.164850941742025D+04 -.817482002319784D+03 -.489746757962061D+03
0.207817984339D-03 0.000000000000D+00 0.000000000000D+00 0.359249557642D-05 0.000000000000D+00  7 1 -1 23 -11 11 23 21 0 0.95203200D-01 0.14723270D+00 0.50667036D+06 0.50667036D+06 0.50667036D+06 0.10681039D+01  1  2  2  2  7  2       -1 0.304527006464D-03 0.100000000000D+01
-.114600210388D-04 0.000000000000D+00 -.798075779594D-06 0.359249557642D-05 0.000000000000D+00  7 1 -1 23 -11 11 23 21 2 0.95203200D-01 0.14723270D+00 0.50667036D+06 0.50667036D+06 0.50667036D+06 0.10681039D+01  1  2  3  2  7  2       -1 -.191582163886D-04 0.100000000000D+01
0.133719464377D-04 0.000000000000D+00 0.000000000000D+00 0.359249557642D-05 0.000000000000D+00  7 1 -1 23 -11 11 23 21 2 0.95203200D-01 0.14723270D+00 0.50667036D+06 0.50667036D+06 0.50667036D+06 0.10681039D+01  1  2 15  2  7  2       -1 0.223544653646D-04 0.100000000000D+01
0.760715791624D-04 0.000000000000D+00 -.669785416760D-04 0.359249557642D-05 0.000000000000D+00  7 1 -1 23 -11 11 23 21 2 0.95203200D-01 0.62431882D+00 0.50667036D+06 0.50667036D+06 0.50667036D+06 0.10681039D+01  1  2  5  2  7  2       -1 0.202507646649D-07 0.100000000000D+01
0.133281304196D-04 0.000000000000D+00 -.116289679464D-04 0.359249557642D-05 0.000000000000D+00  7 1 21 23 -11 11 23 1 2 0.95203200D-01 0.62431882D+00 0.50667036D+06 0.50667036D+06 0.50667036D+06 0.10681039D+01  1  2  5  4  7  2       -1 0.372315205946D-07 0.100000000000D+01
  </mgrwgt>
  </event>
  <event>
  9     66 0.56006291E-06 0.25249782E+03 0.75467711E-02 0.10236069E+00
        1 -1    0    0  501    0 0.00000000E+00 0.00000000E+00 0.41555110E+03 0.41555123E+03 0.32000000E+00 0.0000E+00 0.9000E+01
       21 -1    0    0  502  501 0.00000000E+00 0.00000000E+00 -.24004548E+03 0.24004665E+03 0.75000000E+00 0.0000E+00 0.9000E+01
       25  2    1    2    0    0 -.83438822E+02 -.15441125E+03 -.38865751E+02 0.35015169E+03 0.30048426E+03 0.0000E+00 0.0000E+00
       23  2    1    2    0    0 0.10067950E+03 0.13218664E+03 0.18922446E+03 0.26771499E+03 0.90861155E+02 0.0000E+00 0.0000E+00
       23  1    3    3    0    0 0.67271257E+02 -.16834130E+02 0.25893549E+02 0.11745015E+03 0.91188000E+02 0.0000E+00 0.9000E+01
      -11  1    4    4    0    0 0.59475834E+02 0.68148152E+02 0.37429263E+02 0.97890220E+02 0.51099893E-03 0.0000E+00 0.9000E+01
       11  1    4    4    0    0 0.41203662E+02 0.64038492E+02 0.15179520E+03 0.16982477E+03 0.51099893E-03 0.0000E+00 0.9000E+01
       23  1    3    3    0    0 -.15071008E+03 -.13757712E+03 -.64759299E+02 0.23270154E+03 0.91188000E+02 0.0000E+00 0.9000E+01
        1  1    1    2  502    0 -.17240674E+02 0.22224602E+02 0.25146908E+02 0.37731196E+02 0.32000000E+00 0.0000E+00 0.9000E+01
#aMCatNLO 2  0  0  2  2 0.28127812D+02 0.00000000D+00  -5  7  0 0.00000000D+00 0.00000000D+00 0.00000000D+00 0.00000000D+00 0.00000000D+00
  <mgrwgt>
 0.2489082709D-04    1    2    0
 0.299316021645922D+03 0.000000000000000D+00 0.000000000000000D+00 0.299316021645922D+03
 0.299316021645922D+03 0.000000000000000D+00 0.000000000000000D+00 -.299316021645922D+03
 0.112157843161221D+03 0.640078195877672D+02 -.126272995311380D+02 -.277142143091909D+01
 0.924515358461257D+02 0.568279005438188D+02 0.715615488385947D+02 0.140292882182498D+02
 0.138345733370180D+03 0.372407990694315D+02 0.691469386763014D+02 0.113891903566931D+03
 0.255676930914318D+03 -.158076519201017D+03 -.128081187983758D+03 -.125149770354262D+03
 0.000000000000000D+00 -.000000000000000D+00 0.000000000000000D+00 0.000000000000000D+00
 0.324171030815139D+03 0.000000000000000D+00 0.000000000000000D+00 0.324171030815139D+03
 0.307711292434115D+03 0.000000000000000D+00 0.000000000000000D+00 -.307711292434115D+03
 0.114593813235220D+03 0.672712567290379D+02 -.168341298895012D+02 -.277142143091909D+01
 0.915334165037236D+02 0.594758341310543D+02 0.681481515769044D+02 0.140292882182498D+02
 0.137003780902778D+03 0.412036624327676D+02 0.640384922190069D+02 0.113891903566931D+03
 0.256161486423685D+03 -.150710079069927D+03 -.137577115937949D+03 -.125149770354262D+03
 0.325898261838475D+02 -.172406742229332D+02 0.222246020315392D+02 0.164597383810248D+02
0.389501775671D-07 0.000000000000D+00 0.000000000000D+00 0.417498111242D-06 0.190024798313D-10  7 1 21 23 -11 11 23 1 2 0.63930878D-01 0.36930081D-01 0.70968410D+05 0.70968410D+05 0.70968410D+05 0.11341527D+01  1  2  1  4  7  2       -1 0.248908270919D-04 0.100000000000D+01
  </mgrwgt>
  </event>
  <event>
  8     66 0.56006291E-06 0.37413930E+03 0.75467711E-02 0.97880938E-01
        1 -1    0    0  501    0 0.00000000E+00 0.00000000E+00 0.30500446E+04 0.30500446E+04 0.32000000E+00 0.0000E+00 0.9000E+01
       -1 -1    0    0    0  501 0.00000000E+00 0.00000000E+00 -.87974914E+02 0.87975496E+02 0.32000000E+00 0.0000E+00 0.9000E+01
       25  2    1    2    0    0 -.31205649E+03 -.28768342E+02 0.53386496E+03 0.68802861E+03 0.30027439E+03 0.0000E+00 0.0000E+00
       23  2    1    2    0    0 0.31205649E+03 0.28768342E+02 0.24282047E+04 0.24499915E+04 0.89851330E+02 0.0000E+00 0.0000E+00
       23  1    3    3    0    0 -.30948950E+03 0.22653434E+02 0.44830112E+03 0.55279840E+03 0.91188000E+02 0.0000E+00 0.9000E+01
      -11  1    4    4    0    0 0.52455433E+02 -.19703896E+02 0.27487991E+03 0.28053303E+03 0.51099893E-03 0.0000E+00 0.9000E+01
       11  1    4    4    0    0 0.25960106E+03 0.48472239E+02 0.21533248E+04 0.21694584E+04 0.51099893E-03 0.0000E+00 0.9000E+01
       23  1    3    3    0    0 -.25669900E+01 -.51421776E+02 0.85563835E+02 0.13523021E+03 0.91188000E+02 0.0000E+00 0.9000E+01
#aMCatNLO 1  0  0  1  2 0.95412917D+01 0.00000000D+00  -5  7  0 0.00000000D+00 0.00000000D+00 0.00000000D+00 0.00000000D+00 0.00000000D+00
  <mgrwgt>
 0.1369833193D-03    6    2    0
 0.518004197637728D+03 0.000000000000000D+00 0.000000000000000D+00 0.518004197637728D+03
 0.518004197637728D+03 0.000000000000000D+00 0.000000000000000D+00 -.518004197637728D+03
 0.392654488508661D+03 -.309489500383078D+03 0.226534336156245D+02 -.222632807780106D+03
 0.638072452988900D+02 0.524554327558317D+02 -.197038963564267D+02 0.305212810249888D+02
 0.414577847664121D+03 0.259601057605101D+03 0.484722387093273D+02 0.319581796632152D+03
 0.164968813803785D+03 -.256698997785487D+01 -.514217759685251D+02 -.127470269877035D+03
 0.000000000000000D+00 0.000000000000000D+00 -.000000000000000D+00 -.000000000000000D+00
 0.519591108168519D+03 0.000000000000000D+00 0.000000000000000D+00 0.519591108168519D+03
 0.532569226560477D+03 0.000000000000000D+00 0.000000000000000D+00 -.532569226560477D+03
 0.393150218756005D+03 -.309834034885747D+03 0.262554163985071D+02 -.222632807780106D+03
 0.635833104765162D+02 0.523995786213717D+02 -.191199617167347D+02 0.305212810249888D+02
 0.414812166053230D+03 0.259237413211968D+03 0.522740084392438D+02 0.319581796632152D+03
 0.164506635114450D+03 -.271144782964084D+01 -.499115217241633D+02 -.127470269877035D+03
 0.161080043287956D+02 0.908490882048877D+00 -.949794139685283D+01 -.129781183919581D+02
0.629366412826D-04 0.000000000000D+00 0.000000000000D+00 0.138544630291D-05 0.000000000000D+00  7 1 -1 23 -11 11 23 21 0 0.46923767D+00 0.13534648D-01 0.13998021D+06 0.13998021D+06 0.13998021D+06 0.11099291D+01  1  2  2  1  7  1        1 0.162633928052D-03 0.100000000000D+01
-.304646406363D-05 0.000000000000D+00 -.241693274123D-06 0.138544630291D-05 0.000000000000D+00  7 1 -1 23 -11 11 23 21 2 0.46923767D+00 0.13534648D-01 0.13998021D+06 0.13998021D+06 0.13998021D+06 0.11099291D+01  1  2  3  1  7  1        1 -.969826647717D-05 0.100000000000D+01
0.395119937454D-05 0.000000000000D+00 0.000000000000D+00 0.138544630291D-05 0.000000000000D+00  7 1 -1 23 -11 11 23 21 2 0.46923767D+00 0.13534648D-01 0.13998021D+06 0.13998021D+06 0.13998021D+06 0.11099291D+01  1  2 15  1  7  1        1 0.125784462374D-04 0.100000000000D+01
-.896257427942D-05 0.000000000000D+00 0.000000000000D+00 0.138544630291D-05 0.000000000000D+00  7 1 -1 23 -11 11 23 21 2 0.46923767D+00 0.13534648D-01 0.13998021D+06 0.13998021D+06 0.13998021D+06 0.11099291D+01  1  2  4  1  7  1        1 -.285319084249D-04 0.100000000000D+01
0.373176222712D-09 0.000000000000D+00 0.000000000000D+00 0.138544630291D-05 0.998772229010D-07  7 1 -1 23 -11 11 23 21 2 0.47067519D+00 0.13915210D-01 0.14356690D+06 0.14356690D+06 0.14356690D+06 0.11090573D+01  1  2 11  1  7  1        1 0.111597365036D-08 0.100000000000D+01
0.613055411452D-11 0.000000000000D+00 0.000000000000D+00 0.138544630291D-05 0.579781099491D-10  7 21 -1 23 -11 11 23 -1 2 0.47067519D+00 0.13915210D-01 0.14356690D+06 0.14356690D+06 0.14356690D+06 0.11090573D+01  1  2 11  3  7  1        1 0.398581211705D-11 0.100000000000D+01
  </mgrwgt>
  </event>
  <event>
  8     66 0.56006291E-06 0.23730201E+03 0.75467711E-02 0.95911308E-01
        1 -1    0    0  501    0 0.00000000E+00 0.00000000E+00 0.50239579E+03 0.50239589E+03 0.32000000E+00 0.0000E+00 0.9000E+01
       -1 -1    0    0    0  501 0.00000000E+00 0.00000000E+00 -.37702542E+03 0.37702556E+03 0.32000000E+00 0.0000E+00 0.9000E+01
       25  2    1    2    0    0 -.17974446E+03 -.32434219E+03 -.17196908E+01 0.47676335E+03 0.29965715E+03 0.0000E+00 0.0000E+00
       23  2    1    2    0    0 0.17974446E+03 0.32434219E+03 0.12709005E+03 0.40265810E+03 0.92063774E+02 0.0000E+00 0.0000E+00
       23  1    3    3    0    0 -.11140891E+03 -.12748089E+02 0.90072701E+01 0.14481313E+03 0.91188000E+02 0.0000E+00 0.9000E+01
      -13  1    4    4    0    0 0.52281896E+02 0.10736495E+03 0.87207893E+02 0.14787108E+03 0.10565837E+00 0.0000E+00 0.9000E+01
       13  1    4    4    0    0 0.12746256E+03 0.21697724E+03 0.39882161E+02 0.25478702E+03 0.10565837E+00 0.0000E+00 0.9000E+01
       23  1    3    3    0    0 -.68335547E+02 -.31159410E+03 -.10726961E+02 0.33195022E+03 0.91188000E+02 0.0000E+00 0.9000E+01
#aMCatNLO 1  0  0  2  1 0.46292909D+02 0.00000000D+00  -5  7  0 0.00000000D+00 0.00000000D+00 0.00000000D+00 0.00000000D+00 0.00000000D+00
  <mgrwgt>
 0.1933606369D-03    9    2    0
 0.435219585550408D+03 0.000000000000000D+00 0.000000000000000D+00 0.435219585550408D+03
 0.435219585550408D+03 0.000000000000000D+00 0.000000000000000D+00 -.435219585550408D+03
 0.145010161827039D+03 -.111408912740221D+03 -.127480886472067D+02 -.117573843599983D+02
 0.136836194334379D+03 0.522817974844475D+02 0.107364805161698D+03 0.668098521499762D+02
 0.251672104304579D+03 0.127462662790618D+03 0.216977380983371D+03 0.359636219219246D+01
 0.336920710634820D+03 -.683355475348450D+02 -.311594097497862D+03 -.586488299821704D+02
 0.000000000000000D+00 0.000000000000000D+00 0.000000000000000D+00 -.000000000000000D+00
 0.442094996131262D+03 0.000000000000000D+00 0.000000000000000D+00 0.442094996131262D+03
 0.521414385214700D+03 0.000000000000000D+00 0.000000000000000D+00 -.521414385214700D+03
 0.148709728256800D+03 -.115233804399358D+03 -.195516283432617D+02 -.117573843599983D+02
 0.130689587788878D+03 0.487980118533300D+02 0.101168009030955D+03 0.668098521499762D+02
 0.238646778293024D+03 0.121077611360053D+03 0.205619947952445D+03 0.359636219219246D+01
 0.353623214525378D+03 -.773279780401793D+02 -.327589415368082D+03 -.586488299821704D+02
 0.918400724818817D+02 0.226861592261544D+02 0.403530867279433D+02 -.793193890834388D+02
0.884221567361D-05 0.000000000000D+00 0.000000000000D+00 0.780873913996D-06 0.000000000000D+00  7 1 -1 23 -13 13 23 21 0 0.77291678D-01 0.58003929D-01 0.17951055D+06 0.17951055D+06 0.17951055D+06 0.11014488D+01  1  2  2  2  7  2       -1 0.144623264839D-03 0.100000000000D+01
-.490803424214D-06 0.000000000000D+00 -.339564363955D-07 0.780873913996D-06 0.000000000000D+00  7 1 -1 23 -13 13 23 21 2 0.77291678D-01 0.58003929D-01 0.17951055D+06 0.17951055D+06 0.17951055D+06 0.11014488D+01  1  2  3  2  7  2       -1 -.973897540814D-05 0.100000000000D+01
0.568342632794D-06 0.000000000000D+00 0.000000000000D+00 0.780873913996D-06 0.000000000000D+00  7 1 -1 23 -13 13 23 21 2 0.77291678D-01 0.58003929D-01 0.17951055D+06 0.17951055D+06 0.17951055D+06 0.11014488D+01  1  2 15  2  7  2       -1 0.112775800883D-04 0.100000000000D+01
0.411254842196D-04 0.000000000000D+00 0.000000000000D+00 0.780873913996D-06 0.000000000000D+00  7 1 -1 23 -13 13 23 21 2 0.77291678D-01 0.69889725D-01 0.19990043D+06 0.19990043D+06 0.19990043D+06 0.10978420D+01  1  2 12  2  7  2       -1 0.566601208125D-03 0.100000000000D+01
-.414363575670D-04 0.000000000000D+00 0.000000000000D+00 0.780873913996D-06 0.000000000000D+00  7 1 -1 23 -13 13 23 21 2 0.77291678D-01 0.58003929D-01 0.17951055D+06 0.17951055D+06 0.17951055D+06 0.11014488D+01  1  2  4  2  7  2       -1 -.822218524645D-03 0.100000000000D+01
-.559766024837D-04 0.000000000000D+00 -.632531619077D-05 0.780873913996D-06 0.000000000000D+00  7 1 -1 23 -13 13 23 21 2 0.77291678D-01 0.70137924D-01 0.17951055D+06 0.17951055D+06 0.17951055D+06 0.11014488D+01  1  2  5  2  7  2       -1 -.773318695152D-03 0.100000000000D+01
0.562722719588D-04 0.000000000000D+00 0.621289166521D-05 0.780873913996D-06 0.000000000000D+00  7 1 -1 23 -13 13 23 21 2 0.77291678D-01 0.58003929D-01 0.17951055D+06 0.17951055D+06 0.17951055D+06 0.11014488D+01  1  2  6  2  7  2       -1 0.111660645735D-02 0.100000000000D+01
0.111463477159D-05 0.000000000000D+00 0.000000000000D+00 0.780873913996D-06 0.000000000000D+00  7 1 21 23 -13 13 23 1 2 0.77291678D-01 0.69889725D-01 0.19990043D+06 0.19990043D+06 0.19990043D+06 0.10978420D+01  1  2 12  4  7  2       -1 0.123587126858D-03 0.100000000000D+01
-.147284785738D-05 0.000000000000D+00 -.173960942062D-06 0.780873913996D-06 0.000000000000D+00  7 1 21 23 -13 13 23 1 2 0.77291678D-01 0.70137924D-01 0.17951055D+06 0.17951055D+06 0.17951055D+06 0.11014488D+01  1  2  5  4  7  2       -1 -.164058805153D-03 0.100000000000D+01
  </mgrwgt>
  </event>
  <event>
  8     66 0.56006291E-06 0.25329162E+03 0.75467711E-02 0.88927501E-01
        1 -1    0    0  501    0 0.00000000E+00 0.00000000E+00 0.61988188E+03 0.61988196E+03 0.32000000E+00 0.0000E+00 0.9000E+01
       -1 -1    0    0    0  501 0.00000000E+00 0.00000000E+00 -.84168368E+03 0.84168374E+03 0.32000000E+00 0.0000E+00 0.9000E+01
       25  2    1    2    0    0 -.16346839E+03 -.62739130E+03 -.34791259E+03 0.79452054E+03 0.29979654E+03 0.0000E+00 0.0000E+00
       23  2    1    2    0    0 0.16346839E+03 0.62739130E+03 0.12611079E+03 0.66704516E+03 0.93292788E+02 0.0000E+00 0.0000E+00
       23  1    3    3    0    0 0.17755420E+02 -.34419402E+03 -.11161063E+03 0.37357323E+03 0.91188000E+02 0.0000E+00 0.9000E+01
      -13  1    4    4    0    0 0.23773564E+02 0.74674148E+02 -.14891696E+02 0.79769572E+02 0.10565837E+00 0.0000E+00 0.9000E+01
       13  1    4    4    0    0 0.13969483E+03 0.55271716E+03 0.14100248E+03 0.58727558E+03 0.10565837E+00 0.0000E+00 0.9000E+01
       23  1    3    3    0    0 -.18122381E+03 -.28319729E+03 -.23630195E+03 0.42094731E+03 0.91188000E+02 0.0000E+00 0.9000E+01
#aMCatNLO 1  0  0  2  1 0.32009790D+03 0.00000000D+00  -5  7  0 0.00000000D+00 0.00000000D+00 0.00000000D+00 0.00000000D+00 0.00000000D+00
  <mgrwgt>
 0.2467533373D-03    7    2    0
 0.722318879824553D+03 0.000000000000000D+00 0.000000000000000D+00 0.722318879824553D+03
 0.722318879824553D+03 0.000000000000000D+00 0.000000000000000D+00 -.722318879824553D+03
 0.360814591820549D+03 0.177554200438303D+02 -.344194015685810D+03 -.555620639624973D+02
 0.784172143972434D+02 0.237734157207584D+02 0.746735350158238D+02 -.281911103572556D+01
 0.615806587974744D+03 0.139694976712773D+03 0.552717769233445D+03 0.232822109877730D+03
 0.389599365456569D+03 -.181223812477362D+03 -.283197288563459D+03 -.174440934879507D+03
 0.000000000000000D+00 -.000000000000000D+00 -.000000000000000D+00 -.000000000000000D+00
 0.776615190494346D+03 0.000000000000000D+00 0.000000000000000D+00 0.776615190494346D+03
 0.143634712871409D+04 0.000000000000000D+00 0.000000000000000D+00 -.143634712871409D+04
 0.367852564816691D+03 0.972978140303886D+02 -.338299054878008D+03 -.555620639624973D+02
 0.867952470832000D+02 0.418082545121942D+02 0.760101136944655D+02 -.281911103572556D+01
 0.670662310845065D+03 0.280127841113607D+03 0.563125379443294D+03 0.232822109877730D+03
 0.354365829188040D+03 -.100011461837317D+03 -.277178565714691D+03 -.174440934879507D+03
 0.733286367275436D+03 -.319222447818873D+03 -.236578725450608D+02 -.659731938219740D+03
0.122294153608D-03 0.000000000000D+00 0.000000000000D+00 0.155325622752D-05 0.000000000000D+00  7 1 -1 23 -13 13 23 21 0 0.95366454D-01 0.12948981D+00 0.45788237D+06 0.45788237D+06 0.45788237D+06 0.10712218D+01  1  2  2  2  7  2       -1 0.254777059323D-03 0.100000000000D+01
-.675891389409D-05 0.000000000000D+00 -.469641750646D-06 0.155325622752D-05 0.000000000000D+00  7 1 -1 23 -13 13 23 21 2 0.95366454D-01 0.12948981D+00 0.45788237D+06 0.45788237D+06 0.45788237D+06 0.10712218D+01  1  2  3  2  7  2       -1 -.161581027615D-04 0.100000000000D+01
0.780863365523D-05 0.000000000000D+00 0.000000000000D+00 0.155325622752D-05 0.000000000000D+00  7 1 -1 23 -13 13 23 21 2 0.95366454D-01 0.12948981D+00 0.45788237D+06 0.45788237D+06 0.45788237D+06 0.10712218D+01  1  2 15  2  7  2       -1 0.186676005946D-04 0.100000000000D+01
0.128128563248D-03 0.000000000000D+00 0.000000000000D+00 0.155325622752D-05 0.000000000000D+00  7 1 -1 23 -13 13 23 21 2 0.95366454D-01 0.25778865D+00 0.72922131D+06 0.72922131D+06 0.72922131D+06 0.10571168D+01  1  2 12  2  7  2       -1 0.250586138408D-04 0.100000000000D+01
-.178203628146D-03 0.000000000000D+00 -.341046908743D-04 0.155325622752D-05 0.000000000000D+00  7 1 -1 23 -13 13 23 21 2 0.95366454D-01 0.26384863D+00 0.45788237D+06 0.45788237D+06 0.45788237D+06 0.10712218D+01  1  2  5  2  7  2       -1 -.329596113627D-04 0.100000000000D+01
0.954776583207D-05 0.000000000000D+00 0.000000000000D+00 0.155325622752D-05 0.000000000000D+00  7 1 21 23 -13 13 23 1 2 0.95366454D-01 0.25778865D+00 0.72922131D+06 0.72922131D+06 0.72922131D+06 0.10571168D+01  1  2 12  4  7  2       -1 0.135628212380D-04 0.100000000000D+01
-.116421088398D-04 0.000000000000D+00 -.262513980273D-05 0.155325622752D-05 0.000000000000D+00  7 1 21 23 -13 13 23 1 2 0.95366454D-01 0.26384863D+00 0.45788237D+06 0.45788237D+06 0.45788237D+06 0.10712218D+01  1  2  5  4  7  2       -1 -.161950436095D-04 0.100000000000D+01
  </mgrwgt>
  </event>
  <event>
  8     66 0.56006291E-06 0.19120015E+03 0.75467711E-02 0.10201471E+00
        1 -1    0    0  501    0 0.00000000E+00 0.00000000E+00 0.26814889E+03 0.26814908E+03 0.32000000E+00 0.0000E+00 0.9000E+01
       -1 -1    0    0    0  501 0.00000000E+00 0.00000000E+00 -.15557872E+03 0.15557905E+03 0.32000000E+00 0.0000E+00 0.9000E+01
       25  2    1    2    0    0 -.37662576E+02 0.16560139E+02 0.54787120E+02 0.30772814E+03 0.30000379E+03 0.0000E+00 0.0000E+00
       23  2    1    2    0    0 0.37662576E+02 -.16560139E+02 0.57783047E+02 0.11599999E+03 0.91784581E+02 0.0000E+00 0.0000E+00
       23  1    3    3    0    0 0.22390384E+02 -.10390671E+03 0.30641951E+02 0.14336008E+03 0.91188000E+02 0.0000E+00 0.9000E+01
      -13  1    4    4    0    0 0.11903546E+02 0.26805107E+02 -.10461076E+02 0.31139259E+02 0.10565837E+00 0.0000E+00 0.9000E+01
       13  1    4    4    0    0 0.25759031E+02 -.43365246E+02 0.68244123E+02 0.84860731E+02 0.10565837E+00 0.0000E+00 0.9000E+01
       23  1    3    3    0    0 -.60052960E+02 0.12046684E+03 0.24145169E+02 0.16436806E+03 0.91188000E+02 0.0000E+00 0.9000E+01
#aMCatNLO 1  0  0  1  2 0.14544367D+03 0.00000000D+00  -5  7  0 0.00000000D+00 0.00000000D+00 0.00000000D+00 0.00000000D+00 0.00000000D+00
  <mgrwgt>
 0.4217830260D-03    6    2    0
 0.204250757196053D+03 0.000000000000000D+00 0.000000000000000D+00 0.204250757196053D+03
 0.204250757196053D+03 0.000000000000000D+00 0.000000000000000D+00 -.204250757196053D+03
 0.140259697026190D+03 0.223902988097391D+02 -.103906615248127D+03 -.772146959891035D+01
 0.351826283448736D+02 0.119035731970276D+02 0.268051757956153D+02 -.194320568381904D+02
 0.692180677008271D+02 0.257591384561238D+02 -.433653742528514D+02 0.474030800491346D+02
 0.163841121320215D+03 -.600530104628905D+02 0.120466813705363D+03 -.202495536120338D+02
 0.000000000000000D+00 0.000000000000000D+00 -.000000000000000D+00 0.000000000000000D+00
 0.317432781815213D+03 0.000000000000000D+00 0.000000000000000D+00 0.317432781815213D+03
 0.269368250000351D+03 0.000000000000000D+00 0.000000000000000D+00 -.269368250000351D+03
 0.111849573333695D+03 0.465888310380206D+01 -.641385174944652D+02 -.772146959891035D+01
 0.443367812624656D+02 0.631079310438902D+01 0.393486877817628D+02 -.194320568381904D+02
 0.556379632420580D+02 0.169777311525314D+02 -.236703950218897D+02 0.474030800491346D+02
 0.221796885423250D+03 -.871758044792161D+02 0.181297936368203D+03 -.202495536120338D+02
 0.153179828554096D+03 0.592283971184937D+02 -.132837711633611D+03 0.480645318148619D+02
0.159648348742D-05 0.000000000000D+00 0.000000000000D+00 0.164298591360D-06 0.000000000000D+00  7 1 -1 23 -13 13 23 21 0 0.41253715D-01 0.23935228D-01 0.36557497D+05 0.36557497D+05 0.36557497D+05 0.11594530D+01  1  2  2  1  7  1        1 0.278592978649D-03 0.100000000000D+01
-.882233891646D-07 0.000000000000D+00 -.613091695543D-08 0.164298591360D-06 0.000000000000D+00  7 1 -1 23 -13 13 23 21 2 0.41253715D-01 0.23935228D-01 0.36557497D+05 0.36557497D+05 0.36557497D+05 0.11594530D+01  1  2  3  1  7  1        1 -.206964445288D-04 0.100000000000D+01
0.101349022716D-06 0.000000000000D+00 0.000000000000D+00 0.164298591360D-06 0.000000000000D+00  7 1 -1 23 -13 13 23 21 2 0.41253715D-01 0.23935228D-01 0.36557497D+05 0.36557497D+05 0.36557497D+05 0.11594530D+01  1  2 15  1  7  1        1 0.237756047071D-04 0.100000000000D+01
-.564237026944D-06 0.000000000000D+00 -.545865811066D-06 0.164298591360D-06 0.000000000000D+00  7 1 -1 23 -13 13 23 21 2 0.81261405D-01 0.23935228D-01 0.36557497D+05 0.36557497D+05 0.36557497D+05 0.11594530D+01  1  2  5  1  7  1        1 -.541633981213D-04 0.100000000000D+01
0.839162108501D-06 0.000000000000D+00 0.440665190663D-06 0.164298591360D-06 0.000000000000D+00  7 1 -1 23 -13 13 23 21 2 0.41253715D-01 0.23935228D-01 0.36557497D+05 0.36557497D+05 0.36557497D+05 0.11594530D+01  1  2  6  1  7  1        1 0.196860177259D-03 0.100000000000D+01
-.909069543956D-08 0.000000000000D+00 -.400739844787D-07 0.164298591360D-06 0.000000000000D+00  7 21 -1 23 -13 13 23 -1 2 0.81261405D-01 0.23935228D-01 0.36557497D+05 0.36557497D+05 0.36557497D+05 0.11594530D+01  1  2  5  3  7  1        1 -.258589193631D-05 0.100000000000D+01
  </mgrwgt>
  </event>
  <event>
  9     66 0.56006291E-06 0.30284088E+03 0.75467711E-02 0.99960133E-01
        1 -1    0    0  502    0 0.00000000E+00 0.00000000E+00 0.14808014E+04 0.14808015E+04 0.32000000E+00 0.0000E+00 0.9000E+01
       -1 -1    0    0    0  501 0.00000000E+00 0.00000000E+00 -.95113841E+02 0.95114379E+02 0.32000000E+00 0.0000E+00 0.9000E+01
       25  2    1    2    0    0 -.10660568E+03 0.22906109E+03 0.71762086E+03 0.81703781E+03 0.29788812E+03 0.0000E+00 0.0000E+00
       23  2    1    2    0    0 0.85560032E+02 -.25705084E+03 0.42092986E+03 0.50927126E+03 0.93699594E+02 0.0000E+00 0.0000E+00
       23  1    3    3    0    0 0.89065203E+01 0.10172040E+03 0.10014376E+03 0.16961836E+03 0.91188000E+02 0.0000E+00 0.9000E+01
      -13  1    4    4    0    0 0.63548770E+01 -.82168582E+02 0.65369295E+02 0.10519133E+03 0.10565837E+00 0.0000E+00 0.9000E+01
       13  1    4    4    0    0 0.79205155E+02 -.17488226E+03 0.35556056E+03 0.40407993E+03 0.10565837E+00 0.0000E+00 0.9000E+01
       23  1    3    3    0    0 -.11551220E+03 0.12734069E+03 0.61747710E+03 0.64741945E+03 0.91188000E+02 0.0000E+00 0.9000E+01
       21  1    1    2  502  501 0.21045649E+02 0.27989754E+02 0.24713687E+03 0.24960678E+03 0.75000000E+00 0.0000E+00 0.9000E+01
#aMCatNLO 2  0  0  1  2 0.35019218D+02 0.00000000D+00  -5  7  0 0.00000000D+00 0.00000000D+00 0.00000000D+00 0.00000000D+00 0.00000000D+00
  <mgrwgt>
 0.6891861641D-05    2    2    0
 0.339695329431640D+03 0.000000000000000D+00 0.000000000000000D+00 0.339695329431640D+03
 0.339695329431640D+03 0.000000000000000D+00 0.000000000000000D+00 -.339695329431640D+03
 0.167771217906388D+03 0.140276753015898D+02 0.108531301749591D+03 -.886347058435069D+02
 0.926179062849745D+02 0.926931559901258D+01 -.782922751849621D+02 -.486053083448751D+02
 0.188232250129163D+03 0.851018762148358D+02 -.167040131056990D+03 0.169306015801623D+02
 0.230769284542755D+03 -.108398867115438D+03 0.136801104492361D+03 0.120309412608220D+03
 0.000000000000000D+00 0.000000000000000D+00 0.000000000000000D+00 0.000000000000000D+00
 0.408693785158196D+03 0.000000000000000D+00 0.000000000000000D+00 0.408693785158196D+03
 0.344618910206709D+03 0.000000000000000D+00 0.000000000000000D+00 -.344618910206709D+03
 0.163088099024422D+03 0.890652000851843D+01 0.101720398744659D+03 -.886347058435069D+02
 0.956792348628554D+02 0.635478712206152D+01 -.821684651510197D+02 -.486053083448751D+02
 0.192727691831094D+03 0.792052460660589D+02 -.174882380256817D+03 0.169306015801623D+02
 0.228797567951571D+03 -.115512202296698D+03 0.127340693083498D+03 0.120309412608220D+03
 0.730201016949629D+02 0.210456491000590D+02 0.279897535796793D+02 0.640748749514874D+02
-.128715238388D-04 0.000000000000D+00 0.000000000000D+00 0.100224264362D-07 0.000000000000D+00  7 1 -1 23 -13 13 23 21 2 0.22900236D+00 0.14423802D-01 0.10269719D+06 0.10269719D+06 0.10269719D+06 0.11207748D+01  1  2 13  1  7  1        1 -.442028250972D-03 0.100000000000D+01
0.132136245147D-04 0.000000000000D+00 0.000000000000D+00 0.100224264362D-07 0.558792727479D-10  7 1 -1 23 -13 13 23 21 2 0.22781439D+00 0.14632862D-01 0.10269719D+06 0.10269719D+06 0.10269719D+06 0.11207748D+01  1  2  1  1  7  1        1 0.448920112613D-03 0.100000000000D+01
  </mgrwgt>
  </event>
  <event>
  8     66 0.56006291E-06 0.29492562E+03 0.75467711E-02 0.86692833E-01
        1 -1    0    0  501    0 0.00000000E+00 0.00000000E+00 0.12996154E+04 0.12996154E+04 0.32000000E+00 0.0000E+00 0.9000E+01
       -1 -1    0    0    0  501 0.00000000E+00 0.00000000E+00 -.22769484E+03 0.22769507E+03 0.32000000E+00 0.0000E+00 0.9000E+01
       25  2    1    2    0    0 -.21101605E+03 -.15194287E+02 0.12053697E+04 0.12599330E+04 0.29959357E+03 0.0000E+00 0.0000E+00
       23  2    1    2    0    0 0.21101605E+03 0.15194287E+02 -.13344916E+03 0.26737753E+03 0.94463877E+02 0.0000E+00 0.0000E+00
       23  1    3    3    0    0 0.33853816E+01 -.74726905E+02 0.53186503E+03 0.54478549E+03 0.91188000E+02 0.0000E+00 0.9000E+01
      -11  1    4    4    0    0 0.21769379E+03 0.25470300E+02 -.12340024E+03 0.25152920E+03 0.51099893E-03 0.0000E+00 0.9000E+01
       11  1    4    4    0    0 -.66777351E+01 -.10276012E+02 -.10048928E+02 0.15848329E+02 0.51099893E-03 0.0000E+00 0.9000E+01
       23  1    3    3    0    0 -.21440143E+03 0.59532618E+02 0.67350468E+03 0.71514747E+03 0.91188000E+02 0.0000E+00 0.9000E+01
#aMCatNLO 1  0  0  2  2 0.10295718D+04 0.00000000D+00  -5  7  0 0.00000000D+00 0.00000000D+00 0.00000000D+00 0.00000000D+00 0.00000000D+00
  <mgrwgt>
 0.3038156922D-03    5    2    0
 0.543981547040922D+03 0.000000000000000D+00 0.000000000000000D+00 0.543981547040922D+03
 0.543981547040922D+03 0.000000000000000D+00 0.000000000000000D+00 -.543981547040922D+03
 0.240761426438287D+03 0.338538159634700D+01 -.747269054880730D+02 0.209893406052268D+03
 0.474683781041879D+03 0.217693787401112D+03 0.254702995456235D+02 -.421052693557742D+03
 0.321490413078322D+02 -.667773515179229D+01 -.102760123792663D+02 -.297215793630887D+02
 0.340368845293847D+03 -.214401433845666D+03 0.595326183217158D+02 0.240880866868563D+03
 0.000000000000000D+00 0.000000000000000D+00 -.000000000000000D+00 -.000000000000000D+00
 0.104544151598418D+04 0.000000000000000D+00 0.000000000000000D+00 0.104544151598418D+04
 0.164273632308035D+04 0.000000000000000D+00 0.000000000000000D+00 -.164273632308035D+04
 0.288449628076596D+03 -.169556324006978D+03 0.456437036024137D+02 0.209893406052268D+03
 0.498221723268541D+03 -.100243519219484D+03 0.246760514748486D+03 -.421052693557742D+03
 0.438937573416304D+02 -.315278798815609D+02 0.702014557565716D+01 -.297215793630887D+02
 0.667327364219747D+03 -.543708049262155D+03 0.288736081632807D+03 0.240880866868563D+03
 0.119028536615801D+04 0.845035772370177D+03 -.588160445559364D+03 -.597294807096174D+03
0.314946931880D-04 0.000000000000D+00 0.000000000000D+00 0.452191775139D-06 0.000000000000D+00  7 1 -1 23 -11 11 23 21 0 0.19994085D+00 0.35029996D-01 0.86981120D+05 0.86981120D+05 0.86981120D+05 0.11267271D+01  1  2  2  2  7  2       -1 0.274460212619D-03 0.100000000000D+01
-.952404960557D-06 0.000000000000D+00 -.120947914585D-06 0.452191775139D-06 0.000000000000D+00  7 1 -1 23 -11 11 23 21 2 0.19994085D+00 0.35029996D-01 0.86981120D+05 0.86981120D+05 0.86981120D+05 0.11267271D+01  1  2  3  2  7  2       -1 -.105366153223D-04 0.100000000000D+01
0.187893900731D-05 0.000000000000D+00 0.000000000000D+00 0.452191775139D-06 0.000000000000D+00  7 1 -1 23 -11 11 23 21 2 0.19994085D+00 0.35029996D-01 0.86981120D+05 0.86981120D+05 0.86981120D+05 0.11267271D+01  1  2 15  2  7  2       -1 0.207870163996D-04 0.100000000000D+01
0.323043891759D-04 0.000000000000D+00 -.135133499831D-04 0.452191775139D-06 0.000000000000D+00  7 1 -1 23 -11 11 23 21 2 0.19994085D+00 0.19060013D+00 0.86981120D+05 0.86981120D+05 0.86981120D+05 0.11267271D+01  1  2  5  2  7  2       -1 0.854519229788D-05 0.100000000000D+01
0.609061789762D-05 0.000000000000D+00 -.280063035508D-05 0.452191775139D-06 0.000000000000D+00  7 1 21 23 -11 11 23 1 2 0.19994085D+00 0.19060013D+00 0.86981120D+05 0.86981120D+05 0.86981120D+05 0.11267271D+01  1  2  5  4  7  2       -1 0.105598862020D-04 0.100000000000D+01
  </mgrwgt>
  </event>
  <event>
  8     66 0.56006291E-06 0.17083763E+03 0.75467711E-02 0.99440095E-01
        1 -1    0    0  501    0 0.00000000E+00 0.00000000E+00 0.18602567E+03 0.18602595E+03 0.32000000E+00 0.0000E+00 0.9000E+01
       -1 -1    0    0    0  501 0.00000000E+00 0.00000000E+00 -.25356209E+03 0.25356229E+03 0.32000000E+00 0.0000E+00 0.9000E+01
       25  2    1    2    0    0 -.38996586E+02 0.67706300E+02 -.81262692E+02 0.32050286E+03 0.30002263E+03 0.0000E+00 0.0000E+00
       23  2    1    2    0    0 0.38996586E+02 -.67706300E+02 0.13726275E+02 0.11908538E+03 0.88814636E+02 0.0000E+00 0.0000E+00
       23  1    3    3    0    0 0.41061193E+02 0.92926064E+02 -.12887221E+03 0.18773538E+03 0.91188000E+02 0.0000E+00 0.9000E+01
      -13  1    4    4    0    0 0.15546297E+02 -.48435411E+02 -.34951656E+02 0.61719574E+02 0.10565837E+00 0.0000E+00 0.9000E+01
       13  1    4    4    0    0 0.23450290E+02 -.19270889E+02 0.48677931E+02 0.57365803E+02 0.10565837E+00 0.0000E+00 0.9000E+01
       23  1    3    3    0    0 -.80057779E+02 -.25219764E+02 0.47609523E+02 0.13276748E+03 0.91188000E+02 0.0000E+00 0.9000E+01
#aMCatNLO 1  0  0  1  2 0.25112599D+03 0.00000000D+00  -5  7  0 0.00000000D+00 0.00000000D+00 0.00000000D+00 0.00000000D+00 0.00000000D+00
  <mgrwgt>
 0.2989014320D-03    3    2    0
 0.217184627152835D+03 0.000000000000000D+00 0.000000000000000D+00 0.217184627152835D+03
 0.217184627152835D+03 0.000000000000000D+00 0.000000000000000D+00 -.217184627152835D+03
 0.169953808425474D+03 0.410611719805049D+02 0.929261004701779D+02 -.101231248442941D+03
 0.570267734630155D+02 0.155463068053148D+02 -.484354626843367D+02 -.257753989468902D+02
 0.656235841304976D+02 0.234503181271613D+02 -.192709044609338D+02 0.581822104695670D+02
 0.141765088286683D+03 -.800577969129810D+02 -.252197333249074D+02 0.688244369202645D+02
 0.000000000000000D+00 0.000000000000000D+00 0.000000000000000D+00 -.000000000000000D+00
 0.314166645041117D+03 0.000000000000000D+00 0.000000000000000D+00 0.314166645041117D+03
 0.499946962882499D+03 0.000000000000000D+00 0.000000000000000D+00 -.499946962882499D+03
 0.137870259377809D+03 0.153834188698926D+02 0.144409777875717D+02 -.101231248442941D+03
 0.896908543709420D+02 0.330756585377025D+01 -.858436845378922D+02 -.257753989468902D+02
 0.821747559423247D+02 0.111214274279014D+02 -.569546727760029D+02 0.581822104695670D+02
 0.192002021215101D+03 -.107899640130083D+03 -.110319487621595D+03 0.688244369202645D+02
 0.312375717017439D+03 0.780872279785185D+02 0.238676867147919D+03 -.185780317841382D+03
0.236157949575D-05 0.000000000000D+00 0.000000000000D+00 0.598520956564D-07 0.000000000000D+00  7 1 -1 23 -13 13 23 21 0 0.28619371D-01 0.39009589D-01 0.29185495D+05 0.29185495D+05 0.29185495D+05 0.11684467D+01  1  2  2  1  7  1        1 0.293422700863D-03 0.100000000000D+01
-.122007962231D-06 0.000000000000D+00 -.906908708183D-08 0.598520956564D-07 0.000000000000D+00  7 1 -1 23 -13 13 23 21 2 0.28619371D-01 0.39009589D-01 0.29185495D+05 0.29185495D+05 0.29185495D+05 0.11684467D+01  1  2  3  1  7  1        1 -.206965094920D-04 0.100000000000D+01
0.154305622204D-06 0.000000000000D+00 0.000000000000D+00 0.598520956564D-07 0.000000000000D+00  7 1 -1 23 -13 13 23 21 2 0.28619371D-01 0.39009589D-01 0.29185495D+05 0.29185495D+05 0.29185495D+05 0.11684467D+01  1  2 15  1  7  1        1 0.261752406664D-04 0.100000000000D+01
  </mgrwgt>
  </event>
  <event>
  8     66 0.56006291E-06 0.26095980E+03 0.75467711E-02 0.91896146E-01
        1 -1    0    0  501    0 0.00000000E+00 0.00000000E+00 0.48390951E+03 0.48390962E+03 0.32000000E+00 0.0000E+00 0.9000E+01
       -1 -1    0    0    0  501 0.00000000E+00 0.00000000E+00 -.16490578E+03 0.16490609E+03 0.32000000E+00 0.0000E+00 0.9000E+01
       25  2    1    2    0    0 -.94759388E+02 0.15559137E+03 0.26396813E+03 0.43645889E+03 0.29602225E+03 0.0000E+00 0.0000E+00
       23  2    1    2    0    0 0.94759388E+02 -.15559137E+03 0.55035601E+02 0.21235682E+03 0.94225722E+02 0.0000E+00 0.0000E+00
       23  1    3    3    0    0 -.43789638E+01 0.17895799E+03 0.22193376E+03 0.29935761E+03 0.91188000E+02 0.0000E+00 0.9000E+01
      -13  1    4    4    0    0 0.57837826E+02 -.43111683E+02 0.60057896E+02 0.93865826E+02 0.10565837E+00 0.0000E+00 0.9000E+01
       13  1    4    4    0    0 0.36921562E+02 -.11247968E+03 -.50222953E+01 0.11849099E+03 0.10565837E+00 0.0000E+00 0.9000E+01
       23  1    3    3    0    0 -.90380424E+02 -.23366618E+02 0.42034376E+02 0.13710128E+03 0.91188000E+02 0.0000E+00 0.9000E+01
#aMCatNLO 1  0  0  2  1 0.54850351D+03 0.00000000D+00  -5  7  0 0.00000000D+00 0.00000000D+00 0.00000000D+00 0.00000000D+00 0.00000000D+00
  <mgrwgt>
 0.4238783727D-03    3    2    0
 0.282488248437209D+03 0.000000000000000D+00 0.000000000000000D+00 0.282488248437209D+03
 0.282488248437209D+03 0.000000000000000D+00 0.000000000000000D+00 -.282488248437209D+03
 0.218469662581645D+03 -.437896715140214D+01 0.178957986848342D+03 0.858405831434859D+02
 0.738842816721932D+02 0.578378493619857D+02 -.431115995282810D+02 0.159706056713372D+02
 0.138910196716788D+03 0.369215421668334D+02 -.112479773593932D+03 -.726714731388956D+02
 0.133712355903791D+03 -.903804243774170D+02 -.233666137261284D+02 -.291397156759275D+02
 0.000000000000000D+00 0.000000000000000D+00 -.000000000000000D+00 0.000000000000000D+00
 0.101212745085307D+04 0.000000000000000D+00 0.000000000000000D+00 0.101212745085307D+04
 0.515342617309284D+03 0.000000000000000D+00 0.000000000000000D+00 -.515342617309284D+03
 0.443875229106248D+03 -.170056032696148D+03 0.390412996324862D+03 0.858405831434859D+02
 0.353985398669925D+02 0.305021555047828D+02 -.822282729769758D+01 0.159706056713372D+02
 0.855404946669626D+02 -.192219147762481D+02 -.408234149971078D+02 -.726714731388956D+02
 0.222621159957760D+03 -.179512675571713D+03 0.903936159048284D+02 -.291397156759275D+02
 0.740034644564386D+03 0.338288467539327D+03 -.431760369934885D+03 0.496784833543782D+03
0.573230680387D-05 0.000000000000D+00 0.000000000000D+00 0.107554143813D-08 0.000000000000D+00  7 1 -1 23 -13 13 23 21 0 0.74447649D-01 0.25370152D-01 0.68100016D+05 0.68100016D+05 0.68100016D+05 0.11356770D+01  1  2  2  2  7  2       -1 0.419019956389D-03 0.100000000000D+01
-.316028374283D-06 0.000000000000D+00 -.220135674779D-07 0.107554143813D-08 0.000000000000D+00  7 1 -1 23 -13 13 23 21 2 0.74447649D-01 0.25370152D-01 0.68100016D+05 0.68100016D+05 0.68100016D+05 0.11356770D+01  1  2  3  2  7  2       -1 -.297948353398D-04 0.100000000000D+01
0.367560708597D-06 0.000000000000D+00 0.000000000000D+00 0.107554143813D-08 0.000000000000D+00  7 1 -1 23 -13 13 23 21 2 0.74447649D-01 0.25370152D-01 0.68100016D+05 0.68100016D+05 0.68100016D+05 0.11356770D+01  1  2 15  2  7  2       -1 0.346532516736D-04 0.100000000000D+01
  </mgrwgt>
  </event>
  <event>
  8     66 0.56006291E-06 0.21617001E+03 0.75467711E-02 0.87682230E-01
        1 -1    0    0  501    0 0.00000000E+00 0.00000000E+00 0.36019367E+03 0.36019381E+03 0.32000000E+00 0.0000E+00 0.9000E+01
       -1 -1    0    0    0  501 0.00000000E+00 0.00000000E+00 -.39370237E+03 0.39370250E+03 0.32000000E+00 0.0000E+00 0.9000E+01
       25  2    1    2    0    0 0.16069043E+03 0.29931454E+02 0.24308409E+03 0.41966072E+03 0.30051279E+03 0.0000E+00 0.0000E+00
       23  2    1    2    0    0 -.16069043E+03 -.29931454E+02 -.27659280E+03 0.33423559E+03 0.92155013E+02 0.0000E+00 0.0000E+00
       23  1    3    3    0    0 0.79409010E+02 0.46957022E+02 0.26439148E+03 0.29449764E+03 0.91188000E+02 0.0000E+00 0.9000E+01
      -13  1    4    4    0    0 -.75665593E+02 -.51551956E+02 -.19029092E+03 0.21117181E+03 0.10565837E+00 0.0000E+00 0.9000E+01
       13  1    4    4    0    0 -.85024838E+02 0.21620502E+02 -.86301873E+02 0.12306378E+03 0.10565837E+00 0.0000E+00 0.9000E+01
       23  1    3    3    0    0 0.81281421E+02 -.17025568E+02 -.21307390E+02 0.12516308E+03 0.91188000E+02 0.0000E+00 0.9000E+01
#aMCatNLO 1  0  0  2  2 0.92499312D+03 0.00000000D+00  -5  7  0 0.00000000D+00 0.00000000D+00 0.00000000D+00 0.00000000D+00 0.00000000D+00
  <mgrwgt>
 0.1433623473D-03    5    2    0
 0.376575625160196D+03 0.000000000000000D+00 0.000000000000000D+00 0.376575625160196D+03
 0.376575625160196D+03 0.000000000000000D+00 0.000000000000000D+00 -.376575625160196D+03
 0.306552102473148D+03 0.794090098637512D+02 0.469570220917243D+02 0.277755625353373D+03
 0.202914523843143D+03 -.756655809679167D+02 -.515520520704335D+02 -.181083985406231D+03
 0.119345724438635D+03 -.850248502645058D+02 0.216205982582031D+02 -.809118440664795D+02
 0.124338899565467D+03 0.812814213686712D+02 -.170255682794939D+02 -.157597958806622D+02
 0.000000000000000D+00 -.000000000000000D+00 0.000000000000000D+00 -.000000000000000D+00
 0.874196312916111D+03 0.000000000000000D+00 0.000000000000000D+00 0.874196312916111D+03
 0.136646073507831D+04 0.000000000000000D+00 0.000000000000000D+00 -.136646073507831D+04
 0.497033156435552D+03 0.306252431270586D+03 -.260361226333147D+03 0.277755625353373D+03
 0.317125132930987D+03 0.711359857632651D+02 -.250432848674810D+03 -.181083985406231D+03
 0.105639425506628D+03 -.215139774435901D+02 -.644213511631719D+02 -.809118440664795D+02
 0.273034663478576D+03 0.193455677451904D+03 -.168994691668951D+03 -.157597958806622D+02
 0.104782466964268D+04 -.549330117042165D+03 0.744210117840079D+03 -.492264422162196D+03
0.563224323519D-05 0.000000000000D+00 0.000000000000D+00 0.421789997603D-06 0.000000000000D+00  7 1 -1 23 -13 13 23 21 0 0.55414431D-01 0.60569616D-01 0.46729474D+05 0.46729474D+05 0.46729474D+05 0.11498886D+01  1  2  2  2  7  2       -1 0.136962048106D-03 0.100000000000D+01
-.195693550784D-06 0.000000000000D+00 -.216292970268D-07 0.421789997603D-06 0.000000000000D+00  7 1 -1 23 -13 13 23 21 2 0.55414431D-01 0.60569616D-01 0.46729474D+05 0.46729474D+05 0.46729474D+05 0.11498886D+01  1  2  3  2  7  2       -1 -.629226290353D-05 0.100000000000D+01
0.343432513225D-06 0.000000000000D+00 0.000000000000D+00 0.421789997603D-06 0.000000000000D+00  7 1 -1 23 -13 13 23 21 2 0.55414431D-01 0.60569616D-01 0.46729474D+05 0.46729474D+05 0.46729474D+05 0.11498886D+01  1  2 15  2  7  2       -1 0.110426105212D-04 0.100000000000D+01
0.636199658418D-05 0.000000000000D+00 -.252576690384D-05 0.421789997603D-06 0.000000000000D+00  7 1 -1 23 -13 13 23 21 2 0.55414431D-01 0.36331793D+00 0.46729474D+05 0.46729474D+05 0.46729474D+05 0.11498886D+01  1  2  5  2  7  2       -1 0.435384925065D-06 0.100000000000D+01
0.123554600546D-05 0.000000000000D+00 -.554559210414D-06 0.421789997603D-06 0.000000000000D+00  7 1 21 23 -13 13 23 1 2 0.55414431D-01 0.36331793D+00 0.46729474D+05 0.46729474D+05 0.46729474D+05 0.11498886D+01  1  2  5  4  7  2       -1 0.121456664962D-05 0.100000000000D+01
  </mgrwgt>
  </event>
  <event>
  8     66 0.56006291E-06 0.16814197E+03 0.75467711E-02 0.10274328E+00
        3 -1    0    0  501    0 0.00000000E+00 0.00000000E+00 0.12151870E+04 0.12151871E+04 0.50000000E+00 0.0000E+00 0.9000E+01
       -3 -1    0    0    0  501 0.00000000E+00 0.00000000E+00 -.37518422E+02 0.37521753E+02 0.50000000E+00 0.0000E+00 0.9000E+01
       25  2    1    2    0    0 0.35145833E+02 0.46402010E+02 0.99610722E+03 0.10422120E+04 0.30097820E+03 0.0000E+00 0.0000E+00
       23  2    1    2    0    0 -.35145833E+02 -.46402010E+02 0.18156135E+03 0.21049685E+03 0.89196548E+02 0.0000E+00 0.0000E+00
       23  1    3    3    0    0 -.59520397E+01 0.89642014E+02 0.19203387E+03 0.23078859E+03 0.91188000E+02 0.0000E+00 0.9000E+01
      -13  1    4    4    0    0 0.11183603E+02 -.51497546E+02 0.57634233E+02 0.78094726E+02 0.10565837E+00 0.0000E+00 0.9000E+01
       13  1    4    4    0    0 -.46329436E+02 0.50955363E+01 0.12392712E+03 0.13240212E+03 0.10565837E+00 0.0000E+00 0.9000E+01
       23  1    3    3    0    0 0.41097873E+02 -.43240004E+02 0.80407335E+03 0.81142340E+03 0.91188000E+02 0.0000E+00 0.9000E+01
#aMCatNLO 1  0  0  1  2 0.14730298D+03 0.00000000D+00  -5  7  0 0.00000000D+00 0.00000000D+00 0.00000000D+00 0.00000000D+00 0.00000000D+00
  <mgrwgt>
 0.1336202002D-04    3    2    0
 0.213527631152061D+03 0.000000000000000D+00 0.000000000000000D+00 0.213527631152061D+03
 0.213527631152061D+03 0.000000000000000D+00 0.000000000000000D+00 -.213527631152061D+03
 0.147425098582147D+03 -.595201030778190D+01 0.896420523952240D+02 -.731285468447424D+02
 0.701453602056386D+02 0.111835904525514D+02 -.514976337673955D+02 -.462957080011483D+02
 0.466361485320407D+02 -.463294855772024D+02 0.509554223902498D+01 -.159516937804900D+01
 0.162848654984295D+03 0.410979054324329D+02 -.432399608668534D+02 0.121019424223940D+03
 0.000000000000000D+00 -.000000000000000D+00 -.000000000000000D+00 -.000000000000000D+00
 0.262282890742676D+03 0.000000000000000D+00 0.000000000000000D+00 0.262282890742676D+03
 0.374858157497164D+03 0.000000000000000D+00 0.000000000000000D+00 -.374858157497164D+03
 0.166545868256315D+03 0.422011974333378D+02 0.110876279973755D+03 -.731285468447424D+02
 0.705634153617344D+02 0.327638625685409D+02 -.419813329680566D+02 -.462957080011483D+02
 0.354198619198965D+02 -.337446910100903D+02 0.106450872102300D+02 -.159516937804900D+01
 0.179216761682481D+03 0.935599124634287D+02 -.201056724408013D+02 0.121019424223940D+03
 0.185395141019414D+03 -.134780281455217D+03 -.594343617751272D+02 -.112575266754488D+03
0.114929193196D-05 0.000000000000D+00 0.000000000000D+00 0.102816720702D-07 0.000000000000D+00  7 3 -3 23 -13 13 23 21 0 0.18695211D+00 0.57723291D-02 0.28271723D+05 0.28271723D+05 0.28271723D+05 0.11697344D+01  1  2  2  1  7  1        3 0.131643801465D-04 0.100000000000D+01
-.594167239700D-07 0.000000000000D+00 -.441358363425D-08 0.102816720702D-07 0.000000000000D+00  7 3 -3 23 -13 13 23 21 2 0.18695211D+00 0.57723291D-02 0.28271723D+05 0.28271723D+05 0.28271723D+05 0.11697344D+01  1  2  3  1  7  1        3 -.931222086967D-06 0.100000000000D+01
0.720271572564D-07 0.000000000000D+00 0.000000000000D+00 0.102816720702D-07 0.000000000000D+00  7 3 -3 23 -13 13 23 21 2 0.18695211D+00 0.57723291D-02 0.28271723D+05 0.28271723D+05 0.28271723D+05 0.11697344D+01  1  2 15  1  7  1        3 0.112886196372D-05 0.100000000000D+01
  </mgrwgt>
  </event>
  <event>
  8     66 0.56006291E-06 0.11499943E+03 0.75467711E-02 0.10259645E+00
        3 -1    0    0  501    0 0.00000000E+00 0.00000000E+00 0.49484942E+03 0.49484967E+03 0.50000000E+00 0.0000E+00 0.9000E+01
       -3 -1    0    0    0  501 0.00000000E+00 0.00000000E+00 -.26081411E+03 0.26081459E+03 0.50000000E+00 0.0000E+00 0.9000E+01
       25  2    1    2    0    0 0.81037673E+02 0.86129847E+02 -.13968344E+03 0.35177015E+03 0.30040859E+03 0.0000E+00 0.0000E+00
       23  2    1    2    0    0 -.81037673E+02 -.86129847E+02 0.37371875E+03 0.40389411E+03 0.97361669E+02 0.0000E+00 0.0000E+00
       23  1    3    3    0    0 -.12514866E+02 -.68900027E+02 -.81236792E+02 0.14077821E+03 0.91188000E+02 0.0000E+00 0.9000E+01
      -13  1    4    4    0    0 -.16181970E+02 0.21754006E+02 0.74249119E+02 0.79044518E+02 0.10565837E+00 0.0000E+00 0.9000E+01
       13  1    4    4    0    0 -.64855702E+02 -.10788385E+03 0.29946963E+03 0.32484959E+03 0.10565837E+00 0.0000E+00 0.9000E+01
       23  1    3    3    0    0 0.93552539E+02 0.15502987E+03 -.58446648E+02 0.21099195E+03 0.91188000E+02 0.0000E+00 0.9000E+01
#aMCatNLO 1  0  0  2  1 0.45747482D+02 0.00000000D+00  -5  7  0 0.00000000D+00 0.00000000D+00 0.00000000D+00 0.00000000D+00 0.00000000D+00
  <mgrwgt>
 0.3946454138D-03    8    2    0
 0.359254767056021D+03 0.000000000000000D+00 0.000000000000000D+00 0.359254767056021D+03
 0.359254767056021D+03 0.000000000000000D+00 0.000000000000000D+00 -.359254767056021D+03
 0.174518683424677D+03 -.125148654956512D+02 -.689000262278832D+02 -.131292360964777D+03
 0.589470829570874D+02 -.161819134521956D+02 0.217541408826276D+02 0.523417770106650D+02
 0.244103812069234D+03 -.648557617341469D+02 -.107883990117545D+03 0.209144557454725D+03
 0.240939955661044D+03 0.935525406819937D+02 0.155029875462801D+03 -.130193973500613D+03
 0.000000000000000D+00 0.000000000000000D+00 0.000000000000000D+00 -.000000000000000D+00
 0.361456109312028D+03 0.000000000000000D+00 0.000000000000000D+00 0.361456109312028D+03
 0.714965819523278D+03 0.000000000000000D+00 0.000000000000000D+00 -.714965819523278D+03
 0.176329502595215D+03 -.235419260882233D+02 -.706040778555113D+02 -.131292360964777D+03
 0.598731283342114D+02 -.199163995397397D+02 0.211770372163867D+02 0.523417770106650D+02
 0.249728053159759D+03 -.803767594688032D+02 -.110282506134585D+03 0.209144557454725D+03
 0.234033747493354D+03 0.786242497195176D+02 0.152722952570815D+03 -.130193973500613D+03
 0.356457497252767D+03 0.452108353772486D+02 0.698659420289442D+01 -.353509710211250D+03
0.436037630172D-05 0.000000000000D+00 0.000000000000D+00 0.393655211299D-07 0.000000000000D+00  7 3 -3 23 -13 13 23 21 0 0.76130736D-01 0.40125304D-01 0.55389635D+05 0.55389635D+05 0.55389635D+05 0.11434053D+01  1  2  2  2  7  2       -3 0.189479255709D-04 0.100000000000D+01
-.189553239239D-06 0.000000000000D+00 -.167449931120D-07 0.393655211299D-07 0.000000000000D+00  7 3 -3 23 -13 13 23 21 2 0.76130736D-01 0.40125304D-01 0.55389635D+05 0.55389635D+05 0.55389635D+05 0.11434053D+01  1  2  3  2  7  2       -3 -.107688487153D-05 0.100000000000D+01
0.270143691840D-06 0.000000000000D+00 0.000000000000D+00 0.393655211299D-07 0.000000000000D+00  7 3 -3 23 -13 13 23 21 2 0.76130736D-01 0.40125304D-01 0.55389635D+05 0.55389635D+05 0.55389635D+05 0.11434053D+01  1  2 15  2  7  2       -3 0.153473322879D-05 0.100000000000D+01
0.819171118289D-04 0.000000000000D+00 0.000000000000D+00 0.393655211299D-07 0.000000000000D+00  7 3 -3 23 -13 13 23 21 2 0.76130736D-01 0.79856912D-01 0.68503969D+05 0.68503969D+05 0.68503969D+05 0.11354581D+01  1  2 12  2  7  2       -3 0.105179638732D-03 0.100000000000D+01
-.815754914224D-04 0.000000000000D+00 -.135181411223D-05 0.393655211299D-07 0.000000000000D+00  7 3 -3 23 -13 13 23 21 2 0.76130736D-01 0.80020316D-01 0.55389635D+05 0.55389635D+05 0.55389635D+05 0.11434053D+01  1  2  5  2  7  2       -3 -.106008053046D-03 0.100000000000D+01
0.663357970563D-04 0.000000000000D+00 0.108331475139D-05 0.393655211299D-07 0.000000000000D+00  7 3 -3 23 -13 13 23 21 2 0.76130736D-01 0.40125304D-01 0.55389635D+05 0.55389635D+05 0.55389635D+05 0.11434053D+01  1  2  6  2  7  2       -3 0.376865183513D-03 0.100000000000D+01
0.610158097054D-05 0.000000000000D+00 0.000000000000D+00 0.393655211299D-07 0.000000000000D+00  7 3 21 23 -13 13 23 3 2 0.76130736D-01 0.79856912D-01 0.68503969D+05 0.68503969D+05 0.68503969D+05 0.11354581D+01  1  2 12  4  7  2       -3 0.121865758004D-03 0.100000000000D+01
-.601265944682D-05 0.000000000000D+00 -.100978703363D-06 0.393655211299D-07 0.000000000000D+00  7 3 21 23 -13 13 23 3 2 0.76130736D-01 0.80020316D-01 0.55389635D+05 0.55389635D+05 0.55389635D+05 0.11434053D+01  1  2  5  4  7  2       -3 -.122662887371D-03 0.100000000000D+01
  </mgrwgt>
  </event>
  <event>
  9     66 -.56006291E-06 0.30453082E+03 0.75467711E-02 0.10046368E+00
        1 -1    0    0  501    0 0.00000000E+00 0.00000000E+00 0.96054669E+03 0.96054674E+03 0.32000000E+00 0.0000E+00 0.9000E+01
       -1 -1    0    0    0  502 0.00000000E+00 0.00000000E+00 -.10858057E+03 0.10858104E+03 0.32000000E+00 0.0000E+00 0.9000E+01
       25  2    1    2    0    0 -.23945071E+03 0.29686984E+02 0.53809759E+03 0.66156906E+03 0.29984438E+03 0.0000E+00 0.0000E+00
       23  2    1    2    0    0 0.23400358E+03 -.25185913E+02 0.30827143E+03 0.39851323E+03 0.91594282E+02 0.0000E+00 0.0000E+00
       23  1    3    3    0    0 -.19294713E+02 -.57358255E+02 0.27549750E+03 0.29643951E+03 0.91188000E+02 0.0000E+00 0.9000E+01
      -11  1    4    4    0    0 0.11325195E+03 -.48013115E+02 0.10878055E+03 0.16420862E+03 0.51099893E-03 0.0000E+00 0.9000E+01
       11  1    4    4    0    0 0.12075163E+03 0.22827202E+02 0.19949088E+03 0.23430461E+03 0.51099893E-03 0.0000E+00 0.9000E+01
       23  1    3    3    0    0 -.22015600E+03 0.87045240E+02 0.26260009E+03 0.36512956E+03 0.91188000E+02 0.0000E+00 0.9000E+01
       21  1    1    2  501  502 0.54471294E+01 -.45010715E+01 0.55970988E+01 0.90454893E+01 0.75000000E+00 0.0000E+00 0.9000E+01
#aMCatNLO 2  0  0  2  1 0.70661774D+01 0.00000000D+00  -5  7  0 0.00000000D+00 0.00000000D+00 0.00000000D+00 0.00000000D+00 0.00000000D+00
  <mgrwgt>
 -.3842747786D-04    3    2    0
 0.319133207334176D+03 0.000000000000000D+00 0.000000000000000D+00 0.319133207334176D+03
 0.319133207334176D+03 0.000000000000000D+00 0.000000000000000D+00 -.319133207334176D+03
 0.127267846746353D+03 -.182096661913487D+02 -.582548511038391D+02 0.644719617471216D+02
 0.129787765406005D+03 0.114353953943913D+03 -.489237240157453D+02 -.370743374169906D+02
 0.125487203351019D+03 0.121818796164173D+03 0.219453827893101D+02 0.206305424117326D+02
 0.255723599164975D+03 -.217963083916738D+03 0.852331923302742D+02 -.480281667418637D+02
 0.000000000000000D+00 0.000000000000000D+00 -.000000000000000D+00 -.000000000000000D+00
 0.321585535395431D+03 0.000000000000000D+00 0.000000000000000D+00 0.321585535395431D+03
 0.324283831928708D+03 0.000000000000000D+00 0.000000000000000D+00 -.324283831928708D+03
 0.127020237002472D+03 -.192947128218162D+02 -.573582554630590D+02 0.644719617471216D+02
 0.128474781488399D+03 0.113251948288939D+03 -.480131147952558D+02 -.370743374169906D+02
 0.124610019811216D+03 0.120751631925563D+03 0.228272018535489D+02 0.206305424117326D+02
 0.258200489604530D+03 -.220155996744640D+03 0.870452398744986D+02 -.480281667418637D+02
 0.756383941752185D+01 0.544712935195376D+01 -.450107146973267D+01 -.269829653327791D+01
-.124844223642D-05 0.000000000000D+00 0.000000000000D+00 0.406178987903D-06 0.000000000000D+00  7 1 -1 23 -11 11 23 21 2 0.14664111D+00 0.16766185D-01 0.94895357D+05 0.94895357D+05 0.94895357D+05 0.11235942D+01  1  2 13  2  7  2       -1 -.809354577076D-04 0.100000000000D+01
-.125291646371D-04 0.000000000000D+00 0.000000000000D+00 0.406178987903D-06 0.000000000000D+00  7 1 -1 23 -11 11 23 21 2 0.14664111D+00 0.16438475D-01 0.92739023D+05 0.92739023D+05 0.92739023D+05 0.11244185D+01  1  2  8  2  7  2       -1 -.839455549135D-03 0.100000000000D+01
0.137011707751D-04 0.000000000000D+00 0.000000000000D+00 0.406178987903D-06 0.547904968452D-07  7 1 -1 23 -11 11 23 21 2 0.14776795D+00 0.16703783D-01 0.94895357D+05 0.94895357D+05 0.94895357D+05 0.11235942D+01  1  2  1  2  7  2       -1 0.881963528986D-03 0.100000000000D+01
  </mgrwgt>
  </event>
  <event>
  8     66 0.56006291E-06 0.18225215E+03 0.75467711E-02 0.10660785E+00
        3 -1    0    0  501    0 0.00000000E+00 0.00000000E+00 0.51133504E+03 0.51133529E+03 0.50000000E+00 0.0000E+00 0.9000E+01
       -3 -1    0    0    0  501 0.00000000E+00 0.00000000E+00 -.25499469E+03 0.25499518E+03 0.50000000E+00 0.0000E+00 0.9000E+01
       25  2    1    2    0    0 -.57688707E+02 0.29857261E+02 0.44886027E+03 0.54353600E+03 0.29956035E+03 0.0000E+00 0.0000E+00
       23  2    1    2    0    0 0.57688707E+02 -.29857261E+02 -.19251991E+03 0.22279447E+03 0.91400307E+02 0.0000E+00 0.0000E+00
       23  1    3    3    0    0 -.13090241E+03 0.71014766E+02 0.32110756E+03 0.36551861E+03 0.91188000E+02 0.0000E+00 0.9000E+01
      -13  1    4    4    0    0 0.18385454E+02 -.38701823E+01 -.16916662E+03 0.17020682E+03 0.10565837E+00 0.0000E+00 0.9000E+01
       13  1    4    4    0    0 0.39303252E+02 -.25987079E+02 -.23353291E+02 0.52587654E+02 0.10565837E+00 0.0000E+00 0.9000E+01
       23  1    3    3    0    0 0.73213701E+02 -.41157505E+02 0.12775270E+03 0.17801739E+03 0.91188000E+02 0.0000E+00 0.9000E+01
#aMCatNLO 1  0  0  2  1 0.25573465D+02 0.00000000D+00  -5  7  0 0.00000000D+00 0.00000000D+00 0.00000000D+00 0.00000000D+00 0.00000000D+00
  <mgrwgt>
 0.2901412145D-04    4    2    0
 0.361092791561635D+03 0.000000000000000D+00 0.000000000000000D+00 0.361092791561635D+03
 0.361092791561635D+03 0.000000000000000D+00 0.000000000000000D+00 -.361092791561635D+03
 0.273884204812698D+03 -.130902407777808D+03 0.710147662838033D+02 0.210994712989480D+03
 0.240657079313925D+03 0.183854263104832D+02 -.387015282661873D+01 -.239922545502479D+03
 0.640912015379014D+02 0.393032802915607D+02 -.259871083844483D+02 -.434465702985846D+02
 0.143553097458745D+03 0.732137011757644D+02 -.411575050727363D+02 0.723744028115837D+02
 0.000000000000000D+00 -.000000000000000D+00 -.000000000000000D+00 0.000000000000000D+00
 0.592818285012520D+03 0.000000000000000D+00 0.000000000000000D+00 0.592818285012520D+03
 0.362025385807380D+03 0.000000000000000D+00 0.000000000000000D+00 -.362025385807380D+03
 0.276045217339394D+03 -.129831264206220D+03 0.806894329950009D+02 0.210994712989480D+03
 0.240743348112644D+03 0.193230902222996D+02 0.459891338874020D+01 -.239922545502479D+03
 0.633698831003855D+02 0.395515469162191D+02 -.237447415227201D+02 -.434465702985846D+02
 0.142479786388917D+03 0.737708313682124D+02 -.361254542163930D+02 0.723744028115837D+02
 0.232205435878560D+03 -.281420430051149D+01 -.254181506446281D+02 0.230792899205140D+03
0.664487378809D-05 0.000000000000D+00 0.000000000000D+00 0.103644561831D-05 0.000000000000D+00  7 3 -3 23 -13 13 23 21 0 0.78666986D-01 0.39230009D-01 0.33215845D+05 0.33215845D+05 0.33215845D+05 0.11632548D+01  1  2  2  2  7  2       -3 0.280215592600D-04 0.100000000000D+01
-.159322416083D-06 0.000000000000D+00 -.255180649817D-07 0.103644561831D-05 0.000000000000D+00  7 3 -3 23 -13 13 23 21 2 0.78666986D-01 0.39230009D-01 0.33215845D+05 0.33215845D+05 0.33215845D+05 0.11632548D+01  1  2  3  2  7  2       -3 -.909142970608D-06 0.100000000000D+01
0.405281846239D-06 0.000000000000D+00 0.000000000000D+00 0.103644561831D-05 0.000000000000D+00  7 3 -3 23 -13 13 23 21 2 0.78666986D-01 0.39230009D-01 0.33215845D+05 0.33215845D+05 0.33215845D+05 0.11632548D+01  1  2 15  2  7  2       -3 0.231266353275D-05 0.100000000000D+01
-.720182445125D-07 0.000000000000D+00 0.000000000000D+00 0.103644561831D-05 0.000000000000D+00  7 3 -3 23 -13 13 23 21 2 0.78666986D-01 0.39230009D-01 0.33215845D+05 0.33215845D+05 0.33215845D+05 0.11632548D+01  1  2  4  2  7  2       -3 -.410958372111D-06 0.100000000000D+01
  </mgrwgt>
  </event>
  <event>
  8     66 0.56006291E-06 0.20528703E+03 0.75467711E-02 0.98156993E-01
        1 -1    0    0  501    0 0.00000000E+00 0.00000000E+00 0.25874750E+03 0.25874770E+03 0.32000000E+00 0.0000E+00 0.9000E+01
       -1 -1    0    0    0  501 0.00000000E+00 0.00000000E+00 -.61508527E+03 0.61508536E+03 0.32000000E+00 0.0000E+00 0.9000E+01
       25  2    1    2    0    0 0.10815979E+03 0.96064965E+02 0.12342702E+03 0.36459932E+03 0.31108105E+03 0.0000E+00 0.0000E+00
       23  2    1    2    0    0 -.10815979E+03 -.96064965E+02 -.47976480E+03 0.50923373E+03 0.90651620E+02 0.0000E+00 0.0000E+00
       23  1    3    3    0    0 0.95140350E+02 0.93298806E+02 -.49300663E+02 0.16882583E+03 0.91188000E+02 0.0000E+00 0.9000E+01
      -11  1    4    4    0    0 0.97820268E+00 -.28661783E+02 -.19257529E+03 0.19469899E+03 0.51099893E-03 0.0000E+00 0.9000E+01
       11  1    4    4    0    0 -.10913800E+03 -.67403181E+02 -.28718950E+03 0.31453474E+03 0.51099893E-03 0.0000E+00 0.9000E+01
       23  1    3    3    0    0 0.13019444E+02 0.27661584E+01 0.17272768E+03 0.19577349E+03 0.91188000E+02 0.0000E+00 0.9000E+01
#aMCatNLO 1  0  0  1  1 0.28045687D+03 0.00000000D+00  -5  7  0 0.00000000D+00 0.00000000D+00 0.00000000D+00 0.00000000D+00 0.00000000D+00
  <mgrwgt>
 0.2093863174D-03    3    2    0
 0.398938464333465D+03 0.000000000000000D+00 0.000000000000000D+00 0.398938464333465D+03
 0.398938464333465D+03 0.000000000000000D+00 0.000000000000000D+00 -.398938464333465D+03
 0.162879631417405D+03 0.951403500761054D+02 0.932988062691272D+02 0.214048948332321D+02
 0.127228348619714D+03 0.978202679470684D+00 -.286617834101283D+02 -.123954015601627D+03
 0.216216781887971D+03 -.109137996287195D+03 -.674031812837634D+02 -.174055754542142D+03
 0.291552166741840D+03 0.130194435316193D+02 0.276615842476451D+01 0.276604875310537D+03
 0.000000000000000D+00 -.000000000000000D+00 -.000000000000000D+00 -.000000000000000D+00
 0.432201383042999D+03 0.000000000000000D+00 0.000000000000000D+00 0.432201383042999D+03
 0.252933140604722D+04 0.000000000000000D+00 0.000000000000000D+00 -.252933140604722D+04
 0.218206596899877D+03 0.129721798578640D+03 0.148367627996562D+03 0.214048948332321D+02
 0.126510252829514D+03 0.240035647290699D+02 0.800468409848659D+01 -.123954015601627D+03
 0.188719485745752D+03 -.723922898159413D+02 -.888791235956467D+01 -.174055754542142D+03
 0.312296276235809D+03 0.678153198517197D+02 0.900252084396594D+02 0.276604875310537D+03
 0.211580017737927D+04 -.149148393343488D+03 -.237509608175143D+03 -.209713002300422D+04
0.128515471018D-04 0.000000000000D+00 0.000000000000D+00 0.309171755725D-08 0.000000000000D+00  7 1 -1 23 -11 11 23 21 0 0.39807329D-01 0.94628525D-01 0.42142764D+05 0.42142764D+05 0.42142764D+05 0.11538839D+01  1  2  2  1  7  1        1 0.199924249533D-03 0.100000000000D+01
-.330778729051D-06 0.000000000000D+00 -.493533247611D-07 0.309171755725D-08 0.000000000000D+00  7 1 -1 23 -11 11 23 21 2 0.39807329D-01 0.94628525D-01 0.42142764D+05 0.42142764D+05 0.42142764D+05 0.11538839D+01  1  2  3  1  7  1        1 -.685128288732D-05 0.100000000000D+01
0.787605695772D-06 0.000000000000D+00 0.000000000000D+00 0.309171755725D-08 0.000000000000D+00  7 1 -1 23 -11 11 23 21 2 0.39807329D-01 0.94628525D-01 0.42142764D+05 0.42142764D+05 0.42142764D+05 0.11538839D+01  1  2 15  1  7  1        1 0.163133507432D-04 0.100000000000D+01
  </mgrwgt>
  </event>
  <event>
  7     66 0.56006291E-06 0.32206267E+03 0.75467711E-02 0.96188459E-01
        1 -1    0    0  501    0 0.00000000E+00 0.00000000E+00 0.11356091E+04 0.11356091E+04 0.32000000E+00 0.0000E+00 0.9000E+01
       -1 -1    0    0    0  501 0.00000000E+00 0.00000000E+00 -.95701055E+02 0.95701590E+02 0.32000000E+00 0.0000E+00 0.9000E+01
       23  2    1    2    0    0 0.25839116E+03 0.25304489E+02 0.50181277E+03 0.57204835E+03 0.89537467E+02 0.0000E+00 0.0000E+00
       23  1    1    2    0    0 -.25864127E+03 -.46202930E+02 0.45935120E+03 0.53698119E+03 0.91188000E+02 0.0000E+00 0.9000E+01
      -13  1    3    3    0    0 0.78265319E+01 0.20400062E+02 0.63415413E+02 0.67074159E+02 0.10565837E+00 0.0000E+00 0.9000E+01
       13  1    3    3    0    0 0.25056463E+03 0.49044271E+01 0.43839735E+03 0.50497419E+03 0.10565837E+00 0.0000E+00 0.9000E+01
       23  1    1    2    0    0 0.25011248E+00 0.20898441E+02 0.78744057E+02 0.12228117E+03 0.91188000E+02 0.0000E+00 0.9000E+01
#aMCatNLO 1  0  0  1  1 0.19801815D+03 0.00000000D+00  -5  7  0 0.00000000D+00 0.00000000D+00 0.00000000D+00 0.00000000D+00 0.00000000D+00
  <mgrwgt>
 0.1149366285D-02    4    2    0
 0.329665502623916D+03 0.000000000000000D+00 0.000000000000000D+00 0.329665502623916D+03
 0.329665502623916D+03 0.000000000000000D+00 0.000000000000000D+00 -.329665502623916D+03
 0.278324070292072D+03 -.258641271927643D+03 -.462029302952650D+02 0.109095576320860D+02
 0.252418383216375D+02 0.782619411988271D+01 0.204000834165984D+02 0.126387374388989D+02
 0.251599600160262D+03 0.250564965393020D+03 0.490440582031260D+01 0.222599128917429D+02
 0.104165496473861D+03 0.250112414740030D+00 0.208984410583540D+02 -.458082079627277D+02
 0.000000000000000D+00 -.000000000000000D+00 -.000000000000000D+00 -.000000000000000D+00
 0.401552134020698D+03 0.000000000000000D+00 0.000000000000000D+00 0.401552134020698D+03
 0.515172115260889D+03 0.000000000000000D+00 0.000000000000000D+00 -.515172115260889D+03
 0.267528875944224D+03 -.249039316083161D+03 0.334192866034561D+02 0.109095576320860D+02
 0.327197990530753D+02 0.884578206308854D+01 0.288548038585699D+02 0.126387374388989D+02
 0.273173793824956D+03 0.259796116369027D+03 0.814518006574585D+02 0.222599128917429D+02
 0.115002226255971D+03 0.410543427513844D+01 0.528678937776571D+02 -.458082079627277D+02
 0.228299554203361D+03 -.237080166240937D+02 -.196593784897142D+03 -.113619981240191D+03
0.304421146104D-04 0.000000000000D+00 0.000000000000D+00 0.288571507625D-09 0.000000000000D+00  7 1 -1 23 -13 13 23 21 0 0.17470913D+00 0.14723284D-01 0.10372437D+06 0.10372437D+06 0.10372437D+06 0.11204212D+01  1  2  2  1  7  1        1 0.140421604185D-02 0.100000000000D+01
-.169010915011D-05 0.000000000000D+00 -.116905735697D-06 0.288571507625D-09 0.000000000000D+00  7 1 -1 23 -13 13 23 21 2 0.17470913D+00 0.14723284D-01 0.10372437D+06 0.10372437D+06 0.10372437D+06 0.11204212D+01  1  2  3  1  7  1        1 -.978670452432D-04 0.100000000000D+01
0.198199177918D-05 0.000000000000D+00 0.000000000000D+00 0.288571507625D-09 0.000000000000D+00  7 1 -1 23 -13 13 23 21 2 0.17470913D+00 0.14723284D-01 0.10372437D+06 0.10372437D+06 0.10372437D+06 0.11204212D+01  1  2 15  1  7  1        1 0.114768729057D-03 0.100000000000D+01
-.469299543844D-05 0.000000000000D+00 0.000000000000D+00 0.288571507625D-09 0.000000000000D+00  7 1 -1 23 -13 13 23 21 2 0.17470913D+00 0.14723284D-01 0.10372437D+06 0.10372437D+06 0.10372437D+06 0.11204212D+01  1  2  4  1  7  1        1 -.271751440948D-03 0.100000000000D+01
  </mgrwgt>
  </event>
  <event>
  8     66 0.56006291E-06 0.53225634E+03 0.75467711E-02 0.89163838E-01
        1 -1    0    0  501    0 0.00000000E+00 0.00000000E+00 0.30176257E+04 0.30176257E+04 0.32000000E+00 0.0000E+00 0.9000E+01
       -1 -1    0    0    0  501 0.00000000E+00 0.00000000E+00 -.31843600E+03 0.31843616E+03 0.32000000E+00 0.0000E+00 0.9000E+01
       25  2    1    2    0    0 0.73446221E+02 -.49007098E+03 0.27674011E+04 0.28274052E+04 0.30024522E+03 0.0000E+00 0.0000E+00
       23  2    1    2    0    0 -.73446221E+02 0.49007098E+03 -.68211411E+02 0.50865670E+03 0.92276364E+02 0.0000E+00 0.0000E+00
       23  1    3    3    0    0 0.11047640E+03 -.42773431E+03 0.23983832E+04 0.24404341E+04 0.91188000E+02 0.0000E+00 0.9000E+01
      -11  1    4    4    0    0 -.17461038E+02 0.43690603E+02 0.18395062E+02 0.50518659E+02 0.51099893E-03 0.0000E+00 0.9000E+01
       11  1    4    4    0    0 -.55985183E+02 0.44638038E+03 -.86606473E+02 0.45813804E+03 0.51099893E-03 0.0000E+00 0.9000E+01
       23  1    3    3    0    0 -.37030174E+02 -.62336673E+02 0.36901792E+03 0.38697102E+03 0.91188000E+02 0.0000E+00 0.9000E+01
#aMCatNLO 1  0  0  2  2 0.50278339D+03 0.00000000D+00  -5  7  0 0.00000000D+00 0.00000000D+00 0.00000000D+00 0.00000000D+00 0.00000000D+00
  <mgrwgt>
 0.1600833426D-03    4    2    0
 0.980265752738740D+03 0.000000000000000D+00 0.000000000000000D+00 0.980265752738740D+03
 0.980265752738740D+03 0.000000000000000D+00 0.000000000000000D+00 -.980265752738740D+03
 0.850661220244119D+03 0.110476395610446D+03 -.427734309100164D+03 0.721212581084622D+03
 0.606374401516130D+02 -.174610380885252D+02 0.436906029216746D+02 -.382510459118713D+02
 0.898809400212524D+03 -.559851831648194D+02 0.446380378790755D+03 -.778118599319552D+03
 0.150423444869224D+03 -.370301743571012D+02 -.623366726122654D+02 0.951570641468007D+02
 0.000000000000000D+00 0.000000000000000D+00 -.000000000000000D+00 0.000000000000000D+00
 0.130206846510936D+04 0.000000000000000D+00 0.000000000000000D+00 0.130206846510936D+04
 0.122985009003479D+04 0.000000000000000D+00 0.000000000000000D+00 -.122985009003479D+04
 0.825400673552773D+03 -.953534401246912D+02 -.379118919204799D+03 0.721212581084622D+03
 0.695332731973820D+02 -.334467344672271D+02 0.474662987989213D+02 -.382510459118713D+02
 0.968182444002022D+03 -.285262291627073D+03 0.500533830267623D+03 -.778118599319552D+03
 0.160858637854364D+03 -.752573664383810D+02 -.533077102123348D+02 0.951570641468007D+02
 0.507943526537610D+03 0.489319832657373D+03 -.115573499649411D+03 0.722183750745770D+02
0.658338425588D-03 0.000000000000D+00 0.000000000000D+00 0.628426089962D-05 0.000000000000D+00  7 1 -1 23 -11 11 23 21 0 0.46425012D+00 0.48990167D-01 0.28329681D+06 0.28329681D+06 0.28329681D+06 0.10863974D+01  1  2  2  2  7  2       -1 0.201305325223D-03 0.100000000000D+01
-.199894931470D-04 0.000000000000D+00 -.252819289875D-05 0.628426089962D-05 0.000000000000D+00  7 1 -1 23 -11 11 23 21 2 0.46425012D+00 0.48990167D-01 0.28329681D+06 0.28329681D+06 0.28329681D+06 0.10863974D+01  1  2  3  2  7  2       -1 -.721415151382D-05 0.100000000000D+01
0.401695921276D-04 0.000000000000D+00 0.000000000000D+00 0.628426089962D-05 0.000000000000D+00  7 1 -1 23 -11 11 23 21 2 0.46425012D+00 0.48990167D-01 0.28329681D+06 0.28329681D+06 0.28329681D+06 0.10863974D+01  1  2 15  2  7  2       -1 0.144970921336D-04 0.100000000000D+01
-.134400951868D-03 0.000000000000D+00 0.000000000000D+00 0.628426089962D-05 0.000000000000D+00  7 1 -1 23 -11 11 23 21 2 0.46425012D+00 0.48990167D-01 0.28329681D+06 0.28329681D+06 0.28329681D+06 0.10863974D+01  1  2  4  2  7  2       -1 -.485049232235D-04 0.100000000000D+01
  </mgrwgt>
  </event>
  <event>
  8     66 0.56006291E-06 0.72677249E+03 0.75467711E-02 0.87693345E-01
        1 -1    0    0  501    0 0.00000000E+00 0.00000000E+00 0.69666638E+03 0.69666646E+03 0.32000000E+00 0.0000E+00 0.9000E+01
       -1 -1    0    0    0  501 0.00000000E+00 0.00000000E+00 -.10390730E+04 0.10390730E+04 0.32000000E+00 0.0000E+00 0.9000E+01
       25  2    1    2    0    0 -.11200511E+03 -.68691448E+03 0.26964982E+03 0.80432709E+03 0.29972386E+03 0.0000E+00 0.0000E+00
       23  2    1    2    0    0 0.11200511E+03 0.68691448E+03 -.61205639E+03 0.93141236E+03 0.92300187E+02 0.0000E+00 0.0000E+00
       23  1    3    3    0    0 -.54777894E+02 -.61412253E+03 0.25549135E+03 0.67360090E+03 0.91188000E+02 0.0000E+00 0.9000E+01
      -11  1    4    4    0    0 0.82936018E+01 0.33690549E+01 -.15728638E+01 0.90889087E+01 0.51099893E-03 0.0000E+00 0.9000E+01
       11  1    4    4    0    0 0.10371151E+03 0.68354542E+03 -.61048352E+03 0.92232346E+03 0.51099893E-03 0.0000E+00 0.9000E+01
       23  1    3    3    0    0 -.57227215E+02 -.72791953E+02 0.14158474E+02 0.13072619E+03 0.91188000E+02 0.0000E+00 0.9000E+01
#aMCatNLO 1  0  0  1  2 0.43237024D+03 0.00000000D+00  -5  7  0 0.00000000D+00 0.00000000D+00 0.00000000D+00 0.00000000D+00 0.00000000D+00
  <mgrwgt>
 0.3207325957D-03    4    2    0
 0.850815666734225D+03 0.000000000000000D+00 0.000000000000000D+00 0.850815666734225D+03
 0.850815666734225D+03 0.000000000000000D+00 0.000000000000000D+00 -.850815666734225D+03
 0.738513420263792D+03 -.547778944815642D+02 -.614122526570390D+03 0.396156187886409D+03
 0.895459446402845D+01 0.829360175304591D+01 0.336905485714485D+01 0.224502442372117D+00
 0.817967803232312D+03 0.103711507399810D+03 0.683545424659623D+03 -.437128016471662D+03
 0.136195515508316D+03 -.572272146712913D+02 -.727919529463777D+02 0.407473261428803D+02
 0.000000000000000D+00 -.000000000000000D+00 0.000000000000000D+00 -.000000000000000D+00
 0.100570931166804D+04 0.000000000000000D+00 0.000000000000000D+00 0.100570931166804D+04
 0.124338270197731D+04 0.000000000000000D+00 0.000000000000000D+00 -.124338270197731D+04
 0.900131676630359D+03 0.254194315959936D+02 -.802705370124073D+03 0.396156187886409D+03
 0.927606228905997D+01 0.918583273521929D+01 0.127098670506918D+01 0.224502442372117D+00
 0.694441871374142D+03 0.177730715138666D+03 0.509490336345519D+03 -.437128016471662D+03
 0.151853445097113D+03 -.431297408108686D+02 -.105941957286313D+03 0.407473261428803D+02
 0.493388958254677D+03 -.169206238659010D+03 0.397886004359798D+03 -.237673390309265D+03
0.407582741184D-03 0.000000000000D+00 0.000000000000D+00 0.358262126406D-05 0.000000000000D+00  7 1 -1 23 -11 11 23 21 0 0.10717945D+00 0.15985739D+00 0.52819825D+06 0.52819825D+06 0.52819825D+06 0.10668305D+01  1  2  2  1  7  1        1 0.391140321893D-03 0.100000000000D+01
-.219598288842D-04 0.000000000000D+00 -.156522504515D-05 0.358262126406D-05 0.000000000000D+00  7 1 -1 23 -11 11 23 21 2 0.10717945D+00 0.15985739D+00 0.52819825D+06 0.52819825D+06 0.52819825D+06 0.10668305D+01  1  2  3  1  7  1        1 -.239848276044D-04 0.100000000000D+01
0.256850088479D-04 0.000000000000D+00 0.000000000000D+00 0.358262126406D-05 0.000000000000D+00  7 1 -1 23 -11 11 23 21 2 0.10717945D+00 0.15985739D+00 0.52819825D+06 0.52819825D+06 0.52819825D+06 0.10668305D+01  1  2 15  1  7  1        1 0.280535204751D-04 0.100000000000D+01
-.681885000238D-04 0.000000000000D+00 0.000000000000D+00 0.358262126406D-05 0.000000000000D+00  7 1 -1 23 -11 11 23 21 2 0.10717945D+00 0.15985739D+00 0.52819825D+06 0.52819825D+06 0.52819825D+06 0.10668305D+01  1  2  4  1  7  1        1 -.744764190238D-04 0.100000000000D+01
  </mgrwgt>
  </event>
  <event>
  8     66 0.56006291E-06 0.41057182E+03 0.75467711E-02 0.96903789E-01
        1 -1    0    0  501    0 0.00000000E+00 0.00000000E+00 0.11297961E+04 0.11297962E+04 0.32000000E+00 0.0000E+00 0.9000E+01
       -1 -1    0    0    0  501 0.00000000E+00 0.00000000E+00 -.22120083E+03 0.22120106E+03 0.32000000E+00 0.0000E+00 0.9000E+01
       25  2    1    2    0    0 0.31906792E+03 -.20343167E+03 0.16098356E+03 0.50869480E+03 0.29944266E+03 0.0000E+00 0.0000E+00
       23  2    1    2    0    0 -.31906792E+03 0.20343167E+03 0.74761175E+03 0.84230245E+03 0.85797990E+02 0.0000E+00 0.0000E+00
       23  1    3    3    0    0 0.27248579E+03 -.12470681E+03 0.14741434E+02 0.31358070E+03 0.91188000E+02 0.0000E+00 0.9000E+01
      -13  1    4    4    0    0 -.15989242E+03 0.11152362E+03 0.47570355E+03 0.51409822E+03 0.10565837E+00 0.0000E+00 0.9000E+01
       13  1    4    4    0    0 -.15917551E+03 0.91908050E+02 0.27190820E+03 0.32820423E+03 0.10565837E+00 0.0000E+00 0.9000E+01
       23  1    3    3    0    0 0.46582130E+02 -.78724861E+02 0.14624213E+03 0.19511410E+03 0.91188000E+02 0.0000E+00 0.9000E+01
#aMCatNLO 1  0  0  1  2 0.79069862D+00 0.00000000D+00  -5  7  0 0.00000000D+00 0.00000000D+00 0.00000000D+00 0.00000000D+00 0.00000000D+00
  <mgrwgt>
 0.1441418987D-03    6    2    0
 0.499912019478947D+03 0.000000000000000D+00 0.000000000000000D+00 0.499912019478947D+03
 0.499912019478947D+03 0.000000000000000D+00 0.000000000000000D+00 -.499912019478947D+03
 0.410324869591522D+03 0.272485794339073D+03 -.124706807787287D+03 -.265048960073811D+03
 0.262369530480151D+03 -.159892418421201D+03 0.111523648333438D+03 0.175598009436878D+03
 0.196382940615324D+03 -.159175505898532D+03 0.919080201477225D+02 0.691544179296908D+02
 0.130746698270898D+03 0.465821299806600D+02 -.787248606938739D+02 0.202965327072428D+02
 0.000000000000000D+00 -.000000000000000D+00 -.000000000000000D+00 -.000000000000000D+00
 0.500089809596916D+03 0.000000000000000D+00 0.000000000000000D+00 0.500089809596916D+03
 0.500792082036193D+03 0.000000000000000D+00 0.000000000000000D+00 -.500792082036193D+03
 0.410539592974153D+03 0.272810366437319D+03 -.124703884396238D+03 -.265048960073811D+03
 0.262243963041093D+03 -.159684984782487D+03 0.111525516669151D+03 0.175598009436878D+03
 0.196257779763455D+03 -.159020254662448D+03 0.919094184813325D+02 0.691544179296908D+02
 0.130783015836315D+03 0.466855395591381D+02 -.787239292933077D+02 0.202965327072428D+02
 0.105754001809280D+01 -.790666551521229D+00 -.712146093810413D-02 -.702272439276492D+00
0.130324986833D-04 0.000000000000D+00 0.000000000000D+00 0.488479083518D-07 0.000000000000D+00  7 1 -1 23 -13 13 23 21 0 0.17381481D+00 0.34030918D-01 0.16856922D+06 0.16856922D+06 0.16856922D+06 0.11035741D+01  1  2  2  1  7  1        1 0.153354703800D-03 0.100000000000D+01
-.689904845371D-06 0.000000000000D+00 -.500482264798D-07 0.488479083518D-07 0.000000000000D+00  7 1 -1 23 -13 13 23 21 2 0.17381481D+00 0.34030918D-01 0.16856922D+06 0.16856922D+06 0.16856922D+06 0.11035741D+01  1  2  3  1  7  1        1 -.988693247864D-05 0.100000000000D+01
0.800306622572D-06 0.000000000000D+00 0.000000000000D+00 0.488479083518D-07 0.000000000000D+00  7 1 -1 23 -13 13 23 21 2 0.17381481D+00 0.34030918D-01 0.16856922D+06 0.16856922D+06 0.16856922D+06 0.11035741D+01  1  2 15  1  7  1        1 0.114690853277D-04 0.100000000000D+01
-.258825139610D-03 0.000000000000D+00 0.000000000000D+00 0.488479083518D-07 0.000000000000D+00  7 1 -1 23 -13 13 23 21 2 0.17381481D+00 0.34030918D-01 0.16856922D+06 0.16856922D+06 0.16856922D+06 0.11035741D+01  1  2  4  1  7  1        1 -.370918786304D-02 0.100000000000D+01
0.258825570387D-03 0.000000000000D+00 0.000000000000D+00 0.488479083518D-07 0.507427596775D-06  7 1 -1 23 -13 13 23 21 2 0.17387663D+00 0.34090827D-01 0.16890027D+06 0.16890027D+06 0.16890027D+06 0.11035076D+01  1  2 11  1  7  1        1 0.369495578088D-02 0.100000000000D+01
0.207197338448D-06 0.000000000000D+00 0.000000000000D+00 0.488479083518D-07 0.338466286740D-10  7 21 -1 23 -13 13 23 -1 2 0.17387663D+00 0.34090827D-01 0.16890027D+06 0.16890027D+06 0.16890027D+06 0.11035076D+01  1  2 11  3  7  1        1 0.343712419605D-05 0.100000000000D+01
  </mgrwgt>
  </event>
  <event>
  8     66 0.56006291E-06 0.51215472E+03 0.75467711E-02 0.83567928E-01
        1 -1    0    0  501    0 0.00000000E+00 0.00000000E+00 0.99001809E+03 0.99001814E+03 0.32000000E+00 0.0000E+00 0.9000E+01
       -1 -1    0    0    0  501 0.00000000E+00 0.00000000E+00 -.60818328E+03 0.60818337E+03 0.32000000E+00 0.0000E+00 0.9000E+01
       25  2    1    2    0    0 -.45652707E+03 -.16207386E+03 0.77904751E+03 0.96507754E+03 0.29962431E+03 0.0000E+00 0.0000E+00
       23  2    1    2    0    0 0.45652707E+03 0.16207386E+03 -.39721270E+03 0.63312397E+03 0.91559394E+02 0.0000E+00 0.0000E+00
       23  1    3    3    0    0 -.36585408E+03 -.86216135E+02 0.69062514E+03 0.79155592E+03 0.91188000E+02 0.0000E+00 0.9000E+01
      -11  1    4    4    0    0 0.34487887E+02 -.39381761E+01 -.83068880E+01 0.35692128E+02 0.51099893E-03 0.0000E+00 0.9000E+01
       11  1    4    4    0    0 0.42203919E+03 0.16601204E+03 -.38890582E+03 0.59743184E+03 0.51099893E-03 0.0000E+00 0.9000E+01
       23  1    3    3    0    0 -.90672988E+02 -.75857728E+02 0.88422365E+02 0.17352162E+03 0.91188000E+02 0.0000E+00 0.9000E+01
#aMCatNLO 1  0  0  1  1 0.13869992D+04 0.00000000D+00  -5  7  0 0.00000000D+00 0.00000000D+00 0.00000000D+00 0.00000000D+00 0.00000000D+00
  <mgrwgt>
 0.2178513167D-03    5    2    0
 0.775959120638562D+03 0.000000000000000D+00 0.000000000000000D+00 0.775959120638562D+03
 0.775959120638562D+03 0.000000000000000D+00 0.000000000000000D+00 -.775959120638562D+03
 0.645240913013481D+03 -.365854084639247D+03 -.862161347212351D+02 0.516466989602413D+03
 0.388004143806534D+02 0.344878870063463D+02 -.393817606806094D+01 -.173363368450449D+02
 0.710935803337112D+03 0.422039185145858D+03 0.166012038305060D+03 -.547496708488556D+03
 0.156941110545877D+03 -.906729875129573D+02 -.758577275157642D+02 0.483660557311883D+02
 0.000000000000000D+00 -.000000000000000D+00 -.000000000000000D+00 0.000000000000000D+00
 0.406881560892035D+04 0.000000000000000D+00 0.000000000000000D+00 0.406881560892035D+04
 0.119952429313776D+04 0.000000000000000D+00 0.000000000000000D+00 -.119952429313776D+04
 0.583602851506851D+03 -.414421745221110D+02 0.252629039828812D+03 0.516466989602413D+03
 0.708116723923244D+02 0.634252242567227D+02 0.262865992432924D+02 -.173363368450449D+02
 0.132151027754211D+04 0.958600247133658D+03 0.726444997256437D+03 -.547496708488556D+03
 0.105473068107096D+03 -.213962516116605D+02 -.349883150526753D+01 0.483660557311883D+02
 0.318694203250973D+04 -.959187045256609D+03 -.100186180482327D+04 0.286929131578259D+04
0.978612785676D-04 0.000000000000D+00 0.000000000000D+00 0.459172150394D-05 0.000000000000D+00  7 1 -1 23 -11 11 23 21 0 0.15231049D+00 0.93566669D-01 0.26230246D+06 0.26230246D+06 0.26230246D+06 0.10888931D+01  1  2  2  1  7  1        1 0.213984143966D-03 0.100000000000D+01
-.429568520143D-05 0.000000000000D+00 -.375813077166D-06 0.459172150394D-05 0.000000000000D+00  7 1 -1 23 -11 11 23 21 2 0.15231049D+00 0.93566669D-01 0.26230246D+06 0.26230246D+06 0.26230246D+06 0.10888931D+01  1  2  3  1  7  1        1 -.111371392519D-04 0.100000000000D+01
0.578661635740D-05 0.000000000000D+00 0.000000000000D+00 0.459172150394D-05 0.000000000000D+00  7 1 -1 23 -11 11 23 21 2 0.15231049D+00 0.93566669D-01 0.26230246D+06 0.26230246D+06 0.26230246D+06 0.10888931D+01  1  2 15  1  7  1        1 0.150025779701D-04 0.100000000000D+01
0.550688019387D-05 0.000000000000D+00 -.403628416594D-04 0.459172150394D-05 0.000000000000D+00  7 1 -1 23 -11 11 23 21 2 0.82431553D+00 0.93566669D-01 0.26230246D+06 0.26230246D+06 0.26230246D+06 0.10888931D+01  1  2  5  1  7  1        1 0.173949673086D-08 0.100000000000D+01
-.625869231908D-06 0.000000000000D+00 -.833731751335D-05 0.459172150394D-05 0.000000000000D+00  7 21 -1 23 -11 11 23 -1 2 0.82431553D+00 0.93566669D-01 0.26230246D+06 0.26230246D+06 0.26230246D+06 0.10888931D+01  1  2  5  3  7  1        1 -.543439721523D-11 0.100000000000D+01
  </mgrwgt>
  </event>
  <event>
  7     66 0.56006291E-06 0.24405785E+03 0.75467711E-02 0.95512334E-01
        1 -1    0    0  501    0 0.00000000E+00 0.00000000E+00 0.41163582E+03 0.41163595E+03 0.32000000E+00 0.0000E+00 0.9000E+01
       -1 -1    0    0    0  501 0.00000000E+00 0.00000000E+00 -.35533251E+03 0.35533266E+03 0.32000000E+00 0.0000E+00 0.9000E+01
       25  2    1    2    0    0 -.71699655E+02 -.22722792E+03 -.15712577E+03 0.41398116E+03 0.29986418E+03 0.0000E+00 0.0000E+00
       23  1    3    3    0    0 0.18175369E+02 0.28296767E+02 -.38982223E+02 0.10471827E+03 0.91188000E+02 0.0000E+00 0.9000E+01
      -13  1    1    2    0    0 -.14262086E+02 0.16849420E+03 0.17122189E+03 0.24064632E+03 0.10565837E+00 0.0000E+00 0.9000E+01
       13  1    1    2    0    0 0.85961740E+02 0.58733721E+02 0.42207188E+02 0.11234113E+03 0.10565837E+00 0.0000E+00 0.9000E+01
       23  1    3    3    0    0 -.89875024E+02 -.25552469E+03 -.11814354E+03 0.30926289E+03 0.91188000E+02 0.0000E+00 0.9000E+01
#aMCatNLO 1  0  0  2  1 0.22969172D+03 0.00000000D+00  -5  7  0 0.00000000D+00 0.00000000D+00 0.00000000D+00 0.00000000D+00 0.00000000D+00
  <mgrwgt>
 0.1528438611D-03    9    2    0
 0.382449597673537D+03 0.000000000000000D+00 0.000000000000000D+00 0.382449597673537D+03
 0.382449597673537D+03 0.000000000000000D+00 0.000000000000000D+00 -.382449597673537D+03
 0.107871023345191D+03 0.181753206312019D+02 0.282966136564657D+02 -.467960009944052D+02
 0.228693871861994D+03 -.142607656210816D+02 0.168494374750591D+03 0.153971306640354D+03
 0.109537734444028D+03 0.859606116301777D+02 0.587341555915143D+02 0.340527162242301D+02
 0.318796565695861D+03 -.898751666402980D+02 -.255525143998571D+03 -.141228021870179D+03
 0.000000000000000D+00 0.000000000000000D+00 0.000000000000000D+00 -.000000000000000D+00
 0.470077216854240D+03 0.000000000000000D+00 0.000000000000000D+00 0.470077216854240D+03
 0.585729675894402D+03 0.000000000000000D+00 0.000000000000000D+00 -.585729675894402D+03
 0.106146884378535D+03 -.130155170323258D+02 0.243442051951391D+02 -.467960009944052D+02
 0.236670223571268D+03 -.820826414139742D+02 0.159900192105079D+03 0.153971306640354D+03
 0.865443288287496D+02 0.573837328571835D+02 0.551129800822474D+02 0.340527162242301D+02
 0.369280575372809D+03 -.190155104124604D+03 -.268232313895381D+03 -.141228021870179D+03
 0.257164880597280D+03 0.227869529713720D+03 0.288749365129154D+02 -.115652459040162D+03
0.621616458369D-05 0.000000000000D+00 0.000000000000D+00 0.513732192254D-09 0.000000000000D+00  7 1 -1 23 -13 13 23 21 0 0.63328609D-01 0.54666561D-01 0.10765172D+06 0.10765172D+06 0.10765172D+06 0.11191038D+01  1  2  2  2  7  2       -1 0.150595910228D-03 0.100000000000D+01
-.335478819541D-06 0.000000000000D+00 -.238717087551D-07 0.513732192254D-09 0.000000000000D+00  7 1 -1 23 -13 13 23 21 2 0.63328609D-01 0.54666561D-01 0.10765172D+06 0.10765172D+06 0.10765172D+06 0.11191038D+01  1  2  3  2  7  2       -1 -.101787983158D-04 0.100000000000D+01
0.393099509916D-06 0.000000000000D+00 0.000000000000D+00 0.513732192254D-09 0.000000000000D+00  7 1 -1 23 -13 13 23 21 2 0.63328609D-01 0.54666561D-01 0.10765172D+06 0.10765172D+06 0.10765172D+06 0.11191038D+01  1  2 15  2  7  2       -1 0.119270737716D-04 0.100000000000D+01
0.626686287629D-06 0.000000000000D+00 0.000000000000D+00 0.513732192254D-09 0.000000000000D+00  7 1 -1 23 -13 13 23 21 2 0.63328609D-01 0.87299310D-01 0.21412621D+06 0.21412621D+06 0.21412621D+06 0.10955562D+01  1  2 12  2  7  2       -1 0.719249185806D-05 0.100000000000D+01
-.294303272108D-05 0.000000000000D+00 0.000000000000D+00 0.513732192254D-09 0.000000000000D+00  7 1 -1 23 -13 13 23 21 2 0.63328609D-01 0.54666561D-01 0.10765172D+06 0.10765172D+06 0.10765172D+06 0.11191038D+01  1  2  4  2  7  2       -1 -.892948667987D-04 0.100000000000D+01
-.286812355465D-05 0.000000000000D+00 -.200563560462D-05 0.513732192254D-09 0.000000000000D+00  7 1 -1 23 -13 13 23 21 2 0.63328609D-01 0.98664307D-01 0.10765172D+06 0.10765172D+06 0.10765172D+06 0.11191038D+01  1  2  5  2  7  2       -1 -.270053713270D-04 0.100000000000D+01
0.369455248235D-05 0.000000000000D+00 0.170048047518D-05 0.513732192254D-09 0.000000000000D+00  7 1 -1 23 -13 13 23 21 2 0.63328609D-01 0.54666561D-01 0.10765172D+06 0.10765172D+06 0.10765172D+06 0.11191038D+01  1  2  6  2  7  2       -1 0.112096807293D-03 0.100000000000D+01
0.335611685615D-07 0.000000000000D+00 0.000000000000D+00 0.513732192254D-09 0.000000000000D+00  7 1 21 23 -13 13 23 1 2 0.63328609D-01 0.87299310D-01 0.21412621D+06 0.21412621D+06 0.21412621D+06 0.10955562D+01  1  2 12  4  7  2       -1 0.284335028551D-05 0.100000000000D+01
-.785720394281D-07 0.000000000000D+00 -.129807617805D-06 0.513732192254D-09 0.000000000000D+00  7 1 21 23 -13 13 23 1 2 0.63328609D-01 0.98664307D-01 0.10765172D+06 0.10765172D+06 0.10765172D+06 0.11191038D+01  1  2  5  4  7  2       -1 -.533273592535D-05 0.100000000000D+01
  </mgrwgt>
  </event>
  <event>
  8     66 0.56006291E-06 0.31047418E+03 0.75467711E-02 0.99607671E-01
        1 -1    0    0  501    0 0.00000000E+00 0.00000000E+00 0.26777398E+04 0.26777398E+04 0.32000000E+00 0.0000E+00 0.9000E+01
       -1 -1    0    0    0  501 0.00000000E+00 0.00000000E+00 -.47892695E+02 0.47893764E+02 0.32000000E+00 0.0000E+00 0.9000E+01
       25  2    1    2    0    0 -.21904822E+03 -.14140108E+03 0.19801984E+04 0.20196766E+04 0.29988618E+03 0.0000E+00 0.0000E+00
       23  2    1    2    0    0 0.21904822E+03 0.14140108E+03 0.64964870E+03 0.70595692E+03 0.91407593E+02 0.0000E+00 0.0000E+00
       23  1    3    3    0    0 -.18930672E+03 -.14157883E+03 0.89280451E+03 0.92806074E+03 0.91188000E+02 0.0000E+00 0.9000E+01
      -13  1    4    4    0    0 0.48815410E+01 -.88075661E+01 0.60655692E+02 0.61485989E+02 0.10565837E+00 0.0000E+00 0.9000E+01
       13  1    4    4    0    0 0.21416668E+03 0.15020865E+03 0.58899301E+03 0.64447093E+03 0.10565837E+00 0.0000E+00 0.9000E+01
       23  1    3    3    0    0 -.29741500E+02 0.17774944E+00 0.10873939E+04 0.10916159E+04 0.91188000E+02 0.0000E+00 0.9000E+01
#aMCatNLO 1  0  0  1  1 0.37682975D+02 0.00000000D+00  -5  7  0 0.00000000D+00 0.00000000D+00 0.00000000D+00 0.00000000D+00 0.00000000D+00
  <mgrwgt>
 0.1785128252D-03    4    2    0
 0.358114028902821D+03 0.000000000000000D+00 0.000000000000000D+00 0.358114028902821D+03
 0.358114028902821D+03 0.000000000000000D+00 0.000000000000000D+00 -.358114028902821D+03
 0.253570313369966D+03 -.189306719459306D+03 -.141578830067519D+03 -.100525281800553D+02
 0.112712881147917D+02 0.488126142679149D+01 -.880777841617335D+01 0.506342394250712D+01
 0.289894137607678D+03 0.214166957924489D+03 0.150208859079753D+03 -.124933677631887D+03
 0.161492318713206D+03 -.297414998919744D+02 0.177749403939401D+00 0.129922781869436D+03
 0.000000000000000D+00 -.000000000000000D+00 0.000000000000000D+00 -.000000000000000D+00
 0.367700953281821D+03 0.000000000000000D+00 0.000000000000000D+00 0.367700953281821D+03
 0.397656502367256D+03 0.000000000000000D+00 0.000000000000000D+00 -.397656502367256D+03
 0.259160020281524D+03 -.186531968123265D+03 -.154768977232424D+03 -.100525281800553D+02
 0.117932251812783D+02 0.500608003977980D+01 -.940112018804685D+01 0.506342394250712D+01
 0.284881034924965D+03 0.217277478354498D+03 0.135422589154104D+03 -.124933677631887D+03
 0.161384401341544D+03 -.279941825371219D+02 -.812835455389400D+01 0.129922781869436D+03
 0.481387739197665D+02 -.775740773389111D+01 0.368758628202606D+02 -.299555490854345D+02
0.270895533918D-04 0.000000000000D+00 0.000000000000D+00 0.952386215328D-06 0.000000000000D+00  7 1 -1 23 -13 13 23 21 0 0.41196005D+00 0.73681907D-02 0.96394213D+05 0.96394213D+05 0.96394213D+05 0.11230332D+01  1  2  2  1  7  1        1 0.336692845419D-03 0.100000000000D+01
-.146768732567D-05 0.000000000000D+00 -.104031017868D-06 0.952386215328D-06 0.000000000000D+00  7 1 -1 23 -13 13 23 21 2 0.41196005D+00 0.73681907D-02 0.96394213D+05 0.96394213D+05 0.96394213D+05 0.11230332D+01  1  2  3  1  7  1        1 -.230065118605D-04 0.100000000000D+01
0.172790775557D-05 0.000000000000D+00 0.000000000000D+00 0.952386215328D-06 0.000000000000D+00  7 1 -1 23 -13 13 23 21 2 0.41196005D+00 0.73681907D-02 0.96394213D+05 0.96394213D+05 0.96394213D+05 0.11230332D+01  1  2 15  1  7  1        1 0.270855580593D-04 0.100000000000D+01
-.103512247649D-04 0.000000000000D+00 0.000000000000D+00 0.952386215328D-06 0.000000000000D+00  7 1 -1 23 -13 13 23 21 2 0.41196005D+00 0.73681907D-02 0.96394213D+05 0.96394213D+05 0.96394213D+05 0.11230332D+01  1  2  4  1  7  1        1 -.162259066464D-03 0.100000000000D+01
  </mgrwgt>
  </event>
  <event>
  8     66 0.56006291E-06 0.19831522E+03 0.75467711E-02 0.89598894E-01
        1 -1    0    0  501    0 0.00000000E+00 0.00000000E+00 0.17571963E+04 0.17571963E+04 0.32000000E+00 0.0000E+00 0.9000E+01
       -1 -1    0    0    0  501 0.00000000E+00 0.00000000E+00 -.25989132E+02 0.25991102E+02 0.32000000E+00 0.0000E+00 0.9000E+01
       25  2    1    2    0    0 0.16856148E+02 -.69394968E+02 0.12874355E+04 0.13237525E+04 0.29955095E+03 0.0000E+00 0.0000E+00
       23  2    1    2    0    0 -.16856148E+02 0.69394968E+02 0.44377169E+03 0.45943493E+03 0.95117582E+02 0.0000E+00 0.0000E+00
       23  1    3    3    0    0 -.94065295E+02 -.37610960E+02 0.36406595E+03 0.38874430E+03 0.91188000E+02 0.0000E+00 0.9000E+01
      -11  1    4    4    0    0 -.14396212E+02 0.90689276E+02 0.29037995E+03 0.30455264E+03 0.51099893E-03 0.0000E+00 0.9000E+01
       11  1    4    4    0    0 -.24599358E+01 -.21294308E+02 0.15339174E+03 0.15488229E+03 0.51099893E-03 0.0000E+00 0.9000E+01
       23  1    3    3    0    0 0.11092144E+03 -.31784007E+02 0.92336955E+03 0.93500822E+03 0.91188000E+02 0.0000E+00 0.9000E+01
#aMCatNLO 1  0  0  2  1 0.75112759D+03 0.00000000D+00  -5  7  0 0.00000000D+00 0.00000000D+00 0.00000000D+00 0.00000000D+00 0.00000000D+00
  <mgrwgt>
 0.3637305131D-03    5    2    0
 0.213704910341612D+03 0.000000000000000D+00 0.000000000000000D+00 0.213704910341612D+03
 0.213704910341612D+03 0.000000000000000D+00 0.000000000000000D+00 -.213704910341612D+03
 0.147236600396975D+03 -.940652948617233D+02 -.376109607005150D+02 -.556821433694861D+02
 0.944446953487141D+02 -.143962119070630D+02 0.906892758140002D+02 -.220908310067902D+02
 0.248737342854408D+02 -.245993581412087D+01 -.212943076022301D+02 0.126176002803515D+02
 0.160854790652093D+03 0.110921442582907D+03 -.317840075112551D+02 0.651553740959248D+02
 0.000000000000000D+00 -.000000000000000D+00 0.000000000000000D+00 -.000000000000000D+00
 0.624720360933584D+03 0.000000000000000D+00 0.000000000000000D+00 0.624720360933584D+03
 0.116440179159427D+04 0.000000000000000D+00 0.000000000000000D+00 -.116440179159427D+04
 0.266652534196708D+03 0.329115795432273D+02 -.242083971983435D+03 -.556821433694861D+02
 0.422247172985427D+02 0.275325400079767D+02 0.231706965169465D+02 -.220908310067902D+02
 0.798050397687169D+02 0.296544214738219D+02 -.730086010186793D+02 0.126176002803515D+02
 0.475535163232690D+03 0.306159250229944D+03 -.346178755633270D+03 0.651553740959248D+02
 0.924904698031200D+03 -.396257791254970D+03 0.638100632118438D+03 -.539681430660689D+03
0.260498006061D-05 0.000000000000D+00 0.000000000000D+00 0.105428033788D-07 0.000000000000D+00  7 1 -1 23 -11 11 23 21 0 0.27033805D+00 0.39984817D-02 0.39328927D+05 0.39328927D+05 0.39328927D+05 0.11565804D+01  1  2  2  2  7  2       -1 0.333872073933D-03 0.100000000000D+01
-.143738234836D-06 0.000000000000D+00 -.100038093398D-07 0.105428033788D-07 0.000000000000D+00  7 1 -1 23 -11 11 23 21 2 0.27033805D+00 0.39984817D-02 0.39328927D+05 0.39328927D+05 0.39328927D+05 0.11565804D+01  1  2  3  2  7  2       -1 -.246433430863D-04 0.100000000000D+01
0.169468893391D-06 0.000000000000D+00 0.000000000000D+00 0.105428033788D-07 0.000000000000D+00  7 1 -1 23 -11 11 23 21 2 0.27033805D+00 0.39984817D-02 0.39328927D+05 0.39328927D+05 0.39328927D+05 0.11565804D+01  1  2 15  2  7  2       -1 0.290547611569D-04 0.100000000000D+01
0.215678735173D-04 0.000000000000D+00 -.580206890422D-05 0.105428033788D-07 0.000000000000D+00  7 1 -1 23 -11 11 23 21 2 0.27033805D+00 0.13433892D+00 0.39328927D+05 0.39328927D+05 0.39328927D+05 0.11565804D+01  1  2  5  2  7  2       -1 0.917053172826D-05 0.100000000000D+01
0.564013347594D-05 0.000000000000D+00 -.198733037298D-05 0.105428033788D-07 0.000000000000D+00  7 1 21 23 -11 11 23 1 2 0.27033805D+00 0.13433892D+00 0.39328927D+05 0.39328927D+05 0.39328927D+05 0.11565804D+01  1  2  5  4  7  2       -1 0.162764893393D-04 0.100000000000D+01
  </mgrwgt>
  </event>
  <event>
  8     66 0.56006291E-06 0.29363584E+03 0.75467711E-02 0.93737618E-01
        1 -1    0    0  501    0 0.00000000E+00 0.00000000E+00 0.15191439E+03 0.15191472E+03 0.32000000E+00 0.0000E+00 0.9000E+01
       -1 -1    0    0    0  501 0.00000000E+00 0.00000000E+00 -.69275000E+03 0.69275007E+03 0.32000000E+00 0.0000E+00 0.9000E+01
       25  2    1    2    0    0 -.18807900E+03 0.12116013E+03 -.18949138E+03 0.41823431E+03 0.29826073E+03 0.0000E+00 0.0000E+00
       23  2    1    2    0    0 0.18807900E+03 -.12116013E+03 -.35134423E+03 0.42643049E+03 0.91360302E+02 0.0000E+00 0.0000E+00
       23  1    3    3    0    0 -.98212814E+02 0.17188930E+03 -.52937854E+02 0.22429747E+03 0.91188000E+02 0.0000E+00 0.9000E+01
      -11  1    4    4    0    0 0.19959893E+02 -.40456685E+02 -.27801714E+02 0.52991282E+02 0.51099893E-03 0.0000E+00 0.9000E+01
       11  1    4    4    0    0 0.16811911E+03 -.80703449E+02 -.32354252E+03 0.37343921E+03 0.51099893E-03 0.0000E+00 0.9000E+01
       23  1    3    3    0    0 -.89866186E+02 -.50729164E+02 -.13655353E+03 0.19393684E+03 0.91188000E+02 0.0000E+00 0.9000E+01
#aMCatNLO 1  0  0  2  1 0.38229997D+03 0.00000000D+00  -5  7  0 0.00000000D+00 0.00000000D+00 0.00000000D+00 0.00000000D+00 0.00000000D+00
  <mgrwgt>
 0.1839147470D-03    5    2    0
 0.324405401999981D+03 0.000000000000000D+00 0.000000000000000D+00 0.324405401999981D+03
 0.324405401999981D+03 0.000000000000000D+00 0.000000000000000D+00 -.324405401999981D+03
 0.247877347369352D+03 -.982128141325999D+02 0.171889298296809D+03 0.118051854140679D+03
 0.458126051606603D+02 0.199598925378964D+02 -.404566846142830D+02 0.797835518779570D+01
 0.216469325294739D+03 0.168119107581603D+03 -.807034493619392D+02 -.109917640625197D+03
 0.138651526175210D+03 -.898661859868994D+02 -.507291643205869D+02 -.161125687032783D+02
 0.000000000000000D+00 -.000000000000000D+00 0.000000000000000D+00 -.000000000000000D+00
 0.414240789079491D+03 0.000000000000000D+00 0.000000000000000D+00 0.414240789079491D+03
 0.134552181867355D+04 0.000000000000000D+00 0.000000000000000D+00 -.134552181867355D+04
 0.222416386726415D+03 0.296789547504779D+02 0.162285911647626D+03 0.118051854140679D+03
 0.666870743871612D+02 0.505530771224490D+02 -.427539253433865D+02 0.797835518779570D+01
 0.353596871490299D+03 0.323143019238570D+03 -.923441872805130D+02 -.109917640625197D+03
 0.110365884189793D+03 -.221483433167300D+02 -.558140938034589D+02 -.161125687032783D+02
 0.100669639095937D+04 -.381226707794767D+03 0.286262947797328D+02 -.931281029594061D+03
0.775979072500D-05 0.000000000000D+00 0.000000000000D+00 0.545421573879D-07 0.000000000000D+00  7 1 -1 23 -11 11 23 21 0 0.23371476D-01 0.10657695D+00 0.86222004D+05 0.86222004D+05 0.86222004D+05 0.11270439D+01  1  2  2  2  7  2       -1 0.181948807277D-03 0.100000000000D+01
-.425894190945D-06 0.000000000000D+00 -.297996395838D-07 0.545421573879D-07 0.000000000000D+00  7 1 -1 23 -11 11 23 21 2 0.23371476D-01 0.10657695D+00 0.86222004D+05 0.86222004D+05 0.86222004D+05 0.11270439D+01  1  2  3  2  7  2       -1 -.126847701944D-04 0.100000000000D+01
0.512628335536D-06 0.000000000000D+00 0.000000000000D+00 0.545421573879D-07 0.000000000000D+00  7 1 -1 23 -11 11 23 21 2 0.23371476D-01 0.10657695D+00 0.86222004D+05 0.86222004D+05 0.86222004D+05 0.11270439D+01  1  2 15  2  7  2       -1 0.152680472513D-04 0.100000000000D+01
-.544383093681D-05 0.000000000000D+00 -.267245465465D-05 0.545421573879D-07 0.000000000000D+00  7 1 -1 23 -11 11 23 21 2 0.23371476D-01 0.46716158D+00 0.86222004D+05 0.86222004D+05 0.86222004D+05 0.11270439D+01  1  2  5  2  7  2       -1 -.116036532730D-06 0.100000000000D+01
-.981066006637D-06 0.000000000000D+00 -.476321530367D-06 0.545421573879D-07 0.000000000000D+00  7 1 21 23 -11 11 23 1 2 0.23371476D-01 0.46716158D+00 0.86222004D+05 0.86222004D+05 0.86222004D+05 0.11270439D+01  1  2  5  4  7  2       -1 -.501300770355D-06 0.100000000000D+01
  </mgrwgt>
  </event>
  <event>
  8     66 -.56006291E-06 0.74742381E+02 0.75467711E-02 0.10926794E+00
        1 -1    0    0  501    0 0.00000000E+00 0.00000000E+00 0.10341426E+03 0.10341475E+03 0.32000000E+00 0.0000E+00 0.9000E+01
       -1 -1    0    0    0  501 0.00000000E+00 0.00000000E+00 -.17646398E+04 0.17646399E+04 0.32000000E+00 0.0000E+00 0.9000E+01
       25  2    1    2    0    0 0.39885810E+02 0.25421872E+02 -.12609773E+03 0.32963286E+03 0.30086548E+03 0.0000E+00 0.0000E+00
       23  2    1    2    0    0 -.39885810E+02 -.25421872E+02 -.15351279E+04 0.15384218E+04 0.88807855E+02 0.0000E+00 0.0000E+00
       23  1    3    3    0    0 0.46722843E+02 0.62993771E+02 0.47937807E+02 0.12947789E+03 0.91188000E+02 0.0000E+00 0.9000E+01
      -11  1    4    4    0    0 -.36720803E+02 -.32311582E+02 -.15249299E+04 0.15257141E+04 0.51099893E-03 0.0000E+00 0.9000E+01
       11  1    4    4    0    0 -.31650077E+01 0.68897103E+01 -.10197992E+02 0.12707652E+02 0.51099893E-03 0.0000E+00 0.9000E+01
       23  1    3    3    0    0 -.68370326E+01 -.37571899E+02 -.17403553E+03 0.20015497E+03 0.91188000E+02 0.0000E+00 0.9000E+01
#aMCatNLO 1  0  0  1  2 0.61563966D+02 0.00000000D+00  -5  7  0 0.00000000D+00 0.00000000D+00 0.00000000D+00 0.00000000D+00 0.00000000D+00
  <mgrwgt>
 -.8921486071D-03    7    2    0
 0.427187787985590D+03 0.000000000000000D+00 0.000000000000000D+00 0.427187787985590D+03
 0.427187787985590D+03 0.000000000000000D+00 0.000000000000000D+00 -.427187787985590D+03
 0.376306732651496D+03 0.467228428220165D+02 0.629937714058817D+02 0.356567337844532D+03
 0.370872949370398D+03 -.367208025520776D+02 -.323115823693086D+02 -.367633362032638D+03
 0.795601286590931D+01 -.316500768301823D+01 0.688971025261233D+01 0.241096655389467D+01
 0.992398810833771D+02 -.683703258692065D+01 -.375718992891854D+02 0.865505763421075D+01
 0.000000000000000D+00 -.000000000000000D+00 -.000000000000000D+00 0.000000000000000D+00
 0.102359467355401D+04 0.000000000000000D+00 0.000000000000000D+00 0.102359467355401D+04
 0.429887072397599D+03 0.000000000000000D+00 0.000000000000000D+00 -.429887072397599D+03
 0.382690562777214D+03 0.686585546293577D+02 0.792625507627136D+02 0.356567337844532D+03
 0.368322289069381D+03 -.153573881928537D+02 -.164672515551851D+02 -.367633362032638D+03
 0.808919938588669D+01 -.270128646297855D+01 0.723363245026728D+01 0.241096655389467D+01
 0.974887184470658D+02 -.115139722359022D+01 -.333551066889805D+02 0.865505763421075D+01
 0.596890976272060D+03 -.494484827499352D+02 -.366738249688153D+02 0.593707601156410D+03
0.117200860249D-03 0.000000000000D+00 0.000000000000D+00 0.239859092466D-06 0.000000000000D+00  7 1 -1 23 -11 11 23 21 0 0.15909926D-01 0.27148309D+00 0.18993403D+05 0.18993403D+05 0.18993403D+05 0.11862155D+01  1  2  2  1  7  1        1 0.216250311356D-03 0.100000000000D+01
0.362084902940D-05 0.000000000000D+00 -.450082163053D-06 0.239859092466D-06 0.000000000000D+00  7 1 -1 23 -11 11 23 21 2 0.15909926D-01 0.27148309D+00 0.18993403D+05 0.18993403D+05 0.18993403D+05 0.11862155D+01  1  2  3  1  7  1        1 0.940077232764D-05 0.100000000000D+01
0.724507462458D-05 0.000000000000D+00 0.000000000000D+00 0.239859092466D-06 0.000000000000D+00  7 1 -1 23 -11 11 23 21 2 0.15909926D-01 0.27148309D+00 0.18993403D+05 0.18993403D+05 0.18993403D+05 0.11862155D+01  1  2 15  1  7  1        1 0.188103111976D-04 0.100000000000D+01
0.223818635248D-02 0.000000000000D+00 0.000000000000D+00 0.239859092466D-06 0.000000000000D+00  7 1 -1 23 -11 11 23 21 2 0.38094449D-01 0.27148309D+00 0.26875222D+05 0.26875222D+05 0.26875222D+05 0.11717941D+01  1  2 12  1  7  1        1 0.182336369058D-02 0.100000000000D+01
-.299929846432D-02 0.000000000000D+00 -.394685898790D-04 0.239859092466D-06 0.000000000000D+00  7 1 -1 23 -11 11 23 21 2 0.38206387D-01 0.27148309D+00 0.18993403D+05 0.18993403D+05 0.18993403D+05 0.11862155D+01  1  2  5  1  7  1        1 -.255728292318D-02 0.100000000000D+01
0.213739792223D-03 0.000000000000D+00 0.000000000000D+00 0.239859092466D-06 0.000000000000D+00  7 21 -1 23 -11 11 23 -1 2 0.38094449D-01 0.27148309D+00 0.26875222D+05 0.26875222D+05 0.26875222D+05 0.11717941D+01  1  2 12  3  7  1        1 0.994881369127D-03 0.100000000000D+01
-.285022651200D-03 0.000000000000D+00 -.378332064142D-05 0.239859092466D-06 0.000000000000D+00  7 21 -1 23 -11 11 23 -1 2 0.38206387D-01 0.27148309D+00 0.18993403D+05 0.18993403D+05 0.18993403D+05 0.11862155D+01  1  2  5  3  7  1        1 -.139757213851D-02 0.100000000000D+01
  </mgrwgt>
  </event>
  <event>
  8     66 0.56006291E-06 0.22321423E+03 0.75467711E-02 0.93411184E-01
        1 -1    0    0  501    0 0.00000000E+00 0.00000000E+00 0.17980795E+03 0.17980823E+03 0.32000000E+00 0.0000E+00 0.9000E+01
       -1 -1    0    0    0  501 0.00000000E+00 0.00000000E+00 -.74395186E+03 0.74395193E+03 0.32000000E+00 0.0000E+00 0.9000E+01
       25  2    1    2    0    0 -.15224406E+03 -.65573809E+02 -.13404176E+02 0.34196321E+03 0.29879924E+03 0.0000E+00 0.0000E+00
       23  2    1    2    0    0 0.15224406E+03 0.65573809E+02 -.55073974E+03 0.58179695E+03 0.87722572E+02 0.0000E+00 0.0000E+00
       23  1    3    3    0    0 -.11950560E+03 0.13513748E+02 -.10762904E+03 0.18537387E+03 0.91188000E+02 0.0000E+00 0.9000E+01
      -13  1    4    4    0    0 0.15304859E+03 0.59344956E+02 -.55155403E+03 0.57546291E+03 0.10565837E+00 0.0000E+00 0.9000E+01
       13  1    4    4    0    0 -.80452589E+00 0.62288523E+01 0.81429265E+00 0.63340428E+01 0.10565837E+00 0.0000E+00 0.9000E+01
       23  1    3    3    0    0 -.32738466E+02 -.79087557E+02 0.94224859E+02 0.15658935E+03 0.91188000E+02 0.0000E+00 0.9000E+01
#aMCatNLO 1  0  0  1  2 0.49807190D+03 0.00000000D+00  -5  7  0 0.00000000D+00 0.00000000D+00 0.00000000D+00 0.00000000D+00 0.00000000D+00
  <mgrwgt>
 0.2074934833D-03    3    2    0
 0.365743927291080D+03 0.000000000000000D+00 0.000000000000000D+00 0.365743927291080D+03
 0.365743927291080D+03 0.000000000000000D+00 0.000000000000000D+00 -.365743927291080D+03
 0.151093044700847D+03 -.119505598829410D+03 0.135137481861818D+02 0.704608198621953D+01
 0.301350413226498D+03 0.153048813628342D+03 0.593450335859183D+02 -.252717825226920D+03
 0.862653271781975D+01 -.804749002197610D+00 0.622877514541466D+01 0.591369647199968D+01
 0.270417863936996D+03 -.327384657967346D+02 -.790875569175148D+02 0.239758046768701D+03
 0.000000000000000D+00 0.000000000000000D+00 0.000000000000000D+00 -.000000000000000D+00
 0.627035332750925D+03 0.000000000000000D+00 0.000000000000000D+00 0.627035332750925D+03
 0.778521765846958D+03 0.000000000000000D+00 0.000000000000000D+00 -.778521765846958D+03
 0.227713565159521D+03 -.194092647563808D+03 -.762667247492256D+02 0.704608198621953D+01
 0.266900506067150D+03 0.411601667371357D+02 -.753353942423330D+02 -.252717825226920D+03
 0.752429969568978D+01 -.398484906637435D+01 0.240088689151146D+01 0.591369647199968D+01
 0.382819309519643D+03 -.161360912246892D+03 -.233910468781551D+03 0.239758046768701D+03
 0.520599418155879D+03 0.318278242139939D+03 0.383111700881598D+03 -.151486433096034D+03
0.124795655597D-04 0.000000000000D+00 0.000000000000D+00 0.383332160406D-07 0.000000000000D+00  7 1 -1 23 -13 13 23 21 0 0.27662788D-01 0.11445416D+00 0.49824594D+05 0.49824594D+05 0.49824594D+05 0.11474297D+01  1  2  2  1  7  1        1 0.202042158885D-03 0.100000000000D+01
-.487761237969D-06 0.000000000000D+00 -.479248176942D-07 0.383332160406D-07 0.000000000000D+00  7 1 -1 23 -13 13 23 21 2 0.27662788D-01 0.11445416D+00 0.49824594D+05 0.49824594D+05 0.49824594D+05 0.11474297D+01  1  2  3  1  7  1        1 -.103968543765D-04 0.100000000000D+01
0.743506354887D-06 0.000000000000D+00 0.000000000000D+00 0.383332160406D-07 0.000000000000D+00  7 1 -1 23 -13 13 23 21 2 0.27662788D-01 0.11445416D+00 0.49824594D+05 0.49824594D+05 0.49824594D+05 0.11474297D+01  1  2 15  1  7  1        1 0.158481787768D-04 0.100000000000D+01
  </mgrwgt>
  </event>
  <event>
  8     66 0.56006291E-06 0.40683386E+03 0.75467711E-02 0.92834335E-01
        1 -1    0    0  501    0 0.00000000E+00 0.00000000E+00 0.16414992E+04 0.16414992E+04 0.32000000E+00 0.0000E+00 0.9000E+01
       -1 -1    0    0    0  501 0.00000000E+00 0.00000000E+00 -.31943296E+03 0.31943312E+03 0.32000000E+00 0.0000E+00 0.9000E+01
       25  2    1    2    0    0 -.55449147E+03 -.71181397E+02 0.12338300E+04 0.13872821E+04 0.29947892E+03 0.0000E+00 0.0000E+00
       23  2    1    2    0    0 0.55449147E+03 0.71181397E+02 0.88236228E+02 0.57365023E+03 0.93602228E+02 0.0000E+00 0.0000E+00
       23  1    3    3    0    0 -.20390528E+03 0.50164364E+02 0.29289431E+03 0.37174743E+03 0.91188000E+02 0.0000E+00 0.9000E+01
      -13  1    4    4    0    0 0.32570202E+03 0.46628302E+02 0.53266283E+01 0.32906594E+03 0.10565837E+00 0.0000E+00 0.9000E+01
       13  1    4    4    0    0 0.22878944E+03 0.24553094E+02 0.82909600E+02 0.24458429E+03 0.10565837E+00 0.0000E+00 0.9000E+01
       23  1    3    3    0    0 -.35058619E+03 -.12134576E+03 0.94093570E+03 0.10155347E+04 0.91188000E+02 0.0000E+00 0.9000E+01
#aMCatNLO 1  0  0  2  1 0.45834644D+01 0.00000000D+00  -5  7  0 0.00000000D+00 0.00000000D+00 0.00000000D+00 0.00000000D+00 0.00000000D+00
  <mgrwgt>
 0.1482761816D-03   11    2    0
 0.724119563275282D+03 0.000000000000000D+00 0.000000000000000D+00 0.724119563275282D+03
 0.724119563275282D+03 0.000000000000000D+00 0.000000000000000D+00 -.724119563275282D+03
 0.235973386388309D+03 -.203905277320773D+03 0.501643644076019D+02 0.572220426399317D+02
 0.440696716359498D+03 0.325702145922383D+03 0.466283305681573D+02 -.293185106613595D+03
 0.255483314701090D+03 0.228789320732699D+03 0.245530662115000D+02 -.111014943809111D+03
 0.516085709101667D+03 -.350586189334309D+03 -.121345761187259D+03 0.346978007782775D+03
 0.000000000000000D+00 -.000000000000000D+00 0.000000000000000D+00 -.000000000000000D+00
 0.724913139550256D+03 0.000000000000000D+00 0.000000000000000D+00 0.724913139550256D+03
 0.730771759874882D+03 0.000000000000000D+00 0.000000000000000D+00 -.730771759874882D+03
 0.235692808514716D+03 -.203759484678014D+03 0.494323667389951D+02 0.572220426399317D+02
 0.440755544746362D+03 0.325974603978528D+03 0.452603694823508D+02 -.293185106613595D+03
 0.255549822746267D+03 0.228947281749306D+03 0.237599734072357D+02 -.111014943809111D+03
 0.516248203521387D+03 -.350267093560735D+03 -.122947881554226D+03 0.346978007782775D+03
 0.743851989640635D+01 -.895307489085595D+00 0.449517192564446D+01 -.585862032462578D+01
0.372440472645D-04 0.000000000000D+00 0.000000000000D+00 0.687146670363D-06 0.000000000000D+00  7 1 -1 23 -13 13 23 21 0 0.25253835D+00 0.49143547D-01 0.34227837D+06 0.34227837D+06 0.34227837D+06 0.10803409D+01  1  2  2  2  7  2       -1 0.994833698931D-04 0.100000000000D+01
-.195469109172D-05 0.000000000000D+00 -.143026948078D-06 0.687146670363D-06 0.000000000000D+00  7 1 -1 23 -13 13 23 21 2 0.25253835D+00 0.49143547D-01 0.34227837D+06 0.34227837D+06 0.34227837D+06 0.10803409D+01  1  2  3  2  7  2       -1 -.609387289924D-05 0.100000000000D+01
0.232422936843D-05 0.000000000000D+00 0.000000000000D+00 0.687146670363D-06 0.000000000000D+00  7 1 -1 23 -13 13 23 21 2 0.25253835D+00 0.49143547D-01 0.34227837D+06 0.34227837D+06 0.34227837D+06 0.10803409D+01  1  2 15  2  7  2       -1 0.724593180981D-05 0.100000000000D+01
0.709518833421D-05 0.000000000000D+00 0.000000000000D+00 0.687146670363D-06 0.000000000000D+00  7 1 -1 23 -13 13 23 21 2 0.25253835D+00 0.49621798D-01 0.34501385D+06 0.34501385D+06 0.34501385D+06 0.10800883D+01  1  2 12  2  7  2       -1 0.217142724769D-04 0.100000000000D+01
-.176779974626D-02 0.000000000000D+00 0.000000000000D+00 0.687146670363D-06 0.000000000000D+00  7 1 -1 23 -13 13 23 21 2 0.25253835D+00 0.49143547D-01 0.34227837D+06 0.34227837D+06 0.34227837D+06 0.10803409D+01  1  2  4  2  7  2       -1 -.551122732927D-02 0.100000000000D+01
-.592457834982D-02 0.000000000000D+00 -.463464937846D-03 0.687146670363D-06 0.000000000000D+00  7 1 -1 23 -13 13 23 21 2 0.25253835D+00 0.49632967D-01 0.34227837D+06 0.34227837D+06 0.34227837D+06 0.10803409D+01  1  2  5  2  7  2       -1 -.181400471593D-01 0.100000000000D+01
0.592890278917D-02 0.000000000000D+00 0.463442182115D-03 0.687146670363D-06 0.000000000000D+00  7 1 -1 23 -13 13 23 21 2 0.25253835D+00 0.49143547D-01 0.34227837D+06 0.34227837D+06 0.34227837D+06 0.10803409D+01  1  2  6  2  7  2       -1 0.184837288010D-01 0.100000000000D+01
0.176064057817D-02 0.000000000000D+00 0.000000000000D+00 0.687146670363D-06 0.203514370190D-06  7 1 -1 23 -13 13 23 21 2 0.25281512D+00 0.49595010D-01 0.34501385D+06 0.34501385D+06 0.34501385D+06 0.10800883D+01  1  2 11  2  7  2       -1 0.537870332280D-02 0.100000000000D+01
0.999614090248D-06 0.000000000000D+00 0.000000000000D+00 0.687146670363D-06 0.000000000000D+00  7 1 21 23 -13 13 23 1 2 0.25253835D+00 0.49621798D-01 0.34501385D+06 0.34501385D+06 0.34501385D+06 0.10800883D+01  1  2 12  4  7  2       -1 0.274729249556D-04 0.100000000000D+01
-.108295897231D-04 0.000000000000D+00 -.848490371507D-06 0.687146670363D-06 0.000000000000D+00  7 1 21 23 -13 13 23 1 2 0.25253835D+00 0.49632967D-01 0.34227837D+06 0.34227837D+06 0.34227837D+06 0.10803409D+01  1  2  5  4  7  2       -1 -.297813240923D-03 0.100000000000D+01
0.310167638356D-05 0.000000000000D+00 0.000000000000D+00 0.687146670363D-06 0.344255904499D-09  7 1 21 23 -13 13 23 1 2 0.25281512D+00 0.49595010D-01 0.34501385D+06 0.34501385D+06 0.34501385D+06 0.10800883D+01  1  2 11  4  7  2       -1 0.851091609672D-04 0.100000000000D+01
  </mgrwgt>
  </event>
  <event>
  8     66 0.56006291E-06 0.12221393E+03 0.75467711E-02 0.95032300E-01
        1 -1    0    0  501    0 0.00000000E+00 0.00000000E+00 0.52858779E+03 0.52858789E+03 0.32000000E+00 0.0000E+00 0.9000E+01
       -1 -1    0    0    0  501 0.00000000E+00 0.00000000E+00 -.15965872E+04 0.15965873E+04 0.32000000E+00 0.0000E+00 0.9000E+01
       25  2    1    2    0    0 0.82932254E+02 -.21093486E+03 0.45078269E+03 0.58690927E+03 0.29981025E+03 0.0000E+00 0.0000E+00
       23  2    1    2    0    0 -.82932254E+02 0.21093486E+03 -.15187821E+04 0.15382659E+04 0.90506910E+02 0.0000E+00 0.0000E+00
       23  1    3    3    0    0 -.33735325E+02 0.19351034E+02 0.89128726E+02 0.13331060E+03 0.91188000E+02 0.0000E+00 0.9000E+01
      -13  1    4    4    0    0 -.28795262E+02 0.87890426E+02 -.91699410E+03 0.92164640E+03 0.10565837E+00 0.0000E+00 0.9000E+01
       13  1    4    4    0    0 -.54136991E+02 0.12304443E+03 -.60178804E+03 0.61661950E+03 0.10565837E+00 0.0000E+00 0.9000E+01
       23  1    3    3    0    0 0.11666758E+03 -.23028589E+03 0.36165396E+03 0.45359867E+03 0.91188000E+02 0.0000E+00 0.9000E+01
#aMCatNLO 1  0  0  2  1 0.29489261D+03 0.00000000D+00  -5  7  0 0.00000000D+00 0.00000000D+00 0.00000000D+00 0.00000000D+00 0.00000000D+00
  <mgrwgt>
 0.7049540080D-04    9    2    0
 0.918660256584104D+03 0.000000000000000D+00 0.000000000000000D+00 0.918660256584104D+03
 0.918660256584104D+03 0.000000000000000D+00 0.000000000000000D+00 -.918660256584104D+03
 0.206005322797111D+03 -.337353249699103D+02 0.193510343636505D+02 0.180583518060130D+03
 0.533010580211140D+03 -.287952276098765D+02 0.878903777820826D+02 -.524925132735360D+03
 0.363417657801597D+03 -.541370259568466D+02 0.123044480175690D+03 -.337641277572575D+03
 0.734886952358358D+03 0.116667578536633D+03 -.230285892321423D+03 0.681982892247804D+03
 0.000000000000000D+00 0.000000000000000D+00 -.000000000000000D+00 -.000000000000000D+00
 0.989651896033876D+03 0.000000000000000D+00 0.000000000000000D+00 0.989651896033876D+03
 0.129744232907923D+04 0.000000000000000D+00 0.000000000000000D+00 -.129744232907923D+04
 0.214759656620496D+03 -.655748681206261D+02 0.299330660598357D+02 0.180583518060130D+03
 0.548667174738535D+03 -.110646444413992D+03 0.115094039797346D+03 -.524925132735360D+03
 0.382543057822856D+03 -.110584329215635D+03 0.141805024239440D+03 -.337641277572575D+03
 0.714865492788266D+03 0.696392496976027D+01 -.193825333395159D+03 0.681982892247804D+03
 0.426258843142950D+03 0.279841716780493D+03 -.930067967014625D+02 -.307790433045352D+03
0.334389178008D-03 0.000000000000D+00 0.000000000000D+00 0.694828713253D-05 0.000000000000D+00  7 1 -1 23 -13 13 23 21 0 0.81321209D-01 0.24562882D+00 0.89950454D+05 0.89950454D+05 0.89950454D+05 0.11255163D+01  1  2  2  2  7  2       -1 0.108817281086D-03 0.100000000000D+01
0.972624695492D-05 0.000000000000D+00 -.128414249024D-05 0.694828713253D-05 0.000000000000D+00  7 1 -1 23 -13 13 23 21 2 0.81321209D-01 0.24562882D+00 0.89950454D+05 0.89950454D+05 0.89950454D+05 0.11255163D+01  1  2  3  2  7  2       -1 0.400953946667D-05 0.100000000000D+01
0.202094496245D-04 0.000000000000D+00 0.000000000000D+00 0.694828713253D-05 0.000000000000D+00  7 1 -1 23 -13 13 23 21 2 0.81321209D-01 0.24562882D+00 0.89950454D+05 0.89950454D+05 0.89950454D+05 0.11255163D+01  1  2 15  2  7  2       -1 0.833112568957D-05 0.100000000000D+01
0.122024930579D-06 0.000000000000D+00 0.000000000000D+00 0.694828713253D-05 0.000000000000D+00  7 1 -1 23 -13 13 23 21 2 0.81321209D-01 0.35336370D+00 0.23277168D+06 0.23277168D+06 0.23277168D+06 0.10927997D+01  1  2 12  2  7  2       -1 0.477849937949D-08 0.100000000000D+01
-.332103223102D-03 0.000000000000D+00 0.000000000000D+00 0.694828713253D-05 0.000000000000D+00  7 1 -1 23 -13 13 23 21 2 0.81321209D-01 0.24562882D+00 0.89950454D+05 0.89950454D+05 0.89950454D+05 0.11255163D+01  1  2  4  2  7  2       -1 -.136905939794D-03 0.100000000000D+01
-.206586091212D-03 0.000000000000D+00 -.112361717960D-03 0.694828713253D-05 0.000000000000D+00  7 1 -1 23 -13 13 23 21 2 0.81321209D-01 0.35590866D+00 0.89950454D+05 0.89950454D+05 0.89950454D+05 0.11255163D+01  1  2  5  2  7  2       -1 -.889140180130D-05 0.100000000000D+01
0.238942775367D-03 0.000000000000D+00 0.105054390000D-03 0.694828713253D-05 0.000000000000D+00  7 1 -1 23 -13 13 23 21 2 0.81321209D-01 0.24562882D+00 0.89950454D+05 0.89950454D+05 0.89950454D+05 0.11255163D+01  1  2  6  2  7  2       -1 0.985015589830D-04 0.100000000000D+01
0.541934755619D-08 0.000000000000D+00 0.000000000000D+00 0.694828713253D-05 0.000000000000D+00  7 1 21 23 -13 13 23 1 2 0.81321209D-01 0.35336370D+00 0.23277168D+06 0.23277168D+06 0.23277168D+06 0.10927997D+01  1  2 12  4  7  2       -1 0.271322596821D-08 0.100000000000D+01
-.585247144752D-05 0.000000000000D+00 -.506132461062D-05 0.694828713253D-05 0.000000000000D+00  7 1 21 23 -13 13 23 1 2 0.81321209D-01 0.35590866D+00 0.89950454D+05 0.89950454D+05 0.89950454D+05 0.11255163D+01  1  2  5  4  7  2       -1 -.337425455179D-05 0.100000000000D+01
  </mgrwgt>
  </event>
  <event>
  9     66 0.56006291E-06 0.13587234E+03 0.75467711E-02 0.10983840E+00
        3 -1    0    0  501    0 0.00000000E+00 0.00000000E+00 0.13819423E+03 0.13819514E+03 0.50000000E+00 0.0000E+00 0.9000E+01
       21 -1    0    0  502  501 0.00000000E+00 0.00000000E+00 -.60495470E+03 0.60495517E+03 0.75000000E+00 0.0000E+00 0.9000E+01
       25  2    1    2    0    0 -.84867999E+02 -.43236655E+02 -.80097380E+02 0.32712994E+03 0.30253334E+03 0.0000E+00 0.0000E+00
       23  2    1    2    0    0 0.48108867E+02 0.19198453E+02 -.24516685E+03 0.26786334E+03 0.94662238E+02 0.0000E+00 0.0000E+00
       23  1    3    3    0    0 -.15102630E+02 -.51238618E+01 -.15808528E+03 0.18319539E+03 0.91188000E+02 0.0000E+00 0.9000E+01
      -11  1    4    4    0    0 0.34982284E+02 -.18918164E+00 -.24167167E+03 0.24419049E+03 0.51099893E-03 0.0000E+00 0.9000E+01
       11  1    4    4    0    0 0.13126582E+02 0.19387635E+02 -.34951755E+01 0.23672849E+02 0.51099893E-03 0.0000E+00 0.9000E+01
       23  1    3    3    0    0 -.69765369E+02 -.38112793E+02 0.77987898E+02 0.14393455E+03 0.91188000E+02 0.0000E+00 0.9000E+01
        3  1    1    2  502    0 0.36759132E+02 0.24038202E+02 -.14149624E+03 0.14815703E+03 0.50000000E+00 0.0000E+00 0.9000E+01
#aMCatNLO 2  0  0  2  1 0.43921168D+02 0.00000000D+00  -5  7  0 0.00000000D+00 0.00000000D+00 0.00000000D+00 0.00000000D+00 0.00000000D+00
  <mgrwgt>
 0.3327456774D-05    2    2    0
 0.248138625103236D+03 0.000000000000000D+00 0.000000000000000D+00 0.248138625103236D+03
 0.248138625103236D+03 0.000000000000000D+00 0.000000000000000D+00 -.248138625103236D+03
 0.114658104755611D+03 -.659267322318327D+01 0.441124400556504D+00 -.691922807196317D+02
 0.136951507799186D+03 0.449916894815024D+02 0.635635111606473D+01 -.129193885948833D+03
 0.280022834507355D+02 0.151222553692281D+02 0.206926814799797D+02 0.112808778103166D+02
 0.216665354200939D+03 -.535212716275472D+02 -.274901569966010D+02 0.187105288858148D+03
 0.000000000000000D+00 0.000000000000000D+00 0.000000000000000D+00 -.000000000000000D+00
 0.255259351662758D+03 0.000000000000000D+00 0.000000000000000D+00 0.255259351662758D+03
 0.327515072142767D+03 0.000000000000000D+00 0.000000000000000D+00 -.327515072142767D+03
 0.115573208202744D+03 -.151026301976803D+02 -.512386184460637D+01 -.691922807196317D+02
 0.133846390246120D+03 0.349822844551469D+02 -.189181541839763D+00 -.129193885948833D+03
 0.259893391773287D+02 0.131265824972621D+02 0.193876346841360D+02 0.112808778103166D+02
 0.222808061311681D+03 -.697653689633607D+02 -.381127933400980D+02 0.187105288858148D+03
 0.845574248676518D+02 0.367591322086321D+02 0.240382020424082D+02 -.722557204800094D+02
-.127836494749D-06 0.000000000000D+00 0.000000000000D+00 0.329641414578D-08 0.000000000000D+00  7 3 21 23 -11 11 23 3 2 0.20667607D-01 0.93846939D-01 0.24942652D+05 0.24942652D+05 0.24942652D+05 0.11748489D+01  1  2 13  4  7  2       -3 -.239224245116D-04 0.100000000000D+01
0.149867761369D-06 0.000000000000D+00 0.000000000000D+00 0.329641414578D-08 0.485736163632D-12  7 3 21 23 -11 11 23 3 2 0.21260696D-01 0.93069795D-01 0.24942652D+05 0.24942652D+05 0.24942652D+05 0.11748489D+01  1  2  1  4  7  2       -3 0.272498812851D-04 0.100000000000D+01
  </mgrwgt>
  </event>
  <event>
  9     66 -.56006291E-06 0.34990386E+03 0.75467711E-02 0.98415948E-01
        1 -1    0    0  502    0 0.00000000E+00 0.00000000E+00 0.22609354E+04 0.22609354E+04 0.32000000E+00 0.0000E+00 0.9000E+01
       -1 -1    0    0    0  501 0.00000000E+00 0.00000000E+00 -.69745815E+02 0.69746549E+02 0.32000000E+00 0.0000E+00 0.9000E+01
       25  2    1    2    0    0 -.30156098E+03 0.87904764E+02 0.13444899E+04 0.14117189E+04 0.29433145E+03 0.0000E+00 0.0000E+00
       23  2    1    2    0    0 0.31244180E+03 -.64756857E+02 0.78671872E+03 0.85375186E+03 0.90291526E+02 0.0000E+00 0.0000E+00
       23  1    3    3    0    0 -.13850588E+03 0.10880123E+02 0.98851093E+03 0.10023828E+04 0.91188000E+02 0.0000E+00 0.9000E+01
      -11  1    4    4    0    0 0.31860856E+03 -.61388740E+02 0.76651978E+03 0.83236564E+03 0.51099893E-03 0.0000E+00 0.9000E+01
       11  1    4    4    0    0 -.61667523E+01 -.33681174E+01 0.20198944E+02 0.21386220E+02 0.51099893E-03 0.0000E+00 0.9000E+01
       23  1    3    3    0    0 -.16305511E+03 0.77024641E+02 0.35597898E+03 0.40933611E+03 0.91188000E+02 0.0000E+00 0.9000E+01
       21  1    1    2  502  501 -.10880822E+02 -.23147906E+02 0.59980904E+02 0.65211112E+02 0.75000000E+00 0.0000E+00 0.9000E+01
#aMCatNLO 2  0  0  1  2 0.25577683D+02 0.00000000D+00  -5  7  0 0.00000000D+00 0.00000000D+00 0.00000000D+00 0.00000000D+00 0.00000000D+00
  <mgrwgt>
 -.4100157835D-03    3    2    0
 0.383944507766004D+03 0.000000000000000D+00 0.000000000000000D+00 0.383944507766004D+03
 0.383944507766004D+03 0.000000000000000D+00 0.000000000000000D+00 -.383944507766004D+03
 0.215397339420392D+03 -.141544746894221D+03 0.441521646498124D+01 0.134262254470874D+03
 0.325621003811179D+03 0.313978275187211D+03 -.712392188990212D+02 -.486996357698998D+02
 0.722338317765109D+01 -.626771208966644D+01 -.358289956638308D+01 0.236390332783496D+00
 0.219647289122786D+03 -.166165816203324D+03 0.704069020004231D+02 -.857990090337576D+02
 0.000000000000000D+00 -.000000000000000D+00 -.000000000000000D+00 -.000000000000000D+00
 0.395090617681939D+03 0.000000000000000D+00 0.000000000000000D+00 0.395090617681939D+03
 0.399116905090407D+03 0.000000000000000D+00 0.000000000000000D+00 -.399116905090407D+03
 0.213644235025254D+03 -.138505876298043D+03 0.108801227398953D+02 0.134262254470874D+03
 0.328103099397372D+03 0.318608555965525D+03 -.613887398111702D+02 -.486996357698998D+02
 0.703057109014230D+01 -.616675235736164D+01 -.336811740102472D+01 0.236390332783496D+00
 0.219536976567761D+03 -.163055105654969D+03 0.770246408961814D+02 -.857990090337576D+02
 0.258926406918178D+02 -.108808216551513D+02 -.231479064238817D+02 -.402628740846781D+01
-.691042742191D-04 0.000000000000D+00 0.000000000000D+00 0.674181295690D-08 0.000000000000D+00  7 1 -1 23 -11 11 23 21 2 0.35428774D+00 0.10322135D-01 0.13152770D+06 0.13152770D+06 0.13152770D+06 0.11120842D+01  1  2 13  1  7  1        1 -.113268951679D-02 0.100000000000D+01
-.132040469835D-04 0.000000000000D+00 0.000000000000D+00 0.674181295690D-08 0.000000000000D+00  7 1 -1 23 -11 11 23 21 2 0.33801865D+00 0.10322135D-01 0.12243271D+06 0.12243271D+06 0.12243271D+06 0.11145796D+01  1  2  8  1  7  1        1 -.256481667238D-03 0.100000000000D+01
0.594385424412D-04 0.000000000000D+00 0.000000000000D+00 0.674181295690D-08 0.680549475566D-10  7 1 -1 23 -11 11 23 21 2 0.34783151D+00 0.10730037D-01 0.13152770D+06 0.13152770D+06 0.13152770D+06 0.11120842D+01  1  2  1  1  7  1        1 0.979155400487D-03 0.100000000000D+01
  </mgrwgt>
  </event>
  <event>
  8     66 0.56006291E-06 0.13737446E+03 0.75467711E-02 0.10870734E+00
        1 -1    0    0  501    0 0.00000000E+00 0.00000000E+00 0.73355543E+03 0.73355550E+03 0.32000000E+00 0.0000E+00 0.9000E+01
       -1 -1    0    0    0  501 0.00000000E+00 0.00000000E+00 -.70226133E+02 0.70226862E+02 0.32000000E+00 0.0000E+00 0.9000E+01
       25  2    1    2    0    0 0.84341626E+01 0.81036300E+02 0.53383071E+03 0.62505761E+03 0.31477574E+03 0.0000E+00 0.0000E+00
       23  2    1    2    0    0 -.84341626E+01 -.81036300E+02 0.12949859E+03 0.17872476E+03 0.92383107E+02 0.0000E+00 0.0000E+00
       23  1    3    3    0    0 0.11338415E+02 0.91100475E+02 0.51545583E+03 0.53144879E+03 0.91188000E+02 0.0000E+00 0.9000E+01
      -13  1    4    4    0    0 -.46637466E+02 -.33647618E+02 0.87741306E+02 0.10490836E+03 0.10565837E+00 0.0000E+00 0.9000E+01
       13  1    4    4    0    0 0.38203303E+02 -.47388682E+02 0.41757282E+02 0.73816403E+02 0.10565837E+00 0.0000E+00 0.9000E+01
       23  1    3    3    0    0 -.29042521E+01 -.10064175E+02 0.18374883E+02 0.93608814E+02 0.91188000E+02 0.0000E+00 0.9000E+01
#aMCatNLO 1  0  0  1  2 0.70891388D+00 0.00000000D+00  -5  7  0 0.00000000D+00 0.00000000D+00 0.00000000D+00 0.00000000D+00 0.00000000D+00
  <mgrwgt>
 0.8795097469D-04   10    2    0
 0.226969343448839D+03 0.000000000000000D+00 0.000000000000000D+00 0.226969343448839D+03
 0.226969343448839D+03 0.000000000000000D+00 0.000000000000000D+00 -.226969343448839D+03
 0.187805629090807D+03 0.113384226907450D+02 0.911005517674357D+02 0.136116981353351D+03
 0.575454096636880D+02 -.466374951943007D+02 -.336476663518784D+02 0.206222317801435D+01
 0.696867181085291D+02 0.382033186418716D+02 -.473887671666665D+02 -.339271259010941D+02
 0.138900930034654D+03 -.290424613831599D+01 -.100641182488908D+02 -.104252078630272D+03
 0.000000000000000D+00 -.000000000000000D+00 0.000000000000000D+00 0.000000000000000D+00
 0.227699351340753D+03 0.000000000000000D+00 0.000000000000000D+00 0.227699351340753D+03
 0.227141792850687D+03 0.000000000000000D+00 0.000000000000000D+00 -.227141792850687D+03
 0.187724285930013D+03 0.115571125221379D+02 0.909052073389373D+02 0.136116981353351D+03
 0.575261670534267D+02 -.465704832660792D+02 -.337075246760520D+02 0.206222317801435D+01
 0.697806002472833D+02 0.382845374292867D+02 -.474613157507039D+02 -.339271259010941D+02
 0.138908187220327D+03 -.274246400969772D+01 -.102086299404263D+02 -.104252078630272D+03
 0.901903740389679D+00 -.528702675647671D+00 0.472263028244932D+00 0.557558490066122D+00
0.195178012357D-06 0.000000000000D+00 0.000000000000D+00 0.387906126605D-08 0.000000000000D+00  7 1 -1 23 -13 13 23 21 0 0.11285474D+00 0.10804082D-01 0.28825515D+05 0.28825515D+05 0.28825515D+05 0.11689486D+01  1  2  2  1  7  1        1 0.301089545749D-04 0.100000000000D+01
-.973211960353D-08 0.000000000000D+00 -.749534959003D-09 0.387906126605D-08 0.000000000000D+00  7 1 -1 23 -13 13 23 21 2 0.11285474D+00 0.10804082D-01 0.28825515D+05 0.28825515D+05 0.28825515D+05 0.11689486D+01  1  2  3  1  7  1        1 -.205145987647D-05 0.100000000000D+01
0.125515866806D-07 0.000000000000D+00 0.000000000000D+00 0.387906126605D-08 0.000000000000D+00  7 1 -1 23 -13 13 23 21 2 0.11285474D+00 0.10804082D-01 0.28825515D+05 0.28825515D+05 0.28825515D+05 0.11689486D+01  1  2 15  1  7  1        1 0.264578298565D-05 0.100000000000D+01
-.193137630452D-04 0.000000000000D+00 0.000000000000D+00 0.387906126605D-08 0.000000000000D+00  7 1 -1 23 -13 13 23 21 2 0.11285474D+00 0.10804082D-01 0.28825515D+05 0.28825515D+05 0.28825515D+05 0.11689486D+01  1  2  4  1  7  1        1 -.407120047483D-02 0.100000000000D+01
-.835783827532D-04 0.000000000000D+00 -.666269104509D-05 0.387906126605D-08 0.000000000000D+00  7 1 -1 23 -13 13 23 21 2 0.11327200D+00 0.10804082D-01 0.28825515D+05 0.28825515D+05 0.28825515D+05 0.11689486D+01  1  2  5  1  7  1        1 -.175207397965D-01 0.100000000000D+01
0.836024471687D-04 0.000000000000D+00 0.666264567425D-05 0.387906126605D-08 0.000000000000D+00  7 1 -1 23 -13 13 23 21 2 0.11285474D+00 0.10804082D-01 0.28825515D+05 0.28825515D+05 0.28825515D+05 0.11689486D+01  1  2  6  1  7  1        1 0.176227864975D-01 0.100000000000D+01
0.193138524718D-04 0.000000000000D+00 0.000000000000D+00 0.387906126605D-08 0.562353191585D-07  7 1 -1 23 -13 13 23 21 2 0.11321772D+00 0.10812291D-01 0.28942784D+05 0.28942784D+05 0.28942784D+05 0.11687843D+01  1  2 11  1  7  1        1 0.404600354802D-02 0.100000000000D+01
0.329363519306D-14 0.000000000000D+00 0.000000000000D+00 0.387906126605D-08 0.000000000000D+00  7 21 -1 23 -13 13 23 -1 2 0.11326051D+00 0.10804082D-01 0.28942784D+05 0.28942784D+05 0.28942784D+05 0.11687843D+01  1  2 12  3  7  1        1 0.144819414472D-11 0.100000000000D+01
-.574802042161D-07 0.000000000000D+00 -.458489988700D-08 0.387906126605D-08 0.000000000000D+00  7 21 -1 23 -13 13 23 -1 2 0.11327200D+00 0.10804082D-01 0.28825515D+05 0.28825515D+05 0.28825515D+05 0.11689486D+01  1  2  5  3  7  1        1 -.252775128940D-04 0.100000000000D+01
0.129097958575D-07 0.000000000000D+00 0.000000000000D+00 0.387906126605D-08 0.337112091773D-10  7 21 -1 23 -13 13 23 -1 2 0.11321772D+00 0.10812291D-01 0.28942784D+05 0.28942784D+05 0.28942784D+05 0.11687843D+01  1  2 11  3  7  1        1 0.567543427361D-05 0.100000000000D+01
  </mgrwgt>
  </event>
  <event>
  8     66 0.56006291E-06 0.25858673E+03 0.75467711E-02 0.98011879E-01
        1 -1    0    0  501    0 0.00000000E+00 0.00000000E+00 0.11107336E+04 0.11107337E+04 0.32000000E+00 0.0000E+00 0.9000E+01
       -1 -1    0    0    0  501 0.00000000E+00 0.00000000E+00 -.21531990E+03 0.21532014E+03 0.32000000E+00 0.0000E+00 0.9000E+01
       25  2    1    2    0    0 0.35126492E+01 0.23460044E+03 0.98722800E+03 0.10577405E+04 0.29857352E+03 0.0000E+00 0.0000E+00
       23  2    1    2    0    0 -.35126492E+01 -.23460044E+03 -.91814270E+02 0.26831332E+03 0.92263043E+02 0.0000E+00 0.0000E+00
       23  1    3    3    0    0 0.87184168E+02 0.18261229E+03 0.77893532E+03 0.80994062E+03 0.91188000E+02 0.0000E+00 0.9000E+01
      -13  1    4    4    0    0 -.26071356E+02 -.16028815E+03 -.21986851E+02 0.16387629E+03 0.10565837E+00 0.0000E+00 0.9000E+01
       13  1    4    4    0    0 0.22558707E+02 -.74312292E+02 -.69827420E+02 0.10443702E+03 0.10565837E+00 0.0000E+00 0.9000E+01
       23  1    3    3    0    0 -.83671519E+02 0.51988153E+02 0.20829268E+03 0.24779989E+03 0.91188000E+02 0.0000E+00 0.9000E+01
#aMCatNLO 1  0  0  1  2 0.13788107D+03 0.00000000D+00  -5  7  0 0.00000000D+00 0.00000000D+00 0.00000000D+00 0.00000000D+00 0.00000000D+00
  <mgrwgt>
 0.1726812224D-03    9    2    0
 0.489043196814507D+03 0.000000000000000D+00 0.000000000000000D+00 0.489043196814507D+03
 0.489043196814507D+03 0.000000000000000D+00 0.000000000000000D+00 -.489043196814507D+03
 0.384992040692818D+03 0.871841677573772D+02 0.182612288707805D+03 0.314571602275493D+03
 0.242305957819187D+03 -.260714201363961D+02 -.160288262576117D+03 -.179833620680547D+03
 0.205517117476181D+03 0.225587709338968D+02 -.743121790944134D+02 -.190278972742419D+03
 0.145271277640829D+03 -.836715185548780D+02 0.519881529627256D+02 0.555409911474727D+02
 0.000000000000000D+00 0.000000000000000D+00 0.000000000000000D+00 0.000000000000000D+00
 0.662843870235064D+03 0.000000000000000D+00 0.000000000000000D+00 0.662843870235064D+03
 0.522007413257387D+03 0.000000000000000D+00 0.000000000000000D+00 -.522007413257387D+03
 0.361829714500440D+03 0.812534959548298D+02 0.130568248010063D+03 0.314571602275493D+03
 0.267568440758055D+03 -.301204421385743D+02 -.195820066203643D+03 -.179833620680547D+03
 0.217597536146142D+03 0.191987266823295D+02 -.103797924655257D+03 -.190278972742419D+03
 0.140761456852192D+03 -.859429658731531D+02 0.320552852184150D+02 0.555409911474727D+02
 0.197094135235622D+03 0.156111853745682D+02 0.136994457630422D+03 0.140836456977677D+03
0.140910051578D-04 0.000000000000D+00 0.000000000000D+00 0.146265259518D-06 0.000000000000D+00  7 1 -1 23 -13 13 23 21 0 0.17088212D+00 0.33126161D-01 0.88876777D+05 0.88876777D+05 0.88876777D+05 0.11259489D+01  1  2  2  1  7  1        1 0.182672291716D-03 0.100000000000D+01
-.549665233134D-06 0.000000000000D+00 -.541131700526D-07 0.146265259518D-06 0.000000000000D+00  7 1 -1 23 -13 13 23 21 2 0.17088212D+00 0.33126161D-01 0.88876777D+05 0.88876777D+05 0.88876777D+05 0.11259489D+01  1  2  3  1  7  1        1 -.903371454167D-05 0.100000000000D+01
0.818584962049D-06 0.000000000000D+00 0.000000000000D+00 0.146265259518D-06 0.000000000000D+00  7 1 -1 23 -13 13 23 21 2 0.17088212D+00 0.33126161D-01 0.88876777D+05 0.88876777D+05 0.88876777D+05 0.11259489D+01  1  2 15  1  7  1        1 0.134533938650D-04 0.100000000000D+01
0.128521634244D-04 0.000000000000D+00 0.000000000000D+00 0.146265259518D-06 0.000000000000D+00  7 1 -1 23 -13 13 23 21 2 0.23582212D+00 0.33126161D-01 0.14050954D+06 0.14050954D+06 0.14050954D+06 0.11097989D+01  1  2 12  1  7  1        1 0.103839421982D-03 0.100000000000D+01
-.184826545862D-04 0.000000000000D+00 0.000000000000D+00 0.146265259518D-06 0.000000000000D+00  7 1 -1 23 -13 13 23 21 2 0.17088212D+00 0.33126161D-01 0.88876777D+05 0.88876777D+05 0.88876777D+05 0.11259489D+01  1  2  4  1  7  1        1 -.303761299495D-03 0.100000000000D+01
-.204680896434D-04 0.000000000000D+00 -.616999055004D-05 0.146265259518D-06 0.000000000000D+00  7 1 -1 23 -13 13 23 21 2 0.23847573D+00 0.33126161D-01 0.88876777D+05 0.88876777D+05 0.88876777D+05 0.11259489D+01  1  2  5  1  7  1        1 -.168948444817D-03 0.100000000000D+01
0.216389812560D-04 0.000000000000D+00 0.584247114963D-05 0.146265259518D-06 0.000000000000D+00  7 1 -1 23 -13 13 23 21 2 0.17088212D+00 0.33126161D-01 0.88876777D+05 0.88876777D+05 0.88876777D+05 0.11259489D+01  1  2  6  1  7  1        1 0.355635335575D-03 0.100000000000D+01
0.522941593163D-06 0.000000000000D+00 0.000000000000D+00 0.146265259518D-06 0.000000000000D+00  7 21 -1 23 -13 13 23 -1 2 0.23582212D+00 0.33126161D-01 0.14050954D+06 0.14050954D+06 0.14050954D+06 0.11097989D+01  1  2 12  3  7  1        1 0.328415589790D-05 0.100000000000D+01
-.691208958608D-06 0.000000000000D+00 -.257302695670D-06 0.146265259518D-06 0.000000000000D+00  7 21 -1 23 -13 13 23 -1 2 0.23847573D+00 0.33126161D-01 0.88876777D+05 0.88876777D+05 0.88876777D+05 0.11259489D+01  1  2  5  3  7  1        1 -.445991776488D-05 0.100000000000D+01
  </mgrwgt>
  </event>
  <event>
  8     66 0.56006291E-06 0.21454757E+03 0.75467711E-02 0.98362788E-01
        3 -1    0    0  501    0 0.00000000E+00 0.00000000E+00 0.10526381E+04 0.10526382E+04 0.50000000E+00 0.0000E+00 0.9000E+01
       -3 -1    0    0    0  501 0.00000000E+00 0.00000000E+00 -.68630373E+02 0.68632194E+02 0.50000000E+00 0.0000E+00 0.9000E+01
       25  2    1    2    0    0 -.62746327E+02 -.67200690E+02 0.92821653E+03 0.97915424E+03 0.29783228E+03 0.0000E+00 0.0000E+00
       23  2    1    2    0    0 0.62746327E+02 0.67200690E+02 0.55791150E+02 0.14211613E+03 0.92904826E+02 0.0000E+00 0.0000E+00
       23  1    3    3    0    0 -.10183165E+02 -.14448380E+03 0.64435332E+03 0.66669762E+03 0.91188000E+02 0.0000E+00 0.9000E+01
      -13  1    4    4    0    0 -.50991067E+01 0.58772022E+02 0.10009573E+02 0.59836061E+02 0.10565837E+00 0.0000E+00 0.9000E+01
       13  1    4    4    0    0 0.67845433E+02 0.84286678E+01 0.45781577E+02 0.82280066E+02 0.10565837E+00 0.0000E+00 0.9000E+01
       23  1    3    3    0    0 -.52563162E+02 0.77283112E+02 0.28386321E+03 0.31245662E+03 0.91188000E+02 0.0000E+00 0.9000E+01
#aMCatNLO 1  0  0  2  2 0.23773845D+03 0.00000000D+00  -5  7  0 0.00000000D+00 0.00000000D+00 0.00000000D+00 0.00000000D+00 0.00000000D+00
  <mgrwgt>
 0.2379961097D-04    3    2    0
 0.268782495365238D+03 0.000000000000000D+00 0.000000000000000D+00 0.268782495365238D+03
 0.268782495365238D+03 0.000000000000000D+00 0.000000000000000D+00 -.268782495365238D+03
 0.211136651701165D+03 -.101831667500568D+02 -.144483803460662D+03 0.123629155137695D+03
 0.106485573868663D+03 -.509918767691445D+01 0.587720825451181D+02 -.886511028723500D+02
 0.878196357158633D+02 0.678455178455514D+02 0.842861075803674D+01 -.551201655134073D+02
 0.132123129444785D+03 -.525631634185802D+02 0.772831101575069D+02 0.201421132480622D+02
 0.000000000000000D+00 -.000000000000000D+00 0.000000000000000D+00 0.000000000000000D+00
 0.954739050952891D+03 0.000000000000000D+00 0.000000000000000D+00 0.954739050952891D+03
 0.315275971330813D+03 0.000000000000000D+00 0.000000000000000D+00 -.315275971330813D+03
 0.252309839276939D+03 0.795393331177378D+02 -.183669077797761D+03 0.123629155137695D+03
 0.103964873245758D+03 0.356436824946780D+02 0.409781005750759D+02 -.886511028723500D+02
 0.122029318491229D+03 0.108471939951728D+03 -.931451385296981D+01 -.551201655134073D+02
 0.109484782381728D+03 -.578825788167185D+01 0.568547058190591D+02 0.201421132480622D+02
 0.682226208888051D+03 -.217866697682472D+03 0.951507852565954D+02 0.639463079622077D+03
0.336556505802D-05 0.000000000000D+00 0.000000000000D+00 0.771887948534D-08 0.000000000000D+00  7 3 -3 23 -13 13 23 21 0 0.16194446D+00 0.10558668D-01 0.46030658D+05 0.46030658D+05 0.46030658D+05 0.11504686D+01  1  2  2  2  7  2       -3 0.235570427944D-04 0.100000000000D+01
-.175428996991D-06 0.000000000000D+00 -.129246559964D-07 0.771887948534D-08 0.000000000000D+00  7 3 -3 23 -13 13 23 21 2 0.16194446D+00 0.10558668D-01 0.46030658D+05 0.46030658D+05 0.46030658D+05 0.11504686D+01  1  2  3  2  7  2       -3 -.162522580009D-05 0.100000000000D+01
0.201612123233D-06 0.000000000000D+00 0.000000000000D+00 0.771887948534D-08 0.000000000000D+00  7 3 -3 23 -13 13 23 21 2 0.16194446D+00 0.10558668D-01 0.46030658D+05 0.46030658D+05 0.46030658D+05 0.11504686D+01  1  2 15  2  7  2       -3 0.186779397882D-05 0.100000000000D+01
  </mgrwgt>
  </event>
  <event>
  7     66 0.56006291E-06 0.87083640E+02 0.75467711E-02 0.98872218E-01
        1 -1    0    0  501    0 0.00000000E+00 0.00000000E+00 0.96901677E+03 0.96901682E+03 0.32000000E+00 0.0000E+00 0.9000E+01
       -1 -1    0    0    0  501 0.00000000E+00 0.00000000E+00 -.45586322E+03 0.45586333E+03 0.32000000E+00 0.0000E+00 0.9000E+01
       25  2    1    2    0    0 0.11874535E+03 0.59880400E+02 0.72271609E+03 0.79364187E+03 0.29977116E+03 0.0000E+00 0.0000E+00
       23  1    3    3    0    0 -.65120727E+01 0.11002640E+03 0.19822703E+03 0.24445331E+03 0.91188000E+02 0.0000E+00 0.9000E+01
      -11  1    1    2    0    0 -.11094430E+03 0.53443895E+02 0.18411392E+03 0.22150129E+03 0.51099893E-03 0.0000E+00 0.9000E+01
       11  1    1    2    0    0 -.78010506E+01 -.11332429E+03 -.39367646E+03 0.40973699E+03 0.51099893E-03 0.0000E+00 0.9000E+01
       23  1    3    3    0    0 0.12525743E+03 -.50145996E+02 0.52448906E+03 0.54918856E+03 0.91188000E+02 0.0000E+00 0.9000E+01
#aMCatNLO 1  0  0  2  1 0.12777064D+03 0.00000000D+00  -5  7  0 0.00000000D+00 0.00000000D+00 0.00000000D+00 0.00000000D+00 0.00000000D+00
  <mgrwgt>
 0.3439908093D-02    9    2    0
 0.664634652550751D+03 0.000000000000000D+00 0.000000000000000D+00 0.664634652550751D+03
 0.664634652550751D+03 0.000000000000000D+00 0.000000000000000D+00 -.664634652550751D+03
 0.185512285086315D+03 -.651206753775266D+01 0.110026398686162D+03 0.118115795482585D+03
 0.166357568291514D+03 -.110944287292021D+03 0.534438782666663D+02 0.111847921397534D+03
 0.591183878282417D+03 -.780108168151921D+01 -.113324286513286D+03 -.580168188676261D+03
 0.386215573441255D+03 0.125257436511293D+03 -.501459904395420D+02 0.350204471796141D+03
 0.000000000000000D+00 -.000000000000000D+00 0.000000000000000D+00 -.000000000000000D+00
 0.717071299245550D+03 0.000000000000000D+00 0.000000000000000D+00 0.717071299245550D+03
 0.750360653249994D+03 0.000000000000000D+00 0.000000000000000D+00 -.750360653249994D+03
 0.185306519838628D+03 0.112536133733597D+02 0.109294418861453D+03 0.118115795482585D+03
 0.156257800844242D+03 -.954880007473122D+02 0.528070498798321D+02 0.111847921397534D+03
 0.593607857032856D+03 0.489614978753474D+02 -.115663012692254D+03 -.580168188676261D+03
 0.400223726992089D+03 0.162935217362470D+03 -.516983866331259D+02 0.350204471796141D+03
 0.132036047787730D+03 -.127662327863865D+03 0.525993058409478D+01 -.332893540044446D+02
0.720787558985D-03 0.000000000000D+00 0.000000000000D+00 0.150903644901D-09 0.000000000000D+00  7 1 -1 23 -11 11 23 21 0 0.14907952D+00 0.70132816D-01 0.73613538D+05 0.73613538D+05 0.73613538D+05 0.11328060D+01  1  2  2  2  7  2       -1 0.312892572300D-02 0.100000000000D+01
-.961521995743D-06 0.000000000000D+00 -.276801401422D-05 0.150903644901D-09 0.000000000000D+00  7 1 -1 23 -11 11 23 21 2 0.14907952D+00 0.70132816D-01 0.73613538D+05 0.73613538D+05 0.73613538D+05 0.11328060D+01  1  2  3  2  7  2       -1 -.535621844169D-05 0.100000000000D+01
0.435942360498D-04 0.000000000000D+00 0.000000000000D+00 0.150903644901D-09 0.000000000000D+00  7 1 -1 23 -11 11 23 21 2 0.14907952D+00 0.70132816D-01 0.73613538D+05 0.73613538D+05 0.73613538D+05 0.11328060D+01  1  2 15  2  7  2       -1 0.242844419696D-03 0.100000000000D+01
0.534518858759D-03 0.000000000000D+00 0.000000000000D+00 0.150903644901D-09 0.000000000000D+00  7 1 -1 23 -11 11 23 21 2 0.14907952D+00 0.81654146D-01 0.12215456D+06 0.12215456D+06 0.12215456D+06 0.11146591D+01  1  2 12  2  7  2       -1 0.208404419506D-02 0.100000000000D+01
-.724259338802D-03 0.000000000000D+00 0.000000000000D+00 0.150903644901D-09 0.000000000000D+00  7 1 -1 23 -11 11 23 21 2 0.14907952D+00 0.70132816D-01 0.73613538D+05 0.73613538D+05 0.73613538D+05 0.11328060D+01  1  2  4  2  7  2       -1 -.403453196520D-02 0.100000000000D+01
-.113104915595D-02 0.000000000000D+00 -.521040017438D-03 0.150903644901D-09 0.000000000000D+00  7 1 -1 23 -11 11 23 21 2 0.14907952D+00 0.84379473D-01 0.73613538D+05 0.73613538D+05 0.73613538D+05 0.11328060D+01  1  2  5  2  7  2       -1 -.436422224126D-02 0.100000000000D+01
0.121534949515D-02 0.000000000000D+00 0.512255369074D-03 0.150903644901D-09 0.000000000000D+00  7 1 -1 23 -11 11 23 21 2 0.14907952D+00 0.70132816D-01 0.73613538D+05 0.73613538D+05 0.73613538D+05 0.11328060D+01  1  2  6  2  7  2       -1 0.677018040967D-02 0.100000000000D+01
0.123308337858D-04 0.000000000000D+00 0.000000000000D+00 0.150903644901D-09 0.000000000000D+00  7 1 21 23 -11 11 23 1 2 0.14907952D+00 0.81654146D-01 0.12215456D+06 0.12215456D+06 0.12215456D+06 0.11146591D+01  1  2 12  4  7  2       -1 0.370186133848D-03 0.100000000000D+01
-.252268730457D-04 0.000000000000D+00 -.140349139431D-04 0.150903644901D-09 0.000000000000D+00  7 1 21 23 -11 11 23 1 2 0.14907952D+00 0.84379473D-01 0.73613538D+05 0.73613538D+05 0.73613538D+05 0.11328060D+01  1  2  5  4  7  2       -1 -.752162363506D-03 0.100000000000D+01
  </mgrwgt>
  </event>
  <event>
  8     66 0.56006291E-06 0.77716404E+03 0.75467711E-02 0.84887998E-01
        1 -1    0    0  501    0 0.00000000E+00 0.00000000E+00 0.13376879E+04 0.13376880E+04 0.32000000E+00 0.0000E+00 0.9000E+01
       -1 -1    0    0    0  501 0.00000000E+00 0.00000000E+00 -.71232584E+03 0.71232591E+03 0.32000000E+00 0.0000E+00 0.9000E+01
       25  2    1    2    0    0 0.74638089E+02 0.74552322E+03 -.29572345E+03 0.85924427E+03 0.29911978E+03 0.0000E+00 0.0000E+00
       23  2    1    2    0    0 -.74638089E+02 -.74552322E+03 0.92108555E+03 0.11907696E+04 0.90321305E+02 0.0000E+00 0.0000E+00
       23  1    3    3    0    0 -.77348354E+02 0.27989556E+03 -.15482815E+03 0.34148397E+03 0.91188000E+02 0.0000E+00 0.9000E+01
      -13  1    4    4    0    0 0.10839527E+02 -.98468116E+02 0.88361483E+02 0.13274497E+03 0.10565837E+00 0.0000E+00 0.9000E+01
       13  1    4    4    0    0 -.85477616E+02 -.64705510E+03 0.83272406E+03 0.10580246E+04 0.10565837E+00 0.0000E+00 0.9000E+01
       23  1    3    3    0    0 0.15198644E+03 0.46562766E+03 -.14089531E+03 0.51776030E+03 0.91188000E+02 0.0000E+00 0.9000E+01
#aMCatNLO 1  0  0  1  1 0.87410800D+03 0.00000000D+00  -5  7  0 0.00000000D+00 0.00000000D+00 0.00000000D+00 0.00000000D+00 0.00000000D+00
  <mgrwgt>
 0.2723926764D-03    3    2    0
 0.976150492409944D+03 0.000000000000000D+00 0.000000000000000D+00 0.976150492409944D+03
 0.976150492409944D+03 0.000000000000000D+00 0.000000000000000D+00 -.976150492409944D+03
 0.408169916642914D+03 -.773483539596471D+02 0.279895563818827D+03 -.271961642520701D+03
 0.111083874666035D+03 0.108396586334573D+02 -.984673657724894D+02 0.502623804585129D+02
 0.844241267147689D+03 -.854777480495968D+02 -.647055854813799D+03 0.535495651237887D+03
 0.588805926363250D+03 0.151986443375786D+03 0.465627656767462D+03 -.313796389175699D+03
 0.000000000000000D+00 0.000000000000000D+00 0.000000000000000D+00 -.000000000000000D+00
 0.146275189848913D+04 0.000000000000000D+00 0.000000000000000D+00 0.146275189848913D+04
 0.155529320518773D+04 0.000000000000000D+00 0.000000000000000D+00 -.155529320518773D+04
 0.344542534892926D+03 -.138618818548854D+03 0.131209737245394D+03 -.271961642520701D+03
 0.160622493060459D+03 -.112771209527982D+02 -.152138440016377D+03 0.502623804585129D+02
 0.120743671558650D+04 -.252483439177832D+03 -.105233071920977D+04 0.535495651237887D+03
 0.426450365718046D+03 0.693450249084649D+02 0.265080660814388D+03 -.313796389175699D+03
 0.878992994418934D+03 0.333034353771019D+03 0.808178761166364D+03 -.925413066986028D+02
0.330292744995D-03 0.000000000000D+00 0.000000000000D+00 0.242178582581D-05 0.000000000000D+00  7 1 -1 23 -13 13 23 21 0 0.20579815D+00 0.10958860D+00 0.60398395D+06 0.60398395D+06 0.60398395D+06 0.10627590D+01  1  2  2  1  7  1        1 0.269386915780D-03 0.100000000000D+01
-.171901641592D-04 0.000000000000D+00 -.126841110886D-05 0.242178582581D-05 0.000000000000D+00  7 1 -1 23 -13 13 23 21 2 0.20579815D+00 0.10958860D+00 0.60398395D+06 0.60398395D+06 0.60398395D+06 0.10627590D+01  1  2  3  1  7  1        1 -.158353293688D-04 0.100000000000D+01
0.204530908697D-04 0.000000000000D+00 0.000000000000D+00 0.242178582581D-05 0.000000000000D+00  7 1 -1 23 -13 13 23 21 2 0.20579815D+00 0.10958860D+00 0.60398395D+06 0.60398395D+06 0.60398395D+06 0.10627590D+01  1  2 15  1  7  1        1 0.188410900287D-04 0.100000000000D+01
  </mgrwgt>
  </event>
  <event>
  8     66 0.56006291E-06 0.97952587E+02 0.75467711E-02 0.10457717E+00
        1 -1    0    0  501    0 0.00000000E+00 0.00000000E+00 0.97280690E+03 0.97280695E+03 0.32000000E+00 0.0000E+00 0.9000E+01
       -1 -1    0    0    0  501 0.00000000E+00 0.00000000E+00 -.56188338E+02 0.56189249E+02 0.32000000E+00 0.0000E+00 0.9000E+01
       25  2    1    2    0    0 -.82871551E+02 -.63305698E+02 0.56566445E+03 0.64893783E+03 0.30044755E+03 0.0000E+00 0.0000E+00
       23  2    1    2    0    0 0.82871551E+02 0.63305698E+02 0.35095411E+03 0.38005837E+03 0.10198172E+03 0.0000E+00 0.0000E+00
       23  1    3    3    0    0 0.81426317E+02 -.36262753E+02 0.20684950E+03 0.24299629E+03 0.91188000E+02 0.0000E+00 0.9000E+01
      -13  1    4    4    0    0 0.37620249E+02 0.68248363E+02 0.10979411E+03 0.13463982E+03 0.10565837E+00 0.0000E+00 0.9000E+01
       13  1    4    4    0    0 0.45251303E+02 -.49426655E+01 0.24116000E+03 0.24541855E+03 0.10565837E+00 0.0000E+00 0.9000E+01
       23  1    3    3    0    0 -.16429787E+03 -.27042945E+02 0.35881495E+03 0.40594154E+03 0.91188000E+02 0.0000E+00 0.9000E+01
#aMCatNLO 1  0  0  2  1 0.12327690D+02 0.00000000D+00  -5  7  0 0.00000000D+00 0.00000000D+00 0.00000000D+00 0.00000000D+00 0.00000000D+00
  <mgrwgt>
 0.1555590607D-03    6    2    0
 0.233796704080436D+03 0.000000000000000D+00 0.000000000000000D+00 0.233796704080436D+03
 0.233796704080436D+03 0.000000000000000D+00 0.000000000000000D+00 -.233796704080436D+03
 0.129257689272646D+03 0.814255489085147D+02 -.362633399459626D+02 -.211458992009007D+02
 0.810627874794707D+02 0.376215629869547D+02 0.682479722520662D+02 -.223160882737461D+02
 0.673293344970864D+02 0.452518846489868D+02 -.494082556981395D+01 0.496094190877501D+02
 0.189943596911669D+03 -.164298996544456D+03 -.270438067362897D+02 -.614743161310329D+01
 0.000000000000000D+00 0.000000000000000D+00 -.000000000000000D+00 0.000000000000000D+00
 0.241576587832477D+03 0.000000000000000D+00 0.000000000000000D+00 0.241576587832477D+03
 0.238812964038151D+03 0.000000000000000D+00 0.000000000000000D+00 -.238812964038151D+03
 0.126960441282946D+03 0.782390293810332D+02 -.351455194194031D+02 -.211458992009007D+02
 0.807506162169779D+02 0.356091309644086D+02 0.689539267593921D+02 -.223160882737461D+02
 0.661838429349396D+02 0.435914153209939D+02 -.435833841335835D+01 0.496094190877501D+02
 0.193860983863090D+03 -.169072276205515D+03 -.253693559952462D+02 -.614743161310329D+01
 0.126336675726739D+02 0.116327005390795D+02 -.408071293138448D+01 0.276362379432574D+01
0.568475242876D-06 0.000000000000D+00 0.000000000000D+00 0.258347854769D-08 0.000000000000D+00  7 1 -1 23 -13 13 23 21 0 0.14966267D+00 0.86444339D-02 0.48578743D+05 0.48578743D+05 0.48578743D+05 0.11483986D+01  1  2  2  2  7  2       -1 0.787387827772D-04 0.100000000000D+01
-.314483755844D-07 0.000000000000D+00 -.218309461561D-08 0.258347854769D-08 0.000000000000D+00  7 1 -1 23 -13 13 23 21 2 0.14966267D+00 0.86444339D-02 0.48578743D+05 0.48578743D+05 0.48578743D+05 0.11483986D+01  1  2  3  2  7  2       -1 -.574461156135D-05 0.100000000000D+01
0.366949401210D-07 0.000000000000D+00 0.000000000000D+00 0.258347854769D-08 0.000000000000D+00  7 1 -1 23 -13 13 23 21 2 0.14966267D+00 0.86444339D-02 0.48578743D+05 0.48578743D+05 0.48578743D+05 0.11483986D+01  1  2 15  2  7  2       -1 0.670299096043D-05 0.100000000000D+01
0.859358732066D-06 0.000000000000D+00 0.000000000000D+00 0.258347854769D-08 0.000000000000D+00  7 1 -1 23 -13 13 23 21 2 0.14966267D+00 0.89698992D-02 0.51232686D+05 0.51232686D+05 0.51232686D+05 0.11463662D+01  1  2 12  2  7  2       -1 0.147908508594D-03 0.100000000000D+01
-.534028040099D-06 0.000000000000D+00 0.000000000000D+00 0.258347854769D-08 0.000000000000D+00  7 1 -1 23 -13 13 23 21 2 0.14966267D+00 0.86444339D-02 0.48578743D+05 0.48578743D+05 0.48578743D+05 0.11483986D+01  1  2  4  2  7  2       -1 -.975498287664D-04 0.100000000000D+01
0.102418189766D-07 0.000000000000D+00 0.000000000000D+00 0.258347854769D-08 0.000000000000D+00  7 1 21 23 -13 13 23 1 2 0.14966267D+00 0.89698992D-02 0.51232686D+05 0.51232686D+05 0.51232686D+05 0.11463662D+01  1  2 12  4  7  2       -1 0.255032186704D-04 0.100000000000D+01
  </mgrwgt>
  </event>
  <event>
  8     66 0.56006291E-06 0.35722338E+03 0.75467711E-02 0.93038636E-01
        1 -1    0    0  502    0 0.00000000E+00 0.00000000E+00 0.56557307E+03 0.56557316E+03 0.32000000E+00 0.0000E+00 0.9000E+01
       -1 -1    0    0    0  501 0.00000000E+00 0.00000000E+00 -.72127354E+03 0.72127361E+03 0.32000000E+00 0.0000E+00 0.9000E+01
       25  2    1    2    0    0 0.19984727E+03 0.89579681E+02 -.52043162E+02 0.37454462E+03 0.29935219E+03 0.0000E+00 0.0000E+00
       23  1    3    3    0    0 0.86975047E+02 -.35668779E+02 -.11344335E+03 0.17326733E+03 0.91188000E+02 0.0000E+00 0.9000E+01
      -11  1    1    2    0    0 -.11962037E+03 -.44109822E+03 0.10469012E+03 0.46886746E+03 0.51099893E-03 0.0000E+00 0.9000E+01
       11  1    1    2    0    0 0.14293822E+02 0.66957041E+01 0.15073318E+02 0.21825461E+02 0.51099893E-03 0.0000E+00 0.9000E+01
       23  1    3    3    0    0 0.11287222E+03 0.12524846E+03 0.61400192E+02 0.20127729E+03 0.91188000E+02 0.0000E+00 0.9000E+01
       21  1    1    2  502  501 -.94520724E+02 0.34482283E+03 -.22342075E+03 0.42160924E+03 0.75000000E+00 0.0000E+00 0.9000E+01
#aMCatNLO 2  0  0  1  1 0.35754294D+03 0.00000000D+00  -5  7  0 0.00000000D+00 0.00000000D+00 0.00000000D+00 0.00000000D+00 0.00000000D+00
  <mgrwgt>
 0.1549418019D-04    1    2    0
 0.392496181527585D+03 0.000000000000000D+00 0.000000000000000D+00 0.392496181527585D+03
 0.392496181527585D+03 0.000000000000000D+00 0.000000000000000D+00 -.392496181527585D+03
 0.174625212639059D+03 0.664750626334992D+02 0.391176073377135D+02 -.127395417457934D+03
 0.328408223019447D+03 -.164970979722505D+03 -.275653787666822D+03 0.682020977765524D+02
 0.239762894770366D+02 0.117302296929989D+02 0.160479804429444D+02 0.134062109538458D+02
 0.257982637919628D+03 0.867656873960073D+02 0.220488199886164D+03 0.457871087275361D+02
 0.000000000000000D+00 -.000000000000000D+00 0.000000000000000D+00 -.000000000000000D+00
 0.522910769546813D+03 0.000000000000000D+00 0.000000000000000D+00 0.522910769546813D+03
 0.780118845178637D+03 0.000000000000000D+00 0.000000000000000D+00 -.780118845178637D+03
 0.182706771712336D+03 0.869750483272944D+02 -.356687771689361D+02 -.127395417457934D+03
 0.462091114143044D+03 -.119620365133105D+03 -.441098220212075D+03 0.682020977765524D+02
 0.207092292432360D+02 0.142938191129277D+02 0.669570152237889D+01 0.134062109538458D+02
 0.197076193573886D+03 0.112872221218847D+03 0.125248461392020D+03 0.457871087275361D+02
 0.440446306052947D+03 -.945207235259641D+02 0.344822834466612D+03 -.257208075631824D+03
0.374158460828D-05 0.000000000000D+00 0.000000000000D+00 0.259789792239D-09 0.176354163531D-13  7 1 -1 23 -11 11 23 21 2 0.87011206D-01 0.11096511D+00 0.33235650D+06 0.33235650D+06 0.33235650D+06 0.10812761D+01  1  2  1  1  7  1        1 0.154941801894D-04 0.100000000000D+01
  </mgrwgt>
  </event>
  <event>
  8     66 0.56006291E-06 0.33261802E+03 0.75467711E-02 0.90984888E-01
        1 -1    0    0  501    0 0.00000000E+00 0.00000000E+00 0.48254578E+03 0.48254588E+03 0.32000000E+00 0.0000E+00 0.9000E+01
       -1 -1    0    0    0  501 0.00000000E+00 0.00000000E+00 -.29872200E+03 0.29872217E+03 0.32000000E+00 0.0000E+00 0.9000E+01
       25  2    1    2    0    0 0.28183555E+03 0.64787998E+02 0.22656312E+03 0.47531434E+03 0.30160256E+03 0.0000E+00 0.0000E+00
       23  2    1    2    0    0 -.28183555E+03 -.64787998E+02 -.42739342E+02 0.30595372E+03 0.90289873E+02 0.0000E+00 0.0000E+00
       23  1    3    3    0    0 0.70956739E+02 -.34575573E+02 0.18607915E+03 0.22174542E+03 0.91188000E+02 0.0000E+00 0.9000E+01
      -11  1    4    4    0    0 -.26022030E+03 -.74416588E+02 -.59299254E+02 0.27707189E+03 0.51099893E-03 0.0000E+00 0.9000E+01
       11  1    4    4    0    0 -.21615255E+02 0.96285908E+01 0.16559912E+02 0.28881823E+02 0.51099893E-03 0.0000E+00 0.9000E+01
       23  1    3    3    0    0 0.21087881E+03 0.99363571E+02 0.40483976E+02 0.25356892E+03 0.91188000E+02 0.0000E+00 0.9000E+01
#aMCatNLO 1  0  0  2  1 0.55406686D+03 0.00000000D+00  -5  7  0 0.00000000D+00 0.00000000D+00 0.00000000D+00 0.00000000D+00 0.00000000D+00
  <mgrwgt>
 0.1710491479D-03    5    2    0
 0.379667152168282D+03 0.000000000000000D+00 0.000000000000000D+00 0.379667152168282D+03
 0.379667152168282D+03 0.000000000000000D+00 0.000000000000000D+00 -.379667152168282D+03
 0.183103589017864D+03 0.709567389804620D+02 -.345755732718198D+02 0.137772798089486D+03
 0.299430737890908D+03 -.260220298425203D+03 -.744165884472366D+02 -.128087214214637D+03
 0.257071749722626D+02 -.216152547933978D+02 0.962859080443452D+01 0.100463846428345D+02
 0.251092802455529D+03 0.210878814238139D+03 0.993635709146218D+02 -.197319685176834D+02
 0.000000000000000D+00 -.000000000000000D+00 -.000000000000000D+00 -.000000000000000D+00
 0.622620469952451D+03 0.000000000000000D+00 0.000000000000000D+00 0.622620469952451D+03
 0.972840828886725D+03 0.000000000000000D+00 0.000000000000000D+00 -.972840828886725D+03
 0.272156985677245D+03 0.216231537731957D+03 -.409288475175362D+01 0.137772798089486D+03
 0.173688599251657D+03 -.109246723489888D+03 -.427381383714850D+02 -.128087214214637D+03
 0.178300279381782D+02 -.772242342917728D+01 0.125436927682773D+02 0.100463846428345D+02
 0.476313042516211D+03 0.442995855802084D+03 0.148068174459084D+03 -.197319685176834D+02
 0.655472643455886D+03 -.542258246614976D+03 -.113780844104122D+03 -.350220358934275D+03
0.615457639814D-05 0.000000000000D+00 0.000000000000D+00 0.101339018565D-06 0.000000000000D+00  7 1 -1 23 -11 11 23 21 0 0.74237833D-01 0.45957252D-01 0.11063475D+06 0.11063475D+06 0.11063475D+06 0.11181379D+01  1  2  2  2  7  2       -1 0.164144404292D-03 0.100000000000D+01
-.334644314661D-06 0.000000000000D+00 -.236351939061D-07 0.101339018565D-06 0.000000000000D+00  7 1 -1 23 -11 11 23 21 2 0.74237833D-01 0.45957252D-01 0.11063475D+06 0.11063475D+06 0.11063475D+06 0.11181379D+01  1  2  3  2  7  2       -1 -.111584052317D-04 0.100000000000D+01
0.392909931331D-06 0.000000000000D+00 0.000000000000D+00 0.101339018565D-06 0.000000000000D+00  7 1 -1 23 -11 11 23 21 2 0.74237833D-01 0.45957252D-01 0.11063475D+06 0.11063475D+06 0.11063475D+06 0.11181379D+01  1  2 15  2  7  2       -1 0.131012183422D-04 0.100000000000D+01
0.120053773855D-05 0.000000000000D+00 -.206312105575D-05 0.101339018565D-06 0.000000000000D+00  7 1 -1 23 -11 11 23 21 2 0.74237833D-01 0.17035602D+00 0.11063475D+06 0.11063475D+06 0.11063475D+06 0.11181379D+01  1  2  5  2  7  2       -1 0.220224073384D-05 0.100000000000D+01
0.234564354515D-06 0.000000000000D+00 -.319142770671D-06 0.101339018565D-06 0.000000000000D+00  7 1 21 23 -11 11 23 1 2 0.74237833D-01 0.17035602D+00 0.11063475D+06 0.11063475D+06 0.11063475D+06 0.11181379D+01  1  2  5  4  7  2       -1 0.275968974970D-05 0.100000000000D+01
  </mgrwgt>
  </event>
  <event>
  8     66 0.56006291E-06 0.13059417E+03 0.75467711E-02 0.10639777E+00
        1 -1    0    0  501    0 0.00000000E+00 0.00000000E+00 0.36864688E+03 0.36864702E+03 0.32000000E+00 0.0000E+00 0.9000E+01
       -1 -1    0    0    0  501 0.00000000E+00 0.00000000E+00 -.22065014E+03 0.22065037E+03 0.32000000E+00 0.0000E+00 0.9000E+01
       25  2    1    2    0    0 0.30553600E+02 -.69775318E+02 -.85390512E+02 0.32720285E+03 0.30654208E+03 0.0000E+00 0.0000E+00
       23  2    1    2    0    0 -.30553600E+02 0.69775318E+02 0.23338726E+03 0.26209455E+03 0.91770496E+02 0.0000E+00 0.0000E+00
       23  1    3    3    0    0 0.27403182E+02 -.14722030E+03 0.78293573E+01 0.17550299E+03 0.91188000E+02 0.0000E+00 0.9000E+01
      -13  1    4    4    0    0 -.27155380E+02 0.77188642E+02 0.23871710E+03 0.25235167E+03 0.10565837E+00 0.0000E+00 0.9000E+01
       13  1    4    4    0    0 -.33982197E+01 -.74133232E+01 -.53298443E+01 0.97428775E+01 0.10565837E+00 0.0000E+00 0.9000E+01
       23  1    3    3    0    0 0.31504173E+01 0.77444980E+02 -.93219869E+02 0.15169985E+03 0.91188000E+02 0.0000E+00 0.9000E+01
#aMCatNLO 1  0  0  1  2 0.12999399D+02 0.00000000D+00  -5  7  0 0.00000000D+00 0.00000000D+00 0.00000000D+00 0.00000000D+00 0.00000000D+00
  <mgrwgt>
 0.1982501137D-03    9    2    0
 0.285205357341965D+03 0.000000000000000D+00 0.000000000000000D+00 0.285205357341965D+03
 0.285205357341965D+03 0.000000000000000D+00 0.000000000000000D+00 -.285205357341965D+03
 0.179282638331730D+03 0.274031824888965D+02 -.147220298580082D+03 -.374467934362586D+02
 0.198770759133892D+03 -.271554118095758D+02 0.771887536680382D+02 0.181147162835334D+03
 0.114480834270471D+02 -.339818813109623D+01 -.741343450095557D+01 -.803442097965680D+01
 0.180909233791260D+03 0.315041745177555D+01 0.774449794129989D+02 -.135665948419419D+03
 0.000000000000000D+00 -.000000000000000D+00 -.000000000000000D+00 0.000000000000000D+00
 0.296529217848922D+03 0.000000000000000D+00 0.000000000000000D+00 0.296529217848922D+03
 0.289034682959601D+03 0.000000000000000D+00 0.000000000000000D+00 -.289034682959601D+03
 0.179265276016130D+03 0.314045394769883D+02 -.146397678952638D+03 -.374467934362586D+02
 0.198570423436727D+03 -.227211260309863D+02 0.781003770313166D+02 0.181147162835334D+03
 0.113411773754872D+02 -.314386237903734D+01 -.736114889983809D+01 -.803442097965680D+01
 0.181381943806345D+03 0.719354886376798D+01 0.782761872421771D+02 -.135665948419419D+03
 0.150050801738341D+02 -.127330999307326D+02 -.261773642101778D+01 0.749453488932062D+01
0.152569327586D-05 0.000000000000D+00 0.000000000000D+00 0.497808422129D-08 0.000000000000D+00  7 1 -1 23 -13 13 23 21 0 0.56714934D-01 0.33946204D-01 0.37053924D+05 0.37053924D+05 0.37053924D+05 0.11589211D+01  1  2  2  1  7  1        1 0.994146800761D-04 0.100000000000D+01
-.688320094735D-07 0.000000000000D+00 -.585906390355D-08 0.497808422129D-08 0.000000000000D+00  7 1 -1 23 -13 13 23 21 2 0.56714934D-01 0.33946204D-01 0.37053924D+05 0.37053924D+05 0.37053924D+05 0.11589211D+01  1  2  3  1  7  1        1 -.602395146538D-05 0.100000000000D+01
0.964564375551D-07 0.000000000000D+00 0.000000000000D+00 0.497808422129D-08 0.000000000000D+00  7 1 -1 23 -13 13 23 21 2 0.56714934D-01 0.33946204D-01 0.37053924D+05 0.37053924D+05 0.37053924D+05 0.11589211D+01  1  2 15  1  7  1        1 0.844155070874D-05 0.100000000000D+01
0.486990157683D-05 0.000000000000D+00 0.000000000000D+00 0.497808422129D-08 0.000000000000D+00  7 1 -1 23 -13 13 23 21 2 0.59337132D-01 0.33946204D-01 0.39609817D+05 0.39609817D+05 0.39609817D+05 0.11563018D+01  1  2 12  1  7  1        1 0.399723957707D-03 0.100000000000D+01
-.478248920923D-05 0.000000000000D+00 0.000000000000D+00 0.497808422129D-08 0.000000000000D+00  7 1 -1 23 -13 13 23 21 2 0.56714934D-01 0.33946204D-01 0.37053924D+05 0.37053924D+05 0.37053924D+05 0.11589211D+01  1  2  4  1  7  1        1 -.418547752716D-03 0.100000000000D+01
-.273064769724D-04 0.000000000000D+00 -.421230356494D-05 0.497808422129D-08 0.000000000000D+00  7 1 -1 23 -13 13 23 21 2 0.59605010D-01 0.33946204D-01 0.37053924D+05 0.37053924D+05 0.37053924D+05 0.11589211D+01  1  2  5  1  7  1        1 -.223890096459D-02 0.100000000000D+01
0.274870770465D-04 0.000000000000D+00 0.420710609735D-05 0.497808422129D-08 0.000000000000D+00  7 1 -1 23 -13 13 23 21 2 0.56714934D-01 0.33946204D-01 0.37053924D+05 0.37053924D+05 0.37053924D+05 0.11589211D+01  1  2  6  1  7  1        1 0.240557873175D-02 0.100000000000D+01
0.744518852229D-07 0.000000000000D+00 0.000000000000D+00 0.497808422129D-08 0.000000000000D+00  7 21 -1 23 -13 13 23 -1 2 0.59337132D-01 0.33946204D-01 0.39609817D+05 0.39609817D+05 0.39609817D+05 0.11563018D+01  1  2 12  3  7  1        1 0.242708564089D-04 0.100000000000D+01
-.232872437440D-06 0.000000000000D+00 -.364881774682D-07 0.497808422129D-08 0.000000000000D+00  7 21 -1 23 -13 13 23 -1 2 0.59605010D-01 0.33946204D-01 0.37053924D+05 0.37053924D+05 0.37053924D+05 0.11589211D+01  1  2  5  3  7  1        1 -.757069942086D-04 0.100000000000D+01
  </mgrwgt>
  </event>
  <event>
  8     66 0.56006291E-06 0.23850019E+03 0.75467711E-02 0.10120699E+00
        1 -1    0    0  501    0 0.00000000E+00 0.00000000E+00 0.21372652E+03 0.21372676E+03 0.32000000E+00 0.0000E+00 0.9000E+01
       -1 -1    0    0    0  501 0.00000000E+00 0.00000000E+00 -.47627635E+03 0.47627646E+03 0.32000000E+00 0.0000E+00 0.9000E+01
       25  2    1    2    0    0 -.16643267E+03 -.49569404E+02 -.33718276E+03 0.48313134E+03 0.29927700E+03 0.0000E+00 0.0000E+00
       23  2    1    2    0    0 0.16643267E+03 0.49569404E+02 0.74632926E+02 0.20687187E+03 0.84076981E+02 0.0000E+00 0.0000E+00
       23  1    3    3    0    0 -.14462133E+03 0.16146144E+02 -.57798653E+02 0.18119592E+03 0.91188000E+02 0.0000E+00 0.9000E+01
      -11  1    4    4    0    0 0.12123918E+03 0.71274564E+02 0.40971641E+02 0.14648439E+03 0.51099893E-03 0.0000E+00 0.9000E+01
       11  1    4    4    0    0 0.45193490E+02 -.21705160E+02 0.33661286E+02 0.60387479E+02 0.51099893E-03 0.0000E+00 0.9000E+01
       23  1    3    3    0    0 -.21811339E+02 -.65715548E+02 -.27938411E+03 0.30193542E+03 0.91188000E+02 0.0000E+00 0.9000E+01
#aMCatNLO 1  0  0  2  2 0.10325911D+03 0.00000000D+00  -5  7  0 0.00000000D+00 0.00000000D+00 0.00000000D+00 0.00000000D+00 0.00000000D+00
  <mgrwgt>
 0.1011901014D-03    4    2    0
 0.319050162805795D+03 0.000000000000000D+00 0.000000000000000D+00 0.319050162805795D+03
 0.319050162805795D+03 0.000000000000000D+00 0.000000000000000D+00 -.319050162805795D+03
 0.172152778739823D+03 -.144621331199480D+03 0.161461436258155D+02 0.120540653701279D+02
 0.175257394311629D+03 0.121239179735038D+03 0.712745643786116D+02 0.104576058592377D+03
 0.791494974082240D+02 0.451934900275786D+02 -.217051601728550D+02 0.612460400431923D+02
 0.211540655151914D+03 -.218113385631365D+02 -.657155478315721D+02 -.177876164005697D+03
 0.000000000000000D+00 0.000000000000000D+00 -.000000000000000D+00 0.000000000000000D+00
 0.378222204140427D+03 0.000000000000000D+00 0.000000000000000D+00 0.378222204140427D+03
 0.371647192201042D+03 0.000000000000000D+00 0.000000000000000D+00 -.371647192201042D+03
 0.182927212856601D+03 -.151951353427102D+03 0.437332774807570D+02 0.120540653701279D+02
 0.183646217100949D+03 0.113830225382526D+03 0.991587656949001D+02 0.104576058592377D+03
 0.749065027355981D+02 0.420132660440310D+02 -.973612897507660D+01 0.612460400431923D+02
 0.204921234672056D+03 -.304084856331323D+02 -.333594867412196D+02 -.177876164005697D+03
 0.103468228976264D+03 0.265163476336775D+02 -.997964274593609D+02 0.657501193938517D+01
0.663478388880D-05 0.000000000000D+00 0.000000000000D+00 0.449101121706D-08 0.000000000000D+00  7 1 -1 23 -11 11 23 21 0 0.32881030D-01 0.73273312D-01 0.56882338D+05 0.56882338D+05 0.56882338D+05 0.11424013D+01  1  2  2  2  7  2       -1 0.220633019227D-03 0.100000000000D+01
-.330653905148D-06 0.000000000000D+00 -.254793171117D-07 0.449101121706D-08 0.000000000000D+00  7 1 -1 23 -11 11 23 21 2 0.32881030D-01 0.73273312D-01 0.56882338D+05 0.56882338D+05 0.56882338D+05 0.11424013D+01  1  2  3  2  7  2       -1 -.143500956286D-04 0.100000000000D+01
0.422389821731D-06 0.000000000000D+00 0.000000000000D+00 0.449101121706D-08 0.000000000000D+00  7 1 -1 23 -11 11 23 21 2 0.32881030D-01 0.73273312D-01 0.56882338D+05 0.56882338D+05 0.56882338D+05 0.11424013D+01  1  2 15  2  7  2       -1 0.183313556562D-04 0.100000000000D+01
-.284393132059D-05 0.000000000000D+00 0.000000000000D+00 0.449101121706D-08 0.000000000000D+00  7 1 -1 23 -11 11 23 21 2 0.32881030D-01 0.73273312D-01 0.56882338D+05 0.56882338D+05 0.56882338D+05 0.11424013D+01  1  2  4  2  7  2       -1 -.123424177898D-03 0.100000000000D+01
  </mgrwgt>
  </event>
  <event>
  8     66 0.56006291E-06 0.22761201E+03 0.75467711E-02 0.10087988E+00
        1 -1    0    0  501    0 0.00000000E+00 0.00000000E+00 0.56614394E+03 0.56614403E+03 0.32000000E+00 0.0000E+00 0.9000E+01
       -1 -1    0    0    0  501 0.00000000E+00 0.00000000E+00 -.19823250E+03 0.19823275E+03 0.32000000E+00 0.0000E+00 0.9000E+01
       25  2    1    2    0    0 -.17835338E+03 0.15363408E+03 0.12100871E+03 0.40023312E+03 0.30021672E+03 0.0000E+00 0.0000E+00
       23  2    1    2    0    0 0.17835338E+03 -.15363408E+03 0.24690273E+03 0.36414366E+03 0.12738245E+03 0.0000E+00 0.0000E+00
       23  1    3    3    0    0 -.16683150E+03 0.11994020E+03 -.23141099E+02 0.22598487E+03 0.91188000E+02 0.0000E+00 0.9000E+01
      -13  1    4    4    0    0 0.35078431E+02 -.69220586E+02 0.15693578E+03 0.17507380E+03 0.10565837E+00 0.0000E+00 0.9000E+01
       13  1    4    4    0    0 0.14327495E+03 -.84413497E+02 0.89966952E+02 0.18906986E+03 0.10565837E+00 0.0000E+00 0.9000E+01
       23  1    3    3    0    0 -.11521881E+02 0.33693885E+02 0.14414981E+03 0.17424824E+03 0.91188000E+02 0.0000E+00 0.9000E+01
#aMCatNLO 1  0  0  2  1 0.30016550D+02 0.00000000D+00  -5  7  0 0.00000000D+00 0.00000000D+00 0.00000000D+00 0.00000000D+00 0.00000000D+00
  <mgrwgt>
 0.2012104484D-03    6    2    0
 0.335004864156714D+03 0.000000000000000D+00 0.000000000000000D+00 0.335004864156714D+03
 0.335004864156714D+03 0.000000000000000D+00 0.000000000000000D+00 -.335004864156714D+03
 0.270521073899730D+03 -.166831842201795D+03 0.119940491863059D+03 -.150491909812674D+03
 0.113556052320286D+03 0.350792319771118D+02 -.692206231649419D+02 0.829031352309470D+02
 0.166297092263363D+03 0.143274642145074D+03 -.844138833987377D+02 -.118156802375687D+01
 0.119635509830049D+03 -.115220319203907D+02 0.336940147006211D+02 0.687703426054840D+02
 0.000000000000000D+00 -.000000000000000D+00 0.000000000000000D+00 0.000000000000000D+00
 0.351299667286083D+03 0.000000000000000D+00 0.000000000000000D+00 0.351299667286083D+03
 0.349455259794440D+03 0.000000000000000D+00 0.000000000000000D+00 -.349455259794440D+03
 0.261610033661885D+03 -.156693418066687D+03 0.113683403292148D+03 -.150491909812674D+03
 0.116636000116520D+03 0.394649644159267D+02 -.719273472033407D+02 0.829031352309470D+02
 0.173912273325810D+03 0.149756478658794D+03 -.884142511706936D+02 -.118156802375687D+01
 0.118523457446016D+03 -.698450989336923D+01 0.308936113206508D+02 0.687703426054840D+02
 0.300731625302918D+02 -.255435151146647D+02 0.157645837612355D+02 0.184440749164285D+01
0.285764674070D-05 0.000000000000D+00 0.000000000000D+00 0.998057446228D-09 0.000000000000D+00  7 1 -1 23 -13 13 23 21 0 0.87099094D-01 0.30497334D-01 0.80255030D+05 0.80255030D+05 0.80255030D+05 0.11296465D+01  1  2  2  2  7  2       -1 0.123892884584D-03 0.100000000000D+01
-.153332019548D-06 0.000000000000D+00 -.109741159200D-07 0.998057446228D-09 0.000000000000D+00  7 1 -1 23 -13 13 23 21 2 0.87099094D-01 0.30497334D-01 0.80255030D+05 0.80255030D+05 0.80255030D+05 0.11296465D+01  1  2  3  2  7  2       -1 -.848312408424D-05 0.100000000000D+01
0.184899836576D-06 0.000000000000D+00 0.000000000000D+00 0.998057446228D-09 0.000000000000D+00  7 1 -1 23 -13 13 23 21 2 0.87099094D-01 0.30497334D-01 0.80255030D+05 0.80255030D+05 0.80255030D+05 0.11296465D+01  1  2 15  2  7  2       -1 0.102296197589D-04 0.100000000000D+01
0.517109169006D-05 0.000000000000D+00 0.000000000000D+00 0.998057446228D-09 0.000000000000D+00  7 1 -1 23 -13 13 23 21 2 0.87099094D-01 0.32521444D-01 0.88950201D+05 0.88950201D+05 0.88950201D+05 0.11259192D+01  1  2 12  2  7  2       -1 0.254902119976D-03 0.100000000000D+01
-.379555700867D-05 0.000000000000D+00 0.000000000000D+00 0.998057446228D-09 0.000000000000D+00  7 1 -1 23 -13 13 23 21 2 0.87099094D-01 0.30497334D-01 0.80255030D+05 0.80255030D+05 0.80255030D+05 0.11296465D+01  1  2  4  2  7  2       -1 -.209989936664D-03 0.100000000000D+01
0.582713460640D-07 0.000000000000D+00 0.000000000000D+00 0.998057446228D-09 0.000000000000D+00  7 1 21 23 -13 13 23 1 2 0.87099094D-01 0.32521444D-01 0.88950201D+05 0.88950201D+05 0.88950201D+05 0.11259192D+01  1  2 12  4  7  2       -1 0.306588847799D-04 0.100000000000D+01
  </mgrwgt>
  </event>
  <event>
  8     66 0.56006291E-06 0.42422644E+03 0.75467711E-02 0.89785746E-01
        1 -1    0    0  501    0 0.00000000E+00 0.00000000E+00 0.11649159E+04 0.11649159E+04 0.32000000E+00 0.0000E+00 0.9000E+01
       -1 -1    0    0    0  501 0.00000000E+00 0.00000000E+00 -.54468507E+03 0.54468517E+03 0.32000000E+00 0.0000E+00 0.9000E+01
       25  2    1    2    0    0 0.55783615E+03 0.49274629E+03 0.51249435E+03 0.95230259E+03 0.30041586E+03 0.0000E+00 0.0000E+00
       23  2    1    2    0    0 -.55783615E+03 -.49274629E+03 0.10773646E+03 0.75729850E+03 0.88959533E+02 0.0000E+00 0.0000E+00
       23  1    3    3    0    0 0.48851826E+03 0.46416939E+03 0.39840196E+03 0.78812606E+03 0.91188000E+02 0.0000E+00 0.9000E+01
      -11  1    4    4    0    0 -.31602074E+03 -.30651691E+03 0.10255847E+03 0.45203978E+03 0.51099893E-03 0.0000E+00 0.9000E+01
       11  1    4    4    0    0 -.24181541E+03 -.18622938E+03 0.51779895E+01 0.30525872E+03 0.51099893E-03 0.0000E+00 0.9000E+01
       23  1    3    3    0    0 0.69317889E+02 0.28576902E+02 0.11409238E+03 0.16417653E+03 0.91188000E+02 0.0000E+00 0.9000E+01
#aMCatNLO 1  0  0  1  2 0.24951321D+02 0.00000000D+00  -5  7  0 0.00000000D+00 0.00000000D+00 0.00000000D+00 0.00000000D+00 0.00000000D+00
  <mgrwgt>
 0.3025432228D-03    9    2    0
 0.796562874109990D+03 0.000000000000000D+00 0.000000000000000D+00 0.796562874109990D+03
 0.796562874109990D+03 0.000000000000000D+00 0.000000000000000D+00 -.796562874109990D+03
 0.690642286200079D+03 0.488518264489000D+03 0.464169388004661D+03 0.120698801335000D+03
 0.445161210176114D+03 -.316020744868898D+03 -.306516908132728D+03 -.659300909048499D+02
 0.325560674674067D+03 -.241815408326239D+03 -.186229382153168D+03 -.113285826179172D+03
 0.131761577169719D+03 0.693178887061359D+02 0.285769022812352D+02 0.585171157490216D+02
 0.000000000000000D+00 0.000000000000000D+00 -.000000000000000D+00 0.000000000000000D+00
 0.828546669351804D+03 0.000000000000000D+00 0.000000000000000D+00 0.828546669351804D+03
 0.801541753117286D+03 0.000000000000000D+00 0.000000000000000D+00 -.801541753117286D+03
 0.692969365187300D+03 0.482894632710918D+03 0.473429892169234D+03 0.120698801335000D+03
 0.443681585176320D+03 -.319633409292944D+03 -.300567888839809D+03 -.659300909048499D+02
 0.325073402012805D+03 -.244459883360755D+03 -.181874692330536D+03 -.113285826179172D+03
 0.131596775976936D+03 0.682474796774941D+02 0.303395580984539D+02 0.585171157490216D+02
 0.367672941157291D+02 0.129511802652876D+02 -.213268690973429D+02 0.270049162345183D+02
0.537796049504D-04 0.000000000000D+00 0.000000000000D+00 0.752151980455D-06 0.000000000000D+00  7 1 -1 23 -11 11 23 21 0 0.17921784D+00 0.83797714D-01 0.59562494D+06 0.59562494D+06 0.59562494D+06 0.10631800D+01  1  2  2  1  7  1        1 0.105713792730D-03 0.100000000000D+01
-.298412314045D-05 0.000000000000D+00 -.206527843505D-06 0.752151980455D-06 0.000000000000D+00  7 1 -1 23 -11 11 23 21 2 0.17921784D+00 0.83797714D-01 0.59562494D+06 0.59562494D+06 0.59562494D+06 0.10631800D+01  1  2  3  1  7  1        1 -.663047134900D-05 0.100000000000D+01
0.347616102170D-05 0.000000000000D+00 0.000000000000D+00 0.752151980455D-06 0.000000000000D+00  7 1 -1 23 -11 11 23 21 2 0.17921784D+00 0.83797714D-01 0.59562494D+06 0.59562494D+06 0.59562494D+06 0.10631800D+01  1  2 15  1  7  1        1 0.772373825547D-05 0.100000000000D+01
0.232061972193D-03 0.000000000000D+00 0.000000000000D+00 0.752151980455D-06 0.000000000000D+00  7 1 -1 23 -11 11 23 21 2 0.18696040D+00 0.83797714D-01 0.61516533D+06 0.61516533D+06 0.61516533D+06 0.10622057D+01  1  2 12  1  7  1        1 0.472652312394D-03 0.100000000000D+01
-.236156488548D-03 0.000000000000D+00 0.000000000000D+00 0.752151980455D-06 0.000000000000D+00  7 1 -1 23 -11 11 23 21 2 0.17921784D+00 0.83797714D-01 0.59562494D+06 0.59562494D+06 0.59562494D+06 0.10631800D+01  1  2  4  1  7  1        1 -.524719911848D-03 0.100000000000D+01
-.139212671783D-02 0.000000000000D+00 -.150916970390D-03 0.752151980455D-06 0.000000000000D+00  7 1 -1 23 -11 11 23 21 2 0.18697645D+00 0.83797714D-01 0.59562494D+06 0.59562494D+06 0.59562494D+06 0.10631800D+01  1  2  5  1  7  1        1 -.284497056748D-02 0.100000000000D+01
0.139740296743D-02 0.000000000000D+00 0.150781539394D-03 0.752151980455D-06 0.000000000000D+00  7 1 -1 23 -11 11 23 21 2 0.17921784D+00 0.83797714D-01 0.59562494D+06 0.59562494D+06 0.59562494D+06 0.10631800D+01  1  2  6  1  7  1        1 0.310491219782D-02 0.100000000000D+01
0.440232144568D-05 0.000000000000D+00 0.000000000000D+00 0.752151980455D-06 0.000000000000D+00  7 21 -1 23 -11 11 23 -1 2 0.18696040D+00 0.83797714D-01 0.61516533D+06 0.61516533D+06 0.61516533D+06 0.10622057D+01  1  2 12  3  7  1        1 0.899583143858D-05 0.100000000000D+01
-.102955473574D-04 0.000000000000D+00 -.112655929034D-05 0.752151980455D-06 0.000000000000D+00  7 21 -1 23 -11 11 23 -1 2 0.18697645D+00 0.83797714D-01 0.59562494D+06 0.59562494D+06 0.59562494D+06 0.10631800D+01  1  2  5  3  7  1        1 -.211336991366D-04 0.100000000000D+01
  </mgrwgt>
  </event>
  <event>
  8     66 0.56006291E-06 0.13192941E+03 0.75467711E-02 0.10270517E+00
        1 -1    0    0  501    0 0.00000000E+00 0.00000000E+00 0.13306607E+03 0.13306645E+03 0.32000000E+00 0.0000E+00 0.9000E+01
       -1 -1    0    0    0  501 0.00000000E+00 0.00000000E+00 -.37967322E+03 0.37967336E+03 0.32000000E+00 0.0000E+00 0.9000E+01
       25  2    1    2    0    0 -.44108643E+02 -.47858308E+02 -.90271840E+02 0.32008508E+03 0.30011575E+03 0.0000E+00 0.0000E+00
       23  2    1    2    0    0 0.44108643E+02 0.47858308E+02 -.15633531E+03 0.19265473E+03 0.91864705E+02 0.0000E+00 0.0000E+00
       23  1    3    3    0    0 -.11786581E+03 -.17064777E+01 -.11912063E+03 0.19078846E+03 0.91188000E+02 0.0000E+00 0.9000E+01
      -13  1    4    4    0    0 0.10840969E+02 0.65549219E+02 -.13206427E+03 0.14783508E+03 0.10565837E+00 0.0000E+00 0.9000E+01
       13  1    4    4    0    0 0.33267674E+02 -.17690911E+02 -.24271040E+02 0.44819650E+02 0.10565837E+00 0.0000E+00 0.9000E+01
       23  1    3    3    0    0 0.73757169E+02 -.46151830E+02 0.28848790E+02 0.12929662E+03 0.91188000E+02 0.0000E+00 0.9000E+01
#aMCatNLO 1  0  0  2  1 0.12817742D+03 0.00000000D+00  -5  7  0 0.00000000D+00 0.00000000D+00 0.00000000D+00 0.00000000D+00 0.00000000D+00
  <mgrwgt>
 0.9683170157D-04    9    2    0
 0.224770451173490D+03 0.000000000000000D+00 0.000000000000000D+00 0.224770451173490D+03
 0.224770451173490D+03 0.000000000000000D+00 0.000000000000000D+00 -.224770451173490D+03
 0.152263872735548D+03 -.117865809493252D+03 -.170648217240554D+01 -.312053595961137D+02
 0.961713882192194D+02 0.108409448722029D+02 0.655493322178498D+02 -.695319701438383D+02
 0.378060626692168D+02 0.332677044123935D+02 -.176910173910130D+02 -.309614620928037D+01
 0.163299578722995D+03 0.737571602086558D+02 -.461518326544313D+02 0.103833475949232D+03
 0.000000000000000D+00 0.000000000000000D+00 0.000000000000000D+00 -.000000000000000D+00
 0.284247368565095D+03 0.000000000000000D+00 0.000000000000000D+00 0.284247368565095D+03
 0.315032638662715D+03 0.000000000000000D+00 0.000000000000000D+00 -.315032638662715D+03
 0.178351921387097D+03 -.144851650610235D+03 -.392222050175257D+02 -.312053595961137D+02
 0.830268072700592D+02 -.378574301715380D+01 0.452153071778132D+02 -.695319701438383D+02
 0.378686779813178D+02 0.270909077678669D+02 -.262780015795804D+02 -.309614620928037D+01
 0.168210050921873D+03 0.466983615868704D+02 -.837689810403665D+02 0.103833475949232D+03
 0.131822549667463D+03 0.748481242726515D+02 0.104053880459659D+03 -.307852700976194D+02
0.928860098333D-06 0.000000000000D+00 0.000000000000D+00 0.198203107309D-06 0.000000000000D+00  7 1 -1 23 -13 13 23 21 0 0.20471743D-01 0.58411305D-01 0.35945863D+05 0.35945863D+05 0.35945863D+05 0.11601194D+01  1  2  2  2  7  2       -1 0.872516573538D-04 0.100000000000D+01
-.497859283999D-07 0.000000000000D+00 -.356706735208D-08 0.198203107309D-06 0.000000000000D+00  7 1 -1 23 -13 13 23 21 2 0.20471743D-01 0.58411305D-01 0.35945863D+05 0.35945863D+05 0.35945863D+05 0.11601194D+01  1  2  3  2  7  2       -1 -.629412460859D-05 0.100000000000D+01
0.584924441525D-07 0.000000000000D+00 0.000000000000D+00 0.198203107309D-06 0.000000000000D+00  7 1 -1 23 -13 13 23 21 2 0.20471743D-01 0.58411305D-01 0.35945863D+05 0.35945863D+05 0.35945863D+05 0.11601194D+01  1  2 15  2  7  2       -1 0.739483512690D-05 0.100000000000D+01
0.952615499268D-07 0.000000000000D+00 0.000000000000D+00 0.198203107309D-06 0.000000000000D+00  7 1 -1 23 -13 13 23 21 2 0.20471743D-01 0.87050786D-01 0.67400253D+05 0.67400253D+05 0.67400253D+05 0.11360595D+01  1  2 12  2  7  2       -1 0.532648692714D-05 0.100000000000D+01
-.360564113216D-06 0.000000000000D+00 0.000000000000D+00 0.198203107309D-06 0.000000000000D+00  7 1 -1 23 -13 13 23 21 2 0.20471743D-01 0.58411305D-01 0.35945863D+05 0.35945863D+05 0.35945863D+05 0.11601194D+01  1  2  4  2  7  2       -1 -.455838734137D-04 0.100000000000D+01
-.409144888261D-06 0.000000000000D+00 -.313281375817D-06 0.198203107309D-06 0.000000000000D+00  7 1 -1 23 -13 13 23 21 2 0.20471743D-01 0.99404546D-01 0.35945863D+05 0.35945863D+05 0.35945863D+05 0.11601194D+01  1  2  5  2  7  2       -1 -.181420430220D-04 0.100000000000D+01
0.537531381715D-06 0.000000000000D+00 0.273678075313D-06 0.198203107309D-06 0.000000000000D+00  7 1 -1 23 -13 13 23 21 2 0.20471743D-01 0.58411305D-01 0.35945863D+05 0.35945863D+05 0.35945863D+05 0.11601194D+01  1  2  6  2  7  2       -1 0.679567421213D-04 0.100000000000D+01
0.452595994898D-08 0.000000000000D+00 0.000000000000D+00 0.198203107309D-06 0.000000000000D+00  7 1 21 23 -13 13 23 1 2 0.20471743D-01 0.87050786D-01 0.67400253D+05 0.67400253D+05 0.67400253D+05 0.11360595D+01  1  2 12  4  7  2       -1 0.193837175040D-05 0.100000000000D+01
-.913096917686D-08 0.000000000000D+00 -.185592477665D-07 0.198203107309D-06 0.000000000000D+00  7 1 21 23 -13 13 23 1 2 0.20471743D-01 0.99404546D-01 0.35945863D+05 0.35945863D+05 0.35945863D+05 0.11601194D+01  1  2  5  4  7  2       -1 -.301635066599D-05 0.100000000000D+01
  </mgrwgt>
  </event>
  <event>
  8     66 0.56006291E-06 0.25334483E+03 0.75467711E-02 0.10064364E+00
        1 -1    0    0  501    0 0.00000000E+00 0.00000000E+00 0.29148154E+04 0.29148154E+04 0.32000000E+00 0.0000E+00 0.9000E+01
       21 -1    0    0  502  501 0.00000000E+00 0.00000000E+00 -.15912630E+03 0.15912806E+03 0.75000000E+00 0.0000E+00 0.9000E+01
       25  2    1    2    0    0 0.85678236E+02 0.62054351E+02 0.12353465E+04 0.12754817E+04 0.29930071E+03 0.0000E+00 0.0000E+00
       23  1    3    3    0    0 -.29086457E+02 0.31366791E+02 0.92946432E+03 0.93490592E+03 0.91188000E+02 0.0000E+00 0.9000E+01
      -13  1    1    2    0    0 -.11308298E+03 -.12456478E+02 0.56737849E+03 0.57867200E+03 0.10565837E+00 0.0000E+00 0.9000E+01
       13  1    1    2    0    0 0.46081361E+02 -.14185200E+03 0.10638993E+04 0.10743031E+04 0.10565837E+00 0.0000E+00 0.9000E+01
       23  1    3    3    0    0 0.11476469E+03 0.30687560E+02 0.30588222E+03 0.34057576E+03 0.91188000E+02 0.0000E+00 0.9000E+01
        1  1    1    2  502    0 -.18676613E+02 0.92254124E+02 -.11093524E+03 0.14548666E+03 0.32000000E+00 0.0000E+00 0.9000E+01
#aMCatNLO 2  0  0  2  1 0.94125657D+02 0.00000000D+00  -5  7  0 0.00000000D+00 0.00000000D+00 0.00000000D+00 0.00000000D+00 0.00000000D+00
  <mgrwgt>
 0.1292661454D-02    2    2    0
 0.295577635878279D+03 0.000000000000000D+00 0.000000000000000D+00 0.295577635878279D+03
 0.295577635878279D+03 0.000000000000000D+00 0.000000000000000D+00 -.295577635878279D+03
 0.129988321180903D+03 -.330490235795731D+02 0.509594272051045D+02 0.699472023657426D+02
 0.116915299558899D+03 -.116701392195855D+03 0.542731047490784D+01 0.452952883921127D+01
 0.139222715012284D+03 0.413597150207625D+02 -.118589441986660D+03 0.600739760469162D+02
 0.205028936004473D+03 0.108390700754665D+03 0.622027043066478D+02 -.134550707251870D+03
 0.000000000000000D+00 -.000000000000000D+00 0.000000000000000D+00 -.000000000000000D+00
 0.301085404310675D+03 0.000000000000000D+00 0.000000000000000D+00 0.301085404310675D+03
 0.154051457496530D+04 0.000000000000000D+00 0.000000000000000D+00 -.154051457496530D+04
 0.122629018131391D+03 -.290834778424626D+02 0.313714032466171D+02 0.699472023657426D+02
 0.113854077285295D+03 -.113078812205537D+03 -.124666159468296D+02 0.452952883921127D+01
 0.160789907641382D+03 0.460692641755528D+02 -.141852510374550D+03 0.600739760469162D+02
 0.201328863453691D+03 0.114769639127502D+03 0.306935991392284D+02 -.134550707251870D+03
 0.124299811276422D+04 -.186766132550553D+02 0.922541239355340D+02 -.123942917065463D+04
-.173508265848D-03 0.000000000000D+00 0.000000000000D+00 0.512093765986D-10 0.000000000000D+00  7 1 21 23 -13 13 23 1 2 0.44023003D+00 0.24250234D-01 0.92271288D+05 0.92271288D+05 0.92271288D+05 0.11246001D+01  1  2 13  4  7  2       -1 -.364063331102D-02 0.100000000000D+01
0.261511251418D-03 0.000000000000D+00 0.000000000000D+00 0.512093765986D-10 0.263970069957D-13  7 1 21 23 -13 13 23 1 2 0.44843324D+00 0.24481104D-01 0.92271288D+05 0.92271288D+05 0.92271288D+05 0.11246001D+01  1  2  1  4  7  2       -1 0.493329476459D-02 0.100000000000D+01
  </mgrwgt>
  </event>
  <event>
  8     66 0.56006291E-06 0.19555966E+03 0.75467711E-02 0.97024600E-01
        1 -1    0    0  501    0 0.00000000E+00 0.00000000E+00 0.20789594E+04 0.20789594E+04 0.32000000E+00 0.0000E+00 0.9000E+01
       -1 -1    0    0    0  501 0.00000000E+00 0.00000000E+00 -.33996336E+02 0.33997842E+02 0.32000000E+00 0.0000E+00 0.9000E+01
       25  2    1    2    0    0 0.77292843E+02 -.29973771E+02 0.18829306E+04 0.19076229E+04 0.29449062E+03 0.0000E+00 0.0000E+00
       23  2    1    2    0    0 -.77292843E+02 0.29973771E+02 0.16203249E+03 0.20533444E+03 0.95053095E+02 0.0000E+00 0.0000E+00
       23  1    3    3    0    0 0.14202049E+03 0.40570389E+02 0.10969482E+04 0.11105973E+04 0.91188000E+02 0.0000E+00 0.9000E+01
      -11  1    4    4    0    0 -.21886820E+02 0.18678363E+02 -.48077097E+01 0.29172388E+02 0.51099893E-03 0.0000E+00 0.9000E+01
       11  1    4    4    0    0 -.55406023E+02 0.11295408E+02 0.16684020E+03 0.17616205E+03 0.51099893E-03 0.0000E+00 0.9000E+01
       23  1    3    3    0    0 -.64727648E+02 -.70544160E+02 0.78598236E+03 0.79702551E+03 0.91188000E+02 0.0000E+00 0.9000E+01
#aMCatNLO 1  0  0  2  1 0.30795609D+03 0.00000000D+00  -5  7  0 0.00000000D+00 0.00000000D+00 0.00000000D+00 0.00000000D+00 0.00000000D+00
  <mgrwgt>
 0.5750556997D-03    5    2    0
 0.265854509388240D+03 0.000000000000000D+00 0.000000000000000D+00 0.265854509388240D+03
 0.265854509388240D+03 0.000000000000000D+00 0.000000000000000D+00 -.265854509388240D+03
 0.194516358922498D+03 0.142020491016782D+03 0.405703887951171D+02 0.877814685957758D+02
 0.134418629973146D+03 -.218868202707282D+02 0.186783625396483D+02 -.131302909164770D+03
 0.583793481571966D+02 -.554060232562839D+02 0.112954081977966D+02 -.145167018233641D+02
 0.144394681723640D+03 -.647276474897704D+02 -.705441595325620D+02 0.580381423923585D+02
 0.000000000000000D+00 0.000000000000000D+00 0.000000000000000D+00 -.000000000000000D+00
 0.398459431469993D+03 0.000000000000000D+00 0.000000000000000D+00 0.398459431469993D+03
 0.567100737982272D+03 0.000000000000000D+00 0.000000000000000D+00 -.567100737982272D+03
 0.152049632278001D+03 0.793543611320560D+02 -.283043896307133D+02 0.877814685957758D+02
 0.155865775396453D+03 -.743761028670631D+02 -.390112971729182D+02 -.131302909164770D+03
 0.842213835273995D+02 -.811911152742541D+02 -.170443425207203D+02 -.145167018233641D+02
 0.222315352102629D+03 -.131036227077127D+03 -.143422263465446D+03 0.580381423923585D+02
 0.351108026147783D+03 0.207249084086388D+03 0.227782292789798D+03 -.168641306512279D+03
0.881256278181D-05 0.000000000000D+00 0.000000000000D+00 0.740685523094D-09 0.000000000000D+00  7 1 -1 23 -11 11 23 21 0 0.31984003D+00 0.52303233D-02 0.38243582D+05 0.38243582D+05 0.38243582D+05 0.11576779D+01  1  2  2  2  7  2       -1 0.473203045145D-03 0.100000000000D+01
-.433452986206D-06 0.000000000000D+00 -.338425614832D-07 0.740685523094D-09 0.000000000000D+00  7 1 -1 23 -11 11 23 21 2 0.31984003D+00 0.52303233D-02 0.38243582D+05 0.38243582D+05 0.38243582D+05 0.11576779D+01  1  2  3  2  7  2       -1 -.311934035248D-04 0.100000000000D+01
0.536886444650D-06 0.000000000000D+00 0.000000000000D+00 0.740685523094D-09 0.000000000000D+00  7 1 -1 23 -11 11 23 21 2 0.31984003D+00 0.52303233D-02 0.38243582D+05 0.38243582D+05 0.38243582D+05 0.11576779D+01  1  2 15  2  7  2       -1 0.386369826669D-04 0.100000000000D+01
0.283669745889D-05 0.000000000000D+00 -.304410633237D-05 0.740685523094D-09 0.000000000000D+00  7 1 -1 23 -11 11 23 21 2 0.31984003D+00 0.18922538D-01 0.38243582D+05 0.38243582D+05 0.38243582D+05 0.11576779D+01  1  2  5  2  7  2       -1 0.289037995902D-04 0.100000000000D+01
0.512052238911D-06 0.000000000000D+00 -.460419411908D-06 0.740685523094D-09 0.000000000000D+00  7 1 21 23 -11 11 23 1 2 0.31984003D+00 0.18922538D-01 0.38243582D+05 0.38243582D+05 0.38243582D+05 0.11576779D+01  1  2  5  4  7  2       -1 0.655052758506D-04 0.100000000000D+01
  </mgrwgt>
  </event>
  <event>
  8     66 0.56006291E-06 0.18139216E+03 0.75467711E-02 0.10586924E+00
        3 -1    0    0  501    0 0.00000000E+00 0.00000000E+00 0.10103559E+04 0.10103560E+04 0.50000000E+00 0.0000E+00 0.9000E+01
       -3 -1    0    0    0  501 0.00000000E+00 0.00000000E+00 -.44882415E+02 0.44885200E+02 0.50000000E+00 0.0000E+00 0.9000E+01
       25  2    1    2    0    0 0.60072561E+02 0.44007338E+02 0.75305967E+03 0.81272677E+03 0.29644661E+03 0.0000E+00 0.0000E+00
       23  2    1    2    0    0 -.60072561E+02 -.44007338E+02 0.21241379E+03 0.24251442E+03 0.90267751E+02 0.0000E+00 0.0000E+00
       23  1    3    3    0    0 -.68387702E+02 -.16497336E+02 0.16705893E+03 0.20291126E+03 0.91188000E+02 0.0000E+00 0.9000E+01
      -11  1    4    4    0    0 -.61145918E+02 -.36366422E+02 0.22028729E+03 0.23149046E+03 0.51099893E-03 0.0000E+00 0.9000E+01
       11  1    4    4    0    0 0.10733569E+01 -.76409160E+01 -.78735034E+01 0.11023962E+02 0.51099893E-03 0.0000E+00 0.9000E+01
       23  1    3    3    0    0 0.12846026E+03 0.60504674E+02 0.58600073E+03 0.60981552E+03 0.91188000E+02 0.0000E+00 0.9000E+01
#aMCatNLO 1  0  0  2  1 0.48661047D+02 0.00000000D+00  -5  7  0 0.00000000D+00 0.00000000D+00 0.00000000D+00 0.00000000D+00 0.00000000D+00
  <mgrwgt>
 0.5599512735D-04    4    2    0
 0.212952449633796D+03 0.000000000000000D+00 0.000000000000000D+00 0.212952449633796D+03
 0.212952449633796D+03 0.000000000000000D+00 0.000000000000000D+00 -.212952449633796D+03
 0.124040253983702D+03 -.683877018025167D+02 -.164973356537326D+02 -.460618434589778D+02
 0.741872932058259D+02 -.611459183222720D+02 -.363664223629149D+02 0.210336509017174D+02
 0.451617201805975D+02 0.107335677742834D+01 -.764091613599760D+01 -.444976996652814D+02
 0.182515631897466D+03 0.128460263347360D+03 0.605046741526450D+02 0.695258922225418D+02
 0.000000000000000D+00 0.000000000000000D+00 -.000000000000000D+00 0.000000000000000D+00
 0.300497449521607D+03 0.000000000000000D+00 0.000000000000000D+00 0.300497449521607D+03
 0.221208538050919D+03 0.000000000000000D+00 0.000000000000000D+00 -.221208538050919D+03
 0.130936089071740D+03 -.813021005870928D+02 -.986321928629021D+01 -.460618434589778D+02
 0.789855341232985D+02 -.689040301195661D+02 -.323810865131078D+02 0.210336509017174D+02
 0.449475429082914D+02 -.349062333056607D+01 -.529640319039393D+01 -.444976996652814D+02
 0.173806563006234D+03 0.110412757976318D+03 0.697756632842901D+02 0.695258922225418D+02
 0.930302584629623D+02 0.432839960609071D+02 -.222349542944983D+02 0.792889114706875D+02
0.393685742081D-05 0.000000000000D+00 0.000000000000D+00 0.320423906177D-08 0.000000000000D+00  7 3 -3 23 -11 11 23 21 0 0.15543959D+00 0.69052106D-02 0.32903114D+05 0.32903114D+05 0.32903114D+05 0.11636321D+01  1  2  2  2  7  2       -3 0.610100360273D-04 0.100000000000D+01
-.211871898975D-06 0.000000000000D+00 -.151185690943D-07 0.320423906177D-08 0.000000000000D+00  7 3 -3 23 -11 11 23 21 2 0.15543959D+00 0.69052106D-02 0.32903114D+05 0.32903114D+05 0.32903114D+05 0.11636321D+01  1  2  3  2  7  2       -3 -.444586581326D-05 0.100000000000D+01
0.250184791577D-06 0.000000000000D+00 0.000000000000D+00 0.320423906177D-08 0.000000000000D+00  7 3 -3 23 -11 11 23 21 2 0.15543959D+00 0.69052106D-02 0.32903114D+05 0.32903114D+05 0.32903114D+05 0.11636321D+01  1  2 15  2  7  2       -3 0.524981376601D-05 0.100000000000D+01
-.277303062401D-06 0.000000000000D+00 0.000000000000D+00 0.320423906177D-08 0.000000000000D+00  7 3 -3 23 -11 11 23 21 2 0.15543959D+00 0.69052106D-02 0.32903114D+05 0.32903114D+05 0.32903114D+05 0.11636321D+01  1  2  4  2  7  2       -3 -.581885663463D-05 0.100000000000D+01
  </mgrwgt>
  </event>
  <event>
  8     66 0.56006291E-06 0.44883976E+03 0.75467711E-02 0.91420127E-01
        1 -1    0    0  501    0 0.00000000E+00 0.00000000E+00 0.12356297E+04 0.12356297E+04 0.32000000E+00 0.0000E+00 0.9000E+01
       -1 -1    0    0    0  501 0.00000000E+00 0.00000000E+00 -.16715126E+03 0.16715157E+03 0.32000000E+00 0.0000E+00 0.9000E+01
       25  2    1    2    0    0 -.81135667E+02 -.39088762E+03 0.60958857E+03 0.78779707E+03 0.29941587E+03 0.0000E+00 0.0000E+00
       23  2    1    2    0    0 0.81135667E+02 0.39088762E+03 0.45888984E+03 0.61498421E+03 0.90827114E+02 0.0000E+00 0.0000E+00
       23  1    3    3    0    0 -.31792899E+02 -.70189275E+01 0.16521600E+03 0.19149839E+03 0.91188000E+02 0.0000E+00 0.9000E+01
      -13  1    4    4    0    0 -.76569599E+01 0.13347644E+02 0.17513997E+01 0.15487646E+02 0.10565837E+00 0.0000E+00 0.9000E+01
       13  1    4    4    0    0 0.88792627E+02 0.37753998E+03 0.45713844E+03 0.59949657E+03 0.10565837E+00 0.0000E+00 0.9000E+01
       23  1    3    3    0    0 -.49342768E+02 -.38386870E+03 0.44437257E+03 0.59629868E+03 0.91188000E+02 0.0000E+00 0.9000E+01
#aMCatNLO 1  0  0  1  1 0.36856836D+03 0.00000000D+00  -5  7  0 0.00000000D+00 0.00000000D+00 0.00000000D+00 0.00000000D+00 0.00000000D+00
  <mgrwgt>
 0.3620278013D-03    3    2    0
 0.454463750717415D+03 0.000000000000000D+00 0.000000000000000D+00 0.454463750717415D+03
 0.454463750717415D+03 0.000000000000000D+00 0.000000000000000D+00 -.454463750717415D+03
 0.101328897376417D+03 -.317928990799781D+02 -.701892753152468D+01 0.298703920951498D+02
 0.218433235029303D+02 -.765709035411864D+01 0.133471508332738D+02 -.155033323384480D+02
 0.387842214276413D+03 0.887927570792792D+02 0.377540472936186D+03 0.787883374576719D+00
 0.397913066279069D+03 -.493427676451825D+02 -.383868696237935D+03 -.151549431312785D+02
 0.000000000000000D+00 -.000000000000000D+00 -.000000000000000D+00 -.000000000000000D+00
 0.601796625749566D+03 0.000000000000000D+00 0.000000000000000D+00 0.601796625749566D+03
 0.795284631936068D+03 0.000000000000000D+00 0.000000000000000D+00 -.795284631936068D+03
 0.105693563146033D+03 -.292604939045577D+02 0.332785384151366D+02 0.298703920951498D+02
 0.287776956529346D+02 -.703786802156664D+01 0.232006652320051D+02 -.155033323384480D+02
 0.573564230733799D+03 0.100553175011141D+03 0.564680763805729D+03 0.787883374576719D+00
 0.272776335057495D+03 -.411385500604914D+02 -.253317241854965D+03 -.151549431312785D+02
 0.416269433095373D+03 -.231162630245252D+02 -.367842725597906D+03 -.193488006186501D+03
0.227478722448D-04 0.000000000000D+00 0.000000000000D+00 0.761074425977D-06 0.000000000000D+00  7 1 -1 23 -13 13 23 21 0 0.19009690D+00 0.25715605D-01 0.20145713D+06 0.20145713D+06 0.20145713D+06 0.10975833D+01  1  2  2  1  7  1        1 0.358370816187D-03 0.100000000000D+01
-.126353242459D-05 0.000000000000D+00 -.873578190723D-07 0.761074425977D-06 0.000000000000D+00  7 1 -1 23 -13 13 23 21 2 0.19009690D+00 0.25715605D-01 0.20145713D+06 0.20145713D+06 0.20145713D+06 0.10975833D+01  1  2  3  1  7  1        1 -.239802250510D-04 0.100000000000D+01
0.145622115847D-05 0.000000000000D+00 0.000000000000D+00 0.761074425977D-06 0.000000000000D+00  7 1 -1 23 -13 13 23 21 2 0.19009690D+00 0.25715605D-01 0.20145713D+06 0.20145713D+06 0.20145713D+06 0.10975833D+01  1  2 15  1  7  1        1 0.276372101139D-04 0.100000000000D+01
  </mgrwgt>
  </event>
  <event>
  8     66 0.56006291E-06 0.17527412E+03 0.75467711E-02 0.10739207E+00
        1 -1    0    0  501    0 0.00000000E+00 0.00000000E+00 0.11129624E+03 0.11129670E+03 0.32000000E+00 0.0000E+00 0.9000E+01
       -1 -1    0    0    0  501 0.00000000E+00 0.00000000E+00 -.60205129E+03 0.60205137E+03 0.32000000E+00 0.0000E+00 0.9000E+01
       25  2    1    2    0    0 -.37662568E+01 -.51461961E+02 -.52264751E+03 0.60495539E+03 0.30024670E+03 0.0000E+00 0.0000E+00
       23  2    1    2    0    0 0.37662568E+01 0.51461961E+02 0.31892461E+02 0.10839268E+03 0.89829430E+02 0.0000E+00 0.0000E+00
       23  1    3    3    0    0 0.72264051E+02 0.62859624E+02 -.30076737E+03 0.32855698E+03 0.91188000E+02 0.0000E+00 0.9000E+01
      -11  1    4    4    0    0 -.45003236E+01 0.32348013E+02 0.62997481E+02 0.70960055E+02 0.51099893E-03 0.0000E+00 0.9000E+01
       11  1    4    4    0    0 0.82665804E+01 0.19113949E+02 -.31105020E+02 0.37432628E+02 0.51099893E-03 0.0000E+00 0.9000E+01
       23  1    3    3    0    0 -.76030307E+02 -.11432159E+03 -.22188014E+03 0.27639841E+03 0.91188000E+02 0.0000E+00 0.9000E+01
#aMCatNLO 1  0  0  2  1 0.18637583D+02 0.00000000D+00  -5  7  0 0.00000000D+00 0.00000000D+00 0.00000000D+00 0.00000000D+00 0.00000000D+00
  <mgrwgt>
 0.1251796126D-03    4    2    0
 0.258855630582194D+03 0.000000000000000D+00 0.000000000000000D+00 0.258855630582194D+03
 0.258855630582194D+03 0.000000000000000D+00 0.000000000000000D+00 -.258855630582194D+03
 0.167607673072297D+03 0.722640507203911D+02 0.628596238506236D+02 -.102974052030348D+03
 0.157492324833591D+03 -.450032362931471D+01 0.323480126318617D+02 0.154068768890680D+03
 0.220925220472158D+02 0.826658038447393D+01 0.191139488155643D+02 -.737564504499344D+01
 0.170518741211283D+03 -.760303074755503D+02 -.114321585298050D+03 -.437190718153379D+02
 0.000000000000000D+00 0.000000000000000D+00 -.000000000000000D+00 0.000000000000000D+00
 0.292657581290249D+03 0.000000000000000D+00 0.000000000000000D+00 0.292657581290249D+03
 0.261605201384556D+03 0.000000000000000D+00 0.000000000000000D+00 -.261605201384556D+03
 0.166215058533965D+03 0.667417755113267D+02 0.652232654004402D+02 -.102974052030348D+03
 0.158201518806234D+03 -.972270102104579D+01 0.345832920637264D+02 0.154068768890680D+03
 0.221040057170296D+02 0.753545764629237D+01 0.194268836144575D+02 -.737564504499344D+01
 0.171526045588558D+03 -.816885963447528D+02 -.111899727247556D+03 -.437190718153379D+02
 0.362161540290177D+02 0.171340642081795D+02 -.733371383106780D+01 0.310523799056936D+02
0.329238815001D-05 0.000000000000D+00 0.000000000000D+00 0.197971226210D-06 0.000000000000D+00  7 1 -1 23 -11 11 23 21 0 0.17122540D-01 0.92623317D-01 0.30721016D+05 0.30721016D+05 0.30721016D+05 0.11663801D+01  1  2  2  2  7  2       -1 0.158963255563D-03 0.100000000000D+01
-.149098547937D-06 0.000000000000D+00 -.126436374018D-07 0.197971226210D-06 0.000000000000D+00  7 1 -1 23 -11 11 23 21 2 0.17122540D-01 0.92623317D-01 0.30721016D+05 0.30721016D+05 0.30721016D+05 0.11663801D+01  1  2  3  2  7  2       -1 -.979353254239D-05 0.100000000000D+01
0.206621241225D-06 0.000000000000D+00 0.000000000000D+00 0.197971226210D-06 0.000000000000D+00  7 1 -1 23 -11 11 23 21 2 0.17122540D-01 0.92623317D-01 0.30721016D+05 0.30721016D+05 0.30721016D+05 0.11663801D+01  1  2 15  2  7  2       -1 0.135719084987D-04 0.100000000000D+01
-.571851113132D-06 0.000000000000D+00 0.000000000000D+00 0.197971226210D-06 0.000000000000D+00  7 1 -1 23 -11 11 23 21 2 0.17122540D-01 0.92623317D-01 0.30721016D+05 0.30721016D+05 0.30721016D+05 0.11663801D+01  1  2  4  2  7  2       -1 -.375620189691D-04 0.100000000000D+01
  </mgrwgt>
  </event>
  <event>
  8     66 0.56006291E-06 0.23972440E+03 0.75467711E-02 0.92534589E-01
        1 -1    0    0  501    0 0.00000000E+00 0.00000000E+00 0.28372576E+03 0.28372594E+03 0.32000000E+00 0.0000E+00 0.9000E+01
       -1 -1    0    0    0  501 0.00000000E+00 0.00000000E+00 -.65082564E+03 0.65082572E+03 0.32000000E+00 0.0000E+00 0.9000E+01
       25  2    1    2    0    0 -.92027151E+02 -.11110405E+03 0.16787702E+03 0.37301375E+03 0.30023899E+03 0.0000E+00 0.0000E+00
       23  2    1    2    0    0 0.92027151E+02 0.11110405E+03 -.53497691E+03 0.56153791E+03 0.91167038E+02 0.0000E+00 0.0000E+00
       23  1    3    3    0    0 -.13385713E+03 -.15411049E+03 0.12108819E+03 0.25425455E+03 0.91188000E+02 0.0000E+00 0.9000E+01
      -13  1    4    4    0    0 0.47369838E+02 0.36594252E+02 -.37267154E+03 0.37744818E+03 0.10565837E+00 0.0000E+00 0.9000E+01
       13  1    4    4    0    0 0.44657314E+02 0.74509803E+02 -.16230537E+03 0.18408973E+03 0.10565837E+00 0.0000E+00 0.9000E+01
       23  1    3    3    0    0 0.41829980E+02 0.43006436E+02 0.46788828E+02 0.11875920E+03 0.91188000E+02 0.0000E+00 0.9000E+01
#aMCatNLO 1  0  0  2  1 0.52180999D+03 0.00000000D+00  -5  7  0 0.00000000D+00 0.00000000D+00 0.00000000D+00 0.00000000D+00 0.00000000D+00
  <mgrwgt>
 0.1969065127D-03    3    2    0
 0.429716323548144D+03 0.000000000000000D+00 0.000000000000000D+00 0.429716323548144D+03
 0.429716323548144D+03 0.000000000000000D+00 0.000000000000000D+00 -.429716323548144D+03
 0.328199625316222D+03 -.133857130890425D+03 -.154110490633198D+03 0.240274775830272D+03
 0.251255617372334D+03 0.473698412231814D+02 0.365942011041850D+02 -.244021203687691D+03
 0.130852540147170D+03 0.446573098931679D+02 0.745098538419522D+02 -.978590497425923D+02
 0.149124864260563D+03 0.418299797740758D+02 0.430064356870611D+02 0.101605477600012D+03
 0.000000000000000D+00 -.000000000000000D+00 -.000000000000000D+00 0.000000000000000D+00
 0.168226100701806D+04 0.000000000000000D+00 0.000000000000000D+00 0.168226100701806D+04
 0.560430232120811D+03 0.000000000000000D+00 0.000000000000000D+00 -.560430232120811D+03
 0.260022087510150D+03 -.266474924743839D+02 -.292263219320592D+02 0.240274775830272D+03
 0.329533483564941D+03 0.153224807385986D+03 0.159900366925104D+03 -.244021203687691D+03
 0.205069714795254D+03 0.105882699406984D+03 0.145828832114826D+03 -.978590497425923D+02
 0.210814986690368D+03 0.107432830587853D+03 0.119424541459514D+03 0.101605477600012D+03
 0.123725096657816D+04 -.339892844906439D+03 -.395927418567385D+03 0.112183077489725D+04
0.156581697009D-04 0.000000000000D+00 0.000000000000D+00 0.181625957869D-05 0.000000000000D+00  7 1 -1 23 -13 13 23 21 0 0.43650136D-01 0.10012704D+00 0.57467787D+05 0.57467787D+05 0.57467787D+05 0.11420155D+01  1  2  2  2  7  2       -1 0.189872576920D-03 0.100000000000D+01
-.509624106495D-06 0.000000000000D+00 -.601314945422D-07 0.181625957869D-05 0.000000000000D+00  7 1 -1 23 -13 13 23 21 2 0.43650136D-01 0.10012704D+00 0.57467787D+05 0.57467787D+05 0.57467787D+05 0.11420155D+01  1  2  3  2  7  2       -1 -.805963200377D-05 0.100000000000D+01
0.954391715105D-06 0.000000000000D+00 0.000000000000D+00 0.181625957869D-05 0.000000000000D+00  7 1 -1 23 -13 13 23 21 2 0.43650136D-01 0.10012704D+00 0.57467787D+05 0.57467787D+05 0.57467787D+05 0.11420155D+01  1  2 15  2  7  2       -1 0.150935678143D-04 0.100000000000D+01
  </mgrwgt>
  </event>
  <event>
  8     66 0.56006291E-06 0.32250872E+03 0.75467711E-02 0.95224946E-01
        1 -1    0    0  501    0 0.00000000E+00 0.00000000E+00 0.14861935E+04 0.14861935E+04 0.32000000E+00 0.0000E+00 0.9000E+01
       -1 -1    0    0    0  501 0.00000000E+00 0.00000000E+00 -.79613368E+02 0.79614011E+02 0.32000000E+00 0.0000E+00 0.9000E+01
       25  2    1    2    0    0 0.26702441E+03 -.16886238E+02 0.91502228E+03 0.99930556E+03 0.29959749E+03 0.0000E+00 0.0000E+00
       23  2    1    2    0    0 -.26702441E+03 0.16886238E+02 0.49155785E+03 0.56650198E+03 0.87796293E+02 0.0000E+00 0.0000E+00
       23  1    3    3    0    0 0.15607260E+03 0.77752009E+02 0.68112388E+03 0.70897745E+03 0.91188000E+02 0.0000E+00 0.9000E+01
      -13  1    4    4    0    0 -.28732843E+02 -.20156083E+02 0.10677291E+03 0.11239355E+03 0.10565837E+00 0.0000E+00 0.9000E+01
       13  1    4    4    0    0 -.23829157E+03 0.37042320E+02 0.38478494E+03 0.45410843E+03 0.10565837E+00 0.0000E+00 0.9000E+01
       23  1    3    3    0    0 0.11095181E+03 -.94638247E+02 0.23389840E+03 0.29032812E+03 0.91188000E+02 0.0000E+00 0.9000E+01
#aMCatNLO 1  0  0  1  1 0.25304380D+03 0.00000000D+00  -5  7  0 0.00000000D+00 0.00000000D+00 0.00000000D+00 0.00000000D+00 0.00000000D+00
  <mgrwgt>
 0.2653798409D-03    3    2    0
 0.343978778455877D+03 0.000000000000000D+00 0.000000000000000D+00 0.343978778455877D+03
 0.343978778455877D+03 0.000000000000000D+00 0.000000000000000D+00 -.343978778455877D+03
 0.221041140054466D+03 0.156072603990439D+03 0.777520093368734D+02 0.100697078310647D+03
 0.375049322246311D+02 -.287325398992532D+02 -.201561650152866D+02 0.132208208515407D+02
 0.246840466643709D+03 -.238291873705588D+03 0.370424027588303D+02 -.526788315798340D+02
 0.182571017988948D+03 0.110951809614403D+03 -.946382470804172D+02 -.612390675823536D+02
 0.000000000000000D+00 -.000000000000000D+00 -.000000000000000D+00 -.000000000000000D+00
 0.419060820573262D+03 0.000000000000000D+00 0.000000000000000D+00 0.419060820573262D+03
 0.671121825747207D+03 0.000000000000000D+00 0.000000000000000D+00 -.671121825747207D+03
 0.299242917297096D+03 0.233793340372265D+03 0.128186756826728D+03 0.100697078310647D+03
 0.270604352349276D+02 -.190876779573673D+02 -.138973954866017D+02 0.132208208515407D+02
 0.196901031639305D+03 -.172005168352196D+03 0.800573483456618D+02 -.526788315798340D+02
 0.209814554221849D+03 0.169566897251463D+03 -.566015881179051D+02 -.612390675823536D+02
 0.357163707927291D+03 -.212267391314164D+03 -.137745121567882D+03 -.252061005173946D+03
0.743171354225D-05 0.000000000000D+00 0.000000000000D+00 0.478337035745D-07 0.000000000000D+00  7 1 -1 23 -13 13 23 21 0 0.22864521D+00 0.12248263D-01 0.10401188D+06 0.10401188D+06 0.10401188D+06 0.11203229D+01  1  2  2  1  7  1        1 0.263032547059D-03 0.100000000000D+01
-.410787807850D-06 0.000000000000D+00 -.285397368174D-07 0.478337035745D-07 0.000000000000D+00  7 1 -1 23 -13 13 23 21 2 0.22864521D+00 0.12248263D-01 0.10401188D+06 0.10401188D+06 0.10401188D+06 0.11203229D+01  1  2  3  1  7  1        1 -.182483871952D-04 0.100000000000D+01
0.463627529406D-06 0.000000000000D+00 0.000000000000D+00 0.478337035745D-07 0.000000000000D+00  7 1 -1 23 -13 13 23 21 2 0.22864521D+00 0.12248263D-01 0.10401188D+06 0.10401188D+06 0.10401188D+06 0.11203229D+01  1  2 15  1  7  1        1 0.205956810530D-04 0.100000000000D+01
  </mgrwgt>
  </event>
  <event>
  8     66 0.56006291E-06 0.27512359E+03 0.75467711E-02 0.95716851E-01
        1 -1    0    0  501    0 0.00000000E+00 0.00000000E+00 0.12566519E+04 0.12566519E+04 0.32000000E+00 0.0000E+00 0.9000E+01
       -1 -1    0    0    0  501 0.00000000E+00 0.00000000E+00 -.10030430E+03 0.10030481E+03 0.32000000E+00 0.0000E+00 0.9000E+01
       25  2    1    2    0    0 0.18618250E+03 -.61577019E+02 0.10608527E+04 0.11197224E+04 0.29985677E+03 0.0000E+00 0.0000E+00
       23  2    1    2    0    0 -.18618250E+03 0.61577019E+02 0.95494875E+02 0.23723435E+03 0.93301720E+02 0.0000E+00 0.0000E+00
       23  1    3    3    0    0 -.18638837E+02 -.80351905E+02 0.51173882E+03 0.52630382E+03 0.91188000E+02 0.0000E+00 0.9000E+01
      -13  1    4    4    0    0 -.11916555E+03 0.63950019E+02 0.20761139E+02 0.13682496E+03 0.10565837E+00 0.0000E+00 0.9000E+01
       13  1    4    4    0    0 -.67016956E+02 -.23729999E+01 0.74733736E+02 0.10040939E+03 0.10565837E+00 0.0000E+00 0.9000E+01
       23  1    3    3    0    0 0.20482134E+03 0.18774886E+02 0.54911390E+03 0.59341858E+03 0.91188000E+02 0.0000E+00 0.9000E+01
#aMCatNLO 1  0  0  1  1 0.32239151D+03 0.00000000D+00  -5  7  0 0.00000000D+00 0.00000000D+00 0.00000000D+00 0.00000000D+00 0.00000000D+00
  <mgrwgt>
 0.1657826608D-03    5    2    0
 0.355032332488789D+03 0.000000000000000D+00 0.000000000000000D+00 0.355032332488789D+03
 0.355032332488789D+03 0.000000000000000D+00 0.000000000000000D+00 -.355032332488789D+03
 0.172411839897093D+03 -.186388371355054D+02 -.803519054498196D+02 0.120858413995552D+03
 0.227667428302303D+03 -.119165615464427D+03 0.639501032241806D+02 -.183145838878161D+03
 0.701807650218031D+02 -.670168881551258D+02 -.237308376238549D+01 -.206989119159823D+02
 0.239804631756378D+03 0.204821340755058D+03 0.187748859880245D+02 0.829863367985909D+02
 0.000000000000000D+00 -.000000000000000D+00 0.000000000000000D+00 0.000000000000000D+00
 0.722386717809711D+03 0.000000000000000D+00 0.000000000000000D+00 0.722386717809711D+03
 0.468066571768606D+03 0.000000000000000D+00 0.000000000000000D+00 -.468066571768606D+03
 0.186332604060549D+03 0.581482795228330D+02 -.917420805682953D+02 0.120858413995552D+03
 0.192255206365470D+03 -.292836705902690D+02 0.506175138959335D+02 -.183145838878161D+03
 0.471354097715637D+02 -.419060580043126D+02 -.609788507327052D+01 -.206989119159823D+02
 0.354102474220408D+03 0.331943627940195D+03 -.817292296355312D-01 0.829863367985909D+02
 0.410627595160325D+03 -.318902178868446D+03 0.473041809752678D+02 0.254320146041105D+03
0.471372834158D-05 0.000000000000D+00 0.000000000000D+00 0.344787126781D-06 0.000000000000D+00  7 1 -1 23 -13 13 23 21 0 0.19333110D+00 0.15431472D-01 0.75692988D+05 0.75692988D+05 0.75692988D+05 0.11317841D+01  1  2  2  1  7  1        1 0.167112695607D-03 0.100000000000D+01
-.241171687633D-06 0.000000000000D+00 -.181019579848D-07 0.344787126781D-06 0.000000000000D+00  7 1 -1 23 -13 13 23 21 2 0.19333110D+00 0.15431472D-01 0.75692988D+05 0.75692988D+05 0.75692988D+05 0.11317841D+01  1  2  3  1  7  1        1 -.109521258824D-04 0.100000000000D+01
0.306950013969D-06 0.000000000000D+00 0.000000000000D+00 0.344787126781D-06 0.000000000000D+00  7 1 -1 23 -13 13 23 21 2 0.19333110D+00 0.15431472D-01 0.75692988D+05 0.75692988D+05 0.75692988D+05 0.11317841D+01  1  2 15  1  7  1        1 0.139392613851D-04 0.100000000000D+01
-.104142946176D-05 0.000000000000D+00 -.130779886489D-05 0.344787126781D-06 0.000000000000D+00  7 1 -1 23 -13 13 23 21 2 0.43299213D+00 0.15431472D-01 0.75692988D+05 0.75692988D+05 0.75692988D+05 0.11317841D+01  1  2  5  1  7  1        1 -.430722485870D-05 0.100000000000D+01
-.851561241668D-08 0.000000000000D+00 -.114459835784D-06 0.344787126781D-06 0.000000000000D+00  7 21 -1 23 -13 13 23 -1 2 0.43299213D+00 0.15431472D-01 0.75692988D+05 0.75692988D+05 0.75692988D+05 0.11317841D+01  1  2  5  3  7  1        1 -.994546543519D-08 0.100000000000D+01
  </mgrwgt>
  </event>
  <event>
  8     66 0.56006291E-06 0.18401555E+03 0.75467711E-02 0.10061785E+00
        1 -1    0    0  501    0 0.00000000E+00 0.00000000E+00 0.22149494E+03 0.22149517E+03 0.32000000E+00 0.0000E+00 0.9000E+01
       -1 -1    0    0    0  501 0.00000000E+00 0.00000000E+00 -.45748270E+03 0.45748281E+03 0.32000000E+00 0.0000E+00 0.9000E+01
       25  2    1    2    0    0 0.18669814E+03 0.14553580E+03 -.15311582E+03 0.41195759E+03 0.30037931E+03 0.0000E+00 0.0000E+00
       23  2    1    2    0    0 -.18669814E+03 -.14553580E+03 -.82871946E+02 0.26702040E+03 0.91625690E+02 0.0000E+00 0.0000E+00
       23  1    3    3    0    0 0.68747288E+02 0.16799116E+03 -.89117869E+01 0.20332705E+03 0.91188000E+02 0.0000E+00 0.9000E+01
      -13  1    4    4    0    0 0.45715270E+01 -.89396168E+01 0.10119243E+02 0.14255731E+02 0.10565837E+00 0.0000E+00 0.9000E+01
       13  1    4    4    0    0 -.19126967E+03 -.13659619E+03 -.92991190E+02 0.25276467E+03 0.10565837E+00 0.0000E+00 0.9000E+01
       23  1    3    3    0    0 0.11795085E+03 -.22455351E+02 -.14420403E+03 0.20863054E+03 0.91188000E+02 0.0000E+00 0.9000E+01
#aMCatNLO 1  0  0  2  1 0.93772829D+01 0.00000000D+00  -5  7  0 0.00000000D+00 0.00000000D+00 0.00000000D+00 0.00000000D+00 0.00000000D+00
  <mgrwgt>
 0.3478334441D-03   11    2    0
 0.318324079461510D+03 0.000000000000000D+00 0.000000000000000D+00 0.318324079461510D+03
 0.318324079461510D+03 0.000000000000000D+00 0.000000000000000D+00 -.318324079461510D+03
 0.213542623020141D+03 0.687472882079776D+02 0.167991155448606D+03 0.658633627854952D+02
 0.189542078886526D+02 0.457178691506390D+01 -.893944716385167D+01 0.160762882996733D+02
 0.235101668859433D+03 -.191269929702275D+03 -.136596356936179D+03 -.548123744616747D+01
 0.169049659154794D+03 0.117950854579233D+03 -.224553513485749D+02 -.764584136390010D+02
 0.000000000000000D+00 -.000000000000000D+00 0.000000000000000D+00 -.000000000000000D+00
 0.321881670672393D+03 0.000000000000000D+00 0.000000000000000D+00 0.321881670672393D+03
 0.324598449642625D+03 0.000000000000000D+00 0.000000000000000D+00 -.324598449642625D+03
 0.213763232141058D+03 0.717396785122040D+02 0.167017675833858D+03 0.658633627854952D+02
 0.190610325826751D+02 0.483800474387489D+01 -.902605272097564D+01 0.160762882996733D+02
 0.233070543028531D+03 -.187991355419614D+03 -.137662937463826D+03 -.548123744616747D+01
 0.170822407104601D+03 0.120330952730166D+03 -.232296410619720D+02 -.764584136390010D+02
 0.976290545815286D+01 -.891728056663092D+01 0.290095541291519D+01 -.271677897023212D+01
0.475250279046D-05 0.000000000000D+00 0.000000000000D+00 0.419402752827D-06 0.000000000000D+00  7 1 -1 23 -13 13 23 21 0 0.34076171D-01 0.70381981D-01 0.89694589D+05 0.89694589D+05 0.89694589D+05 0.11256189D+01  1  2  2  2  7  2       -1 0.162182777235D-03 0.100000000000D+01
-.262833923650D-06 0.000000000000D+00 -.182508620781D-07 0.419402752827D-06 0.000000000000D+00  7 1 -1 23 -13 13 23 21 2 0.34076171D-01 0.70381981D-01 0.89694589D+05 0.89694589D+05 0.89694589D+05 0.11256189D+01  1  2  3  2  7  2       -1 -.113643993279D-04 0.100000000000D+01
0.313719621764D-06 0.000000000000D+00 0.000000000000D+00 0.419402752827D-06 0.000000000000D+00  7 1 -1 23 -13 13 23 21 2 0.34076171D-01 0.70381981D-01 0.89694589D+05 0.89694589D+05 0.89694589D+05 0.11256189D+01  1  2 15  2  7  2       -1 0.135645924590D-04 0.100000000000D+01
0.530225173341D-05 0.000000000000D+00 0.000000000000D+00 0.419402752827D-06 0.000000000000D+00  7 1 -1 23 -13 13 23 21 2 0.34076171D-01 0.72156451D-01 0.92642269D+05 0.92642269D+05 0.92642269D+05 0.11244560D+01  1  2 12  2  7  2       -1 0.217875691425D-03 0.100000000000D+01
-.479611605754D-05 0.000000000000D+00 0.000000000000D+00 0.419402752827D-06 0.000000000000D+00  7 1 -1 23 -13 13 23 21 2 0.34076171D-01 0.70381981D-01 0.89694589D+05 0.89694589D+05 0.89694589D+05 0.11256189D+01  1  2  4  2  7  2       -1 -.207374213130D-03 0.100000000000D+01
-.154528983725D-03 0.000000000000D+00 -.201616320226D-04 0.419402752827D-06 0.000000000000D+00  7 1 -1 23 -13 13 23 21 2 0.34076171D-01 0.72430966D-01 0.89694589D+05 0.89694589D+05 0.89694589D+05 0.11256189D+01  1  2  5  2  7  2       -1 -.631884578896D-02 0.100000000000D+01
0.155052006618D-03 0.000000000000D+00 0.201533333488D-04 0.419402752827D-06 0.000000000000D+00  7 1 -1 23 -13 13 23 21 2 0.34076171D-01 0.70381981D-01 0.89694589D+05 0.89694589D+05 0.89694589D+05 0.11256189D+01  1  2  6  2  7  2       -1 0.670413048409D-02 0.100000000000D+01
0.738446138847D-09 0.000000000000D+00 0.000000000000D+00 0.419402752827D-06 0.321735470158D-07  7 1 -1 23 -13 13 23 21 2 0.34457006D-01 0.71769254D-01 0.92642269D+05 0.92642269D+05 0.92642269D+05 0.11244560D+01  1  2 11  2  7  2       -1 0.302244749700D-07 0.100000000000D+01
0.151669373331D-06 0.000000000000D+00 0.000000000000D+00 0.419402752827D-06 0.000000000000D+00  7 1 21 23 -13 13 23 1 2 0.34076171D-01 0.72156451D-01 0.92642269D+05 0.92642269D+05 0.92642269D+05 0.11244560D+01  1  2 12  4  7  2       -1 0.507276345647D-04 0.100000000000D+01
-.790799871541D-06 0.000000000000D+00 -.103960364891D-06 0.419402752827D-06 0.000000000000D+00  7 1 21 23 -13 13 23 1 2 0.34076171D-01 0.72430966D-01 0.89694589D+05 0.89694589D+05 0.89694589D+05 0.11256189D+01  1  2  5  4  7  2       -1 -.263094820639D-03 0.100000000000D+01
0.378021342072D-11 0.000000000000D+00 0.000000000000D+00 0.419402752827D-06 0.115205311668D-09  7 1 21 23 -13 13 23 1 2 0.34457006D-01 0.71769254D-01 0.92642269D+05 0.92642269D+05 0.92642269D+05 0.11244560D+01  1  2 11  4  7  2       -1 0.126193905336D-08 0.100000000000D+01
  </mgrwgt>
  </event>
  <event>
  8     66 0.56006291E-06 0.22130797E+03 0.75467711E-02 0.97900915E-01
        1 -1    0    0  501    0 0.00000000E+00 0.00000000E+00 0.27090800E+03 0.27090819E+03 0.32000000E+00 0.0000E+00 0.9000E+01
       -1 -1    0    0    0  501 0.00000000E+00 0.00000000E+00 -.32035570E+03 0.32035586E+03 0.32000000E+00 0.0000E+00 0.9000E+01
       25  2    1    2    0    0 -.30164966E+02 0.92952712E+02 0.15156857E+03 0.34993416E+03 0.29988457E+03 0.0000E+00 0.0000E+00
       23  2    1    2    0    0 0.30164966E+02 -.92952712E+02 -.20101627E+03 0.24132989E+03 0.91007919E+02 0.0000E+00 0.0000E+00
       23  1    3    3    0    0 0.89070880E+02 -.14026494E+02 0.39387629E+02 0.13415290E+03 0.91188000E+02 0.0000E+00 0.9000E+01
      -13  1    4    4    0    0 0.57384194E+02 -.83328839E+02 -.13045972E+03 0.16509510E+03 0.10565837E+00 0.0000E+00 0.9000E+01
       13  1    4    4    0    0 -.27219228E+02 -.96238732E+01 -.70556550E+02 0.76234790E+02 0.10565837E+00 0.0000E+00 0.9000E+01
       23  1    3    3    0    0 -.11923585E+03 0.10697921E+03 0.11218094E+03 0.21578126E+03 0.91188000E+02 0.0000E+00 0.9000E+01
#aMCatNLO 1  0  0  2  2 0.26045506D+03 0.00000000D+00  -5  7  0 0.00000000D+00 0.00000000D+00 0.00000000D+00 0.00000000D+00 0.00000000D+00
  <mgrwgt>
 0.2663908099D-03    3    2    0
 0.294596376845577D+03 0.000000000000000D+00 0.000000000000000D+00 0.294596376845577D+03
 0.294596376845577D+03 0.000000000000000D+00 0.000000000000000D+00 -.294596376845577D+03
 0.137930099533173D+03 0.890708799447849D+02 -.140264941627166D+02 0.507848089550020D+02
 0.154726834077842D+03 0.573843066079007D+02 -.833289381809959D+02 -.117062900188362D+03
 0.705812554813083D+02 -.272193406622891D+02 -.962377455492281D+01 -.644065531024910D+02
 0.225954564598831D+03 -.119235845890396D+03 0.106979206898635D+03 0.130684644335851D+03
 0.000000000000000D+00 -.000000000000000D+00 0.000000000000000D+00 0.000000000000000D+00
 0.148144778270960D+04 0.000000000000000D+00 0.000000000000000D+00 0.148144778270960D+04
 0.336724813324841D+03 0.000000000000000D+00 0.000000000000000D+00 -.336724813324841D+03
 0.190461798377519D+03 0.156135973790634D+03 -.316686937692880D+02 0.507848089550020D+02
 0.203074001645405D+03 0.130455374373491D+03 -.102551074303685D+03 -.117062900188362D+03
 0.666157115361394D+02 0.799400137745216D+00 -.169944079138379D+02 -.644065531024910D+02
 0.184041734573042D+03 -.355052774587407D+02 0.849529736268484D+02 0.130684644335851D+03
 0.117397934990234D+04 -.251885470843129D+03 0.662612023599626D+02 0.114472296938476D+04
0.512877814982D-05 0.000000000000D+00 0.000000000000D+00 0.751659748885D-06 0.000000000000D+00  7 1 -1 23 -13 13 23 21 0 0.41678181D-01 0.49285519D-01 0.48977217D+05 0.48977217D+05 0.48977217D+05 0.11480857D+01  1  2  2  2  7  2       -1 0.262309626275D-03 0.100000000000D+01
-.256584950890D-06 0.000000000000D+00 -.196958585336D-07 0.751659748885D-06 0.000000000000D+00  7 1 -1 23 -13 13 23 21 2 0.41678181D-01 0.49285519D-01 0.48977217D+05 0.48977217D+05 0.48977217D+05 0.11480857D+01  1  2  3  2  7  2       -1 -.172973726596D-04 0.100000000000D+01
0.317124219762D-06 0.000000000000D+00 0.000000000000D+00 0.751659748885D-06 0.000000000000D+00  7 1 -1 23 -13 13 23 21 2 0.41678181D-01 0.49285519D-01 0.48977217D+05 0.48977217D+05 0.48977217D+05 0.11480857D+01  1  2 15  2  7  2       -1 0.213785562621D-04 0.100000000000D+01
  </mgrwgt>
  </event>
  <event>
  9     66 0.56006291E-06 0.19319293E+03 0.75467711E-02 0.10384706E+00
        3 -1    0    0  501    0 0.00000000E+00 0.00000000E+00 0.17490926E+03 0.17490997E+03 0.50000000E+00 0.0000E+00 0.9000E+01
       21 -1    0    0  502  501 0.00000000E+00 0.00000000E+00 -.12199771E+04 0.12199773E+04 0.75000000E+00 0.0000E+00 0.9000E+01
       25  2    1    2    0    0 -.30545756E+02 -.35652870E+02 -.19125177E+03 0.35924641E+03 0.30046060E+03 0.0000E+00 0.0000E+00
       23  2    1    2    0    0 0.13927469E+02 -.50121596E+02 0.55317622E+02 0.12231852E+03 0.95893857E+02 0.0000E+00 0.0000E+00
       23  1    3    3    0    0 0.52478377E+02 -.10272164E+03 -.38938194E+02 0.15210901E+03 0.91188000E+02 0.0000E+00 0.9000E+01
      -13  1    4    4    0    0 -.80319342E+01 0.23933559E+02 0.33701391E+02 0.42108457E+02 0.10565837E+00 0.0000E+00 0.9000E+01
       13  1    4    4    0    0 0.21959403E+02 -.74055155E+02 0.21616231E+02 0.80210061E+02 0.10565837E+00 0.0000E+00 0.9000E+01
       23  1    3    3    0    0 -.83024134E+02 0.67068772E+02 -.15231358E+03 0.20713740E+03 0.91188000E+02 0.0000E+00 0.9000E+01
        3  1    1    2  502    0 0.16618288E+02 0.85774467E+02 -.90913368E+03 0.91332235E+03 0.50000000E+00 0.0000E+00 0.9000E+01
#aMCatNLO 2  0  0  2  1 0.87369483D+02 0.00000000D+00  -5  7  0 0.00000000D+00 0.00000000D+00 0.00000000D+00 0.00000000D+00 0.00000000D+00
  <mgrwgt>
 0.1257582611D-04    2    2    0
 0.226822210841876D+03 0.000000000000000D+00 0.000000000000000D+00 0.226822210841876D+03
 0.226822210841876D+03 0.000000000000000D+00 0.000000000000000D+00 -.226822210841876D+03
 0.132303029016518D+03 0.575494258388295D+02 -.765475788446581D+02 0.416796132271222D+01
 0.590297579261223D+02 -.598394878188897D+01 0.345042603925570D+02 0.475201082969615D+02
 0.784262610063676D+02 0.250157793695244D+02 -.582800622545596D+02 0.461337570720056D+02
 0.183885373734744D+03 -.765812564264649D+02 0.100323380706661D+03 -.978218266916793D+02
 0.000000000000000D+00 0.000000000000000D+00 0.000000000000000D+00 -.000000000000000D+00
 0.233789900933957D+03 0.000000000000000D+00 0.000000000000000D+00 0.233789900933957D+03
 0.912724528440950D+03 0.000000000000000D+00 0.000000000000000D+00 -.912724528440950D+03
 0.147099737540489D+03 0.524783628718575D+02 -.102721618801413D+03 0.416796132271222D+01
 0.538097669467470D+02 -.803194688457335D+01 0.239336197753636D+02 0.475201082969615D+02
 0.899706533346067D+02 0.219594339847244D+02 -.740552373498842D+02 0.461337570720056D+02
 0.171101105789099D+03 -.830241374768994D+02 0.670687697603907D+02 -.978218266916793D+02
 0.684533165763965D+03 0.166182875048908D+02 0.857744666155428D+02 -.678934627506994D+03
-.154341897288D-05 0.000000000000D+00 0.000000000000D+00 0.902143253712D-08 0.000000000000D+00  7 3 21 23 -13 13 23 3 2 0.26107199D-01 0.18545275D+00 0.56948518D+05 0.56948518D+05 0.56948518D+05 0.11423575D+01  1  2 13  4  7  2       -3 -.259070981736D-04 0.100000000000D+01
0.251736175509D-05 0.000000000000D+00 0.000000000000D+00 0.902143253712D-08 0.325453015844D-11  7 3 21 23 -13 13 23 3 2 0.26909179D-01 0.18768878D+00 0.56948518D+05 0.56948518D+05 0.56948518D+05 0.11423575D+01  1  2  1  4  7  2       -3 0.384829242854D-04 0.100000000000D+01
  </mgrwgt>
  </event>
  <event>
  8     66 0.56006291E-06 0.18449013E+03 0.75467711E-02 0.10473448E+00
        1 -1    0    0  501    0 0.00000000E+00 0.00000000E+00 0.56836812E+03 0.56836821E+03 0.32000000E+00 0.0000E+00 0.9000E+01
       -1 -1    0    0    0  501 0.00000000E+00 0.00000000E+00 -.11946405E+03 0.11946448E+03 0.32000000E+00 0.0000E+00 0.9000E+01
       25  2    1    2    0    0 0.95724274E+02 -.16096084E+02 0.45435731E+03 0.55304734E+03 0.29999762E+03 0.0000E+00 0.0000E+00
       23  2    1    2    0    0 -.95724274E+02 0.16096084E+02 -.54532368E+01 0.13478535E+03 0.93354874E+02 0.0000E+00 0.0000E+00
       23  1    3    3    0    0 0.12952660E+03 0.80028548E+02 0.23357247E+03 0.29334801E+03 0.91188000E+02 0.0000E+00 0.9000E+01
      -13  1    4    4    0    0 -.29982802E+02 0.35657297E+02 0.32111468E+02 0.56582407E+02 0.10565837E+00 0.0000E+00 0.9000E+01
       13  1    4    4    0    0 -.65741472E+02 -.19561213E+02 -.37564705E+02 0.78202944E+02 0.10565837E+00 0.0000E+00 0.9000E+01
       23  1    3    3    0    0 -.33802324E+02 -.96124632E+02 0.22078484E+03 0.25969932E+03 0.91188000E+02 0.0000E+00 0.9000E+01
#aMCatNLO 1  0  0  1  2 0.16324153D+02 0.00000000D+00  -5  7  0 0.00000000D+00 0.00000000D+00 0.00000000D+00 0.00000000D+00 0.00000000D+00
  <mgrwgt>
 0.1295636526D-03    9    2    0
 0.260575776743167D+03 0.000000000000000D+00 0.000000000000000D+00 0.260575776743167D+03
 0.260575776743167D+03 0.000000000000000D+00 0.000000000000000D+00 -.260575776743167D+03
 0.185978002291465D+03 0.129526604688572D+03 0.800285465264287D+02 0.555954711378719D+02
 0.470193275023743D+02 -.299827561546296D+02 0.356573500502816D+02 -.635648326822569D+01
 0.135571983235521D+03 -.657415302439206D+02 -.195612637444290D+02 -.116940885922422D+03
 0.152582240456972D+03 -.338023182900216D+02 -.961246328322813D+02 0.677018980527760D+02
 0.000000000000000D+00 0.000000000000000D+00 0.000000000000000D+00 0.000000000000000D+00
 0.277964027519369D+03 0.000000000000000D+00 0.000000000000000D+00 0.277964027519369D+03
 0.264563237828576D+03 0.000000000000000D+00 0.000000000000000D+00 -.264563237828576D+03
 0.181977205004818D+03 0.126876569225983D+03 0.749128264569423D+02 0.555954711378719D+02
 0.464826304192450D+02 -.306561628612082D+02 0.343573824640348D+02 -.635648326822569D+01
 0.137129713934372D+03 -.677055442159436D+02 -.233526642125618D+02 -.116940885922422D+03
 0.155817604086617D+03 -.360234324596044D+02 -.100412348409813D+03 0.677018980527760D+02
 0.211201119028933D+02 0.750857031077361D+01 0.144948037013976D+02 0.134007896907927D+02
0.728977299298D-06 0.000000000000D+00 0.000000000000D+00 0.991908165509D-07 0.000000000000D+00  7 1 -1 23 -13 13 23 21 0 0.87441289D-01 0.18379124D-01 0.46094247D+05 0.46094247D+05 0.46094247D+05 0.11504154D+01  1  2  2  1  7  1        1 0.715892863356D-04 0.100000000000D+01
-.386517824455D-07 0.000000000000D+00 -.279946477343D-08 0.991908165509D-07 0.000000000000D+00  7 1 -1 23 -13 13 23 21 2 0.87441289D-01 0.18379124D-01 0.46094247D+05 0.46094247D+05 0.46094247D+05 0.11504154D+01  1  2  3  1  7  1        1 -.502357567574D-05 0.100000000000D+01
0.451464042872D-07 0.000000000000D+00 0.000000000000D+00 0.991908165509D-07 0.000000000000D+00  7 1 -1 23 -13 13 23 21 2 0.87441289D-01 0.18379124D-01 0.46094247D+05 0.46094247D+05 0.46094247D+05 0.11504154D+01  1  2 15  1  7  1        1 0.586768226650D-05 0.100000000000D+01
0.345854429633D-05 0.000000000000D+00 0.000000000000D+00 0.991908165509D-07 0.000000000000D+00  7 1 -1 23 -13 13 23 21 2 0.93916293D-01 0.18379124D-01 0.50088137D+05 0.50088137D+05 0.50088137D+05 0.11472281D+01  1  2 12  1  7  1        1 0.404060407988D-03 0.100000000000D+01
-.348920968554D-05 0.000000000000D+00 0.000000000000D+00 0.991908165509D-07 0.000000000000D+00  7 1 -1 23 -13 13 23 21 2 0.87441289D-01 0.18379124D-01 0.46094247D+05 0.46094247D+05 0.46094247D+05 0.11504154D+01  1  2  4  1  7  1        1 -.453492899805D-03 0.100000000000D+01
-.882854774377D-05 0.000000000000D+00 -.131180903095D-05 0.991908165509D-07 0.000000000000D+00  7 1 -1 23 -13 13 23 21 2 0.94233707D-01 0.18379124D-01 0.46094247D+05 0.46094247D+05 0.46094247D+05 0.11504154D+01  1  2  5  1  7  1        1 -.103231354805D-02 0.100000000000D+01
0.890541533039D-05 0.000000000000D+00 0.130814674344D-05 0.991908165509D-07 0.000000000000D+00  7 1 -1 23 -13 13 23 21 2 0.87441289D-01 0.18379124D-01 0.46094247D+05 0.46094247D+05 0.46094247D+05 0.11504154D+01  1  2  6  1  7  1        1 0.115743763950D-02 0.100000000000D+01
0.456073278004D-07 0.000000000000D+00 0.000000000000D+00 0.991908165509D-07 0.000000000000D+00  7 21 -1 23 -13 13 23 -1 2 0.93916293D-01 0.18379124D-01 0.50088137D+05 0.50088137D+05 0.50088137D+05 0.11472281D+01  1  2 12  3  7  1        1 0.134309059959D-04 0.100000000000D+01
-.108572649150D-06 0.000000000000D+00 -.165043663248D-07 0.991908165509D-07 0.000000000000D+00  7 21 -1 23 -13 13 23 -1 2 0.94233707D-01 0.18379124D-01 0.46094247D+05 0.46094247D+05 0.46094247D+05 0.11504154D+01  1  2  5  3  7  1        1 -.319922459958D-04 0.100000000000D+01
  </mgrwgt>
  </event>
  <event>
  8     66 0.56006291E-06 0.29232732E+03 0.75467711E-02 0.89276334E-01
        1 -1    0    0  501    0 0.00000000E+00 0.00000000E+00 0.23884245E+04 0.23884245E+04 0.32000000E+00 0.0000E+00 0.9000E+01
       -1 -1    0    0    0  501 0.00000000E+00 0.00000000E+00 -.83463574E+02 0.83464188E+02 0.32000000E+00 0.0000E+00 0.9000E+01
       25  2    1    2    0    0 -.23478242E+03 -.57998869E+02 0.42525756E+03 0.57445906E+03 0.30111886E+03 0.0000E+00 0.0000E+00
       23  2    1    2    0    0 0.23478242E+03 0.57998869E+02 0.18797034E+04 0.18974297E+04 0.92020938E+02 0.0000E+00 0.0000E+00
       23  1    3    3    0    0 -.79654530E+02 -.80785473E+02 0.34818021E+03 0.37738024E+03 0.91188000E+02 0.0000E+00 0.9000E+01
      -11  1    4    4    0    0 0.10553612E+03 -.19059568E+02 0.69976958E+03 0.70793969E+03 0.51099893E-03 0.0000E+00 0.9000E+01
       11  1    4    4    0    0 0.12924630E+03 0.77058437E+02 0.11799338E+04 0.11894900E+04 0.51099893E-03 0.0000E+00 0.9000E+01
       23  1    3    3    0    0 -.15512789E+03 0.22786604E+02 0.77077347E+02 0.19707882E+03 0.91188000E+02 0.0000E+00 0.9000E+01
#aMCatNLO 1  0  0  1  2 0.73711223D+03 0.00000000D+00  -5  7  0 0.00000000D+00 0.00000000D+00 0.00000000D+00 0.00000000D+00 0.00000000D+00
  <mgrwgt>
 0.2185222806D-03    3    2    0
 0.446483180667374D+03 0.000000000000000D+00 0.000000000000000D+00 0.446483180667374D+03
 0.446483180667374D+03 0.000000000000000D+00 0.000000000000000D+00 -.446483180667374D+03
 0.145918351585966D+03 -.796545299142185D+02 -.807854734103965D+02 -.102848011924681D+02
 0.153428612603252D+03 0.105536124516653D+03 -.190595678995213D+02 0.109723281298218D+03
 0.247025557339512D+03 0.129246299526328D+03 0.770584369969222D+02 0.195905633725114D+03
 0.346593839806018D+03 -.155127894128762D+03 0.227866043129956D+02 -.295344113830864D+03
 0.000000000000000D+00 0.000000000000000D+00 0.000000000000000D+00 -.000000000000000D+00
 0.808956609283722D+03 0.000000000000000D+00 0.000000000000000D+00 0.808956609283722D+03
 0.116950697685323D+04 0.000000000000000D+00 0.000000000000000D+00 -.116950697685323D+04
 0.267288838467764D+03 -.108195677088273D+03 -.226530329424755D+03 -.102848011924681D+02
 0.197646363636801D+03 0.812865886731638D+02 -.142889387646117D+03 0.109723281298218D+03
 0.237387728733211D+03 0.957867876309241D+02 -.938019602312357D+02 0.195905633725114D+03
 0.455573163054157D+03 -.210535367759184D+03 -.260150665767236D+03 -.295344113830864D+03
 0.820567492245022D+03 0.141657668543369D+03 0.723372343069344D+03 -.360550367569511D+03
0.253757028270D-04 0.000000000000D+00 0.000000000000D+00 0.191946797437D-06 0.000000000000D+00  7 1 -1 23 -11 11 23 21 0 0.36744997D+00 0.12840599D-01 0.85455263D+05 0.85455263D+05 0.85455263D+05 0.11273671D+01  1  2  2  1  7  1        1 0.213713529615D-03 0.100000000000D+01
-.110229994242D-05 0.000000000000D+00 -.974493804316D-07 0.191946797437D-06 0.000000000000D+00  7 1 -1 23 -11 11 23 21 2 0.36744997D+00 0.12840599D-01 0.85455263D+05 0.85455263D+05 0.85455263D+05 0.11273671D+01  1  2  3  1  7  1        1 -.117989787250D-04 0.100000000000D+01
0.155154949766D-05 0.000000000000D+00 0.000000000000D+00 0.191946797437D-06 0.000000000000D+00  7 1 -1 23 -11 11 23 21 2 0.36744997D+00 0.12840599D-01 0.85455263D+05 0.85455263D+05 0.85455263D+05 0.11273671D+01  1  2 15  1  7  1        1 0.166077297197D-04 0.100000000000D+01
  </mgrwgt>
  </event>
  <event>
  9     66 0.56006291E-06 0.17161145E+03 0.75467711E-02 0.10296967E+00
       21 -1    0    0  501  502 0.00000000E+00 0.00000000E+00 0.19756003E+03 0.19756145E+03 0.75000000E+00 0.0000E+00 0.9000E+01
       -3 -1    0    0    0  501 0.00000000E+00 0.00000000E+00 -.48347560E+03 0.48347586E+03 0.50000000E+00 0.0000E+00 0.9000E+01
       25  2    1    2    0    0 -.11378017E+02 0.14007833E+03 -.13596010E+03 0.35846384E+03 0.30043265E+03 0.0000E+00 0.0000E+00
       23  2    1    2    0    0 0.82372585E+02 -.22501310E+02 -.13405992E+03 0.18430742E+03 0.93303867E+02 0.0000E+00 0.0000E+00
       23  1    3    3    0    0 -.80152317E+02 0.11320957E+03 -.16867148E+03 0.23665612E+03 0.91188000E+02 0.0000E+00 0.9000E+01
      -13  1    4    4    0    0 0.38217402E+02 0.13533722E+01 -.12819684E+03 0.13377908E+03 0.10565837E+00 0.0000E+00 0.9000E+01
       13  1    4    4    0    0 0.44155183E+02 -.23854682E+02 -.58630761E+01 0.50528337E+02 0.10565837E+00 0.0000E+00 0.9000E+01
       23  1    3    3    0    0 0.68774300E+02 0.26868756E+02 0.32711373E+02 0.12180772E+03 0.91188000E+02 0.0000E+00 0.9000E+01
       -3  1    1    2    0  502 -.70994569E+02 -.11757702E+03 -.15895543E+02 0.13826605E+03 0.50000000E+00 0.0000E+00 0.9000E+01
#aMCatNLO 2  0  0  1  2 0.13734840D+03 0.00000000D+00  -5  7  0 0.00000000D+00 0.00000000D+00 0.00000000D+00 0.00000000D+00 0.00000000D+00
  <mgrwgt>
 0.6039983336D-05    2    2    0
 0.225180616851949D+03 0.000000000000000D+00 0.000000000000000D+00 0.225180616851949D+03
 0.225180616851949D+03 0.000000000000000D+00 0.000000000000000D+00 -.225180616851949D+03
 0.167165855619877D+03 -.106605459703883D+03 0.693996019484353D+02 -.587208919537835D+02
 0.779893538207107D+02 0.259878782192855D+02 -.189006727674555D+02 -.710614808737417D+02
 0.566481491544080D+02 0.355596127892965D+02 -.380902439591874D+02 0.222184620535478D+02
 0.148557875108903D+03 0.450579686953011D+02 -.124086852217924D+02 0.107563910773977D+03
 0.000000000000000D+00 -.000000000000000D+00 -.000000000000000D+00 0.000000000000000D+00
 0.341040914993999D+03 0.000000000000000D+00 0.000000000000000D+00 0.341040914993999D+03
 0.280071264662157D+03 0.000000000000000D+00 0.000000000000000D+00 -.280071264662157D+03
 0.176080154187687D+03 -.801523732422977D+02 0.113209642992720D+03 -.587208919537835D+02
 0.806978448988188D+02 0.382174921641873D+02 0.135329229102459D+01 -.710614808737417D+02
 0.548852474299587D+02 0.441552045773981D+02 -.238547319865676D+02 0.222184620535478D+02
 0.159176242255694D+03 0.687742450138204D+02 0.268688123375472D+02 0.107563910773977D+03
 0.150272690883998D+03 -.709945685131081D+02 -.117577015634724D+03 0.609696503318419D+02
-.223461772965D-08 0.000000000000D+00 0.000000000000D+00 0.554589213996D-07 0.000000000000D+00  7 21 -3 23 -13 13 23 -3 2 0.31824794D-01 0.59803115D-01 0.64798309D+05 0.64798309D+05 0.64798309D+05 0.11375214D+01  1  2 13  3  7  1        3 -.519203327113D-06 0.100000000000D+01
0.419319832046D-07 0.000000000000D+00 0.000000000000D+00 0.554589213996D-07 0.118329600409D-11  7 21 -3 23 -13 13 23 -3 2 0.30393938D-01 0.74380887D-01 0.64798309D+05 0.64798309D+05 0.64798309D+05 0.11375214D+01  1  2  1  3  7  1        3 0.655918666294D-05 0.100000000000D+01
  </mgrwgt>
  </event>
  <event>
  8     66 0.56006291E-06 0.13325474E+03 0.75467711E-02 0.10760146E+00
        1 -1    0    0  501    0 0.00000000E+00 0.00000000E+00 0.16250981E+03 0.16251012E+03 0.32000000E+00 0.0000E+00 0.9000E+01
       -1 -1    0    0    0  501 0.00000000E+00 0.00000000E+00 -.31665013E+03 0.31665029E+03 0.32000000E+00 0.0000E+00 0.9000E+01
       25  2    1    2    0    0 0.13335193E+02 0.33817737E+02 -.77585642E+01 0.30230138E+03 0.30000744E+03 0.0000E+00 0.0000E+00
       23  2    1    2    0    0 -.13335193E+02 -.33817737E+02 -.14638176E+03 0.17685903E+03 0.92358170E+02 0.0000E+00 0.0000E+00
       23  1    3    3    0    0 0.29614126E+02 -.71145825E+02 -.81033192E+02 0.14429260E+03 0.91188000E+02 0.0000E+00 0.9000E+01
      -13  1    4    4    0    0 -.40789943E+00 0.24662582E+02 -.77694614E+01 0.25860878E+02 0.10565837E+00 0.0000E+00 0.9000E+01
       13  1    4    4    0    0 -.12927293E+02 -.58480319E+02 -.13861230E+03 0.15099816E+03 0.10565837E+00 0.0000E+00 0.9000E+01
       23  1    3    3    0    0 -.16278933E+02 0.10496356E+03 0.73274628E+02 0.15800878E+03 0.91188000E+02 0.0000E+00 0.9000E+01
#aMCatNLO 1  0  0  1  2 0.22050365D+02 0.00000000D+00  -5  7  0 0.00000000D+00 0.00000000D+00 0.00000000D+00 0.00000000D+00 0.00000000D+00
  <mgrwgt>
 0.1291756618D-03    9    2    0
 0.226845467766000D+03 0.000000000000000D+00 0.000000000000000D+00 0.226845467766000D+03
 0.226845467766000D+03 0.000000000000000D+00 0.000000000000000D+00 -.226845467766000D+03
 0.124862131472087D+03 0.296141256321242D+02 -.711458194832256D+02 -.365592186029445D+02
 0.246728926378190D+02 -.407883586751570D+00 0.246626862868681D+02 0.580661013440444D+00
 0.112381901450457D+03 -.129273107842808D+02 -.584804277190505D+02 -.950926705025352D+02
 0.191774009971636D+03 -.162789312610918D+02 0.104963560915408D+03 0.131071228092039D+03
 0.000000000000000D+00 0.000000000000000D+00 -.000000000000000D+00 0.000000000000000D+00
 0.241400534278158D+03 0.000000000000000D+00 0.000000000000000D+00 0.241400534278158D+03
 0.235621114311717D+03 0.000000000000000D+00 0.000000000000000D+00 -.235621114311717D+03
 0.121404357383687D+03 0.259047817135016D+02 -.664539875949070D+02 -.365592186029445D+02
 0.256546050073756D+02 -.116593230948714D+01 0.256215181580176D+02 0.580661013440444D+00
 0.110674580480959D+03 -.162870582213193D+02 -.542307893712407D+02 -.950926705025352D+02
 0.196492924410110D+03 -.221271309026378D+02 0.112360763808810D+03 0.131071228092039D+03
 0.227951813077434D+02 0.136753397199426D+02 -.172975050006804D+02 0.577941996644040D+01
0.781742092688D-06 0.000000000000D+00 0.000000000000D+00 0.140733845700D-06 0.000000000000D+00  7 1 -1 23 -13 13 23 21 0 0.25001546D-01 0.48715442D-01 0.29573632D+05 0.29573632D+05 0.29573632D+05 0.11679131D+01  1  2  2  1  7  1        1 0.786334345644D-04 0.100000000000D+01
-.393799334614D-07 0.000000000000D+00 -.300209547334D-08 0.140733845700D-06 0.000000000000D+00  7 1 -1 23 -13 13 23 21 2 0.25001546D-01 0.48715442D-01 0.29573632D+05 0.29573632D+05 0.29573632D+05 0.11679131D+01  1  2  3  1  7  1        1 -.540306033055D-05 0.100000000000D+01
0.480319454106D-07 0.000000000000D+00 0.000000000000D+00 0.140733845700D-06 0.000000000000D+00  7 1 -1 23 -13 13 23 21 2 0.25001546D-01 0.48715442D-01 0.29573632D+05 0.29573632D+05 0.29573632D+05 0.11679131D+01  1  2 15  1  7  1        1 0.659014569189D-05 0.100000000000D+01
0.184690490994D-05 0.000000000000D+00 0.000000000000D+00 0.140733845700D-06 0.000000000000D+00  7 1 -1 23 -13 13 23 21 2 0.27064245D-01 0.48715442D-01 0.33576945D+05 0.33576945D+05 0.33576945D+05 0.11628241D+01  1  2 12  1  7  1        1 0.227109185549D-03 0.100000000000D+01
-.166665329391D-05 0.000000000000D+00 0.000000000000D+00 0.140733845700D-06 0.000000000000D+00  7 1 -1 23 -13 13 23 21 2 0.25001546D-01 0.48715442D-01 0.29573632D+05 0.29573632D+05 0.29573632D+05 0.11679131D+01  1  2  4  1  7  1        1 -.228670480257D-03 0.100000000000D+01
-.550587776827D-05 0.000000000000D+00 -.116664400040D-05 0.140733845700D-06 0.000000000000D+00  7 1 -1 23 -13 13 23 21 2 0.27566492D-01 0.48715442D-01 0.29573632D+05 0.29573632D+05 0.29573632D+05 0.11679131D+01  1  2  5  1  7  1        1 -.666889882011D-03 0.100000000000D+01
0.559863638966D-05 0.000000000000D+00 0.116110222952D-05 0.140733845700D-06 0.000000000000D+00  7 1 -1 23 -13 13 23 21 2 0.25001546D-01 0.48715442D-01 0.29573632D+05 0.29573632D+05 0.29573632D+05 0.11679131D+01  1  2  6  1  7  1        1 0.768151886590D-03 0.100000000000D+01
0.245300086505D-07 0.000000000000D+00 0.000000000000D+00 0.140733845700D-06 0.000000000000D+00  7 21 -1 23 -13 13 23 -1 2 0.27064245D-01 0.48715442D-01 0.33576945D+05 0.33576945D+05 0.33576945D+05 0.11628241D+01  1  2 12  3  7  1        1 0.214952058701D-04 0.100000000000D+01
-.839357357560D-07 0.000000000000D+00 -.185652538777D-07 0.140733845700D-06 0.000000000000D+00  7 21 -1 23 -13 13 23 -1 2 0.27566492D-01 0.48715442D-01 0.29573632D+05 0.29573632D+05 0.29573632D+05 0.11679131D+01  1  2  5  3  7  1        1 -.718407738194D-04 0.100000000000D+01
  </mgrwgt>
  </event>
  <event>
  8     66 -.56006291E-06 0.14364359E+03 0.75467711E-02 0.10748444E+00
        1 -1    0    0  501    0 0.00000000E+00 0.00000000E+00 0.10348158E+04 0.10348158E+04 0.32000000E+00 0.0000E+00 0.9000E+01
       -1 -1    0    0    0  501 0.00000000E+00 0.00000000E+00 -.18179400E+03 0.18179428E+03 0.32000000E+00 0.0000E+00 0.9000E+01
       25  2    1    2    0    0 -.95289900E+02 0.73664969E+02 -.27061110E+02 0.32357779E+03 0.29910465E+03 0.0000E+00 0.0000E+00
       23  2    1    2    0    0 0.95289900E+02 -.73664969E+02 0.88008288E+03 0.89303231E+03 0.91946352E+02 0.0000E+00 0.0000E+00
       23  1    3    3    0    0 -.17866456E+02 0.73472022E+02 -.12260399E+03 0.17048266E+03 0.91188000E+02 0.0000E+00 0.9000E+01
      -11  1    4    4    0    0 0.10146608E+03 -.64366070E+02 0.86911740E+03 0.87738441E+03 0.51099893E-03 0.0000E+00 0.9000E+01
       11  1    4    4    0    0 -.61761835E+01 -.92988994E+01 0.10965483E+02 0.15647894E+02 0.51099893E-03 0.0000E+00 0.9000E+01
       23  1    3    3    0    0 -.77423444E+02 0.19294668E+00 0.95542879E+02 0.15309513E+03 0.91188000E+02 0.0000E+00 0.9000E+01
#aMCatNLO 1  0  0  1  2 0.22050365D+02 0.00000000D+00  -5  7  0 0.00000000D+00 0.00000000D+00 0.00000000D+00 0.00000000D+00 0.00000000D+00
  <mgrwgt>
 -.1266188460D-04    1    2    0
 0.433732058792765D+03 0.000000000000000D+00 0.000000000000000D+00 0.433732058792765D+03
 0.433732058792765D+03 0.000000000000000D+00 0.000000000000000D+00 -.433732058792765D+03
 0.359663058659650D+03 -.178664559635567D+02 0.734720223306469D+02 -.339595223915711D+03
 0.375875693628480D+03 0.101466083480962D+03 -.643660695940220D+02 0.356151905861450D+03
 0.111631018835622D+02 -.617618352770901D+01 -.929889941479664D+01 -.838858397342790D-02
 0.120762263413838D+03 -.774234439896962D+02 0.192946678171676D+00 -.165482933617653D+02
 0.000000000000000D+00 0.000000000000000D+00 0.000000000000000D+00 -.000000000000000D+00
 0.460999880967720D+03 0.000000000000000D+00 0.000000000000000D+00 0.460999880967720D+03
 0.655609924299561D+03 0.000000000000000D+00 0.000000000000000D+00 -.655609924299561D+03
 0.365558380650592D+03 -.745844509714139D+02 0.665576583633594D+02 -.339595223915711D+03
 0.365836235997737D+03 0.434584030105401D+02 -.714376562327078D+02 0.356151905861450D+03
 0.124530618924285D+02 -.802315244857454D+01 -.952405926668074D+01 -.838858397342790D-02
 0.134453037743187D+03 -.973832788654004D+02 -.224031216742854D+01 -.165482933617653D+02
 0.238309088983337D+03 0.136532479274849D+03 0.166443693034576D+02 -.194610043331841D+03
-.469148386422D-06 0.000000000000D+00 0.000000000000D+00 0.473760791718D-06 0.000000000000D+00  7 1 -1 23 -11 11 23 21 2 0.15920245D+00 0.27968333D-01 0.34115042D+05 0.34115042D+05 0.34115042D+05 0.11621916D+01  1  2 14  1  7  1        1 -.126618845959D-04 0.100000000000D+01
  </mgrwgt>
  </event>
  <event>
  8     66 0.56006291E-06 0.24572299E+03 0.75467711E-02 0.10183292E+00
        1 -1    0    0  501    0 0.00000000E+00 0.00000000E+00 0.99248166E+03 0.99248171E+03 0.32000000E+00 0.0000E+00 0.9000E+01
       -1 -1    0    0    0  501 0.00000000E+00 0.00000000E+00 -.75475069E+02 0.75475747E+02 0.32000000E+00 0.0000E+00 0.9000E+01
       25  2    1    2    0    0 0.67222878E+02 0.16490658E+03 0.60900841E+03 0.70080200E+03 0.29752162E+03 0.0000E+00 0.0000E+00
       23  2    1    2    0    0 -.67222878E+02 -.16490658E+03 0.30799818E+03 0.36715545E+03 0.90703646E+02 0.0000E+00 0.0000E+00
       23  1    3    3    0    0 0.39987395E+02 0.19037894E+03 0.25550958E+03 0.33383159E+03 0.91188000E+02 0.0000E+00 0.9000E+01
      -11  1    4    4    0    0 -.16657820E+02 -.40220394E+02 0.16567890E+03 0.17130284E+03 0.51099893E-03 0.0000E+00 0.9000E+01
       11  1    4    4    0    0 -.50565057E+02 -.12468619E+03 0.14231928E+03 0.19585262E+03 0.51099893E-03 0.0000E+00 0.9000E+01
       23  1    3    3    0    0 0.27235482E+02 -.25472362E+02 0.35349883E+03 0.36697041E+03 0.91188000E+02 0.0000E+00 0.9000E+01
#aMCatNLO 1  0  0  2  2 0.57900339D+02 0.00000000D+00  -5  7  0 0.00000000D+00 0.00000000D+00 0.00000000D+00 0.00000000D+00 0.00000000D+00
  <mgrwgt>
 0.1350891945D-03    4    2    0
 0.273693279264040D+03 0.000000000000000D+00 0.000000000000000D+00 0.273693279264040D+03
 0.273693279264040D+03 0.000000000000000D+00 0.000000000000000D+00 -.273693279264040D+03
 0.223268117833944D+03 0.399873952327416D+02 0.190378941671583D+03 -.607475751583559D+02
 0.566610488301063D+02 -.166578203250708D+02 -.402203937156851D+02 0.362672221971938D+02
 0.143691042022045D+03 -.505650573791202D+02 -.124686185894391D+03 -.504345672801575D+02
 0.123766349841984D+03 0.272354824714494D+02 -.254723620615072D+02 0.749149202413196D+02
 0.000000000000000D+00 0.000000000000000D+00 0.000000000000000D+00 0.000000000000000D+00
 0.313260179390869D+03 0.000000000000000D+00 0.000000000000000D+00 0.313260179390869D+03
 0.297252506841065D+03 0.000000000000000D+00 0.000000000000000D+00 -.297252506841065D+03
 0.203957251175874D+03 0.363447151092773D+02 0.168143102026886D+03 -.607475751583559D+02
 0.614603860299530D+02 -.176649669837935D+02 -.463682713340890D+02 0.362672221971938D+02
 0.158372642213264D+03 -.531405630920290D+02 -.140407723359991D+03 -.504345672801575D+02
 0.126649993227064D+03 0.251003409240212D+02 -.385058054213907D+02 0.749149202413196D+02
 0.600724135857795D+02 0.936047404252405D+01 0.571386980885848D+02 0.160076725498039D+02
0.356733080629D-05 0.000000000000D+00 0.000000000000D+00 0.173617391171D-07 0.000000000000D+00  7 1 -1 23 -11 11 23 21 0 0.15268954D+00 0.11611605D-01 0.60379787D+05 0.60379787D+05 0.60379787D+05 0.11401586D+01  1  2  2  2  7  2       -1 0.304395755454D-03 0.100000000000D+01
-.195384671672D-06 0.000000000000D+00 -.136994895959D-07 0.173617391171D-07 0.000000000000D+00  7 1 -1 23 -11 11 23 21 2 0.15268954D+00 0.11611605D-01 0.60379787D+05 0.60379787D+05 0.60379787D+05 0.11401586D+01  1  2  3  2  7  2       -1 -.216728591807D-04 0.100000000000D+01
0.224305071243D-06 0.000000000000D+00 0.000000000000D+00 0.173617391171D-07 0.000000000000D+00  7 1 -1 23 -11 11 23 21 2 0.15268954D+00 0.11611605D-01 0.60379787D+05 0.60379787D+05 0.60379787D+05 0.11401586D+01  1  2 15  2  7  2       -1 0.248808270421D-04 0.100000000000D+01
-.155524909277D-05 0.000000000000D+00 0.000000000000D+00 0.173617391171D-07 0.000000000000D+00  7 1 -1 23 -11 11 23 21 2 0.15268954D+00 0.11611605D-01 0.60379787D+05 0.60379787D+05 0.60379787D+05 0.11401586D+01  1  2  4  2  7  2       -1 -.172514528852D-03 0.100000000000D+01
  </mgrwgt>
  </event>
  <event>
  8     66 0.56006291E-06 0.64354505E+03 0.75467711E-02 0.84508490E-01
        1 -1    0    0  501    0 0.00000000E+00 0.00000000E+00 0.86576227E+03 0.86576232E+03 0.32000000E+00 0.0000E+00 0.9000E+01
       -1 -1    0    0    0  501 0.00000000E+00 0.00000000E+00 -.48210931E+03 0.48210942E+03 0.32000000E+00 0.0000E+00 0.9000E+01
       25  2    1    2    0    0 -.18235594E+02 -.60526008E+03 0.24932380E+03 0.72084567E+03 0.30130355E+03 0.0000E+00 0.0000E+00
       23  2    1    2    0    0 0.18235594E+02 0.60526008E+03 0.13432916E+03 0.62702607E+03 0.91897038E+02 0.0000E+00 0.0000E+00
       23  1    3    3    0    0 -.17498886E+02 -.35624194E+02 0.38358751E+02 0.10659240E+03 0.91188000E+02 0.0000E+00 0.9000E+01
      -11  1    4    4    0    0 0.20959255E+02 0.60710088E+03 0.13708268E+03 0.62273785E+03 0.51099893E-03 0.0000E+00 0.9000E+01
       11  1    4    4    0    0 -.27236608E+01 -.18408030E+01 -.27535244E+01 0.42882141E+01 0.51099893E-03 0.0000E+00 0.9000E+01
       23  1    3    3    0    0 -.73670783E+00 -.56963588E+03 0.21096505E+03 0.61425328E+03 0.91188000E+02 0.0000E+00 0.9000E+01
#aMCatNLO 1  0  0  1  2 0.10573047D+04 0.00000000D+00  -5  7  0 0.00000000D+00 0.00000000D+00 0.00000000D+00 0.00000000D+00 0.00000000D+00
  <mgrwgt>
 0.4108181889D-03    5    2    0
 0.646058944088721D+03 0.000000000000000D+00 0.000000000000000D+00 0.646058944088721D+03
 0.646058944088721D+03 0.000000000000000D+00 0.000000000000000D+00 -.646058944088721D+03
 0.998023740256552D+02 -.174988863314817D+02 -.356241935093897D+02 0.836470747367861D+01
 0.608906186774148D+03 0.209592549479267D+02 0.607100881479232D+03 -.419043390474167D+02
 0.529081787073329D+01 -.272366078195737D+01 -.184080299672777D+01 -.414558439949505D+01
 0.578118509506906D+03 -.736707834487632D+00 -.569635884973115D+03 0.376852159732331D+02
 0.000000000000000D+00 -.000000000000000D+00 -.000000000000000D+00 0.000000000000000D+00
 0.148108788953078D+04 0.000000000000000D+00 0.000000000000000D+00 0.148108788953078D+04
 0.126720300701283D+04 0.000000000000000D+00 0.000000000000000D+00 -.126720300701283D+04
 0.964831211433453D+02 0.124231094238848D+02 0.277387696678030D+02 0.836470747367861D+01
 0.124330801182010D+04 0.303313003708878D+03 0.120501454779856D+04 -.419043390474167D+02
 0.452263467362951D+01 -.122768633348834D+01 0.132707974302441D+01 -.414558439949505D+01
 0.325255628663773D+03 0.136974726750007D+03 -.278017483914731D+03 0.376852159732331D+02
 0.107872150024276D+04 -.451483153549282D+03 -.956062913294652D+03 0.213884882517958D+03
0.925726934299D-04 0.000000000000D+00 0.000000000000D+00 0.497898643022D-06 0.000000000000D+00  7 1 -1 23 -11 11 23 21 0 0.13319421D+00 0.74170676D-01 0.41415023D+06 0.41415023D+06 0.41415023D+06 0.10743409D+01  1  2  2  1  7  1        1 0.404079643395D-03 0.100000000000D+01
-.514283236669D-05 0.000000000000D+00 -.355503517721D-06 0.497898643022D-06 0.000000000000D+00  7 1 -1 23 -11 11 23 21 2 0.13319421D+00 0.74170676D-01 0.41415023D+06 0.41415023D+06 0.41415023D+06 0.10743409D+01  1  2  3  1  7  1        1 -.259101945676D-04 0.100000000000D+01
0.588725926163D-05 0.000000000000D+00 0.000000000000D+00 0.497898643022D-06 0.000000000000D+00  7 1 -1 23 -11 11 23 21 2 0.13319421D+00 0.74170676D-01 0.41415023D+06 0.41415023D+06 0.41415023D+06 0.10743409D+01  1  2 15  1  7  1        1 0.296607048534D-04 0.100000000000D+01
0.122677955986D-04 0.000000000000D+00 -.291243605848D-04 0.497898643022D-06 0.000000000000D+00  7 1 -1 23 -11 11 23 21 2 0.42897930D+00 0.74170676D-01 0.41415023D+06 0.41415023D+06 0.41415023D+06 0.10743409D+01  1  2  5  1  7  1        1 0.281361415520D-05 0.100000000000D+01
0.289217291078D-05 0.000000000000D+00 -.392754936137D-05 0.497898643022D-06 0.000000000000D+00  7 21 -1 23 -11 11 23 -1 2 0.42897930D+00 0.74170676D-01 0.41415023D+06 0.41415023D+06 0.41415023D+06 0.10743409D+01  1  2  5  3  7  1        1 0.174421095434D-06 0.100000000000D+01
  </mgrwgt>
  </event>
  <event>
  7     66 0.56006291E-06 0.23034005E+03 0.75467711E-02 0.10252515E+00
        1 -1    0    0  501    0 0.00000000E+00 0.00000000E+00 0.25618702E+03 0.25618722E+03 0.32000000E+00 0.0000E+00 0.9000E+01
       -1 -1    0    0    0  501 0.00000000E+00 0.00000000E+00 -.21187695E+03 0.21187719E+03 0.32000000E+00 0.0000E+00 0.9000E+01
       25  2    1    2    0    0 0.30187054E+01 0.73612466E+02 0.43402249E+02 0.31176341E+03 0.29980787E+03 0.0000E+00 0.0000E+00
       23  1    3    3    0    0 -.11047900E+03 0.74033581E+02 0.56213253E+01 0.16134879E+03 0.91188000E+02 0.0000E+00 0.9000E+01
      -11  1    1    2    0    0 0.19722058E+01 0.40033135E+02 0.12427458E+02 0.41964070E+02 0.51099893E-03 0.0000E+00 0.9000E+01
       11  1    1    2    0    0 -.49909112E+01 -.11364560E+03 -.11519639E+02 0.11433693E+03 0.51099893E-03 0.0000E+00 0.9000E+01
       23  1    3    3    0    0 0.11349771E+03 -.42111521E+00 0.37780923E+02 0.15041462E+03 0.91188000E+02 0.0000E+00 0.9000E+01
#aMCatNLO 1  0  0  2  2 0.61700806D+02 0.00000000D+00  -5  7  0 0.00000000D+00 0.00000000D+00 0.00000000D+00 0.00000000D+00 0.00000000D+00
  <mgrwgt>
 0.1212089831D-03    4    2    0
 0.232981173146818D+03 0.000000000000000D+00 0.000000000000000D+00 0.232981173146818D+03
 0.232981173146818D+03 0.000000000000000D+00 0.000000000000000D+00 -.232981173146818D+03
 0.161542130802137D+03 -.110479002891892D+03 0.740336096493096D+02 -.969655827609358D+01
 0.409715724388653D+02 0.197220428490669D+01 0.400331007941587D+02 0.849299706679037D+01
 0.115948196909869D+03 -.499091190323935D+01 -.113645621596873D+03 -.224443279445882D+02
 0.147500446142764D+03 0.113497710510225D+03 -.421088846595040D+00 0.236478891538914D+02
 0.000000000000000D+00 0.000000000000000D+00 -.000000000000000D+00 0.000000000000000D+00
 0.292385856931375D+03 0.000000000000000D+00 0.000000000000000D+00 0.292385856931375D+03
 0.251604179258497D+03 0.000000000000000D+00 0.000000000000000D+00 -.251604179258497D+03
 0.174531978605425D+03 -.113289284358885D+03 0.960087236607940D+02 -.969655827609358D+01
 0.465542754351924D+02 0.124030539332928D+01 0.457562149292370D+02 0.849299706679037D+01
 0.102117211572919D+03 -.681439416175549D+01 -.993868254586713D+02 -.224443279445882D+02
 0.146826211754508D+03 0.111036524930090D+03 0.188242552095520D+02 0.236478891538914D+02
 0.739603588218277D+02 0.782684819722063D+01 -.612023683409117D+02 0.407816776728782D+02
0.148017951645D-05 0.000000000000D+00 0.000000000000D+00 0.236615778233D-09 0.000000000000D+00  7 1 -1 23 -11 11 23 21 0 0.39413421D-01 0.32596488D-01 0.53056539D+05 0.53056539D+05 0.53056539D+05 0.11450356D+01  1  2  2  2  7  2       -1 0.165604375334D-03 0.100000000000D+01
-.822191994939D-07 0.000000000000D+00 -.568427908340D-08 0.236615778233D-09 0.000000000000D+00  7 1 -1 23 -11 11 23 21 2 0.39413421D-01 0.32596488D-01 0.53056539D+05 0.53056539D+05 0.53056539D+05 0.11450356D+01  1  2  3  2  7  2       -1 -.120605932721D-04 0.100000000000D+01
0.936234507455D-07 0.000000000000D+00 0.000000000000D+00 0.236615778233D-09 0.000000000000D+00  7 1 -1 23 -11 11 23 21 2 0.39413421D-01 0.32596488D-01 0.53056539D+05 0.53056539D+05 0.53056539D+05 0.11450356D+01  1  2 15  2  7  2       -1 0.137334633166D-04 0.100000000000D+01
-.314055499924D-06 0.000000000000D+00 0.000000000000D+00 0.236615778233D-09 0.000000000000D+00  7 1 -1 23 -11 11 23 21 2 0.39413421D-01 0.32596488D-01 0.53056539D+05 0.53056539D+05 0.53056539D+05 0.11450356D+01  1  2  4  2  7  2       -1 -.460682623129D-04 0.100000000000D+01
  </mgrwgt>
  </event>
  <event>
  8     66 0.56006291E-06 0.19415104E+03 0.75467711E-02 0.96799192E-01
        1 -1    0    0  501    0 0.00000000E+00 0.00000000E+00 0.74267824E+03 0.74267831E+03 0.32000000E+00 0.0000E+00 0.9000E+01
       -1 -1    0    0    0  501 0.00000000E+00 0.00000000E+00 -.26608640E+03 0.26608659E+03 0.32000000E+00 0.0000E+00 0.9000E+01
       25  2    1    2    0    0 0.23398255E+03 0.24524105E+03 0.47528398E+03 0.65620497E+03 0.29969835E+03 0.0000E+00 0.0000E+00
       23  2    1    2    0    0 -.23398255E+03 -.24524105E+03 0.13078632E+01 0.35255993E+03 0.96983425E+02 0.0000E+00 0.0000E+00
       23  1    3    3    0    0 0.24321114E+03 0.17397701E+03 0.42989414E+03 0.53154857E+03 0.91188000E+02 0.0000E+00 0.9000E+01
      -11  1    4    4    0    0 -.10129790E+03 -.46175063E+02 -.17048963E+02 0.11262356E+03 0.51099893E-03 0.0000E+00 0.9000E+01
       11  1    4    4    0    0 -.13268466E+03 -.19906599E+03 0.18356826E+02 0.23993636E+03 0.51099893E-03 0.0000E+00 0.9000E+01
       23  1    3    3    0    0 -.92285875E+01 0.71264043E+02 0.45389839E+02 0.12465641E+03 0.91188000E+02 0.0000E+00 0.9000E+01
#aMCatNLO 1  0  0  1  2 0.49160766D+02 0.00000000D+00  -5  7  0 0.00000000D+00 0.00000000D+00 0.00000000D+00 0.00000000D+00 0.00000000D+00
  <mgrwgt>
 0.9104583103D-04    9    2    0
 0.444541010335830D+03 0.000000000000000D+00 0.000000000000000D+00 0.444541010335830D+03
 0.444541010335830D+03 0.000000000000000D+00 0.000000000000000D+00 -.444541010335830D+03
 0.372657966085324D+03 0.243211139174006D+03 0.173977006026789D+03 0.202827639878020D+03
 0.136923357272228D+03 -.101297895932369D+03 -.461750626513688D+02 -.797157803418837D+02
 0.262394988972879D+03 -.132684655745948D+03 -.199065986649830D+03 -.107789820144512D+03
 0.117105708341229D+03 -.922858749568904D+01 0.712640432744097D+02 -.153220393916238D+02
 0.000000000000000D+00 0.000000000000000D+00 -.000000000000000D+00 0.000000000000000D+00
 0.521156360310892D+03 0.000000000000000D+00 0.000000000000000D+00 0.521156360310892D+03
 0.453176670121945D+03 0.000000000000000D+00 0.000000000000000D+00 -.453176670121945D+03
 0.359895352259030D+03 0.222975202441147D+03 0.174219461689828D+03 0.202827639878020D+03
 0.142702672589967D+03 -.109022241051630D+03 -.460825138733137D+02 -.797157803418837D+02
 0.270000054199907D+03 -.147391452016944D+03 -.198889778051823D+03 -.107789820144512D+03
 0.117842048299043D+03 -.157187470784005D+02 0.713418047324349D+02 -.153220393916238D+02
 0.838929030848895D+02 0.491572377058273D+02 -.588974497125755D+00 0.679796901889467D+02
0.351001015874D-05 0.000000000000D+00 0.000000000000D+00 0.278175167905D-07 0.000000000000D+00  7 1 -1 23 -11 11 23 21 0 0.11425821D+00 0.40936389D-01 0.15182074D+06 0.15182074D+06 0.15182074D+06 0.11071386D+01  1  2  2  1  7  1        1 0.610916440118D-04 0.100000000000D+01
-.190881075399D-06 0.000000000000D+00 -.134793632165D-07 0.278175167905D-07 0.000000000000D+00  7 1 -1 23 -11 11 23 21 2 0.11425821D+00 0.40936389D-01 0.15182074D+06 0.15182074D+06 0.15182074D+06 0.11071386D+01  1  2  3  1  7  1        1 -.407230527434D-05 0.100000000000D+01
0.223504591274D-06 0.000000000000D+00 0.000000000000D+00 0.278175167905D-07 0.000000000000D+00  7 1 -1 23 -11 11 23 21 2 0.11425821D+00 0.40936389D-01 0.15182074D+06 0.15182074D+06 0.15182074D+06 0.11071386D+01  1  2 15  1  7  1        1 0.476830363608D-05 0.100000000000D+01
0.139829186776D-04 0.000000000000D+00 0.000000000000D+00 0.278175167905D-07 0.000000000000D+00  7 1 -1 23 -11 11 23 21 2 0.13493418D+00 0.40936389D-01 0.17189811D+06 0.17189811D+06 0.17189811D+06 0.11029118D+01  1  2 12  1  7  1        1 0.226511926952D-03 0.100000000000D+01
-.141815128711D-04 0.000000000000D+00 0.000000000000D+00 0.278175167905D-07 0.000000000000D+00  7 1 -1 23 -11 11 23 21 2 0.11425821D+00 0.40936389D-01 0.15182074D+06 0.15182074D+06 0.15182074D+06 0.11071386D+01  1  2  4  1  7  1        1 -.302551992347D-03 0.100000000000D+01
-.208071280160D-04 0.000000000000D+00 -.287653159409D-05 0.278175167905D-07 0.000000000000D+00  7 1 -1 23 -11 11 23 21 2 0.13527849D+00 0.40936389D-01 0.15182074D+06 0.15182074D+06 0.15182074D+06 0.11071386D+01  1  2  5  1  7  1        1 -.339419587227D-03 0.100000000000D+01
0.210328097903D-04 0.000000000000D+00 0.283599602726D-05 0.278175167905D-07 0.000000000000D+00  7 1 -1 23 -11 11 23 21 2 0.11425821D+00 0.40936389D-01 0.15182074D+06 0.15182074D+06 0.15182074D+06 0.11071386D+01  1  2  6  1  7  1        1 0.448719298466D-03 0.100000000000D+01
0.346515059430D-06 0.000000000000D+00 0.000000000000D+00 0.278175167905D-07 0.000000000000D+00  7 21 -1 23 -11 11 23 -1 2 0.13493418D+00 0.40936389D-01 0.17189811D+06 0.17189811D+06 0.17189811D+06 0.11029118D+01  1  2 12  3  7  1        1 0.894158145920D-05 0.100000000000D+01
-.497222906986D-06 0.000000000000D+00 -.721490983423D-07 0.278175167905D-07 0.000000000000D+00  7 21 -1 23 -11 11 23 -1 2 0.13527849D+00 0.40936389D-01 0.15182074D+06 0.15182074D+06 0.15182074D+06 0.11071386D+01  1  2  5  3  7  1        1 -.129430386496D-04 0.100000000000D+01
  </mgrwgt>
  </event>
  <event>
  8     66 0.56006291E-06 0.28637758E+03 0.75467711E-02 0.97483630E-01
        1 -1    0    0  501    0 0.00000000E+00 0.00000000E+00 0.50717041E+03 0.50717051E+03 0.32000000E+00 0.0000E+00 0.9000E+01
       -1 -1    0    0    0  501 0.00000000E+00 0.00000000E+00 -.22702076E+03 0.22702099E+03 0.32000000E+00 0.0000E+00 0.9000E+01
       25  2    1    2    0    0 -.26847459E+02 -.23179182E+03 0.33252167E+02 0.38225773E+03 0.30094357E+03 0.0000E+00 0.0000E+00
       23  2    1    2    0    0 0.26847459E+02 0.23179182E+03 0.24689747E+03 0.35193377E+03 0.91928145E+02 0.0000E+00 0.0000E+00
       23  1    3    3    0    0 -.44462664E+00 -.13409017E+02 -.76761240E+02 0.11994807E+03 0.91188000E+02 0.0000E+00 0.9000E+01
      -13  1    4    4    0    0 0.48982061E+02 0.15732157E+03 0.20707912E+03 0.26463388E+03 0.10565837E+00 0.0000E+00 0.9000E+01
       13  1    4    4    0    0 -.22134602E+02 0.74470245E+02 0.39818358E+02 0.87299890E+02 0.10565837E+00 0.0000E+00 0.9000E+01
       23  1    3    3    0    0 -.26402833E+02 -.21838280E+03 0.11001341E+03 0.26230966E+03 0.91188000E+02 0.0000E+00 0.9000E+01
#aMCatNLO 1  0  0  2  1 0.18068349D+03 0.00000000D+00  -5  7  0 0.00000000D+00 0.00000000D+00 0.00000000D+00 0.00000000D+00 0.00000000D+00
  <mgrwgt>
 0.1705277059D-03    3    2    0
 0.339320399461473D+03 0.000000000000000D+00 0.000000000000000D+00 0.339320399461473D+03
 0.339320399461473D+03 0.000000000000000D+00 0.000000000000000D+00 -.339320399461473D+03
 0.161454314571120D+03 -.444626661294331D+00 -.134090176114394D+02 -.132560344384957D+03
 0.200811556689951D+03 0.489821544045663D+02 0.157321681714708D+03 0.114786402995236D+03
 0.780083190560110D+02 -.221346951427388D+02 0.744701354009937D+02 0.703932143321292D+01
 0.238366608605864D+03 -.264028326005332D+02 -.218382799504262D+03 0.107346199565080D+02
 0.000000000000000D+00 -.000000000000000D+00 0.000000000000000D+00 0.000000000000000D+00
 0.644685685466855D+03 0.000000000000000D+00 0.000000000000000D+00 0.644685685466855D+03
 0.378944649359205D+03 0.000000000000000D+00 0.000000000000000D+00 -.378944649359205D+03
 0.167988031395427D+03 0.408538716987745D+02 -.257573991674739D+02 -.132560344384957D+03
 0.208302512393791D+03 0.100268204658870D+03 0.141986990571206D+03 0.114786402995236D+03
 0.693996734842599D+02 -.365580555031345D+01 0.689448890002739D+02 0.703932143321292D+01
 0.256591675491859D+03 0.356445457476893D+02 -.236935161764879D+03 0.107346199565080D+02
 0.321348442060724D+03 -.173110816555020D+03 0.517606813608735D+02 0.265741036107649D+03
0.417961471929D-05 0.000000000000D+00 0.000000000000D+00 0.110665287820D-06 0.000000000000D+00  7 1 -1 23 -13 13 23 21 0 0.78026242D-01 0.34926297D-01 0.82012118D+05 0.82012118D+05 0.82012118D+05 0.11288586D+01  1  2  2  2  7  2       -1 0.168185273266D-03 0.100000000000D+01
-.224076830533D-06 0.000000000000D+00 -.160508210399D-07 0.110665287820D-06 0.000000000000D+00  7 1 -1 23 -13 13 23 21 2 0.78026242D-01 0.34926297D-01 0.82012118D+05 0.82012118D+05 0.82012118D+05 0.11288586D+01  1  2  3  2  7  2       -1 -.114902047914D-04 0.100000000000D+01
0.269757902775D-06 0.000000000000D+00 0.000000000000D+00 0.110665287820D-06 0.000000000000D+00  7 1 -1 23 -13 13 23 21 2 0.78026242D-01 0.34926297D-01 0.82012118D+05 0.82012118D+05 0.82012118D+05 0.11288586D+01  1  2 15  2  7  2       -1 0.138326374022D-04 0.100000000000D+01
  </mgrwgt>
  </event>
  <event>
  8     66 0.56006291E-06 0.21176188E+03 0.75467711E-02 0.88781550E-01
        1 -1    0    0  501    0 0.00000000E+00 0.00000000E+00 0.16598534E+04 0.16598535E+04 0.32000000E+00 0.0000E+00 0.9000E+01
       -1 -1    0    0    0  501 0.00000000E+00 0.00000000E+00 -.16974498E+03 0.16974529E+03 0.32000000E+00 0.0000E+00 0.9000E+01
       25  2    1    2    0    0 -.84956799E+02 -.37666579E+02 0.16169815E+04 0.16471270E+04 0.29960243E+03 0.0000E+00 0.0000E+00
       23  2    1    2    0    0 0.84956799E+02 0.37666579E+02 -.12687307E+03 0.18247177E+03 0.92535092E+02 0.0000E+00 0.0000E+00
       23  1    3    3    0    0 -.62774649E+02 -.13674973E+03 0.98319342E+03 0.99881214E+03 0.91188000E+02 0.0000E+00 0.9000E+01
      -11  1    4    4    0    0 -.93217430E+01 0.79627500E+01 0.84514350E+01 0.14890502E+02 0.51099893E-03 0.0000E+00 0.9000E+01
       11  1    4    4    0    0 0.94278542E+02 0.29703829E+02 -.13532450E+03 0.16758127E+03 0.51099893E-03 0.0000E+00 0.9000E+01
       23  1    3    3    0    0 -.22182149E+02 0.99083150E+02 0.63378809E+03 0.64831483E+03 0.91188000E+02 0.0000E+00 0.9000E+01
#aMCatNLO 1  0  0  1  1 0.82022615D+03 0.00000000D+00  -5  7  0 0.00000000D+00 0.00000000D+00 0.00000000D+00 0.00000000D+00 0.00000000D+00
  <mgrwgt>
 0.2945787202D-03    3    2    0
 0.530803255995572D+03 0.000000000000000D+00 0.000000000000000D+00 0.530803255995572D+03
 0.530803255995572D+03 0.000000000000000D+00 0.000000000000000D+00 -.530803255995572D+03
 0.341332330339382D+03 -.627746492518650D+02 -.136749728669619D+03 0.292491646908085D+03
 0.137999230550786D+02 -.932174304438470D+01 0.796275004916011D+01 -.633542378970471D+01
 0.478759937804240D+03 0.942785416699428D+02 0.297038286812909D+02 -.468444572162579D+03
 0.227714320792444D+03 -.221821493736932D+02 0.990831499391682D+02 0.182288349044198D+03
 0.000000000000000D+00 0.000000000000000D+00 -.000000000000000D+00 -.000000000000000D+00
 0.883001515911481D+03 0.000000000000000D+00 0.000000000000000D+00 0.883001515911481D+03
 0.146331038130570D+04 0.000000000000000D+00 0.000000000000000D+00 -.146331038130570D+04
 0.399987605796919D+03 -.255732188153238D+03 0.269168697753692D+02 0.292491646908085D+03
 0.269111680487117D+02 -.199183984996787D+02 0.169508339723696D+02 -.633542378970471D+01
 0.564306416665635D+03 -.177220317133618D+03 0.259989180345044D+03 -.468444572162579D+03
 0.350353349411836D+03 -.172646894113217D+03 0.226707357304284D+03 0.182288349044198D+03
 0.100475335729408D+04 0.625517797899751D+03 -.530564241397067D+03 -.580308865394220D+03
0.323291440770D-04 0.000000000000D+00 0.000000000000D+00 0.122907298622D-05 0.000000000000D+00  7 1 -1 23 -11 11 23 21 0 0.25536209D+00 0.26114638D-01 0.44843093D+05 0.44843093D+05 0.44843093D+05 0.11514770D+01  1  2  2  1  7  1        1 0.271917869333D-03 0.100000000000D+01
0.479628065000D-07 0.000000000000D+00 -.124152425715D-06 0.122907298622D-05 0.000000000000D+00  7 1 -1 23 -11 11 23 21 2 0.25536209D+00 0.26114638D-01 0.44843093D+05 0.44843093D+05 0.44843093D+05 0.11514770D+01  1  2  3  1  7  1        1 0.534882825406D-06 0.100000000000D+01
0.198402991145D-05 0.000000000000D+00 0.000000000000D+00 0.122907298622D-05 0.000000000000D+00  7 1 -1 23 -11 11 23 21 2 0.25536209D+00 0.26114638D-01 0.44843093D+05 0.44843093D+05 0.44843093D+05 0.11514770D+01  1  2 15  1  7  1        1 0.221259680608D-04 0.100000000000D+01
  </mgrwgt>
  </event>
  <event>
  8     66 0.56006291E-06 0.22746392E+03 0.75467711E-02 0.88054426E-01
        1 -1    0    0  501    0 0.00000000E+00 0.00000000E+00 0.16771962E+03 0.16771993E+03 0.32000000E+00 0.0000E+00 0.9000E+01
       -1 -1    0    0    0  501 0.00000000E+00 0.00000000E+00 -.11990966E+04 0.11990967E+04 0.32000000E+00 0.0000E+00 0.9000E+01
       25  2    1    2    0    0 -.76978363E+02 0.10719641E+03 -.45431026E+01 0.32738671E+03 0.29957417E+03 0.0000E+00 0.0000E+00
       23  2    1    2    0    0 0.76978363E+02 -.10719641E+03 -.10268339E+04 0.10394299E+04 0.92789483E+02 0.0000E+00 0.0000E+00
       23  1    3    3    0    0 0.31138675E+02 0.13364755E+03 -.56835852E+02 0.17428955E+03 0.91188000E+02 0.0000E+00 0.9000E+01
      -13  1    4    4    0    0 0.33543171E+02 -.33476726E+01 -.94644602E+02 0.10046872E+03 0.10565837E+00 0.0000E+00 0.9000E+01
       13  1    4    4    0    0 0.43435192E+02 -.10384873E+03 -.93218928E+03 0.93896115E+03 0.10565837E+00 0.0000E+00 0.9000E+01
       23  1    3    3    0    0 -.10811704E+03 -.26451138E+02 0.52292749E+02 0.15309716E+03 0.91188000E+02 0.0000E+00 0.9000E+01
#aMCatNLO 1  0  0  2  2 0.86701173D+03 0.00000000D+00  -5  7  0 0.00000000D+00 0.00000000D+00 0.00000000D+00 0.00000000D+00 0.00000000D+00
  <mgrwgt>
 0.1897466933D-03    5    2    0
 0.448455425864687D+03 0.000000000000000D+00 0.000000000000000D+00 0.448455425864687D+03
 0.448455425864687D+03 0.000000000000000D+00 0.000000000000000D+00 -.448455425864687D+03
 0.200245836255844D+03 0.311386748360014D+02 0.133647545152576D+03 0.113806239714483D+03
 0.442715990227100D+02 0.335431577544632D+02 -.334754237056561D+01 -.286988677122301D+02
 0.358953694491195D+03 0.434352053072666D+02 -.103848864771096D+03 -.340846814587651D+03
 0.293439721959625D+03 -.108117037897731D+03 -.264511380109147D+02 0.255739442585398D+03
 0.000000000000000D+00 -.000000000000000D+00 0.000000000000000D+00 -.000000000000000D+00
 0.767431095814574D+03 0.000000000000000D+00 0.000000000000000D+00 0.767431095814574D+03
 0.193149945586803D+04 0.000000000000000D+00 0.000000000000000D+00 -.193149945586803D+04
 0.176255142029733D+03 0.989535093251216D+02 -.263942081037584D+01 0.113806239714483D+03
 0.789167447169106D+02 0.557316715260122D+02 -.479396326400884D+02 -.286988677122301D+02
 0.607827777828596D+03 0.217570544426586D+03 -.453807354153080D+03 -.340846814587651D+03
 0.384461120897764D+03 0.139855225464521D+02 -.271839741029853D+03 0.255739442585398D+03
 0.145146976620960D+04 -.386241247824172D+03 0.776226148633397D+03 -.116406836005345D+04
0.385109900162D-04 0.000000000000D+00 0.000000000000D+00 0.534975639748D-06 0.000000000000D+00  7 1 -1 23 -13 13 23 21 0 0.25803046D-01 0.18447643D+00 0.51739837D+05 0.51739837D+05 0.51739837D+05 0.11459910D+01  1  2  2  2  7  2       -1 0.180969268939D-03 0.100000000000D+01
-.940828662042D-06 0.000000000000D+00 -.147892341839D-06 0.534975639748D-06 0.000000000000D+00  7 1 -1 23 -13 13 23 21 2 0.25803046D-01 0.18447643D+00 0.51739837D+05 0.51739837D+05 0.51739837D+05 0.11459910D+01  1  2  3  2  7  2       -1 -.580621518767D-05 0.100000000000D+01
0.235709041605D-05 0.000000000000D+00 0.000000000000D+00 0.534975639748D-06 0.000000000000D+00  7 1 -1 23 -13 13 23 21 2 0.25803046D-01 0.18447643D+00 0.51739837D+05 0.51739837D+05 0.51739837D+05 0.11459910D+01  1  2 15  2  7  2       -1 0.145465106714D-04 0.100000000000D+01
0.163093425360D-04 0.000000000000D+00 -.123165669468D-04 0.534975639748D-06 0.000000000000D+00  7 1 -1 23 -13 13 23 21 2 0.25803046D-01 0.83160226D+00 0.51739837D+05 0.51739837D+05 0.51739837D+05 0.11459910D+01  1  2  5  2  7  2       -1 0.366541036034D-07 0.100000000000D+01
0.285818731385D-05 0.000000000000D+00 -.224290088105D-05 0.534975639748D-06 0.000000000000D+00  7 1 21 23 -13 13 23 1 2 0.25803046D-01 0.83160226D+00 0.51739837D+05 0.51739837D+05 0.51739837D+05 0.11459910D+01  1  2  5  4  7  2       -1 0.474759001231D-09 0.100000000000D+01
  </mgrwgt>
  </event>
  <event>
  8     66 0.56006291E-06 0.18045894E+03 0.75467711E-02 0.97141898E-01
        1 -1    0    0  501    0 0.00000000E+00 0.00000000E+00 0.67321048E+03 0.67321055E+03 0.32000000E+00 0.0000E+00 0.9000E+01
       -1 -1    0    0    0  501 0.00000000E+00 0.00000000E+00 -.34980716E+03 0.34980730E+03 0.32000000E+00 0.0000E+00 0.9000E+01
       25  2    1    2    0    0 -.26141454E+03 0.19362084E+03 -.12632017E+03 0.46012998E+03 0.29989368E+03 0.0000E+00 0.0000E+00
       23  2    1    2    0    0 0.26141454E+03 -.19362084E+03 0.44972349E+03 0.56288788E+03 0.93621345E+02 0.0000E+00 0.0000E+00
       23  1    3    3    0    0 -.32814382E+02 0.16005502E+03 -.94767692E+02 0.20973927E+03 0.91188000E+02 0.0000E+00 0.9000E+01
      -13  1    4    4    0    0 -.19008234E+01 -.19163982E+02 0.48963225E+02 0.52614446E+02 0.10565837E+00 0.0000E+00 0.9000E+01
       13  1    4    4    0    0 0.26331537E+03 -.17445686E+03 0.40076026E+03 0.51027343E+03 0.10565837E+00 0.0000E+00 0.9000E+01
       23  1    3    3    0    0 -.22860016E+03 0.33565818E+02 -.31552475E+02 0.25039071E+03 0.91188000E+02 0.0000E+00 0.9000E+01
#aMCatNLO 1  0  0  2  1 0.35682798D+02 0.00000000D+00  -5  7  0 0.00000000D+00 0.00000000D+00 0.00000000D+00 0.00000000D+00 0.00000000D+00
  <mgrwgt>
 0.3999547705D-03    9    2    0
 0.485277195149073D+03 0.000000000000000D+00 0.000000000000000D+00 0.485277195149073D+03
 0.485277195149073D+03 0.000000000000000D+00 0.000000000000000D+00 -.485277195149073D+03
 0.252654775058408D+03 -.328143822562589D+02 0.160055020651536D+03 -.169778652065539D+03
 0.391427795714160D+02 -.190116096782947D+01 -.191637844972833D+02 0.340777367689309D+02
 0.404317458433255D+03 0.263315703943310D+03 -.174457053772069D+03 0.252392915193624D+03
 0.274439377235067D+03 -.228600160719221D+03 0.335658176178160D+02 -.116691999897016D+03
 0.000000000000000D+00 0.000000000000000D+00 -.000000000000000D+00 -.000000000000000D+00
 0.503244486148756D+03 0.000000000000000D+00 0.000000000000000D+00 0.503244486148756D+03
 0.503650738937975D+03 0.000000000000000D+00 0.000000000000000D+00 -.503650738937975D+03
 0.257666569845798D+03 -.397710832776655D+02 0.166343861052427D+03 -.169778652065539D+03
 0.387485944247776D+02 -.296297624647474D+01 -.182039061293500D+02 0.340777367689309D+02
 0.393107933797587D+03 0.252445200296888D+03 -.164630145543688D+03 0.252392915193624D+03
 0.281687016479590D+03 -.236181276206194D+03 0.404191271407617D+02 -.116691999897016D+03
 0.356851105389786D+02 0.264701354334460D+02 -.239289365201507D+02 -.406252789218622D+00
0.157719817341D-04 0.000000000000D+00 0.000000000000D+00 0.630935817351D-06 0.000000000000D+00  7 1 -1 23 -13 13 23 21 0 0.10357086D+00 0.53816503D-01 0.14846603D+06 0.14846603D+06 0.14846603D+06 0.11079044D+01  1  2  2  2  7  2       -1 0.195484465438D-03 0.100000000000D+01
-.819537681872D-06 0.000000000000D+00 -.605685627173D-07 0.630935817351D-06 0.000000000000D+00  7 1 -1 23 -13 13 23 21 2 0.10357086D+00 0.53816503D-01 0.14846603D+06 0.14846603D+06 0.14846603D+06 0.11079044D+01  1  2  3  2  7  2       -1 -.124680762922D-04 0.100000000000D+01
0.100100525498D-05 0.000000000000D+00 0.000000000000D+00 0.630935817351D-06 0.000000000000D+00  7 1 -1 23 -13 13 23 21 2 0.10357086D+00 0.53816503D-01 0.14846603D+06 0.14846603D+06 0.14846603D+06 0.11079044D+01  1  2 15  2  7  2       -1 0.152288420216D-04 0.100000000000D+01
0.319324129639D-04 0.000000000000D+00 0.000000000000D+00 0.630935817351D-06 0.000000000000D+00  7 1 -1 23 -13 13 23 21 2 0.10357086D+00 0.56813696D-01 0.16229282D+06 0.16229282D+06 0.16229282D+06 0.11048625D+01  1  2 12  2  7  2       -1 0.436084689250D-03 0.100000000000D+01
-.247130134437D-04 0.000000000000D+00 0.000000000000D+00 0.630935817351D-06 0.000000000000D+00  7 1 -1 23 -13 13 23 21 2 0.10357086D+00 0.53816503D-01 0.14846603D+06 0.14846603D+06 0.14846603D+06 0.11079044D+01  1  2  4  2  7  2       -1 -.375972629252D-03 0.100000000000D+01
-.147168453715D-03 0.000000000000D+00 -.284822990446D-04 0.630935817351D-06 0.000000000000D+00  7 1 -1 23 -13 13 23 21 2 0.10357086D+00 0.57729288D-01 0.14846603D+06 0.14846603D+06 0.14846603D+06 0.11079044D+01  1  2  5  2  7  2       -1 -.196698949965D-02 0.100000000000D+01
0.148870666570D-03 0.000000000000D+00 0.284122928162D-04 0.630935817351D-06 0.000000000000D+00  7 1 -1 23 -13 13 23 21 2 0.10357086D+00 0.53816503D-01 0.14846603D+06 0.14846603D+06 0.14846603D+06 0.11079044D+01  1  2  6  2  7  2       -1 0.226485110998D-02 0.100000000000D+01
0.350261477841D-06 0.000000000000D+00 0.000000000000D+00 0.630935817351D-06 0.000000000000D+00  7 1 21 23 -13 13 23 1 2 0.10357086D+00 0.56813696D-01 0.16229282D+06 0.16229282D+06 0.16229282D+06 0.11048625D+01  1  2 12  4  7  2       -1 0.418286922584D-04 0.100000000000D+01
-.170030683595D-05 0.000000000000D+00 -.338381306210D-06 0.630935817351D-06 0.000000000000D+00  7 1 21 23 -13 13 23 1 2 0.10357086D+00 0.57729288D-01 0.14846603D+06 0.14846603D+06 0.14846603D+06 0.11079044D+01  1  2  5  4  7  2       -1 -.198092823288D-03 0.100000000000D+01
  </mgrwgt>
  </event>
  <event>
  8     66 0.56006291E-06 0.24826950E+03 0.75467711E-02 0.90135623E-01
        1 -1    0    0  501    0 0.00000000E+00 0.00000000E+00 0.15984767E+04 0.15984767E+04 0.32000000E+00 0.0000E+00 0.9000E+01
       -1 -1    0    0    0  501 0.00000000E+00 0.00000000E+00 -.98165831E+02 0.98166352E+02 0.32000000E+00 0.0000E+00 0.9000E+01
       25  2    1    2    0    0 -.73273765E+02 -.16387917E+03 0.14471649E+04 0.14883504E+04 0.29778388E+03 0.0000E+00 0.0000E+00
       23  2    1    2    0    0 0.73273765E+02 0.16387917E+03 0.53145995E+02 0.20829271E+03 0.91301304E+02 0.0000E+00 0.0000E+00
       23  1    3    3    0    0 -.13292869E+03 -.86866409E+02 0.11224451E+04 0.11372836E+04 0.91188000E+02 0.0000E+00 0.9000E+01
      -11  1    4    4    0    0 0.52534204E+02 0.10211935E+03 -.12850724E+02 0.11555667E+03 0.51099893E-03 0.0000E+00 0.9000E+01
       11  1    4    4    0    0 0.20739562E+02 0.61759828E+02 0.65996719E+02 0.92736038E+02 0.51099893E-03 0.0000E+00 0.9000E+01
       23  1    3    3    0    0 0.59654924E+02 -.77012765E+02 0.32471982E+03 0.35106679E+03 0.91188000E+02 0.0000E+00 0.9000E+01
#aMCatNLO 1  0  0  2  1 0.68657419D+03 0.00000000D+00  -5  7  0 0.00000000D+00 0.00000000D+00 0.00000000D+00 0.00000000D+00 0.00000000D+00
  <mgrwgt>
 0.3545139768D-03    5    2    0
 0.396126575064806D+03 0.000000000000000D+00 0.000000000000000D+00 0.396126575064806D+03
 0.396126575064806D+03 0.000000000000000D+00 0.000000000000000D+00 -.396126575064806D+03
 0.309936060946911D+03 -.132928688932595D+03 -.868664086869853D+02 0.250058595596660D+03
 0.271805180957068D+03 0.525342038142517D+02 0.102119346141667D+03 -.246353106268839D+03
 0.736183397906357D+02 0.207395615714166D+02 0.617598275004815D+02 -.342819813672675D+02
 0.136893568434997D+03 0.596549235469264D+02 -.770127649551630D+02 0.305764920394458D+02
 0.000000000000000D+00 -.000000000000000D+00 -.000000000000000D+00 -.000000000000000D+00
 0.842118661713789D+03 0.000000000000000D+00 0.000000000000000D+00 0.842118661713789D+03
 0.894831572683942D+03 0.000000000000000D+00 0.000000000000000D+00 -.894831572683942D+03
 0.293177537182813D+03 -.377475292348208D+02 0.116977090789060D+03 0.250058595596660D+03
 0.459116857070785D+03 0.167885619275436D+03 0.349160212966416D+03 -.246353106268839D+03
 0.153515672900900D+03 0.565850122490835D+02 0.138527773274970D+03 -.342819813672675D+02
 0.142545391614435D+03 0.103754947762471D+03 0.174334814618695D+02 0.305764920394458D+02
 0.688594775628798D+03 -.290478050052169D+03 -.622098558492316D+03 -.527129109701539D+02
0.134347800532D-04 0.000000000000D+00 0.000000000000D+00 0.115682188002D-06 0.000000000000D+00  7 1 -1 23 -11 11 23 21 0 0.24591954D+00 0.15102478D-01 0.61637744D+05 0.61637744D+05 0.61637744D+05 0.11393867D+01  1  2  2  2  7  2       -1 0.293104192397D-03 0.100000000000D+01
-.548278501139D-06 0.000000000000D+00 -.515930928630D-07 0.115682188002D-06 0.000000000000D+00  7 1 -1 23 -11 11 23 21 2 0.24591954D+00 0.15102478D-01 0.61637744D+05 0.61637744D+05 0.61637744D+05 0.11393867D+01  1  2  3  2  7  2       -1 -.155286950707D-04 0.100000000000D+01
0.796052439342D-06 0.000000000000D+00 0.000000000000D+00 0.115682188002D-06 0.000000000000D+00  7 1 -1 23 -11 11 23 21 2 0.24591954D+00 0.15102478D-01 0.61637744D+05 0.61637744D+05 0.61637744D+05 0.11393867D+01  1  2 15  2  7  2       -1 0.225463073331D-04 0.100000000000D+01
0.159297701966D-04 0.000000000000D+00 -.611419395274D-05 0.115682188002D-06 0.000000000000D+00  7 1 -1 23 -11 11 23 21 2 0.24591954D+00 0.86683409D-01 0.61637744D+05 0.61637744D+05 0.61637744D+05 0.11393867D+01  1  2  5  2  7  2       -1 0.218965817246D-04 0.100000000000D+01
0.307253391443D-05 0.000000000000D+00 -.130882725276D-05 0.115682188002D-06 0.000000000000D+00  7 1 21 23 -11 11 23 1 2 0.24591954D+00 0.86683409D-01 0.61637744D+05 0.61637744D+05 0.61637744D+05 0.11393867D+01  1  2  5  4  7  2       -1 0.324955903726D-04 0.100000000000D+01
  </mgrwgt>
  </event>
  <event>
  8     66 0.56006291E-06 0.11341859E+03 0.75467711E-02 0.10150798E+00
        1 -1    0    0  501    0 0.00000000E+00 0.00000000E+00 0.18960461E+04 0.18960461E+04 0.32000000E+00 0.0000E+00 0.9000E+01
       -1 -1    0    0    0  501 0.00000000E+00 0.00000000E+00 -.46041909E+02 0.46043021E+02 0.32000000E+00 0.0000E+00 0.9000E+01
       25  2    1    2    0    0 -.16684791E+03 -.10016028E+03 0.13764989E+04 0.14222544E+04 0.30031328E+03 0.0000E+00 0.0000E+00
       23  2    1    2    0    0 0.16684791E+03 0.10016028E+03 0.47350531E+03 0.51983476E+03 0.90280635E+02 0.0000E+00 0.0000E+00
       23  1    3    3    0    0 0.30672402E+02 -.43766438E+02 0.73424443E+03 0.74181293E+03 0.91188000E+02 0.0000E+00 0.9000E+01
      -13  1    4    4    0    0 0.17906576E+02 0.23534611E+02 0.18264168E+02 0.34757940E+02 0.10565837E+00 0.0000E+00 0.9000E+01
       13  1    4    4    0    0 0.14894133E+03 0.76625669E+02 0.45524114E+03 0.48507682E+03 0.10565837E+00 0.0000E+00 0.9000E+01
       23  1    3    3    0    0 -.19752031E+03 -.56393842E+02 0.64225443E+03 0.68044143E+03 0.91188000E+02 0.0000E+00 0.9000E+01
#aMCatNLO 1  0  0  1  2 0.40307737D+02 0.00000000D+00  -5  7  0 0.00000000D+00 0.00000000D+00 0.00000000D+00 0.00000000D+00 0.00000000D+00
  <mgrwgt>
 0.3875943318D-03    9    2    0
 0.295463513209583D+03 0.000000000000000D+00 0.000000000000000D+00 0.295463513209583D+03
 0.295463513209583D+03 0.000000000000000D+00 0.000000000000000D+00 -.295463513209583D+03
 0.139292291466729D+03 0.306724008236224D+02 -.437664379937774D+02 0.907237226479608D+02
 0.570529640427241D+02 0.179063968170451D+02 0.235345380433842D+02 -.487906464209626D+02
 0.168996331293109D+03 0.148941511702845D+03 0.766257419612181D+02 -.224651229930853D+02
 0.225585439616604D+03 -.197520309343512D+03 -.563938420108249D+02 -.194679532339129D+02
 0.000000000000000D+00 0.000000000000000D+00 -.000000000000000D+00 0.000000000000000D+00
 0.328635635442970D+03 0.000000000000000D+00 0.000000000000000D+00 0.328635635442970D+03
 0.308653425766715D+03 0.000000000000000D+00 0.000000000000000D+00 -.308653425766715D+03
 0.136081364961113D+03 0.235719784905977D+02 -.376358143875539D+02 0.907237226479608D+02
 0.573101549307771D+02 0.149575800908287D+02 0.260805958106928D+02 -.487906464209626D+02
 0.165115070871183D+03 0.140326555238165D+03 0.840640397119455D+02 -.224651229930853D+02
 0.233793556326836D+03 -.209365250956415D+03 -.461667209663976D+02 -.194679532339129D+02
 0.449889141197749D+02 0.305091371368237D+02 -.263421001686869D+02 0.199822096762552D+02
0.399793666511D-05 0.000000000000D+00 0.000000000000D+00 0.369651228754D-06 0.000000000000D+00  7 1 -1 23 -13 13 23 21 0 0.29169948D+00 0.70834583D-02 0.69566187D+05 0.69566187D+05 0.69566187D+05 0.11348892D+01  1  2  2  1  7  1        1 0.177606940027D-03 0.100000000000D+01
-.218626993867D-06 0.000000000000D+00 -.153531294749D-07 0.369651228754D-06 0.000000000000D+00  7 1 -1 23 -13 13 23 21 2 0.29169948D+00 0.70834583D-02 0.69566187D+05 0.69566187D+05 0.69566187D+05 0.11348892D+01  1  2  3  1  7  1        1 -.125093497636D-04 0.100000000000D+01
0.256741036280D-06 0.000000000000D+00 0.000000000000D+00 0.369651228754D-06 0.000000000000D+00  7 1 -1 23 -13 13 23 21 2 0.29169948D+00 0.70834583D-02 0.69566187D+05 0.69566187D+05 0.69566187D+05 0.11348892D+01  1  2 15  1  7  1        1 0.146901504005D-04 0.100000000000D+01
0.673971241961D-05 0.000000000000D+00 0.000000000000D+00 0.369651228754D-06 0.000000000000D+00  7 1 -1 23 -13 13 23 21 2 0.33042210D+00 0.70834583D-02 0.80758532D+05 0.80758532D+05 0.80758532D+05 0.11294188D+01  1  2 12  1  7  1        1 0.260513917068D-03 0.100000000000D+01
-.656727521752D-05 0.000000000000D+00 0.000000000000D+00 0.369651228754D-06 0.000000000000D+00  7 1 -1 23 -13 13 23 21 2 0.29169948D+00 0.70834583D-02 0.69566187D+05 0.69566187D+05 0.69566187D+05 0.11348892D+01  1  2  4  1  7  1        1 -.375764864333D-03 0.100000000000D+01
-.170593122330D-04 0.000000000000D+00 -.344533214340D-05 0.369651228754D-06 0.000000000000D+00  7 1 -1 23 -13 13 23 21 2 0.33050349D+00 0.70834583D-02 0.69566187D+05 0.69566187D+05 0.69566187D+05 0.11348892D+01  1  2  5  1  7  1        1 -.667858711501D-03 0.100000000000D+01
0.173805776476D-04 0.000000000000D+00 0.341863504143D-05 0.369651228754D-06 0.000000000000D+00  7 1 -1 23 -13 13 23 21 2 0.29169948D+00 0.70834583D-02 0.69566187D+05 0.69566187D+05 0.69566187D+05 0.11348892D+01  1  2  6  1  7  1        1 0.994477950969D-03 0.100000000000D+01
0.132015904409D-06 0.000000000000D+00 0.000000000000D+00 0.369651228754D-06 0.000000000000D+00  7 21 -1 23 -13 13 23 -1 2 0.33042210D+00 0.70834583D-02 0.80758532D+05 0.80758532D+05 0.80758532D+05 0.11294188D+01  1  2 12  3  7  1        1 0.244782678162D-05 0.100000000000D+01
-.317557233471D-06 0.000000000000D+00 -.675977597751D-07 0.369651228754D-06 0.000000000000D+00  7 21 -1 23 -13 13 23 -1 2 0.33050349D+00 0.70834583D-02 0.69566187D+05 0.69566187D+05 0.69566187D+05 0.11348892D+01  1  2  5  3  7  1        1 -.600952786563D-05 0.100000000000D+01
  </mgrwgt>
  </event>
  <event>
  8     66 0.56006291E-06 0.17041421E+03 0.75467711E-02 0.97591254E-01
        1 -1    0    0  501    0 0.00000000E+00 0.00000000E+00 0.60056077E+03 0.60056086E+03 0.32000000E+00 0.0000E+00 0.9000E+01
       -1 -1    0    0    0  501 0.00000000E+00 0.00000000E+00 -.36773859E+03 0.36773873E+03 0.32000000E+00 0.0000E+00 0.9000E+01
       25  2    1    2    0    0 0.29421257E+02 0.17581081E+03 -.26045645E+03 0.43575879E+03 0.30045484E+03 0.0000E+00 0.0000E+00
       23  2    1    2    0    0 -.29421257E+02 -.17581081E+03 0.49327863E+03 0.53254079E+03 0.92199950E+02 0.0000E+00 0.0000E+00
       23  1    3    3    0    0 -.91025215E+02 0.13777818E+03 -.17862166E+03 0.25978715E+03 0.91188000E+02 0.0000E+00 0.9000E+01
      -13  1    4    4    0    0 -.12174311E+01 -.58182037E+02 0.63808013E+02 0.86360322E+02 0.10565837E+00 0.0000E+00 0.9000E+01
       13  1    4    4    0    0 -.28203826E+02 -.11762877E+03 0.42947062E+03 0.44618047E+03 0.10565837E+00 0.0000E+00 0.9000E+01
       23  1    3    3    0    0 0.12044647E+03 0.38032632E+02 -.81834796E+02 0.17597164E+03 0.91188000E+02 0.0000E+00 0.9000E+01
#aMCatNLO 1  0  0  2  1 0.24928508D+03 0.00000000D+00  -5  7  0 0.00000000D+00 0.00000000D+00 0.00000000D+00 0.00000000D+00 0.00000000D+00
  <mgrwgt>
 0.1380755979D-03    7    2    0
 0.469946250710287D+03 0.000000000000000D+00 0.000000000000000D+00 0.469946250710287D+03
 0.469946250710287D+03 0.000000000000000D+00 0.000000000000000D+00 -.469946250710287D+03
 0.311885532276212D+03 -.910252150117236D+02 0.137778178928630D+03 -.248372537818488D+03
 0.731641089010844D+02 -.121739564111104D+01 -.581819590069786D+02 0.443437078428609D+02
 0.353281273295224D+03 -.282038617363091D+02 -.117628851616881D+03 0.331927181037570D+03
 0.201561586948053D+03 0.120446472389144D+03 0.380326316952293D+02 -.127898351061943D+03
 0.000000000000000D+00 0.000000000000000D+00 -.000000000000000D+00 -.000000000000000D+00
 0.512929427286138D+03 0.000000000000000D+00 0.000000000000000D+00 0.512929427286138D+03
 0.106730157545122D+04 0.000000000000000D+00 0.000000000000000D+00 -.106730157545122D+04
 0.362394637521210D+03 -.104093132246583D+03 0.224700521220642D+03 -.248372537818488D+03
 0.604818140096218D+02 -.380752647633678D+01 -.409534875532410D+02 0.443437078428609D+02
 0.335756428425387D+03 -.415577879840410D+02 -.288040965020241D+02 0.331927181037570D+03
 0.213756426497780D+03 0.112397382902370D+03 0.915718222895826D+02 -.127898351061943D+03
 0.607841696283358D+03 0.370610638045912D+02 -.246514759454959D+03 -.554372148165080D+03
0.147422853389D-04 0.000000000000D+00 0.000000000000D+00 0.126803601326D-05 0.000000000000D+00  7 1 -1 23 -13 13 23 21 0 0.92393982D-01 0.56575185D-01 0.68533804D+05 0.68533804D+05 0.68533804D+05 0.11354420D+01  1  2  2  2  7  2       -1 0.201191261588D-03 0.100000000000D+01
-.478137002236D-06 0.000000000000D+00 -.566142574343D-07 0.126803601326D-05 0.000000000000D+00  7 1 -1 23 -13 13 23 21 2 0.92393982D-01 0.56575185D-01 0.68533804D+05 0.68533804D+05 0.68533804D+05 0.11354420D+01  1  2  3  2  7  2       -1 -.841252827805D-05 0.100000000000D+01
0.906753310717D-06 0.000000000000D+00 0.000000000000D+00 0.126803601326D-05 0.000000000000D+00  7 1 -1 23 -13 13 23 21 2 0.92393982D-01 0.56575185D-01 0.68533804D+05 0.68533804D+05 0.68533804D+05 0.11354420D+01  1  2 15  2  7  2       -1 0.159537702206D-04 0.100000000000D+01
0.761118103182D-07 0.000000000000D+00 0.000000000000D+00 0.126803601326D-05 0.000000000000D+00  7 1 -1 23 -13 13 23 21 2 0.92393982D-01 0.12774781D+00 0.15060072D+06 0.15060072D+06 0.15060072D+06 0.11074149D+01  1  2 12  2  7  2       -1 0.222918187801D-06 0.100000000000D+01
-.165112039142D-04 0.000000000000D+00 -.433422493046D-05 0.126803601326D-05 0.000000000000D+00  7 1 -1 23 -13 13 23 21 2 0.92393982D-01 0.13407504D+00 0.68533804D+05 0.68533804D+05 0.68533804D+05 0.11354420D+01  1  2  5  2  7  2       -1 -.467736981322D-04 0.100000000000D+01
0.673392428341D-08 0.000000000000D+00 0.000000000000D+00 0.126803601326D-05 0.000000000000D+00  7 1 21 23 -13 13 23 1 2 0.92393982D-01 0.12774781D+00 0.15060072D+06 0.15060072D+06 0.15060072D+06 0.11074149D+01  1  2 12  4  7  2       -1 0.129824260599D-06 0.100000000000D+01
-.128284339653D-05 0.000000000000D+00 -.408461492676D-06 0.126803601326D-05 0.000000000000D+00  7 1 21 23 -13 13 23 1 2 0.92393982D-01 0.13407504D+00 0.68533804D+05 0.68533804D+05 0.68533804D+05 0.11354420D+01  1  2  5  4  7  2       -1 -.242359499903D-04 0.100000000000D+01
  </mgrwgt>
  </event>
  <event>
  8     66 0.56006291E-06 0.79551190E+02 0.75467711E-02 0.10424269E+00
        1 -1    0    0  501    0 0.00000000E+00 0.00000000E+00 0.46452483E+03 0.46452494E+03 0.32000000E+00 0.0000E+00 0.9000E+01
       -1 -1    0    0    0  501 0.00000000E+00 0.00000000E+00 -.13760730E+03 0.13760767E+03 0.32000000E+00 0.0000E+00 0.9000E+01
       25  2    1    2    0    0 0.42855307E+02 -.13694713E+03 0.17096130E+03 0.37268818E+03 0.29845874E+03 0.0000E+00 0.0000E+00
       23  2    1    2    0    0 -.42855307E+02 0.13694713E+03 0.15595623E+03 0.22944443E+03 0.87927871E+02 0.0000E+00 0.0000E+00
       23  1    3    3    0    0 -.35070432E+02 -.51124002E+02 -.38251141E+02 0.11671332E+03 0.91188000E+02 0.0000E+00 0.9000E+01
      -13  1    4    4    0    0 0.88437683E+01 0.10669725E+03 0.85837787E+02 0.13722483E+03 0.10565837E+00 0.0000E+00 0.9000E+01
       13  1    4    4    0    0 -.51699076E+02 0.30249874E+02 0.70118441E+02 0.92219609E+02 0.10565837E+00 0.0000E+00 0.9000E+01
       23  1    3    3    0    0 0.77925740E+02 -.85823124E+02 0.20921244E+03 0.25597486E+03 0.91188000E+02 0.0000E+00 0.9000E+01
#aMCatNLO 1  0  0  2  1 0.38622991D+02 0.00000000D+00  -5  7  0 0.00000000D+00 0.00000000D+00 0.00000000D+00 0.00000000D+00 0.00000000D+00
  <mgrwgt>
 0.8986104250D-04    6    2    0
 0.252828308030926D+03 0.000000000000000D+00 0.000000000000000D+00 0.252828308030926D+03
 0.252828308030926D+03 0.000000000000000D+00 0.000000000000000D+00 -.252828308030926D+03
 0.163711627887226D+03 -.350704314994851D+02 -.511240053781157D+02 -.121006804230274D+03
 0.107910576552290D+03 0.884384770951200D+01 0.106697362348576D+03 0.134963608945225D+02
 0.644814140260918D+02 -.516991567967864D+02 0.302497702980058D+02 0.238747007986162D+02
 0.169552997596245D+03 0.779257405867594D+02 -.858231272684660D+02 0.836357425371357D+02
 0.000000000000000D+00 0.000000000000000D+00 -.000000000000000D+00 0.000000000000000D+00
 0.274778109559612D+03 0.000000000000000D+00 0.000000000000000D+00 0.274778109559612D+03
 0.271144908274825D+03 0.000000000000000D+00 0.000000000000000D+00 -.271144908274825D+03
 0.163491221083193D+03 -.442085835103003D+02 -.426272506885243D+02 -.121006804230274D+03
 0.113279673938857D+03 0.266642554262515D+01 0.112441197721851D+03 0.134963608945225D+02
 0.691344935502621D+02 -.554307944592877D+02 0.337194882203153D+02 0.238747007986162D+02
 0.161224130176914D+03 0.686877657806010D+02 -.772335562410137D+02 0.836357425371357D+02
 0.387934990852097D+02 0.282851866463619D+02 -.262998790126279D+02 0.363320128478709D+01
0.624745734953D-06 0.000000000000D+00 0.000000000000D+00 0.192654655020D-08 0.000000000000D+00  7 1 -1 23 -13 13 23 21 0 0.71465396D-01 0.21170391D-01 0.45096567D+05 0.45096567D+05 0.45096567D+05 0.11512593D+01  1  2  2  2  7  2       -1 0.646666761304D-04 0.100000000000D+01
-.334241280598D-07 0.000000000000D+00 -.239918812155D-08 0.192654655020D-08 0.000000000000D+00  7 1 -1 23 -13 13 23 21 2 0.71465396D-01 0.21170391D-01 0.45096567D+05 0.45096567D+05 0.45096567D+05 0.11512593D+01  1  2  3  2  7  2       -1 -.458546761731D-05 0.100000000000D+01
0.392313464305D-07 0.000000000000D+00 0.000000000000D+00 0.192654655020D-08 0.000000000000D+00  7 1 -1 23 -13 13 23 21 2 0.71465396D-01 0.21170391D-01 0.45096567D+05 0.45096567D+05 0.45096567D+05 0.11512593D+01  1  2 15  2  7  2       -1 0.538216190169D-05 0.100000000000D+01
0.671109484508D-06 0.000000000000D+00 0.000000000000D+00 0.192654655020D-08 0.000000000000D+00  7 1 -1 23 -13 13 23 21 2 0.71465396D-01 0.23553641D-01 0.53766245D+05 0.53766245D+05 0.53766245D+05 0.11445315D+01  1  2 12  2  7  2       -1 0.766824679720D-04 0.100000000000D+01
-.494454817971D-06 0.000000000000D+00 0.000000000000D+00 0.192654655020D-08 0.000000000000D+00  7 1 -1 23 -13 13 23 21 2 0.71465396D-01 0.21170391D-01 0.45096567D+05 0.45096567D+05 0.45096567D+05 0.11512593D+01  1  2  4  2  7  2       -1 -.678344264351D-04 0.100000000000D+01
0.115233784617D-07 0.000000000000D+00 0.000000000000D+00 0.192654655020D-08 0.000000000000D+00  7 1 21 23 -13 13 23 1 2 0.71465396D-01 0.23553641D-01 0.53766245D+05 0.53766245D+05 0.53766245D+05 0.11445315D+01  1  2 12  4  7  2       -1 0.155496305532D-04 0.100000000000D+01
  </mgrwgt>
  </event>
  <event>
  8     66 0.56006291E-06 0.35191289E+03 0.75467711E-02 0.86859524E-01
        1 -1    0    0  501    0 0.00000000E+00 0.00000000E+00 0.10565930E+04 0.10565930E+04 0.32000000E+00 0.0000E+00 0.9000E+01
       -1 -1    0    0    0  501 0.00000000E+00 0.00000000E+00 -.13192893E+03 0.13192932E+03 0.32000000E+00 0.0000E+00 0.9000E+01
       25  2    1    2    0    0 0.13224863E+03 -.26932829E+03 0.44194239E+03 0.61291082E+03 0.30053148E+03 0.0000E+00 0.0000E+00
       23  2    1    2    0    0 -.13224863E+03 0.26932829E+03 0.48272165E+03 0.57561152E+03 0.90999985E+02 0.0000E+00 0.0000E+00
       23  1    3    3    0    0 -.39416102E+02 -.97071462E+02 0.26327680E+03 0.29766831E+03 0.91188000E+02 0.0000E+00 0.9000E+01
      -11  1    4    4    0    0 -.10223811E+03 0.14572172E+03 0.21438947E+03 0.27865803E+03 0.51099893E-03 0.0000E+00 0.9000E+01
       11  1    4    4    0    0 -.30010519E+02 0.12360657E+03 0.26833218E+03 0.29695348E+03 0.51099893E-03 0.0000E+00 0.9000E+01
       23  1    3    3    0    0 0.17166474E+03 -.17225683E+03 0.17866559E+03 0.31524251E+03 0.91188000E+02 0.0000E+00 0.9000E+01
#aMCatNLO 1  0  0  1  2 0.95075682D+03 0.00000000D+00  -5  7  0 0.00000000D+00 0.00000000D+00 0.00000000D+00 0.00000000D+00 0.00000000D+00
  <mgrwgt>
 0.2024064065D-03    3    2    0
 0.373356988398000D+03 0.000000000000000D+00 0.000000000000000D+00 0.373356988398000D+03
 0.373356988398000D+03 0.000000000000000D+00 0.000000000000000D+00 -.373356988398000D+03
 0.147771235034564D+03 -.394161017392630D+02 -.970714623103265D+02 0.504439162660396D+02
 0.178050851403469D+03 -.102238114286854D+03 0.145721722723876D+03 -.382794970631915D+01
 0.140373341181310D+03 -.300105194454833D+02 0.123606568593673D+03 0.593755828393652D+02
 0.280518549176658D+03 0.171664735471601D+03 -.172256829007223D+03 -.105991549399086D+03
 0.000000000000000D+00 -.000000000000000D+00 0.000000000000000D+00 -.000000000000000D+00
 0.899913738881744D+03 0.000000000000000D+00 0.000000000000000D+00 0.899913738881744D+03
 0.136935743567444D+04 0.000000000000000D+00 0.000000000000000D+00 -.136935743567444D+04
 0.339245645356187D+03 0.389907900583769D+02 -.320480086981242D+03 0.504439162660396D+02
 0.700851125695011D+02 -.622896639113318D+02 0.318946323813093D+02 -.382794970631915D+01
 0.661088426156205D+02 0.323191402030703D+01 0.288872630449459D+02 0.593755828393652D+02
 0.733493933686657D+03 0.334914861343069D+03 -.637413465906282D+03 -.105991549399086D+03
 0.106033764032822D+04 -.314847901510421D+03 0.897111657461269D+03 -.469443696792697D+03
0.635223305062D-05 0.000000000000D+00 0.000000000000D+00 0.446359807730D-06 0.000000000000D+00  7 1 -1 23 -11 11 23 21 0 0.16255280D+00 0.20296792D-01 0.12384268D+06 0.12384268D+06 0.12384268D+06 0.11141797D+01  1  2  2  1  7  1        1 0.200139316447D-03 0.100000000000D+01
-.351400544609D-06 0.000000000000D+00 -.243942474958D-07 0.446359807730D-06 0.000000000000D+00  7 1 -1 23 -11 11 23 21 2 0.16255280D+00 0.20296792D-01 0.12384268D+06 0.12384268D+06 0.12384268D+06 0.11141797D+01  1  2  3  1  7  1        1 -.137441822382D-04 0.100000000000D+01
0.409363738151D-06 0.000000000000D+00 0.000000000000D+00 0.446359807730D-06 0.000000000000D+00  7 1 -1 23 -11 11 23 21 2 0.16255280D+00 0.20296792D-01 0.12384268D+06 0.12384268D+06 0.12384268D+06 0.11141797D+01  1  2 15  1  7  1        1 0.160112723363D-04 0.100000000000D+01
  </mgrwgt>
  </event>
  <event>
  8     66 0.56006291E-06 0.24163324E+03 0.75467711E-02 0.95110356E-01
        1 -1    0    0  501    0 0.00000000E+00 0.00000000E+00 0.24282243E+04 0.24282243E+04 0.32000000E+00 0.0000E+00 0.9000E+01
       -1 -1    0    0    0  501 0.00000000E+00 0.00000000E+00 -.30673788E+02 0.30675457E+02 0.32000000E+00 0.0000E+00 0.9000E+01
       25  2    1    2    0    0 0.14820632E+03 -.71607143E+02 0.12419781E+04 0.12882812E+04 0.30011027E+03 0.0000E+00 0.0000E+00
       23  2    1    2    0    0 -.14820632E+03 0.71607143E+02 0.11555725E+04 0.11706186E+04 0.88924350E+02 0.0000E+00 0.0000E+00
       23  1    3    3    0    0 -.15753430E+02 0.39483226E+02 0.20170868E+03 0.22540794E+03 0.91188000E+02 0.0000E+00 0.9000E+01
      -11  1    4    4    0    0 -.24258989E+02 0.12867998E+02 0.54413649E+02 0.60950218E+02 0.51099893E-03 0.0000E+00 0.9000E+01
       11  1    4    4    0    0 -.12394734E+03 0.58739145E+02 0.11011588E+04 0.11096684E+04 0.51099893E-03 0.0000E+00 0.9000E+01
       23  1    3    3    0    0 0.16395975E+03 -.11109037E+03 0.10402694E+04 0.10628732E+04 0.91188000E+02 0.0000E+00 0.9000E+01
#aMCatNLO 1  0  0  1  1 0.35578603D+03 0.00000000D+00  -5  7  0 0.00000000D+00 0.00000000D+00 0.00000000D+00 0.00000000D+00 0.00000000D+00
  <mgrwgt>
 0.3667247712D-03    5    2    0
 0.272919248276878D+03 0.000000000000000D+00 0.000000000000000D+00 0.272919248276878D+03
 0.272919248276878D+03 0.000000000000000D+00 0.000000000000000D+00 -.272919248276878D+03
 0.129431654563851D+03 -.157534298453256D+02 0.394832255205256D+02 -.814260781920612D+02
 0.355618129323781D+02 -.242589890387920D+02 0.128679980292095D+02 -.225955441752015D+02
 0.162098332358392D+03 -.123947335521351D+03 0.587391450097317D+02 0.863865742697044D+02
 0.218746696699134D+03 0.163959754405469D+03 -.111090368559467D+03 0.176350480975583D+02
 0.000000000000000D+00 -.000000000000000D+00 -.000000000000000D+00 0.000000000000000D+00
 0.511583219899420D+03 0.000000000000000D+00 0.000000000000000D+00 0.511583219899420D+03
 0.496094374264933D+03 0.000000000000000D+00 0.000000000000000D+00 -.496094374264933D+03
 0.171739447567980D+03 0.286826249844629D+02 0.117159239162842D+03 -.814260781920612D+02
 0.418779642014132D+02 -.128331976585238D+02 0.328407415710824D+02 -.225955441752015D+02
 0.186608969279437D+03 -.724975892958865D+02 0.148675373709851D+03 0.863865742697044D+02
 0.251328194227190D+03 0.233316586715913D+03 0.101481678805944D+02 0.176350480975583D+02
 0.356123018888333D+03 -.176668424745965D+03 -.308823522324369D+03 0.154888456344862D+02
0.994652948713D-05 0.000000000000D+00 0.000000000000D+00 0.143479344972D-06 0.000000000000D+00  7 1 -1 23 -11 11 23 21 0 0.37357310D+00 0.47191744D-02 0.58386620D+05 0.58386620D+05 0.58386620D+05 0.11414186D+01  1  2  2  1  7  1        1 0.362084341754D-03 0.100000000000D+01
-.542625100017D-06 0.000000000000D+00 -.381972922119D-07 0.143479344972D-06 0.000000000000D+00  7 1 -1 23 -11 11 23 21 2 0.37357310D+00 0.47191744D-02 0.58386620D+05 0.58386620D+05 0.58386620D+05 0.11414186D+01  1  2  3  1  7  1        1 -.257352229274D-04 0.100000000000D+01
0.644727268026D-06 0.000000000000D+00 0.000000000000D+00 0.143479344972D-06 0.000000000000D+00  7 1 -1 23 -11 11 23 21 2 0.37357310D+00 0.47191744D-02 0.58386620D+05 0.58386620D+05 0.58386620D+05 0.11414186D+01  1  2 15  1  7  1        1 0.305776492269D-04 0.100000000000D+01
-.100381374632D-05 0.000000000000D+00 -.217956453561D-05 0.143479344972D-06 0.000000000000D+00  7 1 -1 23 -11 11 23 21 2 0.77499062D+00 0.47191744D-02 0.58386620D+05 0.58386620D+05 0.58386620D+05 0.11414186D+01  1  2  5  1  7  1        1 -.202405789216D-06 0.100000000000D+01
0.548915948385D-07 0.000000000000D+00 -.171986408135D-06 0.143479344972D-06 0.000000000000D+00  7 21 -1 23 -11 11 23 -1 2 0.77499062D+00 0.47191744D-02 0.58386620D+05 0.58386620D+05 0.58386620D+05 0.11414186D+01  1  2  5  3  7  1        1 0.408925311282D-09 0.100000000000D+01
  </mgrwgt>
  </event>
  <event>
  8     66 0.56006291E-06 0.24730341E+03 0.75467711E-02 0.91076032E-01
        1 -1    0    0  501    0 0.00000000E+00 0.00000000E+00 0.23424022E+03 0.23424044E+03 0.32000000E+00 0.0000E+00 0.9000E+01
       -1 -1    0    0    0  501 0.00000000E+00 0.00000000E+00 -.58994903E+03 0.58994911E+03 0.32000000E+00 0.0000E+00 0.9000E+01
       25  2    1    2    0    0 -.11014233E+03 -.10948542E+03 -.49269432E+03 0.59753830E+03 0.30030973E+03 0.0000E+00 0.0000E+00
       23  2    1    2    0    0 0.11014233E+03 0.10948542E+03 0.13698552E+03 0.22665125E+03 0.92126918E+02 0.0000E+00 0.0000E+00
       23  1    3    3    0    0 0.71881785E+02 -.39257321E+02 -.16995415E+03 0.20954186E+03 0.91188000E+02 0.0000E+00 0.9000E+01
      -13  1    4    4    0    0 0.40842407E+02 0.55088634E+02 0.60603748E+01 0.68844746E+02 0.10565837E+00 0.0000E+00 0.9000E+01
       13  1    4    4    0    0 0.69299922E+02 0.54396784E+02 0.13092514E+03 0.15780651E+03 0.10565837E+00 0.0000E+00 0.9000E+01
       23  1    3    3    0    0 -.18202411E+03 -.70228097E+02 -.32274018E+03 0.38799644E+03 0.91188000E+02 0.0000E+00 0.9000E+01
#aMCatNLO 1  0  0  2  1 0.61211743D+03 0.00000000D+00  -5  7  0 0.00000000D+00 0.00000000D+00 0.00000000D+00 0.00000000D+00 0.00000000D+00
  <mgrwgt>
 0.1506155514D-03    5    2    0
 0.371739043909063D+03 0.000000000000000D+00 0.000000000000000D+00 0.371739043909063D+03
 0.371739043909063D+03 0.000000000000000D+00 0.000000000000000D+00 -.371739043909063D+03
 0.150976912473156D+03 0.718817850627012D+02 -.392573214600372D+02 -.881512815783757D+02
 0.792177948951247D+02 0.408423689904752D+02 0.550886348027974D+02 0.396560492088653D+02
 0.237577756295487D+03 0.692999598682602D+02 0.543967839050153D+02 0.220639288771167D+03
 0.275705624154358D+03 -.182024113921437D+03 -.702280972477755D+02 -.172144056401657D+03
 0.000000000000000D+00 -.000000000000000D+00 -.000000000000000D+00 -.000000000000000D+00
 0.724303720463691D+03 0.000000000000000D+00 0.000000000000000D+00 0.724303720463691D+03
 0.867345534329864D+03 0.000000000000000D+00 0.000000000000000D+00 -.867345534329864D+03
 0.225217119462690D+03 0.182049763695043D+03 0.386617983252238D+02 -.881512815783757D+02
 0.156255820196857D+03 0.109800539492121D+03 0.103861064089367D+03 0.396560492088653D+02
 0.380182103397305D+03 0.250210206297050D+03 0.182350181406381D+03 0.220639288771167D+03
 0.201385666949978D+03 -.423084919228873D+02 0.285893488152794D+02 -.172144056401657D+03
 0.628608544786726D+03 -.499752017561327D+03 -.353462392636251D+03 -.143041813866173D+03
0.752908437535D-05 0.000000000000D+00 0.000000000000D+00 0.858689430000D-06 0.000000000000D+00  7 1 -1 23 -13 13 23 21 0 0.36036981D-01 0.90761412D-01 0.61158976D+05 0.61158976D+05 0.61158976D+05 0.11396784D+01  1  2  2  2  7  2       -1 0.144205086388D-03 0.100000000000D+01
-.333799588796D-06 0.000000000000D+00 -.289136664548D-07 0.858689430000D-06 0.000000000000D+00  7 1 -1 23 -13 13 23 21 2 0.36036981D-01 0.90761412D-01 0.61158976D+05 0.61158976D+05 0.61158976D+05 0.11396784D+01  1  2  3  2  7  2       -1 -.830402868338D-05 0.100000000000D+01
0.482594550534D-06 0.000000000000D+00 0.000000000000D+00 0.858689430000D-06 0.000000000000D+00  7 1 -1 23 -13 13 23 21 2 0.36036981D-01 0.90761412D-01 0.61158976D+05 0.61158976D+05 0.61158976D+05 0.11396784D+01  1  2 15  2  7  2       -1 0.120056438791D-04 0.100000000000D+01
0.333371764665D-05 0.000000000000D+00 -.235123006327D-05 0.858689430000D-06 0.000000000000D+00  7 1 -1 23 -13 13 23 21 2 0.36036981D-01 0.32073864D+00 0.61158976D+05 0.61158976D+05 0.61158976D+05 0.11396784D+01  1  2  5  2  7  2       -1 0.965959941853D-06 0.100000000000D+01
0.565113405050D-06 0.000000000000D+00 -.347806307433D-06 0.858689430000D-06 0.000000000000D+00  7 1 21 23 -13 13 23 1 2 0.36036981D-01 0.32073864D+00 0.61158976D+05 0.61158976D+05 0.61158976D+05 0.11396784D+01  1  2  5  4  7  2       -1 0.174288983809D-05 0.100000000000D+01
  </mgrwgt>
  </event>
  <event>
  8     66 0.56006291E-06 0.30648497E+03 0.75467711E-02 0.98393829E-01
        3 -1    0    0  501    0 0.00000000E+00 0.00000000E+00 0.48819731E+03 0.48819757E+03 0.50000000E+00 0.0000E+00 0.9000E+01
       -3 -1    0    0    0  501 0.00000000E+00 0.00000000E+00 -.35910696E+03 0.35910731E+03 0.50000000E+00 0.0000E+00 0.9000E+01
       25  2    1    2    0    0 -.15947717E+02 0.23674632E+03 0.34353350E+03 0.51424681E+03 0.30021886E+03 0.0000E+00 0.0000E+00
       23  2    1    2    0    0 0.15947717E+02 -.23674632E+03 -.21444315E+03 0.33305807E+03 0.92944405E+02 0.0000E+00 0.0000E+00
       23  1    3    3    0    0 -.10044248E+03 0.17668747E+03 0.12411084E+03 0.25500178E+03 0.91188000E+02 0.0000E+00 0.9000E+01
      -11  1    4    4    0    0 -.61585637E+00 0.74059683E+01 0.36407907E+00 0.74404435E+01 0.51099893E-03 0.0000E+00 0.9000E+01
       11  1    4    4    0    0 0.16563574E+02 -.24415229E+03 -.21480723E+03 0.32561762E+03 0.51099893E-03 0.0000E+00 0.9000E+01
       23  1    3    3    0    0 0.84494766E+02 0.60058843E+02 0.21942266E+03 0.25924503E+03 0.91188000E+02 0.0000E+00 0.9000E+01
#aMCatNLO 1  0  0  2  1 0.10195069D+03 0.00000000D+00  -5  7  0 0.00000000D+00 0.00000000D+00 0.00000000D+00 0.00000000D+00 0.00000000D+00
  <mgrwgt>
 0.2427278294D-04    4    2    0
 0.418706708903681D+03 0.000000000000000D+00 0.000000000000000D+00 0.418706708903681D+03
 0.418706708903681D+03 0.000000000000000D+00 0.000000000000000D+00 -.418706708903681D+03
 0.238881698761846D+03 -.100442483032501D+03 0.176687474746349D+03 0.862673665378129D+02
 0.747220529658178D+01 -.615856368071749D+00 0.740596835058423D+01 -.778592138616133D+00
 0.362577112517200D+03 0.165635738036441D+02 -.244152286381045D+03 -.267539663599754D+03
 0.228482401231734D+03 0.844947655969287D+02 0.600588432841124D+02 0.182050889200557D+03
 0.000000000000000D+00 0.000000000000000D+00 0.000000000000000D+00 0.000000000000000D+00
 0.550321192772586D+03 0.000000000000000D+00 0.000000000000000D+00 0.550321192772586D+03
 0.442016359079497D+03 0.000000000000000D+00 0.000000000000000D+00 -.442016359079497D+03
 0.223892598036933D+03 -.109007587656909D+03 0.149959765989347D+03 0.862673665378129D+02
 0.669163084916565D+01 -.878003032894066D+00 0.658793050793793D+01 -.778592138616133D+00
 0.392945199594704D+03 0.258023960795400D+01 -.287787770151925D+03 -.267539663599754D+03
 0.220067142571801D+03 0.761929350966533D+02 0.341526906459944D+02 0.182050889200557D+03
 0.148740980799480D+03 0.311124159851953D+02 0.970873830086463D+02 0.108304833693089D+03
0.122518259407D-04 0.000000000000D+00 0.000000000000D+00 0.559310209477D-06 0.000000000000D+00  7 3 -3 23 -11 11 23 21 0 0.75107325D-01 0.55247271D-01 0.93933037D+05 0.93933037D+05 0.93933037D+05 0.11239595D+01  1  2  2  2  7  2       -3 0.285042220079D-04 0.100000000000D+01
-.600096060131D-06 0.000000000000D+00 -.470502375923D-07 0.559310209477D-06 0.000000000000D+00  7 3 -3 23 -11 11 23 21 2 0.75107325D-01 0.55247271D-01 0.93933037D+05 0.93933037D+05 0.93933037D+05 0.11239595D+01  1  2  3  2  7  2       -3 -.176372325864D-05 0.100000000000D+01
0.766668378416D-06 0.000000000000D+00 0.000000000000D+00 0.559310209477D-06 0.000000000000D+00  7 3 -3 23 -11 11 23 21 2 0.75107325D-01 0.55247271D-01 0.93933037D+05 0.93933037D+05 0.93933037D+05 0.11239595D+01  1  2 15  2  7  2       -3 0.225329066546D-05 0.100000000000D+01
-.160629360309D-05 0.000000000000D+00 0.000000000000D+00 0.559310209477D-06 0.000000000000D+00  7 3 -3 23 -11 11 23 21 2 0.75107325D-01 0.55247271D-01 0.93933037D+05 0.93933037D+05 0.93933037D+05 0.11239595D+01  1  2  4  2  7  2       -3 -.472100647913D-05 0.100000000000D+01
  </mgrwgt>
  </event>
  <event>
  9     66 0.56006291E-06 0.20715379E+03 0.75467711E-02 0.99664596E-01
        1 -1    0    0  502    0 0.00000000E+00 0.00000000E+00 0.23637894E+04 0.23637894E+04 0.32000000E+00 0.0000E+00 0.9000E+01
       -1 -1    0    0    0  501 0.00000000E+00 0.00000000E+00 -.14035051E+03 0.14035088E+03 0.32000000E+00 0.0000E+00 0.9000E+01
       25  2    1    2    0    0 0.16331396E+03 -.24132549E+02 0.11891768E+03 0.36077838E+03 0.29793589E+03 0.0000E+00 0.0000E+00
       23  2    1    2    0    0 -.53281189E+01 0.13845262E+03 0.14780909E+04 0.14872796E+04 0.89722797E+02 0.0000E+00 0.0000E+00
       23  1    3    3    0    0 0.19750965E+03 -.37205454E+02 0.20415400E+02 0.22164464E+03 0.91188000E+02 0.0000E+00 0.9000E+01
      -11  1    4    4    0    0 -.16854143E+02 0.11195452E+03 0.13892882E+04 0.13938937E+04 0.51099893E-03 0.0000E+00 0.9000E+01
       11  1    4    4    0    0 0.11526024E+02 0.26498101E+02 0.88802700E+02 0.93385856E+02 0.51099893E-03 0.0000E+00 0.9000E+01
       23  1    3    3    0    0 -.34195693E+02 0.13072905E+02 0.98502282E+02 0.13913374E+03 0.91188000E+02 0.0000E+00 0.9000E+01
       21  1    1    2  502  501 -.15798584E+03 -.11432007E+03 0.62643029E+03 0.65608237E+03 0.75000000E+00 0.0000E+00 0.9000E+01
#aMCatNLO 2  0  0  1  2 0.19500924D+03 0.00000000D+00  -5  7  0 0.00000000D+00 0.00000000D+00 0.00000000D+00 0.00000000D+00 0.00000000D+00
  <mgrwgt>
 0.5131964279D-04    2    2    0
 0.454657303018160D+03 0.000000000000000D+00 0.000000000000000D+00 0.454657303018160D+03
 0.454657303018160D+03 0.000000000000000D+00 0.000000000000000D+00 -.454657303018160D+03
 0.384969266480225D+03 0.129622286771617D+03 -.863294032983199D+02 -.340046146410418D+03
 0.381776706353128D+03 -.826461653966537D+02 0.643467798114032D+02 0.367127439436191D+03
 0.284979287537854D+02 0.623685487269283D+01 0.226708073618468D+02 0.161018035671421D+02
 0.114070704449181D+03 -.532129762476557D+02 -.688183874930111D+00 -.431830965929150D+02
 0.000000000000000D+00 -.000000000000000D+00 -.000000000000000D+00 0.000000000000000D+00
 0.638100458711878D+03 0.000000000000000D+00 0.000000000000000D+00 0.638100458711878D+03
 0.519916241800151D+03 0.000000000000000D+00 0.000000000000000D+00 -.519916241800151D+03
 0.405389862751425D+03 0.197509650311771D+03 -.372054542072187D+02 -.340046146410418D+03
 0.384188018399157D+03 -.168541427515255D+02 0.111954520081184D+03 0.367127439436191D+03
 0.330797015401273D+02 0.115260238328439D+02 0.264981008842858D+02 0.161018035671421D+02
 0.107332555334222D+03 -.341956928001892D+02 0.130729053058541D+02 -.431830965929150D+02
 0.228026562487098D+03 -.157985838592900D+03 -.114320072064105D+03 0.118184216911727D+03
-.514698112715D-07 0.000000000000D+00 0.000000000000D+00 0.627716457170D-07 0.000000000000D+00  7 1 -1 23 -11 11 23 21 2 0.37632786D+00 0.18882154D-01 0.10761236D+06 0.10761236D+06 0.10761236D+06 0.11191167D+01  1  2 13  1  7  1        1 -.267554360511D-06 0.100000000000D+01
0.108273427646D-04 0.000000000000D+00 0.000000000000D+00 0.627716457170D-07 0.116293980380D-10  7 1 -1 23 -11 11 23 21 2 0.36365953D+00 0.21592392D-01 0.10761236D+06 0.10761236D+06 0.10761236D+06 0.11191167D+01  1  2  1  1  7  1        1 0.515871971499D-04 0.100000000000D+01
  </mgrwgt>
  </event>
  <event>
  8     66 0.56006291E-06 0.22312202E+03 0.75467711E-02 0.94055607E-01
        1 -1    0    0  501    0 0.00000000E+00 0.00000000E+00 0.82187755E+03 0.82187761E+03 0.32000000E+00 0.0000E+00 0.9000E+01
       -1 -1    0    0    0  501 0.00000000E+00 0.00000000E+00 -.20961229E+03 0.20961254E+03 0.32000000E+00 0.0000E+00 0.9000E+01
       25  2    1    2    0    0 -.29745446E+03 0.19183892E+03 0.34444136E+03 0.57809945E+03 0.30046263E+03 0.0000E+00 0.0000E+00
       23  2    1    2    0    0 0.29745446E+03 -.19183892E+03 0.26782389E+03 0.45339069E+03 0.92477839E+02 0.0000E+00 0.0000E+00
       23  1    3    3    0    0 -.70277859E+02 -.27122690E+02 0.26980146E+02 0.12131693E+03 0.91188000E+02 0.0000E+00 0.9000E+01
      -11  1    4    4    0    0 0.92891831E+02 -.71889946E+02 0.38767253E+02 0.12369299E+03 0.51099893E-03 0.0000E+00 0.9000E+01
       11  1    4    4    0    0 0.20456263E+03 -.11994898E+03 0.22905664E+03 0.32969770E+03 0.51099893E-03 0.0000E+00 0.9000E+01
       23  1    3    3    0    0 -.22717661E+03 0.21896161E+03 0.31746122E+03 0.45678252E+03 0.91188000E+02 0.0000E+00 0.9000E+01
#aMCatNLO 1  0  0  2  1 0.22006218D+03 0.00000000D+00  -5  7  0 0.00000000D+00 0.00000000D+00 0.00000000D+00 0.00000000D+00 0.00000000D+00
  <mgrwgt>
 0.2356283736D-03    9    2    0
 0.415061193389101D+03 0.000000000000000D+00 0.000000000000000D+00 0.415061193389101D+03
 0.415061193389101D+03 0.000000000000000D+00 0.000000000000000D+00 -.415061193389101D+03
 0.130846020899474D+03 -.702778585049434D+02 -.271226900978957D+02 -.559536605329650D+02
 0.125104759367741D+03 0.928918313555748D+02 -.718899460180839D+02 -.430597740981617D+02
 0.240731376898777D+03 0.204562632857305D+03 -.119948978753446D+03 0.414483722005328D+02
 0.333440229612211D+03 -.227176605707936D+03 0.218961614869426D+03 0.575650624305939D+02
 0.000000000000000D+00 0.000000000000000D+00 0.000000000000000D+00 -.000000000000000D+00
 0.509034668406713D+03 0.000000000000000D+00 0.000000000000000D+00 0.509034668406713D+03
 0.581423935187348D+03 0.000000000000000D+00 0.000000000000000D+00 -.581423935187348D+03
 0.154816904255440D+03 -.101067445931821D+03 -.480372953549440D+02 -.559536605329650D+02
 0.119764457757799D+03 0.664991093572638D+02 -.898178693319190D+02 -.430597740981617D+02
 0.222055573920863D+03 0.154682098746858D+03 -.153831591939098D+03 0.414483722005328D+02
 0.362159047271716D+03 -.302150334756171D+03 0.168033814962504D+03 0.575650624305939D+02
 0.231662620388243D+03 0.182036572583870D+03 0.123652941663457D+03 -.723892667806354D+02
0.892611226724D-05 0.000000000000D+00 0.000000000000D+00 0.468196117043D-06 0.000000000000D+00  7 1 -1 23 -11 11 23 21 0 0.12644272D+00 0.32248068D-01 0.16052426D+06 0.16052426D+06 0.16052426D+06 0.11052354D+01  1  2  2  2  7  2       -1 0.199391984266D-03 0.100000000000D+01
-.495142715915D-06 0.000000000000D+00 -.342786214055D-07 0.468196117043D-06 0.000000000000D+00  7 1 -1 23 -11 11 23 21 2 0.12644272D+00 0.32248068D-01 0.16052426D+06 0.16052426D+06 0.16052426D+06 0.11052354D+01  1  2  3  2  7  2       -1 -.135109321574D-04 0.100000000000D+01
0.572788118509D-06 0.000000000000D+00 0.000000000000D+00 0.468196117043D-06 0.000000000000D+00  7 1 -1 23 -11 11 23 21 2 0.12644272D+00 0.32248068D-01 0.16052426D+06 0.16052426D+06 0.16052426D+06 0.11052354D+01  1  2 15  2  7  2       -1 0.156296380034D-04 0.100000000000D+01
0.215603206966D-05 0.000000000000D+00 0.000000000000D+00 0.468196117043D-06 0.000000000000D+00  7 1 -1 23 -11 11 23 21 2 0.12644272D+00 0.47637616D-01 0.27661168D+06 0.27661168D+06 0.27661168D+06 0.10871695D+01  1  2 12  2  7  2       -1 0.284197915758D-04 0.100000000000D+01
-.398344854416D-05 0.000000000000D+00 0.000000000000D+00 0.468196117043D-06 0.000000000000D+00  7 1 -1 23 -11 11 23 21 2 0.12644272D+00 0.32248068D-01 0.16052426D+06 0.16052426D+06 0.16052426D+06 0.11052354D+01  1  2  4  2  7  2       -1 -.108696142148D-03 0.100000000000D+01
-.533938230008D-05 0.000000000000D+00 -.311426932162D-05 0.468196117043D-06 0.000000000000D+00  7 1 -1 23 -11 11 23 21 2 0.12644272D+00 0.54508822D-01 0.16052426D+06 0.16052426D+06 0.16052426D+06 0.11052354D+01  1  2  5  2  7  2       -1 -.578992654730D-04 0.100000000000D+01
0.644970079408D-05 0.000000000000D+00 0.272952960214D-05 0.468196117043D-06 0.000000000000D+00  7 1 -1 23 -11 11 23 21 2 0.12644272D+00 0.32248068D-01 0.16052426D+06 0.16052426D+06 0.16052426D+06 0.11052354D+01  1  2  6  2  7  2       -1 0.175992632151D-03 0.100000000000D+01
0.100772839066D-06 0.000000000000D+00 0.000000000000D+00 0.468196117043D-06 0.000000000000D+00  7 1 21 23 -11 11 23 1 2 0.12644272D+00 0.47637616D-01 0.27661168D+06 0.27661168D+06 0.27661168D+06 0.10871695D+01  1  2 12  4  7  2       -1 0.121720890194D-04 0.100000000000D+01
-.164861508436D-06 0.000000000000D+00 -.182572573799D-06 0.468196117043D-06 0.000000000000D+00  7 1 21 23 -11 11 23 1 2 0.12644272D+00 0.54508822D-01 0.16052426D+06 0.16052426D+06 0.16052426D+06 0.11052354D+01  1  2  5  4  7  2       -1 -.158714216767D-04 0.100000000000D+01
  </mgrwgt>
  </event>
  <event>
  8     66 0.56006291E-06 0.17278429E+03 0.75467711E-02 0.95407757E-01
        1 -1    0    0  501    0 0.00000000E+00 0.00000000E+00 0.53893118E+03 0.53893127E+03 0.32000000E+00 0.0000E+00 0.9000E+01
       -1 -1    0    0    0  501 0.00000000E+00 0.00000000E+00 -.28926951E+03 0.28926969E+03 0.32000000E+00 0.0000E+00 0.9000E+01
       25  2    1    2    0    0 0.20749769E+03 -.25221018E+03 0.93128912E+02 0.45471028E+03 0.30236266E+03 0.0000E+00 0.0000E+00
       23  2    1    2    0    0 -.20749769E+03 0.25221018E+03 0.15653275E+03 0.37349068E+03 0.91255222E+02 0.0000E+00 0.0000E+00
       23  1    3    3    0    0 0.16371613E+03 -.14542829E+03 -.57606369E+02 0.24410265E+03 0.91188000E+02 0.0000E+00 0.9000E+01
      -13  1    4    4    0    0 -.16173998E+03 0.18956263E+03 0.73376129E+02 0.25976505E+03 0.10565837E+00 0.0000E+00 0.9000E+01
       13  1    4    4    0    0 -.45757712E+02 0.62647555E+02 0.83156625E+02 0.11372563E+03 0.10565837E+00 0.0000E+00 0.9000E+01
       23  1    3    3    0    0 0.43781566E+02 -.10678189E+03 0.15073528E+03 0.21060763E+03 0.91188000E+02 0.0000E+00 0.9000E+01
#aMCatNLO 1  0  0  2  1 0.19209719D+03 0.00000000D+00  -5  7  0 0.00000000D+00 0.00000000D+00 0.00000000D+00 0.00000000D+00 0.00000000D+00
  <mgrwgt>
 0.1592183716D-03    9    2    0
 0.394837272088908D+03 0.000000000000000D+00 0.000000000000000D+00 0.394837272088908D+03
 0.394837272088908D+03 0.000000000000000D+00 0.000000000000000D+00 -.394837272088908D+03
 0.274224555194265D+03 0.163716126346949D+03 -.145428294233502D+03 -.137591774964118D+03
 0.249240175555597D+03 -.161740137844256D+03 0.189562801468038D+03 -.517080464675795D+01
 0.929832335905504D+02 -.457575565768590D+02 0.626473853890540D+02 0.512584905063129D+02
 0.173226579837404D+03 0.437815680741665D+02 -.106781892623590D+03 0.915040891045635D+02
 0.000000000000000D+00 -.000000000000000D+00 0.000000000000000D+00 -.000000000000000D+00
 0.455669319743274D+03 0.000000000000000D+00 0.000000000000000D+00 0.455669319743274D+03
 0.593411848259263D+03 0.000000000000000D+00 0.000000000000000D+00 -.593411848259263D+03
 0.333606210215542D+03 0.229026235138271D+03 -.177745152482393D+03 -.137591774964118D+03
 0.200793551535124D+03 -.113384981526621D+03 0.165635621415206D+03 -.517080464675795D+01
 0.789596517067829D+02 -.272826632616259D+02 0.535056075007417D+02 0.512584905063129D+02
 0.199344231706978D+03 0.838135006763759D+02 -.126590561071355D+03 0.915040891045635D+02
 0.236377522838110D+03 -.172172091026400D+03 0.851944846378010D+02 -.137742528515989D+03
0.617227304436D-05 0.000000000000D+00 0.000000000000D+00 0.738750745470D-07 0.000000000000D+00  7 1 -1 23 -13 13 23 21 0 0.82912510D-01 0.44503023D-01 0.12640147D+06 0.12640147D+06 0.12640147D+06 0.11134665D+01  1  2  2  2  7  2       -1 0.149077517061D-03 0.100000000000D+01
-.338319353718D-06 0.000000000000D+00 -.237031536871D-07 0.738750745470D-07 0.000000000000D+00  7 1 -1 23 -13 13 23 21 2 0.82912510D-01 0.44503023D-01 0.12640147D+06 0.12640147D+06 0.12640147D+06 0.11134665D+01  1  2  3  2  7  2       -1 -.101309039016D-04 0.100000000000D+01
0.398575119865D-06 0.000000000000D+00 0.000000000000D+00 0.738750745470D-07 0.000000000000D+00  7 1 -1 23 -13 13 23 21 2 0.82912510D-01 0.44503023D-01 0.12640147D+06 0.12640147D+06 0.12640147D+06 0.11134665D+01  1  2 15  2  7  2       -1 0.119352505039D-04 0.100000000000D+01
0.223142337250D-05 0.000000000000D+00 0.000000000000D+00 0.738750745470D-07 0.000000000000D+00  7 1 -1 23 -13 13 23 21 2 0.82912510D-01 0.68928023D-01 0.21804072D+06 0.21804072D+06 0.21804072D+06 0.10949563D+01  1  2 12  2  7  2       -1 0.283946515044D-04 0.100000000000D+01
-.409166169408D-05 0.000000000000D+00 0.000000000000D+00 0.738750745470D-07 0.000000000000D+00  7 1 -1 23 -13 13 23 21 2 0.82912510D-01 0.44503023D-01 0.12640147D+06 0.12640147D+06 0.12640147D+06 0.11134665D+01  1  2  4  2  7  2       -1 -.122523973178D-03 0.100000000000D+01
-.470315545662D-05 0.000000000000D+00 -.213130611634D-05 0.738750745470D-07 0.000000000000D+00  7 1 -1 23 -13 13 23 21 2 0.82912510D-01 0.75038051D-01 0.12640147D+06 0.12640147D+06 0.12640147D+06 0.11134665D+01  1  2  5  2  7  2       -1 -.532603371344D-04 0.100000000000D+01
0.533318907538D-05 0.000000000000D+00 0.187021761133D-05 0.738750745470D-07 0.000000000000D+00  7 1 -1 23 -13 13 23 21 2 0.82912510D-01 0.44503023D-01 0.12640147D+06 0.12640147D+06 0.12640147D+06 0.11134665D+01  1  2  6  2  7  2       -1 0.159701256869D-03 0.100000000000D+01
0.113518192693D-06 0.000000000000D+00 0.000000000000D+00 0.738750745470D-07 0.000000000000D+00  7 1 21 23 -13 13 23 1 2 0.82912510D-01 0.68928023D-01 0.21804072D+06 0.21804072D+06 0.21804072D+06 0.10949563D+01  1  2 12  4  7  2       -1 0.116560273437D-04 0.100000000000D+01
-.173783218738D-06 0.000000000000D+00 -.124470306957D-06 0.738750745470D-07 0.000000000000D+00  7 1 21 23 -13 13 23 1 2 0.82912510D-01 0.75038051D-01 0.12640147D+06 0.12640147D+06 0.12640147D+06 0.11134665D+01  1  2  5  4  7  2       -1 -.156311174999D-04 0.100000000000D+01
  </mgrwgt>
  </event>
  <event>
  7     66 0.56006291E-06 0.25334712E+03 0.75467711E-02 0.99795022E-01
        1 -1    0    0  501    0 0.00000000E+00 0.00000000E+00 0.20403406E+04 0.20403406E+04 0.32000000E+00 0.0000E+00 0.9000E+01
       -1 -1    0    0    0  501 0.00000000E+00 0.00000000E+00 -.43105019E+02 0.43106207E+02 0.32000000E+00 0.0000E+00 0.9000E+01
       25  2    1    2    0    0 -.67991730E+02 0.17575598E+03 0.10253712E+04 0.10848567E+04 0.30002484E+03 0.0000E+00 0.0000E+00
       23  1    3    3    0    0 -.20632687E+02 0.28640477E+02 0.74888840E+03 0.75524504E+03 0.91188000E+02 0.0000E+00 0.9000E+01
      -13  1    1    2    0    0 0.11575601E+02 0.21436221E+02 0.10684606E+03 0.10958831E+03 0.10565837E+00 0.0000E+00 0.9000E+01
       13  1    1    2    0    0 0.56416129E+02 -.19719221E+03 0.86501833E+03 0.88900184E+03 0.10565837E+00 0.0000E+00 0.9000E+01
       23  1    3    3    0    0 -.47359043E+02 0.14711551E+03 0.27648280E+03 0.32961166E+03 0.91188000E+02 0.0000E+00 0.9000E+01
#aMCatNLO 1  0  0  2  1 0.12265995D+03 0.00000000D+00  -5  7  0 0.00000000D+00 0.00000000D+00 0.00000000D+00 0.00000000D+00 0.00000000D+00
  <mgrwgt>
 0.2987719453D-03    4    2    0
 0.296563964385917D+03 0.000000000000000D+00 0.000000000000000D+00 0.296563964385917D+03
 0.296563964385917D+03 0.000000000000000D+00 0.000000000000000D+00 -.296563964385917D+03
 0.131179698046421D+03 -.206327901009694D+02 0.286407432087758D+02 0.874463128819535D+02
 0.251619199797012D+02 0.115755365751298D+02 0.214356729605220D+02 0.629611743793460D+01
 0.209976361668298D+03 0.564164746280206D+02 -.197192384291989D+03 0.449712955922120D+02
 0.226809949077414D+03 -.473592211021811D+02 0.147115968122691D+03 -.138713725912100D+03
 0.000000000000000D+00 0.000000000000000D+00 -.000000000000000D+00 0.000000000000000D+00
 0.388456435742647D+03 0.000000000000000D+00 0.000000000000000D+00 0.388456435742647D+03
 0.346771468436207D+03 0.000000000000000D+00 0.000000000000000D+00 -.346771468436207D+03
 0.139731656556052D+03 -.472055026036768D+02 0.365303625383626D+02 0.874463128819535D+02
 0.246612379735356D+02 0.668856366027713D+01 0.228866485042592D+02 0.629611743793460D+01
 0.191627929842179D+03 0.170245658103901D+02 -.185496658264575D+03 0.449712955922120D+02
 0.249657475792696D+03 -.940941832323479D+02 0.160991896692351D+03 -.138713725912100D+03
 0.129549604014392D+03 0.117586556365358D+03 -.349122494703972D+02 0.416849673064408D+02
0.101448686855D-04 0.000000000000D+00 0.000000000000D+00 0.101438473632D-08 0.000000000000D+00  7 1 -1 23 -13 13 23 21 0 0.31389865D+00 0.66316347D-02 0.64184761D+05 0.64184761D+05 0.64184761D+05 0.11378756D+01  1  2  2  2  7  2       -1 0.401448507832D-03 0.100000000000D+01
-.546604570387D-06 0.000000000000D+00 -.389589669575D-07 0.101438473632D-08 0.000000000000D+00  7 1 -1 23 -13 13 23 21 2 0.31389865D+00 0.66316347D-02 0.64184761D+05 0.64184761D+05 0.64184761D+05 0.11378756D+01  1  2  3  2  7  2       -1 -.280056876672D-04 0.100000000000D+01
0.646888288239D-06 0.000000000000D+00 0.000000000000D+00 0.101438473632D-08 0.000000000000D+00  7 1 -1 23 -13 13 23 21 2 0.31389865D+00 0.66316347D-02 0.64184761D+05 0.64184761D+05 0.64184761D+05 0.11378756D+01  1  2 15  2  7  2       -1 0.331437977973D-04 0.100000000000D+01
-.210428658410D-05 0.000000000000D+00 0.000000000000D+00 0.101438473632D-08 0.000000000000D+00  7 1 -1 23 -13 13 23 21 2 0.31389865D+00 0.66316347D-02 0.64184761D+05 0.64184761D+05 0.64184761D+05 0.11378756D+01  1  2  4  2  7  2       -1 -.107814672671D-03 0.100000000000D+01
  </mgrwgt>
  </event>
  <event>
  8     66 0.56006291E-06 0.23027005E+03 0.75467711E-02 0.96164751E-01
        1 -1    0    0  501    0 0.00000000E+00 0.00000000E+00 0.11599970E+04 0.11599970E+04 0.32000000E+00 0.0000E+00 0.9000E+01
       -1 -1    0    0    0  501 0.00000000E+00 0.00000000E+00 -.90398244E+02 0.90398810E+02 0.32000000E+00 0.0000E+00 0.9000E+01
       25  2    1    2    0    0 0.23637708E+03 -.41207477E+01 0.76141381E+03 0.85171214E+03 0.29961888E+03 0.0000E+00 0.0000E+00
       23  2    1    2    0    0 -.23637708E+03 0.41207477E+01 0.30818490E+03 0.39868367E+03 0.89886757E+02 0.0000E+00 0.0000E+00
       23  1    3    3    0    0 0.59049318E+02 0.81122172E+02 0.14617701E+03 0.19937552E+03 0.91188000E+02 0.0000E+00 0.9000E+01
      -11  1    4    4    0    0 -.19235996E+03 -.24842732E+02 0.20141782E+03 0.27962235E+03 0.51099893E-03 0.0000E+00 0.9000E+01
       11  1    4    4    0    0 -.44017123E+02 0.28963480E+02 0.10676708E+03 0.11906133E+03 0.51099893E-03 0.0000E+00 0.9000E+01
       23  1    3    3    0    0 0.17732777E+03 -.85242920E+02 0.61523680E+03 0.65233662E+03 0.91188000E+02 0.0000E+00 0.9000E+01
#aMCatNLO 1  0  0  2  1 0.23167998D+03 0.00000000D+00  -5  7  0 0.00000000D+00 0.00000000D+00 0.00000000D+00 0.00000000D+00 0.00000000D+00
  <mgrwgt>
 0.1021282173D-03    7    2    0
 0.323824133570603D+03 0.000000000000000D+00 0.000000000000000D+00 0.323824133570603D+03
 0.323824133570603D+03 0.000000000000000D+00 0.000000000000000D+00 -.323824133570603D+03
 0.143515515562398D+03 0.590493180012668D+02 0.811221724155639D+02 -.470512810591346D+02
 0.207214889340500D+03 -.192359961570153D+03 -.248427319655842D+02 -.729280070865177D+02
 0.535411812981538D+02 -.440171225483856D+02 0.289634797027444D+02 0.950093999933108D+01
 0.243376680940153D+03 0.177327766117272D+03 -.852429201527241D+02 0.110478348146321D+03
 0.000000000000000D+00 -.000000000000000D+00 0.000000000000000D+00 -.000000000000000D+00
 0.376115005636816D+03 0.000000000000000D+00 0.000000000000000D+00 0.376115005636816D+03
 0.760720907136267D+03 0.000000000000000D+00 0.000000000000000D+00 -.760720907136267D+03
 0.155042867799199D+03 0.103038250761577D+03 0.537804364252337D+02 -.470512810591346D+02
 0.166322946284634D+03 -.137323721925042D+03 -.590510257306672D+02 -.729280070865177D+02
 0.380210882228861D+02 -.305265399963483D+02 0.205782808959580D+02 0.950093999933108D+01
 0.328453116407386D+03 0.261579905422961D+03 -.137610631869412D+03 0.110478348146321D+03
 0.448995894058977D+03 -.196767894263149D+03 0.122302940278887D+03 -.384605901499452D+03
0.295206596199D-05 0.000000000000D+00 0.000000000000D+00 0.211760870130D-06 0.000000000000D+00  7 1 -1 23 -11 11 23 21 0 0.17846112D+00 0.13907469D-01 0.89726895D+05 0.89726895D+05 0.89726895D+05 0.11256059D+01  1  2  2  2  7  2       -1 0.143366687348D-03 0.100000000000D+01
-.162792425972D-06 0.000000000000D+00 -.113367105909D-07 0.211760870130D-06 0.000000000000D+00  7 1 -1 23 -11 11 23 21 2 0.17846112D+00 0.13907469D-01 0.89726895D+05 0.89726895D+05 0.89726895D+05 0.11256059D+01  1  2  3  2  7  2       -1 -.100168021001D-04 0.100000000000D+01
0.191243726552D-06 0.000000000000D+00 0.000000000000D+00 0.211760870130D-06 0.000000000000D+00  7 1 -1 23 -11 11 23 21 2 0.17846112D+00 0.13907469D-01 0.89726895D+05 0.89726895D+05 0.89726895D+05 0.11256059D+01  1  2 15  2  7  2       -1 0.117674428052D-04 0.100000000000D+01
0.313190178886D-06 0.000000000000D+00 0.000000000000D+00 0.211760870130D-06 0.000000000000D+00  7 1 -1 23 -11 11 23 21 2 0.17846112D+00 0.32308471D-01 0.19141637D+06 0.19141637D+06 0.19141637D+06 0.10992915D+01  1  2 12  2  7  2       -1 0.460945591336D-05 0.100000000000D+01
-.223961888371D-05 0.000000000000D+00 -.915204535240D-06 0.211760870130D-06 0.000000000000D+00  7 1 -1 23 -11 11 23 21 2 0.17846112D+00 0.37377162D-01 0.89726895D+05 0.89726895D+05 0.89726895D+05 0.11256059D+01  1  2  5  2  7  2       -1 -.276324851684D-04 0.100000000000D+01
0.287626418827D-07 0.000000000000D+00 0.000000000000D+00 0.211760870130D-06 0.000000000000D+00  7 1 21 23 -11 11 23 1 2 0.17846112D+00 0.32308471D-01 0.19141637D+06 0.19141637D+06 0.19141637D+06 0.10992915D+01  1  2 12  4  7  2       -1 0.443530714290D-05 0.100000000000D+01
-.193244209130D-06 0.000000000000D+00 -.100841779424D-06 0.211760870130D-06 0.000000000000D+00  7 1 21 23 -11 11 23 1 2 0.17846112D+00 0.37377162D-01 0.89726895D+05 0.89726895D+05 0.89726895D+05 0.11256059D+01  1  2  5  4  7  2       -1 -.244013886101D-04 0.100000000000D+01
  </mgrwgt>
  </event>
  <event>
  8     66 0.56006291E-06 0.33758235E+03 0.75467711E-02 0.93069305E-01
        1 -1    0    0  501    0 0.00000000E+00 0.00000000E+00 0.57659170E+03 0.57659179E+03 0.32000000E+00 0.0000E+00 0.9000E+01
       -1 -1    0    0    0  501 0.00000000E+00 0.00000000E+00 -.24320854E+03 0.24320875E+03 0.32000000E+00 0.0000E+00 0.9000E+01
       25  2    1    2    0    0 0.44845769E+02 0.29260667E+03 0.13058703E+03 0.44146915E+03 0.30035351E+03 0.0000E+00 0.0000E+00
       23  2    1    2    0    0 -.44845769E+02 -.29260667E+03 0.20279613E+03 0.37833139E+03 0.11991066E+03 0.0000E+00 0.0000E+00
       23  1    3    3    0    0 0.98065977E+02 0.14233448E+03 -.29742595E+02 0.19767629E+03 0.91188000E+02 0.0000E+00 0.9000E+01
      -11  1    4    4    0    0 -.32213931E+02 -.22664415E+03 0.87844077E+02 0.24519766E+03 0.51099893E-03 0.0000E+00 0.9000E+01
       11  1    4    4    0    0 -.12631839E+02 -.65962514E+02 0.11495205E+03 0.13313373E+03 0.51099893E-03 0.0000E+00 0.9000E+01
       23  1    3    3    0    0 -.53220208E+02 0.15027219E+03 0.16032963E+03 0.24379286E+03 0.91188000E+02 0.0000E+00 0.9000E+01
#aMCatNLO 1  0  0  1  1 0.38284470D+03 0.00000000D+00  -5  7  0 0.00000000D+00 0.00000000D+00 0.00000000D+00 0.00000000D+00 0.00000000D+00
  <mgrwgt>
 0.1775138195D-03    3    2    0
 0.374475833000788D+03 0.000000000000000D+00 0.000000000000000D+00 0.374475833000788D+03
 0.374475833000788D+03 0.000000000000000D+00 0.000000000000000D+00 -.374475833000788D+03
 0.229615359842981D+03 0.980659771197328D+02 0.142334481644806D+03 -.120548420140116D+03
 0.229290414470027D+03 -.322139307264872D+02 -.226644154624300D+03 -.129916900218005D+02
 0.945588765658090D+02 -.126318386979931D+02 -.659625143417869D+02 0.665639879379634D+02
 0.195487015122759D+03 -.532202076952525D+02 0.150272187321280D+03 0.669761222239532D+02
 0.000000000000000D+00 0.000000000000000D+00 -.000000000000000D+00 -.000000000000000D+00
 0.515305799828660D+03 0.000000000000000D+00 0.000000000000000D+00 0.515305799828660D+03
 0.807329432598626D+03 0.000000000000000D+00 0.000000000000000D+00 -.807329432598626D+03
 0.326524076305014D+03 0.876759935780198D+02 0.275832774728950D+03 -.120548420140116D+03
 0.143282892807308D+03 -.391744702586325D+02 -.137209927634860D+03 -.129916900218005D+02
 0.730811331123989D+02 -.157637456052847D+02 -.257214278623619D+02 0.665639879379634D+02
 0.298241295895509D+03 -.624442056571458D+02 0.268789024078593D+03 0.669761222239532D+02
 0.481505834307055D+03 0.297064279430432D+02 -.381690443310321D+03 -.292023632769966D+03
0.591199013472D-05 0.000000000000D+00 0.000000000000D+00 0.227714840261D-08 0.000000000000D+00  7 1 -1 23 -11 11 23 21 0 0.88706438D-01 0.37416722D-01 0.11396184D+06 0.11396184D+06 0.11396184D+06 0.11170938D+01  1  2  2  1  7  1        1 0.175862248024D-03 0.100000000000D+01
-.324148044317D-06 0.000000000000D+00 -.227035987801D-07 0.227714840261D-08 0.000000000000D+00  7 1 -1 23 -11 11 23 21 2 0.88706438D-01 0.37416722D-01 0.11396184D+06 0.11396184D+06 0.11396184D+06 0.11170938D+01  1  2  3  1  7  1        1 -.120326594650D-04 0.100000000000D+01
0.368639761128D-06 0.000000000000D+00 0.000000000000D+00 0.227714840261D-08 0.000000000000D+00  7 1 -1 23 -11 11 23 21 2 0.88706438D-01 0.37416722D-01 0.11396184D+06 0.11396184D+06 0.11396184D+06 0.11170938D+01  1  2 15  1  7  1        1 0.136842309823D-04 0.100000000000D+01
  </mgrwgt>
  </event>
  <event>
  8     66 0.56006291E-06 0.48164738E+03 0.75467711E-02 0.90347948E-01
        1 -1    0    0  501    0 0.00000000E+00 0.00000000E+00 0.29454935E+03 0.29454953E+03 0.32000000E+00 0.0000E+00 0.9000E+01
       -1 -1    0    0    0  501 0.00000000E+00 0.00000000E+00 -.86480048E+03 0.86480054E+03 0.32000000E+00 0.0000E+00 0.9000E+01
       25  2    1    2    0    0 0.31173850E+03 -.33083327E+03 -.33152594E+03 0.63776227E+03 0.30033268E+03 0.0000E+00 0.0000E+00
       23  2    1    2    0    0 -.31173850E+03 0.33083327E+03 -.23872518E+03 0.52158780E+03 0.91829031E+02 0.0000E+00 0.0000E+00
       23  1    3    3    0    0 0.79841816E+02 -.16371017E+03 -.25824050E+03 0.32890598E+03 0.91188000E+02 0.0000E+00 0.9000E+01
      -11  1    4    4    0    0 -.22313040E+03 0.27774313E+03 -.15459114E+03 0.38836432E+03 0.51099893E-03 0.0000E+00 0.9000E+01
       11  1    4    4    0    0 -.88608098E+02 0.53090137E+02 -.84134039E+02 0.13322347E+03 0.51099893E-03 0.0000E+00 0.9000E+01
       23  1    3    3    0    0 0.23189669E+03 -.16712310E+03 -.73285445E+02 0.30885629E+03 0.91188000E+02 0.0000E+00 0.9000E+01
#aMCatNLO 1  0  0  2  2 0.42514689D+03 0.00000000D+00  -5  7  0 0.00000000D+00 0.00000000D+00 0.00000000D+00 0.00000000D+00 0.00000000D+00
  <mgrwgt>
 0.2284665498D-03    6    2    0
 0.504704426928553D+03 0.000000000000000D+00 0.000000000000000D+00 0.504704426928553D+03
 0.504704426928553D+03 0.000000000000000D+00 0.000000000000000D+00 -.504704426928553D+03
 0.231873569829155D+03 0.798418157482849D+02 -.163710173785801D+03 -.110789731014909D+03
 0.358719291543045D+03 -.223130403676932D+03 0.277743132108242D+03 0.418462142471399D+02
 0.105482643181369D+03 -.886080981092982D+02 0.530901367857382D+02 -.213689105490349D+02
 0.313333349303536D+03 0.231896686037945D+03 -.167123095108179D+03 0.903124273168036D+02
 0.000000000000000D+00 -.000000000000000D+00 0.000000000000000D+00 -.000000000000000D+00
 0.740601333227103D+03 0.000000000000000D+00 0.000000000000000D+00 0.740601333227103D+03
 0.781827895480174D+03 0.000000000000000D+00 0.000000000000000D+00 -.781827895480174D+03
 0.321982870736643D+03 0.848259778532652D+02 -.275477597431608D+03 -.110789731014909D+03
 0.268187124929762D+03 -.217488863784102D+03 0.151234329638395D+03 0.418462142471399D+02
 0.904558501370609D+02 -.868448447790544D+02 0.135500339950756D+02 -.213689105490349D+02
 0.414662295788493D+03 0.238447929358600D+03 -.314031556792190D+03 0.903124273168036D+02
 0.427141087115319D+03 -.189401986487093D+02 0.424724790590328D+03 -.412265622530714D+02
0.283284041536D-04 0.000000000000D+00 0.000000000000D+00 0.865085044590D-06 0.000000000000D+00  7 1 -1 23 -11 11 23 21 0 0.45315303D-01 0.13304625D+00 0.23198420D+06 0.23198420D+06 0.23198420D+06 0.10929111D+01  1  2  2  2  7  2       -1 0.158299982819D-03 0.100000000000D+01
-.156961621859D-05 0.000000000000D+00 -.108788530990D-06 0.865085044590D-06 0.000000000000D+00  7 1 -1 23 -11 11 23 21 2 0.45315303D-01 0.13304625D+00 0.23198420D+06 0.23198420D+06 0.23198420D+06 0.10929111D+01  1  2  3  2  7  2       -1 -.104766379196D-04 0.100000000000D+01
0.181127724405D-05 0.000000000000D+00 0.000000000000D+00 0.865085044590D-06 0.000000000000D+00  7 1 -1 23 -11 11 23 21 2 0.45315303D-01 0.13304625D+00 0.23198420D+06 0.23198420D+06 0.23198420D+06 0.10929111D+01  1  2 15  2  7  2       -1 0.120896405332D-04 0.100000000000D+01
-.645700119246D-05 0.000000000000D+00 -.795175462690D-05 0.865085044590D-06 0.000000000000D+00  7 1 -1 23 -11 11 23 21 2 0.45315303D-01 0.26376546D+00 0.23198420D+06 0.23198420D+06 0.23198420D+06 0.10929111D+01  1  2  5  2  7  2       -1 -.365408035694D-05 0.100000000000D+01
0.108212429711D-04 0.000000000000D+00 0.639485959409D-05 0.865085044590D-06 0.000000000000D+00  7 1 -1 23 -11 11 23 21 2 0.45315303D-01 0.13304625D+00 0.23198420D+06 0.23198420D+06 0.23198420D+06 0.10929111D+01  1  2  6  2  7  2       -1 0.722280026833D-04 0.100000000000D+01
-.469523777493D-08 0.000000000000D+00 -.589078130674D-06 0.865085044590D-06 0.000000000000D+00  7 1 21 23 -11 11 23 1 2 0.45315303D-01 0.26376546D+00 0.23198420D+06 0.23198420D+06 0.23198420D+06 0.10929111D+01  1  2  5  4  7  2       -1 -.203579187555D-07 0.100000000000D+01
  </mgrwgt>
  </event>
  <event>
  8     66 0.56006291E-06 0.12634692E+03 0.75467711E-02 0.10392660E+00
        1 -1    0    0  501    0 0.00000000E+00 0.00000000E+00 0.64040818E+03 0.64040826E+03 0.32000000E+00 0.0000E+00 0.9000E+01
       -1 -1    0    0    0  501 0.00000000E+00 0.00000000E+00 -.94785123E+02 0.94785663E+02 0.32000000E+00 0.0000E+00 0.9000E+01
       25  2    1    2    0    0 -.18945180E+02 0.11954193E+03 0.27085877E+03 0.42170650E+03 0.29970436E+03 0.0000E+00 0.0000E+00
       23  2    1    2    0    0 0.18945180E+02 -.11954193E+03 0.27476429E+03 0.31348743E+03 0.90165193E+02 0.0000E+00 0.0000E+00
       23  1    3    3    0    0 -.21177364E+02 -.64336017E+02 0.64398952E+02 0.13057596E+03 0.91188000E+02 0.0000E+00 0.9000E+01
      -11  1    4    4    0    0 0.16940935E+02 0.10459444E+02 0.50144080E+02 0.53952053E+02 0.51099893E-03 0.0000E+00 0.9000E+01
       11  1    4    4    0    0 0.20042455E+01 -.13000138E+03 0.22462021E+03 0.25953538E+03 0.51099893E-03 0.0000E+00 0.9000E+01
       23  1    3    3    0    0 0.22321838E+01 0.18387795E+03 0.20645982E+03 0.29113054E+03 0.91188000E+02 0.0000E+00 0.9000E+01
#aMCatNLO 1  0  0  1  2 0.58245976D+01 0.00000000D+00  -5  7  0 0.00000000D+00 0.00000000D+00 0.00000000D+00 0.00000000D+00 0.00000000D+00
  <mgrwgt>
 0.2738349815D-03   11    2    0
 0.246376533606939D+03 0.000000000000000D+00 0.000000000000000D+00 0.246376533606939D+03
 0.246376533606939D+03 0.000000000000000D+00 0.000000000000000D+00 -.246376533606939D+03
 0.123512364384501D+03 -.211773642800744D+02 -.643360172631602D+02 -.485020508505887D+02
 0.249728635659791D+02 0.169409349536105D+02 0.104594440081020D+02 0.150747692726597D+02
 0.138509270874234D+03 0.200424551544330D+01 -.130001375109493D+03 0.477539902800454D+02
 0.205758568389163D+03 0.223218381102064D+01 0.183877948364551D+03 -.143267087021163D+02
 0.000000000000000D+00 0.000000000000000D+00 -.000000000000000D+00 0.000000000000000D+00
 0.250582273038543D+03 0.000000000000000D+00 0.000000000000000D+00 0.250582273038543D+03
 0.248418677610380D+03 0.000000000000000D+00 0.000000000000000D+00 -.248418677610380D+03
 0.123115242933094D+03 -.221399401287655D+02 -.632414880664285D+02 -.485020508505887D+02
 0.249352051362894D+02 0.167461461296418D+02 0.106809351823516D+02 0.150747692726597D+02
 0.137349373459955D+03 0.927582316311634D+00 -.128777119059335D+03 0.477539902800454D+02
 0.207387669368699D+03 0.619693649158191D+00 0.185711484458357D+03 -.143267087021163D+02
 0.621345975088629D+01 0.384651803365393D+01 -.437381251494527D+01 0.216359542816284D+01
0.877643594249D-06 0.000000000000D+00 0.000000000000D+00 0.141989016033D-06 0.000000000000D+00  7 1 -1 23 -11 11 23 21 0 0.98524384D-01 0.14582374D-01 0.54937834D+05 0.54937834D+05 0.54937834D+05 0.11437150D+01  1  2  2  1  7  1        1 0.104527506319D-03 0.100000000000D+01
-.486104683633D-07 0.000000000000D+00 -.337038249078D-08 0.141989016033D-06 0.000000000000D+00  7 1 -1 23 -11 11 23 21 2 0.98524384D-01 0.14582374D-01 0.54937834D+05 0.54937834D+05 0.54937834D+05 0.11437150D+01  1  2  3  1  7  1        1 -.757317230158D-05 0.100000000000D+01
0.577723383401D-07 0.000000000000D+00 0.000000000000D+00 0.141989016033D-06 0.000000000000D+00  7 1 -1 23 -11 11 23 21 2 0.98524384D-01 0.14582374D-01 0.54937834D+05 0.54937834D+05 0.54937834D+05 0.11437150D+01  1  2 15  1  7  1        1 0.900052781317D-05 0.100000000000D+01
0.638149544187D-06 0.000000000000D+00 0.000000000000D+00 0.141989016033D-06 0.000000000000D+00  7 1 -1 23 -11 11 23 21 2 0.10060934D+00 0.14582374D-01 0.56291952D+05 0.56291952D+05 0.56291952D+05 0.11427949D+01  1  2 12  1  7  1        1 0.962867057182D-04 0.100000000000D+01
-.287345925411D-05 0.000000000000D+00 0.000000000000D+00 0.141989016033D-06 0.000000000000D+00  7 1 -1 23 -11 11 23 21 2 0.98524384D-01 0.14582374D-01 0.54937834D+05 0.54937834D+05 0.54937834D+05 0.11437150D+01  1  2  4  1  7  1        1 -.447664932383D-03 0.100000000000D+01
-.405633390922D-04 0.000000000000D+00 -.490731734915D-05 0.141989016033D-06 0.000000000000D+00  7 1 -1 23 -11 11 23 21 2 0.10082917D+00 0.14582374D-01 0.54937834D+05 0.54937834D+05 0.54937834D+05 0.11437150D+01  1  2  5  1  7  1        1 -.611064453462D-02 0.100000000000D+01
0.406672527234D-04 0.000000000000D+00 0.490600566797D-05 0.141989016033D-06 0.000000000000D+00  7 1 -1 23 -11 11 23 21 2 0.98524384D-01 0.14582374D-01 0.54937834D+05 0.54937834D+05 0.54937834D+05 0.11437150D+01  1  2  6  1  7  1        1 0.633567464531D-02 0.100000000000D+01
0.227920870719D-05 0.000000000000D+00 0.000000000000D+00 0.141989016033D-06 0.291594745493D-07  7 1 -1 23 -11 11 23 21 2 0.10020623D+00 0.14703243D-01 0.56291952D+05 0.56291952D+05 0.56291952D+05 0.11427949D+01  1  2 11  1  7  1        1 0.341496433164D-03 0.100000000000D+01
0.246019151000D-07 0.000000000000D+00 0.000000000000D+00 0.141989016033D-06 0.000000000000D+00  7 21 -1 23 -11 11 23 -1 2 0.10060934D+00 0.14582374D-01 0.56291952D+05 0.56291952D+05 0.56291952D+05 0.11427949D+01  1  2 12  3  7  1        1 0.864912960546D-05 0.100000000000D+01
-.168969467239D-06 0.000000000000D+00 -.205574079323D-07 0.141989016033D-06 0.000000000000D+00  7 21 -1 23 -11 11 23 -1 2 0.10082917D+00 0.14582374D-01 0.54937834D+05 0.54937834D+05 0.54937834D+05 0.11437150D+01  1  2  5  3  7  1        1 -.592231423866D-04 0.100000000000D+01
0.942760309078D-08 0.000000000000D+00 0.000000000000D+00 0.141989016033D-06 0.899737717313D-10  7 21 -1 23 -11 11 23 -1 2 0.10020623D+00 0.14703243D-01 0.56291952D+05 0.56291952D+05 0.56291952D+05 0.11427949D+01  1  2 11  3  7  1        1 0.330581523023D-05 0.100000000000D+01
  </mgrwgt>
  </event>
  <event>
  8     66 0.56006291E-06 0.42181895E+03 0.75467711E-02 0.83134196E-01
        1 -1    0    0  501    0 0.00000000E+00 0.00000000E+00 0.14204430E+04 0.14204431E+04 0.32000000E+00 0.0000E+00 0.9000E+01
       -1 -1    0    0    0  501 0.00000000E+00 0.00000000E+00 -.17382758E+03 0.17382787E+03 0.32000000E+00 0.0000E+00 0.9000E+01
       25  2    1    2    0    0 -.18863638E+03 -.32710353E+03 0.29032322E+03 0.56193995E+03 0.29817534E+03 0.0000E+00 0.0000E+00
       23  2    1    2    0    0 0.18863638E+03 0.32710353E+03 0.95629223E+03 0.10323310E+04 0.92908769E+02 0.0000E+00 0.0000E+00
       23  1    3    3    0    0 -.18829465E+03 -.14723032E+03 0.74263196E+02 0.26638678E+03 0.91188000E+02 0.0000E+00 0.9000E+01
      -13  1    4    4    0    0 0.18099223E+03 0.24987179E+03 0.80910825E+03 0.86593895E+03 0.10565837E+00 0.0000E+00 0.9000E+01
       13  1    4    4    0    0 0.76441452E+01 0.77231735E+02 0.14718398E+03 0.16639203E+03 0.10565837E+00 0.0000E+00 0.9000E+01
       23  1    3    3    0    0 -.34172228E+00 -.17987320E+03 0.21606003E+03 0.29555317E+03 0.91188000E+02 0.0000E+00 0.9000E+01
#aMCatNLO 1  0  0  1  1 0.14878676D+04 0.00000000D+00  -5  7  0 0.00000000D+00 0.00000000D+00 0.00000000D+00 0.00000000D+00 0.00000000D+00
  <mgrwgt>
 0.1991220885D-03    3    2    0
 0.496902839280040D+03 0.000000000000000D+00 0.000000000000000D+00 0.496902839280040D+03
 0.496902839280040D+03 0.000000000000000D+00 0.000000000000000D+00 -.496902839280040D+03
 0.334185107877827D+03 -.188294653158936D+03 -.147230323864564D+03 -.215018116236299D+03
 0.374212827862515D+03 0.180992454389380D+03 0.249872016357816D+03 0.211756812009079D+03
 0.823015867097101D+02 0.764392112199729D+01 0.772315118186595D+02 0.273937077998010D+02
 0.203106156110028D+03 -.341722352440939D+00 -.179873204311912D+03 -.241324035725808D+02
 0.000000000000000D+00 -.000000000000000D+00 -.000000000000000D+00 -.000000000000000D+00
 0.138267642349764D+04 0.000000000000000D+00 0.000000000000000D+00 0.138267642349764D+04
 0.202859127115400D+04 0.000000000000000D+00 0.000000000000000D+00 -.202859127115400D+04
 0.348279779901910D+03 -.143472565034834D+03 0.214863646336558D+03 -.215018116236299D+03
 0.107828041518057D+04 0.276387516179507D+03 0.102051832282907D+04 0.211756812009079D+03
 0.264332145650563D+03 0.304097043539883D+02 0.261144247262528D+03 0.273937077998010D+02
 0.983531998658758D+02 0.194571538408028D+02 -.199285434009200D+02 -.241324035725808D+02
 0.162202215405272D+04 -.182781809339464D+03 -.147659767302724D+04 -.645914847656359D+03
0.178234131995D-04 0.000000000000D+00 0.000000000000D+00 0.417762443572D-07 0.000000000000D+00  7 1 -1 23 -13 13 23 21 0 0.21852972D+00 0.26742729D-01 0.17793122D+06 0.17793122D+06 0.17793122D+06 0.11017467D+01  1  2  2  1  7  1        1 0.197278544087D-03 0.100000000000D+01
-.957880523211D-06 0.000000000000D+00 -.684465996987D-07 0.417762443572D-07 0.000000000000D+00  7 1 -1 23 -13 13 23 21 2 0.21852972D+00 0.26742729D-01 0.17793122D+06 0.17793122D+06 0.17793122D+06 0.11017467D+01  1  2  3  1  7  1        1 -.128695635871D-04 0.100000000000D+01
0.109509537482D-05 0.000000000000D+00 0.000000000000D+00 0.417762443572D-07 0.000000000000D+00  7 1 -1 23 -13 13 23 21 2 0.21852972D+00 0.26742729D-01 0.17793122D+06 0.17793122D+06 0.17793122D+06 0.11017467D+01  1  2 15  1  7  1        1 0.147131079697D-04 0.100000000000D+01
  </mgrwgt>
  </event>
  <event>
  8     66 -.56006291E-06 0.36348063E+03 0.75467711E-02 0.98068300E-01
        1 -1    0    0  502    0 0.00000000E+00 0.00000000E+00 0.11626434E+04 0.11626435E+04 0.32000000E+00 0.0000E+00 0.9000E+01
       -1 -1    0    0    0  501 0.00000000E+00 0.00000000E+00 -.44037559E+03 0.44037571E+03 0.32000000E+00 0.0000E+00 0.9000E+01
       25  2    1    2    0    0 0.26902101E+03 -.20945241E+03 -.27824685E+03 0.53256537E+03 0.29993658E+03 0.0000E+00 0.0000E+00
       23  1    3    3    0    0 0.21211558E+03 -.13021074E+03 -.52413534E+02 0.27020415E+03 0.91188000E+02 0.0000E+00 0.9000E+01
      -13  1    1    2    0    0 -.38957229E+02 0.16577339E+02 0.34372497E+02 0.54533967E+02 0.10565837E+00 0.0000E+00 0.9000E+01
       13  1    1    2    0    0 -.22688709E+03 0.17343288E+03 0.94410070E+03 0.98634824E+03 0.10565837E+00 0.0000E+00 0.9000E+01
       23  1    3    3    0    0 0.56905431E+02 -.79241665E+02 -.22583332E+03 0.26236121E+03 0.91188000E+02 0.0000E+00 0.9000E+01
       21  1    1    2  502  501 -.31766905E+01 0.19442188E+02 0.22041498E+02 0.29571611E+02 0.75000000E+00 0.0000E+00 0.9000E+01
#aMCatNLO 2  0  0  1  2 0.19700001D+02 0.00000000D+00  -5  7  0 0.00000000D+00 0.00000000D+00 0.00000000D+00 0.00000000D+00 0.00000000D+00
  <mgrwgt>
 -.1398960458D-03    3    2    0
 0.704455863992420D+03 0.000000000000000D+00 0.000000000000000D+00 0.704455863992420D+03
 0.704455863992420D+03 0.000000000000000D+00 0.000000000000000D+00 -.704455863992420D+03
 0.325533532081996D+03 0.211379101243576D+03 -.125703310423776D+03 -.192806593434306D+03
 0.441357411747618D+02 -.390562457970399D+02 0.171840489728629D+02 0.112819224507624D+02
 0.635225189045884D+03 -.228316058533319D+03 0.182177834007933D+03 0.564086921502677D+03
 0.404017265682198D+03 0.559932030867832D+02 -.736585725570195D+02 -.382562250519134D+03
 0.000000000000000D+00 -.000000000000000D+00 0.000000000000000D+00 0.000000000000000D+00
 0.720511217443028D+03 0.000000000000000D+00 0.000000000000000D+00 0.720511217443028D+03
 0.710593754408524D+03 0.000000000000000D+00 0.000000000000000D+00 -.710593754408524D+03
 0.327776586697960D+03 0.212115578401235D+03 -.130210745989466D+03 -.192806593434306D+03
 0.438148646200292D+02 -.389570989901740D+02 0.165772442147739D+02 0.112819224507624D+02
 0.632258543350109D+03 -.226887222839853D+03 0.173432980545379D+03 0.564086921502677D+03
 0.405199453472858D+03 0.569054339127300D+02 -.792416671937313D+02 -.382562250519134D+03
 0.220555237105954D+02 -.317669048393802D+01 0.194421884230440D+02 0.991746303450367D+01
-.943484816244D-04 0.000000000000D+00 0.000000000000D+00 0.100280196897D-07 0.000000000000D+00  7 1 -1 23 -13 13 23 21 2 0.17961635D+00 0.67164299D-01 0.13921484D+06 0.13921484D+06 0.13921484D+06 0.11101183D+01  1  2 13  1  7  1        1 -.381199708689D-03 0.100000000000D+01
-.463670699193D-03 0.000000000000D+00 0.000000000000D+00 0.100280196897D-07 0.000000000000D+00  7 1 -1 23 -13 13 23 21 2 0.17488090D+00 0.67164299D-01 0.13211817D+06 0.13211817D+06 0.13211817D+06 0.11119288D+01  1  2  8  1  7  1        1 -.198180347083D-02 0.100000000000D+01
0.555058096594D-03 0.000000000000D+00 0.000000000000D+00 0.100280196897D-07 0.169877402619D-09  7 1 -1 23 -13 13 23 21 2 0.17886664D+00 0.67749498D-01 0.13921484D+06 0.13921484D+06 0.13921484D+06 0.11101183D+01  1  2  1  1  7  1        1 0.222310713376D-02 0.100000000000D+01
  </mgrwgt>
  </event>
  <event>
  8     66 0.56006291E-06 0.25933990E+03 0.75467711E-02 0.75306963E-01
        1 -1    0    0  501    0 0.00000000E+00 0.00000000E+00 0.20655643E+03 0.20655668E+03 0.32000000E+00 0.0000E+00 0.9000E+01
       -1 -1    0    0    0  501 0.00000000E+00 0.00000000E+00 -.69132629E+03 0.69132636E+03 0.32000000E+00 0.0000E+00 0.9000E+01
       25  2    1    2    0    0 0.19833009E+03 -.52511021E+02 -.81765179E+01 0.37093621E+03 0.30892489E+03 0.0000E+00 0.0000E+00
       23  2    1    2    0    0 -.19833009E+03 0.52511021E+02 -.47659334E+03 0.52694683E+03 0.91866825E+02 0.0000E+00 0.0000E+00
       23  1    3    3    0    0 0.17448485E+03 -.82688150E+02 -.10012761E+03 0.23584547E+03 0.91188000E+02 0.0000E+00 0.9000E+01
      -11  1    4    4    0    0 -.15887897E+03 0.50350965E+02 -.27535571E+03 0.32186723E+03 0.51099893E-03 0.0000E+00 0.9000E+01
       11  1    4    4    0    0 -.39451119E+02 0.21600563E+01 -.20123763E+03 0.20507960E+03 0.51099893E-03 0.0000E+00 0.9000E+01
       23  1    3    3    0    0 0.23845235E+02 0.30177129E+02 0.91951095E+02 0.13509075E+03 0.91188000E+02 0.0000E+00 0.9000E+01
#aMCatNLO 1  0  0  1  2 0.42828873D+04 0.00000000D+00  -5  7  0 0.00000000D+00 0.00000000D+00 0.00000000D+00 0.00000000D+00 0.00000000D+00
  <mgrwgt>
 0.2272083306D-03    5    2    0
 0.377886269843168D+03 0.000000000000000D+00 0.000000000000000D+00 0.377886269843168D+03
 0.377886269843168D+03 0.000000000000000D+00 0.000000000000000D+00 -.377886269843168D+03
 0.215968146323948D+03 0.174484851644892D+03 -.826881499189782D+02 0.323217464261897D+02
 0.205769550512853D+03 -.158878968056841D+03 0.503509652191127D+02 -.120678754256739D+03
 0.114562979086531D+03 -.394511190189450D+02 0.216005630593174D+01 -.107534271477000D+03
 0.219471863763005D+03 0.238452354308946D+02 0.301771283939338D+02 0.195891279307549D+03
 0.000000000000000D+00 -.000000000000000D+00 -.000000000000000D+00 0.000000000000000D+00
 0.661981969226458D+04 0.000000000000000D+00 0.000000000000000D+00 0.661981969226458D+04
 0.320613401589774D+04 0.000000000000000D+00 0.000000000000000D+00 -.320613401589774D+04
 0.222870455720906D+04 0.222549560915726D+04 -.702378125381373D+02 0.323217464261897D+02
 0.285489077888659D+03 0.253273026815984D+03 0.528528689119910D+02 -.120678754256739D+03
 0.435760408040799D+03 0.422254525862510D+03 0.496276761710251D+01 -.107534271477000D+03
 0.139910514480900D+04 0.138178523764296D+04 0.384202890446298D+02 0.195891279307549D+03
 0.547689452021480D+04 -.428280839947871D+04 -.259981130355860D+02 0.341368567636683D+04
0.139324397912D-04 0.000000000000D+00 0.000000000000D+00 0.409243117364D-08 0.000000000000D+00  7 1 -1 23 -11 11 23 21 0 0.31777937D-01 0.10635791D+00 0.67257182D+05 0.67257182D+05 0.67257182D+05 0.11361383D+01  1  2  2  1  7  1        1 0.221713502596D-03 0.100000000000D+01
-.640654052284D-06 0.000000000000D+00 -.535042372938D-07 0.409243117364D-08 0.000000000000D+00  7 1 -1 23 -11 11 23 21 2 0.31777937D-01 0.10635791D+00 0.67257182D+05 0.67257182D+05 0.67257182D+05 0.11361383D+01  1  2  3  1  7  1        1 -.131598502478D-04 0.100000000000D+01
0.908147591878D-06 0.000000000000D+00 0.000000000000D+00 0.409243117364D-08 0.000000000000D+00  7 1 -1 23 -11 11 23 21 2 0.31777937D-01 0.10635791D+00 0.67257182D+05 0.67257182D+05 0.67257182D+05 0.11361383D+01  1  2 15  1  7  1        1 0.186545082629D-04 0.100000000000D+01
0.125365681587D-03 0.000000000000D+00 -.299875590691D-04 0.409243117364D-08 0.000000000000D+00  7 1 -1 23 -11 11 23 21 2 0.96282266D+00 0.10635791D+00 0.67257182D+05 0.67257182D+05 0.67257182D+05 0.11361383D+01  1  2  5  1  7  1        1 0.169492333746D-09 0.100000000000D+01
0.337072741770D-04 0.000000000000D+00 -.101689921771D-04 0.409243117364D-08 0.000000000000D+00  7 21 -1 23 -11 11 23 -1 2 0.96282266D+00 0.10635791D+00 0.67257182D+05 0.67257182D+05 0.67257182D+05 0.11361383D+01  1  2  5  3  7  1        1 0.495499410507D-12 0.100000000000D+01
  </mgrwgt>
  </event>
  <event>
  8     66 0.56006291E-06 0.27682911E+03 0.75467711E-02 0.96853148E-01
        1 -1    0    0  501    0 0.00000000E+00 0.00000000E+00 0.65994628E+03 0.65994636E+03 0.32000000E+00 0.0000E+00 0.9000E+01
       -1 -1    0    0    0  501 0.00000000E+00 0.00000000E+00 -.20566202E+03 0.20566227E+03 0.32000000E+00 0.0000E+00 0.9000E+01
       25  2    1    2    0    0 -.22493569E+02 -.20692946E+03 0.51443391E+03 0.63101585E+03 0.30035478E+03 0.0000E+00 0.0000E+00
       23  2    1    2    0    0 0.22493569E+02 0.20692946E+03 -.60149652E+02 0.23459278E+03 0.89944606E+02 0.0000E+00 0.0000E+00
       23  1    3    3    0    0 -.94928600E+02 -.57205882E+02 0.99086014E+02 0.17440539E+03 0.91188000E+02 0.0000E+00 0.9000E+01
      -13  1    4    4    0    0 0.46328030E+02 0.17225246E+03 -.25709329E+02 0.18021703E+03 0.10565837E+00 0.0000E+00 0.9000E+01
       13  1    4    4    0    0 -.23834461E+02 0.34676997E+02 -.34440323E+02 0.54375755E+02 0.10565837E+00 0.0000E+00 0.9000E+01
       23  1    3    3    0    0 0.72435031E+02 -.14972357E+03 0.41534790E+03 0.45661046E+03 0.91188000E+02 0.0000E+00 0.9000E+01
#aMCatNLO 1  0  0  2  1 0.22204822D+03 0.00000000D+00  -5  7  0 0.00000000D+00 0.00000000D+00 0.00000000D+00 0.00000000D+00 0.00000000D+00
  <mgrwgt>
 0.2652283285D-03    3    2    0
 0.368410137027146D+03 0.000000000000000D+00 0.000000000000000D+00 0.368410137027146D+03
 0.368410137027146D+03 0.000000000000000D+00 0.000000000000000D+00 -.368410137027146D+03
 0.143798429437795D+03 -.949285996599934D+02 -.572058820214796D+02 0.887609111680617D+01
 0.227568252911408D+03 0.463281272105583D+02 0.172252648997218D+03 -.141315389380472D+03
 0.851139369672111D+02 -.238345581764890D+02 0.346768072524377D+02 -.739852359688554D+02
 0.280339654737877D+03 0.724350306259242D+02 -.149723574228176D+03 0.206424534232521D+03
 0.000000000000000D+00 -.000000000000000D+00 -.000000000000000D+00 0.000000000000000D+00
 0.947585815017201D+03 0.000000000000000D+00 0.000000000000000D+00 0.947585815017201D+03
 0.406677200389751D+03 0.000000000000000D+00 0.000000000000000D+00 -.406677200389751D+03
 0.116974301221722D+03 -.600853505145908D+02 -.409719594641876D+02 0.887609111680617D+01
 0.272255526057851D+03 0.113112274522960D+03 0.203368251075544D+03 -.141315389380472D+03
 0.867974715994584D+02 -.864548910273029D+00 0.453788330598453D+02 -.739852359688554D+02
 0.293524212926836D+03 0.149112072991574D+03 -.113998743788521D+03 0.206424534232521D+03
 0.584711503601085D+03 -.201274448089670D+03 -.937763808826801D+02 0.540908614627449D+03
0.797977270167D-05 0.000000000000D+00 0.000000000000D+00 0.373005697960D-06 0.000000000000D+00  7 1 -1 23 -13 13 23 21 0 0.10153022D+00 0.31640336D-01 0.76634357D+05 0.76634357D+05 0.76634357D+05 0.11313317D+01  1  2  2  2  7  2       -1 0.261125780334D-03 0.100000000000D+01
-.399294311519D-06 0.000000000000D+00 -.306444282968D-07 0.373005697960D-06 0.000000000000D+00  7 1 -1 23 -13 13 23 21 2 0.10153022D+00 0.31640336D-01 0.76634357D+05 0.76634357D+05 0.76634357D+05 0.11313317D+01  1  2  3  2  7  2       -1 -.167236945781D-04 0.100000000000D+01
0.497246599646D-06 0.000000000000D+00 0.000000000000D+00 0.373005697960D-06 0.000000000000D+00  7 1 -1 23 -13 13 23 21 2 0.10153022D+00 0.31640336D-01 0.76634357D+05 0.76634357D+05 0.76634357D+05 0.11313317D+01  1  2 15  2  7  2       -1 0.208262427553D-04 0.100000000000D+01
  </mgrwgt>
  </event>
  <event>
  8     66 0.56006291E-06 0.26691954E+03 0.75467711E-02 0.89557948E-01
        1 -1    0    0  501    0 0.00000000E+00 0.00000000E+00 0.57529736E+03 0.57529745E+03 0.32000000E+00 0.0000E+00 0.9000E+01
       -1 -1    0    0    0  501 0.00000000E+00 0.00000000E+00 -.10323647E+04 0.10323647E+04 0.32000000E+00 0.0000E+00 0.9000E+01
       25  2    1    2    0    0 0.16665782E+02 0.72996044E+03 -.35278756E+03 0.86452809E+03 0.29971616E+03 0.0000E+00 0.0000E+00
       23  2    1    2    0    0 -.16665782E+02 -.72996044E+03 -.10427974E+03 0.74313406E+03 0.90851419E+02 0.0000E+00 0.0000E+00
       23  1    3    3    0    0 0.57500713E+02 0.21726167E+03 -.16086712E+02 0.24306994E+03 0.91188000E+02 0.0000E+00 0.9000E+01
      -13  1    4    4    0    0 -.18921267E+02 -.62384252E+03 -.56337156E+02 0.62666689E+03 0.10565837E+00 0.0000E+00 0.9000E+01
       13  1    4    4    0    0 0.22554855E+01 -.10611792E+03 -.47942585E+02 0.11646718E+03 0.10565837E+00 0.0000E+00 0.9000E+01
       23  1    3    3    0    0 -.40834931E+02 0.51269877E+03 -.33670084E+03 0.62145815E+03 0.91188000E+02 0.0000E+00 0.9000E+01
#aMCatNLO 1  0  0  2  1 0.10629962D+03 0.00000000D+00  -5  7  0 0.00000000D+00 0.00000000D+00 0.00000000D+00 0.00000000D+00 0.00000000D+00
  <mgrwgt>
 0.2724274108D-03    9    2    0
 0.770659960124933D+03 0.000000000000000D+00 0.000000000000000D+00 0.770659960124933D+03
 0.770659960124933D+03 0.000000000000000D+00 0.000000000000000D+00 -.770659960124933D+03
 0.248761879223301D+03 0.575007127896535D+02 0.217261666923095D+03 0.553015128652716D+02
 0.636934524397104D+03 -.189212960905687D+02 -.623843216913929D+03 0.127071686986906D+03
 0.107262469642844D+03 0.225551413546260D+01 -.106117222397363D+03 -.154688448352010D+02
 0.548361046986617D+03 -.408349308345474D+02 0.512698772388196D+03 -.166904355016977D+03
 0.000000000000000D+00 0.000000000000000D+00 0.000000000000000D+00 -.000000000000000D+00
 0.788841805301535D+03 0.000000000000000D+00 0.000000000000000D+00 0.788841805301535D+03
 0.945254380364191D+03 0.000000000000000D+00 0.000000000000000D+00 -.945254380364191D+03
 0.235096616557195D+03 0.472562703356171D+02 0.204117013895020D+03 0.553015128652716D+02
 0.673184954398231D+03 -.466596611817536D+02 -.659434337301944D+03 0.127071686986906D+03
 0.113194111484437D+03 -.241207934210776D+01 -.112106215650441D+03 -.154688448352010D+02
 0.523505451926877D+03 -.635289100914710D+02 0.483580107854036D+03 -.166904355016977D+03
 0.189115051298986D+03 0.653443802797153D+02 0.838434312033285D+02 -.156412575062655D+03
0.130747282726D-03 0.000000000000D+00 0.000000000000D+00 0.432532899637D-05 0.000000000000D+00  7 1 -1 23 -13 13 23 21 0 0.88507297D-01 0.15882534D+00 0.55886977D+06 0.55886977D+06 0.55886977D+06 0.10651106D+01  1  2  2  2  7  2       -1 0.169744101008D-03 0.100000000000D+01
-.725556997520D-05 0.000000000000D+00 -.502103992218D-06 0.432532899637D-05 0.000000000000D+00  7 1 -1 23 -13 13 23 21 2 0.88507297D-01 0.15882534D+00 0.55886977D+06 0.55886977D+06 0.55886977D+06 0.10651106D+01  1  2  3  2  7  2       -1 -.106861922915D-04 0.100000000000D+01
0.813567462711D-05 0.000000000000D+00 0.000000000000D+00 0.432532899637D-05 0.000000000000D+00  7 1 -1 23 -13 13 23 21 2 0.88507297D-01 0.15882534D+00 0.55886977D+06 0.55886977D+06 0.55886977D+06 0.10651106D+01  1  2 15  2  7  2       -1 0.119824333283D-04 0.100000000000D+01
0.383762396639D-03 0.000000000000D+00 0.000000000000D+00 0.432532899637D-05 0.000000000000D+00  7 1 -1 23 -13 13 23 21 2 0.88507297D-01 0.19639098D+00 0.64336518D+06 0.64336518D+06 0.64336518D+06 0.10608574D+01  1  2 12  2  7  2       -1 0.273431814437D-03 0.100000000000D+01
-.387194826526D-03 0.000000000000D+00 0.000000000000D+00 0.432532899637D-05 0.000000000000D+00  7 1 -1 23 -13 13 23 21 2 0.88507297D-01 0.15882534D+00 0.55886977D+06 0.55886977D+06 0.55886977D+06 0.10651106D+01  1  2  4  2  7  2       -1 -.570270617565D-03 0.100000000000D+01
-.542405364190D-03 0.000000000000D+00 -.752467340852D-04 0.432532899637D-05 0.000000000000D+00  7 1 -1 23 -13 13 23 21 2 0.88507297D-01 0.19680017D+00 0.55886977D+06 0.55886977D+06 0.55886977D+06 0.10651106D+01  1  2  5  2  7  2       -1 -.390040176506D-03 0.100000000000D+01
0.547601460411D-03 0.000000000000D+00 0.735500565146D-04 0.432532899637D-05 0.000000000000D+00  7 1 -1 23 -13 13 23 21 2 0.88507297D-01 0.15882534D+00 0.55886977D+06 0.55886977D+06 0.55886977D+06 0.10651106D+01  1  2  6  2  7  2       -1 0.806521682661D-03 0.100000000000D+01
0.114936190440D-04 0.000000000000D+00 0.000000000000D+00 0.432532899637D-05 0.000000000000D+00  7 1 21 23 -13 13 23 1 2 0.88507297D-01 0.19639098D+00 0.64336518D+06 0.64336518D+06 0.64336518D+06 0.10608574D+01  1  2 12  4  7  2       -1 0.511096886456D-04 0.100000000000D+01
-.153897265263D-04 0.000000000000D+00 -.227035040882D-05 0.432532899637D-05 0.000000000000D+00  7 1 21 23 -13 13 23 1 2 0.88507297D-01 0.19680017D+00 0.55886977D+06 0.55886977D+06 0.55886977D+06 0.10651106D+01  1  2  5  4  7  2       -1 -.693653229180D-04 0.100000000000D+01
  </mgrwgt>
  </event>
  <event>
  7     66 0.56006291E-06 0.26133365E+03 0.75467711E-02 0.98696838E-01
        1 -1    0    0  501    0 0.00000000E+00 0.00000000E+00 0.13754600E+04 0.13754600E+04 0.32000000E+00 0.0000E+00 0.9000E+01
       -1 -1    0    0    0  501 0.00000000E+00 0.00000000E+00 -.10391313E+03 0.10391363E+03 0.32000000E+00 0.0000E+00 0.9000E+01
       23  2    1    2    0    0 0.60140065E+02 -.25022792E+03 0.93588194E+03 0.97554807E+03 0.97919373E+02 0.0000E+00 0.0000E+00
       23  1    1    2    0    0 0.29242090E+02 0.17283494E+02 0.15341189E+03 0.18167080E+03 0.91188000E+02 0.0000E+00 0.9000E+01
      -11  1    3    3    0    0 0.36000255E+02 -.93993340E+02 0.21303034E+03 0.23561132E+03 0.51099893E-03 0.0000E+00 0.9000E+01
       11  1    3    3    0    0 0.24139810E+02 -.15623458E+03 0.72285159E+03 0.73993676E+03 0.51099893E-03 0.0000E+00 0.9000E+01
       23  1    1    2    0    0 -.89382155E+02 0.23294443E+03 0.18225299E+03 0.32215475E+03 0.91188000E+02 0.0000E+00 0.9000E+01
#aMCatNLO 1  0  0  1  2 0.81470508D+02 0.00000000D+00  -5  7  0 0.00000000D+00 0.00000000D+00 0.00000000D+00 0.00000000D+00 0.00000000D+00
  <mgrwgt>
 0.4703120763D-03    9    2    0
 0.378059184237326D+03 0.000000000000000D+00 0.000000000000000D+00 0.378059184237326D+03
 0.378059184237326D+03 0.000000000000000D+00 0.000000000000000D+00 -.378059184237326D+03
 0.974564115246519D+02 0.292420902680851D+02 0.172834941063215D+02 -.535553839424480D+01
 0.102734064980795D+03 0.360002550528709D+02 -.939933401356964D+02 0.205796441597451D+02
 0.232110839850665D+03 0.241398099964488D+02 -.156234583377109D+03 0.169951365121018D+03
 0.323817052118540D+03 -.893821553174047D+02 0.232944429406484D+03 -.185175470886518D+03
 0.000000000000000D+00 0.000000000000000D+00 -.000000000000000D+00 0.000000000000000D+00
 0.497281062812224D+03 0.000000000000000D+00 0.000000000000000D+00 0.497281062812224D+03
 0.394425925575801D+03 0.000000000000000D+00 0.000000000000000D+00 -.394425925575801D+03
 0.950401380740498D+02 0.189391499502919D+02 0.181659931961503D+02 -.535553839424480D+01
 0.985995661328880D+02 0.252243300316006D+02 -.930703275072616D+02 0.205796441597451D+02
 0.229426127385307D+03 -.562907209655034D+00 -.154118670367982D+03 0.169951365121018D+03
 0.337429027532211D+03 -.124773848873570D+03 0.235975907449395D+03 -.185175470886518D+03
 0.131212129263570D+03 0.811732761013322D+02 -.695290277030222D+01 0.102855137236422D+03
0.125722614334D-04 0.000000000000D+00 0.000000000000D+00 0.158721528131D-07 0.000000000000D+00  7 1 -1 23 -11 11 23 21 0 0.21160926D+00 0.15986677D-01 0.96626123D+05 0.96626123D+05 0.96626123D+05 0.11229473D+01  1  2  2  1  7  1        1 0.348405309794D-03 0.100000000000D+01
-.665918821801D-06 0.000000000000D+00 -.482807942566D-07 0.158721528131D-07 0.000000000000D+00  7 1 -1 23 -11 11 23 21 2 0.21160926D+00 0.15986677D-01 0.96626123D+05 0.96626123D+05 0.96626123D+05 0.11229473D+01  1  2  3  1  7  1        1 -.232708032539D-04 0.100000000000D+01
0.762046704887D-06 0.000000000000D+00 0.000000000000D+00 0.158721528131D-07 0.000000000000D+00  7 1 -1 23 -11 11 23 21 2 0.21160926D+00 0.15986677D-01 0.96626123D+05 0.96626123D+05 0.96626123D+05 0.11229473D+01  1  2 15  1  7  1        1 0.266300311076D-04 0.100000000000D+01
0.219453685409D-04 0.000000000000D+00 0.000000000000D+00 0.158721528131D-07 0.000000000000D+00  7 1 -1 23 -11 11 23 21 2 0.28186343D+00 0.15986677D-01 0.12566529D+06 0.12566529D+06 0.12566529D+06 0.11136701D+01  1  2 12  1  7  1        1 0.373984805327D-03 0.100000000000D+01
-.228948905917D-04 0.000000000000D+00 0.000000000000D+00 0.158721528131D-07 0.000000000000D+00  7 1 -1 23 -11 11 23 21 2 0.21160926D+00 0.15986677D-01 0.96626123D+05 0.96626123D+05 0.96626123D+05 0.11229473D+01  1  2  4  1  7  1        1 -.800071235467D-03 0.100000000000D+01
-.297417445861D-04 0.000000000000D+00 -.581404885543D-05 0.158721528131D-07 0.000000000000D+00  7 1 -1 23 -11 11 23 21 2 0.28285896D+00 0.15986677D-01 0.96626123D+05 0.96626123D+05 0.96626123D+05 0.11229473D+01  1  2  5  1  7  1        1 -.514845511573D-03 0.100000000000D+01
0.303773504858D-04 0.000000000000D+00 0.557752604857D-05 0.158721528131D-07 0.000000000000D+00  7 1 -1 23 -11 11 23 21 2 0.21160926D+00 0.15986677D-01 0.96626123D+05 0.96626123D+05 0.96626123D+05 0.11229473D+01  1  2  6  1  7  1        1 0.106154883056D-02 0.100000000000D+01
0.820874322718D-06 0.000000000000D+00 0.000000000000D+00 0.158721528131D-07 0.000000000000D+00  7 21 -1 23 -11 11 23 -1 2 0.28186343D+00 0.15986677D-01 0.12566529D+06 0.12566529D+06 0.12566529D+06 0.11136701D+01  1  2 12  3  7  1        1 0.843764973673D-05 0.100000000000D+01
-.998617777655D-06 0.000000000000D+00 -.219411838179D-06 0.158721528131D-07 0.000000000000D+00  7 21 -1 23 -11 11 23 -1 2 0.28285896D+00 0.15986677D-01 0.96626123D+05 0.96626123D+05 0.96626123D+05 0.11229473D+01  1  2  5  3  7  1        1 -.105069999545D-04 0.100000000000D+01
  </mgrwgt>
  </event>
  <event>
  9     66 0.56006291E-06 0.18774447E+03 0.75467711E-02 0.10412562E+00
        1 -1    0    0  501    0 0.00000000E+00 0.00000000E+00 0.28589307E+03 0.28589325E+03 0.32000000E+00 0.0000E+00 0.9000E+01
       -1 -1    0    0    0  502 0.00000000E+00 0.00000000E+00 -.23270361E+03 0.23270383E+03 0.32000000E+00 0.0000E+00 0.9000E+01
       25  2    1    2    0    0 -.46356968E+02 -.64477033E+02 -.24663247E+02 0.31137514E+03 0.30006657E+03 0.0000E+00 0.0000E+00
       23  2    1    2    0    0 -.31766534E+02 0.33649463E+02 0.64699532E+02 0.12220906E+03 0.92777297E+02 0.0000E+00 0.0000E+00
       23  1    3    3    0    0 -.35897626E+02 0.71334476E+02 0.50166604E+02 0.13118379E+03 0.91188000E+02 0.0000E+00 0.9000E+01
      -13  1    4    4    0    0 0.18401339E+02 -.18589802E+02 0.35548670E+02 0.44135123E+02 0.10565837E+00 0.0000E+00 0.9000E+01
       13  1    4    4    0    0 -.50167873E+02 0.52239265E+02 0.29150862E+02 0.78073941E+02 0.10565837E+00 0.0000E+00 0.9000E+01
       23  1    3    3    0    0 -.10459342E+02 -.13581151E+03 -.74829850E+02 0.18019135E+03 0.91188000E+02 0.0000E+00 0.9000E+01
       21  1    1    2  501  502 0.78123502E+02 0.30827570E+02 0.13153176E+02 0.85012877E+02 0.75000000E+00 0.0000E+00 0.9000E+01
#aMCatNLO 2  0  0  2  1 0.83985836D+02 0.00000000D+00  -5  7  0 0.00000000D+00 0.00000000D+00 0.00000000D+00 0.00000000D+00 0.00000000D+00
  <mgrwgt>
 0.3743549014D-04    1    2    0
 0.211742021176873D+03 0.000000000000000D+00 0.000000000000000D+00 0.211742021176873D+03
 0.211742021176873D+03 0.000000000000000D+00 0.000000000000000D+00 -.211742021176873D+03
 0.128140225435051D+03 -.125820638238160D+02 0.805347705751093D+02 0.382165988661168D+02
 0.438683292869595D+02 0.261566380593864D+02 -.155296571099648D+02 0.316083904985098D+02
 0.717280378088085D+02 -.366999715378768D+02 0.575538477314371D+02 0.220358369100756D+02
 0.179747449822927D+03 0.231253973023064D+02 -.122558961196582D+03 -.918608262747022D+02
 0.000000000000000D+00 0.000000000000000D+00 0.000000000000000D+00 0.000000000000000D+00
 0.260606164553004D+03 0.000000000000000D+00 0.000000000000000D+00 0.260606164553004D+03
 0.255280185035178D+03 0.000000000000000D+00 0.000000000000000D+00 -.255280185035178D+03
 0.127094458282860D+03 -.358976131910620D+02 0.713344441381920D+02 0.382165988661168D+02
 0.410278660619306D+02 0.184014168452662D+02 -.185898709456571D+02 0.316083904985098D+02
 0.757057111041022D+02 -.501679642146726D+02 0.522393716654945D+02 0.220358369100756D+02
 0.187903773424762D+03 -.104593417335283D+02 -.135811514570359D+03 -.918608262747022D+02
 0.841545407145266D+02 0.781235022939967D+02 0.308275697123292D+02 0.532597951782560D+01
0.345017620825D-06 0.000000000000D+00 0.000000000000D+00 0.550326728056D-07 0.562762101049D-10  7 1 -1 23 -13 13 23 21 2 0.43983295D-01 0.35800354D-01 0.54686343D+05 0.54686343D+05 0.54686343D+05 0.11438886D+01  1  2  1  2  7  2       -1 0.374354901383D-04 0.100000000000D+01
  </mgrwgt>
  </event>
  <event>
  8     66 0.56006291E-06 0.16205782E+03 0.75467711E-02 0.10602291E+00
        1 -1    0    0  501    0 0.00000000E+00 0.00000000E+00 0.30774598E+03 0.30774615E+03 0.32000000E+00 0.0000E+00 0.9000E+01
       -1 -1    0    0    0  502 0.00000000E+00 0.00000000E+00 -.42107690E+03 0.42107702E+03 0.32000000E+00 0.0000E+00 0.9000E+01
       25  2    1    2    0    0 0.72131710E+01 -.96382039E+02 -.14017641E+02 0.31664282E+03 0.30120534E+03 0.0000E+00 0.0000E+00
       23  1    3    3    0    0 0.22370375E+02 -.62282549E+02 -.12496660E+03 0.16826007E+03 0.91188000E+02 0.0000E+00 0.9000E+01
      -11  1    1    2    0    0 0.65485833E+00 0.80651968E+02 -.82647162E+01 0.81076965E+02 0.51099893E-03 0.0000E+00 0.9000E+01
       11  1    1    2    0    0 0.29447260E+02 -.39990916E+02 0.10917843E+03 0.11994309E+03 0.51099893E-03 0.0000E+00 0.9000E+01
       23  1    3    3    0    0 -.15157204E+02 -.34099490E+02 0.11094896E+03 0.14838275E+03 0.91188000E+02 0.0000E+00 0.9000E+01
       21  1    1    2  501  502 -.37315289E+02 0.55720987E+02 -.20022700E+03 0.21116030E+03 0.75000000E+00 0.0000E+00 0.9000E+01
#aMCatNLO 2  0  0  2  1 0.67061607D+02 0.00000000D+00  -5  7  0 0.00000000D+00 0.00000000D+00 0.00000000D+00 0.00000000D+00 0.00000000D+00
  <mgrwgt>
 0.6337155998D-04    2    2    0
 0.252945975047935D+03 0.000000000000000D+00 0.000000000000000D+00 0.252945975047935D+03
 0.252945975047935D+03 0.000000000000000D+00 0.000000000000000D+00 -.252945975047935D+03
 0.185130281229766D+03 0.852354230309665D+01 -.416058407417729D+02 -.155416449988377D+03
 0.932180673400860D+02 -.583978380353305D+01 0.903501018129809D+02 -.221892790809612D+02
 0.974036758297520D+02 0.220855288753632D+02 -.289979636625173D+02 0.903262065121205D+02
 0.130139925696267D+03 -.247692873749268D+02 -.197462974086907D+02 0.872795225572174D+02
 0.000000000000000D+00 -.000000000000000D+00 0.000000000000000D+00 -.000000000000000D+00
 0.259772664214684D+03 0.000000000000000D+00 0.000000000000000D+00 0.259772664214684D+03
 0.498837224482810D+03 0.000000000000000D+00 0.000000000000000D+00 -.498837224482810D+03
 0.191961138005931D+03 0.223703684737641D+02 -.622825886415340D+02 -.155416449988377D+03
 0.836512590987542D+02 0.654871585564770D+00 0.806519695102391D+02 -.221892790809612D+02
 0.103078771767443D+03 0.294472599054007D+02 -.399908550831075D+02 0.903262065121205D+02
 0.131626305208402D+03 -.151572110671861D+02 -.340995128068472D+02 0.872795225572174D+02
 0.248292414616963D+03 -.373152888975435D+02 0.557209870212495D+02 -.239064560268126D+03
-.525706188732D-05 0.000000000000D+00 0.000000000000D+00 0.481433622555D-10 0.000000000000D+00  7 1 -1 23 -11 11 23 21 2 0.46101243D-01 0.64804647D-01 0.41734084D+05 0.41734084D+05 0.41734084D+05 0.11542630D+01  1  2 13  2  7  2       -1 -.191260584408D-03 0.100000000000D+01
0.723973660859D-05 0.000000000000D+00 0.000000000000D+00 0.481433622555D-10 0.988941096805D-13  7 1 -1 23 -11 11 23 21 2 0.47345457D-01 0.64780945D-01 0.41734084D+05 0.41734084D+05 0.41734084D+05 0.11542630D+01  1  2  1  2  7  2       -1 0.254632144392D-03 0.100000000000D+01
  </mgrwgt>
  </event>
  <event>
  8     66 0.56006291E-06 0.25016473E+03 0.75467711E-02 0.97819589E-01
        1 -1    0    0  501    0 0.00000000E+00 0.00000000E+00 0.15459965E+03 0.15459998E+03 0.32000000E+00 0.0000E+00 0.9000E+01
       -1 -1    0    0    0  501 0.00000000E+00 0.00000000E+00 -.10294413E+04 0.10294414E+04 0.32000000E+00 0.0000E+00 0.9000E+01
       25  2    1    2    0    0 0.10124870E+03 0.30847439E+03 -.36308707E+03 0.57201232E+03 0.29993020E+03 0.0000E+00 0.0000E+00
       23  2    1    2    0    0 -.10124870E+03 -.30847439E+03 -.51175459E+03 0.61202901E+03 0.85317114E+02 0.0000E+00 0.0000E+00
       23  1    3    3    0    0 0.11113839E+03 0.47970689E+02 -.62846371E+02 0.16406659E+03 0.91188000E+02 0.0000E+00 0.9000E+01
      -13  1    4    4    0    0 -.31312679E+02 -.44262881E+02 -.14373996E+03 0.15362576E+03 0.10565837E+00 0.0000E+00 0.9000E+01
       13  1    4    4    0    0 -.69936022E+02 -.26421151E+03 -.36801462E+03 0.45840325E+03 0.10565837E+00 0.0000E+00 0.9000E+01
       23  1    3    3    0    0 -.98896939E+01 0.26050370E+03 -.30024070E+03 0.40794572E+03 0.91188000E+02 0.0000E+00 0.9000E+01
#aMCatNLO 1  0  0  2  1 0.63450978D+01 0.00000000D+00  -5  7  0 0.00000000D+00 0.00000000D+00 0.00000000D+00 0.00000000D+00 0.00000000D+00
  <mgrwgt>
 0.8442643966D-03   11    2    0
 0.398937949447893D+03 0.000000000000000D+00 0.000000000000000D+00 0.398937949447893D+03
 0.398937949447893D+03 0.000000000000000D+00 0.000000000000000D+00 -.398937949447893D+03
 0.174564748746502D+03 0.111138394521217D+03 0.479706887502302D+02 0.866295010086313D+02
 0.703734643812493D+02 -.313126196029039D+02 -.442625434665527D+02 -.448639230172121D+02
 0.276752472090628D+03 -.699360811289016D+02 -.264211845108770D+03 -.435083471166708D+02
 0.276185213677406D+03 -.988969378941134D+01 0.260503699825093D+03 0.174276912525156D+01
 0.000000000000000D+00 0.000000000000000D+00 0.000000000000000D+00 -.000000000000000D+00
 0.399660828707843D+03 0.000000000000000D+00 0.000000000000000D+00 0.399660828707843D+03
 0.413121432352452D+03 0.000000000000000D+00 0.000000000000000D+00 -.413121432352452D+03
 0.173664255161096D+03 0.110127346850573D+03 0.470246659457312D+02 0.866295010086313D+02
 0.707980156732688D+02 -.317224967081102D+02 -.446460595952434D+02 -.448639230172121D+02
 0.278602908986594D+03 -.715484992736202D+02 -.265720561640722D+03 -.435083471166708D+02
 0.274835948330229D+03 -.114895279677021D+02 0.259006757930043D+03 0.174276912525156D+01
 0.148811329091061D+02 0.463317709885987D+01 0.433519736019102D+01 -.134606036446095D+02
0.205180866047D-04 0.000000000000D+00 0.000000000000D+00 0.463662661651D-07 0.000000000000D+00  7 1 -1 23 -13 13 23 21 0 0.23784590D-01 0.15837561D+00 0.14260515D+06 0.14260515D+06 0.14260515D+06 0.11092887D+01  1  2  2  2  7  2       -1 0.167127365121D-03 0.100000000000D+01
-.113571820931D-05 0.000000000000D+00 -.787948550982D-07 0.463662661651D-07 0.000000000000D+00  7 1 -1 23 -13 13 23 21 2 0.23784590D-01 0.15837561D+00 0.14260515D+06 0.14260515D+06 0.14260515D+06 0.11092887D+01  1  2  3  2  7  2       -1 -.113833604839D-04 0.100000000000D+01
0.127589799308D-05 0.000000000000D+00 0.000000000000D+00 0.463662661651D-07 0.000000000000D+00  7 1 -1 23 -13 13 23 21 2 0.23784590D-01 0.15837561D+00 0.14260515D+06 0.14260515D+06 0.14260515D+06 0.11092887D+01  1  2 15  2  7  2       -1 0.127883894762D-04 0.100000000000D+01
0.138393412133D-03 0.000000000000D+00 0.000000000000D+00 0.463662661651D-07 0.000000000000D+00  7 1 -1 23 -13 13 23 21 2 0.23784590D-01 0.16414704D+00 0.14502507D+06 0.14502507D+06 0.14502507D+06 0.11087097D+01  1  2 12  2  7  2       -1 0.124291323458D-02 0.100000000000D+01
-.229172890724D-03 0.000000000000D+00 0.000000000000D+00 0.463662661651D-07 0.000000000000D+00  7 1 -1 23 -13 13 23 21 2 0.23784590D-01 0.15837561D+00 0.14260515D+06 0.14260515D+06 0.14260515D+06 0.11092887D+01  1  2  4  2  7  2       -1 -.229701135973D-02 0.100000000000D+01
-.101671347677D-02 0.000000000000D+00 -.635108417410D-04 0.463662661651D-07 0.000000000000D+00  7 1 -1 23 -13 13 23 21 2 0.23784590D-01 0.16413836D+00 0.14260515D+06 0.14260515D+06 0.14260515D+06 0.11092887D+01  1  2  5  2  7  2       -1 -.914762266285D-02 0.100000000000D+01
0.101837342332D-02 0.000000000000D+00 0.634703001755D-04 0.463662661651D-07 0.000000000000D+00  7 1 -1 23 -13 13 23 21 2 0.23784590D-01 0.15837561D+00 0.14260515D+06 0.14260515D+06 0.14260515D+06 0.11092887D+01  1  2  6  2  7  2       -1 0.102072078178D-01 0.100000000000D+01
0.888643297835D-04 0.000000000000D+00 0.000000000000D+00 0.463662661651D-07 0.755475292760D-08  7 1 -1 23 -13 13 23 21 2 0.23827688D-01 0.16400636D+00 0.14502507D+06 0.14502507D+06 0.14502507D+06 0.11087097D+01  1  2 11  2  7  2       -1 0.798301073308D-03 0.100000000000D+01
0.364588117100D-05 0.000000000000D+00 0.000000000000D+00 0.463662661651D-07 0.000000000000D+00  7 1 21 23 -13 13 23 1 2 0.23784590D-01 0.16414704D+00 0.14502507D+06 0.14502507D+06 0.14502507D+06 0.11087097D+01  1  2 12  4  7  2       -1 0.208205336862D-03 0.100000000000D+01
-.643394092549D-05 0.000000000000D+00 -.403686075672D-06 0.463662661651D-07 0.000000000000D+00  7 1 21 23 -13 13 23 1 2 0.23784590D-01 0.16413836D+00 0.14260515D+06 0.14260515D+06 0.14260515D+06 0.11092887D+01  1  2  5  4  7  2       -1 -.368274085607D-03 0.100000000000D+01
0.560420726697D-06 0.000000000000D+00 0.000000000000D+00 0.463662661651D-07 0.470885616655D-10  7 1 21 23 -13 13 23 1 2 0.23827688D-01 0.16400636D+00 0.14502507D+06 0.14502507D+06 0.14502507D+06 0.11087097D+01  1  2 11  4  7  2       -1 0.320126481219D-04 0.100000000000D+01
  </mgrwgt>
  </event>
  <event>
  8     66 0.56006291E-06 0.77832936E+02 0.75467711E-02 0.99365921E-01
        1 -1    0    0  501    0 0.00000000E+00 0.00000000E+00 0.56754287E+03 0.56754296E+03 0.32000000E+00 0.0000E+00 0.9000E+01
       -1 -1    0    0    0  501 0.00000000E+00 0.00000000E+00 -.20356136E+03 0.20356161E+03 0.32000000E+00 0.0000E+00 0.9000E+01
       25  2    1    2    0    0 -.19645185E+03 -.17699413E+03 0.20851552E+03 0.45034224E+03 0.29901365E+03 0.0000E+00 0.0000E+00
       23  2    1    2    0    0 0.19645185E+03 0.17699413E+03 0.15546598E+03 0.32076233E+03 0.93800561E+02 0.0000E+00 0.0000E+00
       23  1    3    3    0    0 -.13594606E+03 -.10194478E+03 0.24588056E+03 0.31248452E+03 0.91188000E+02 0.0000E+00 0.9000E+01
      -13  1    4    4    0    0 0.36669199E+02 0.15147533E+02 -.82637326E+01 0.40526267E+02 0.10565837E+00 0.0000E+00 0.9000E+01
       13  1    4    4    0    0 0.15978265E+03 0.16184660E+03 0.16372972E+03 0.28023606E+03 0.10565837E+00 0.0000E+00 0.9000E+01
       23  1    3    3    0    0 -.60505789E+02 -.75049347E+02 -.37365041E+02 0.13785773E+03 0.91188000E+02 0.0000E+00 0.9000E+01
#aMCatNLO 1  0  0  2  1 0.79866745D+02 0.00000000D+00  -5  7  0 0.00000000D+00 0.00000000D+00 0.00000000D+00 0.00000000D+00 0.00000000D+00
  <mgrwgt>
 0.1735020309D-03    9    2    0
 0.339896941270459D+03 0.000000000000000D+00 0.000000000000000D+00 0.339896941270459D+03
 0.339896941270459D+03 0.000000000000000D+00 0.000000000000000D+00 -.339896941270459D+03
 0.222806157520543D+03 -.135946064800188D+03 -.101944785149377D+03 0.111594178751670D+03
 0.503942158571507D+02 0.366690428826402D+02 0.151473490489054D+02 -.310727549908086D+02
 0.230212241019807D+03 0.159782811804932D+03 0.161846784031114D+03 0.356755864122453D+02
 0.176381268143417D+03 -.605057898873842D+02 -.750493479306423D+02 -.116197010173107D+03
 0.000000000000000D+00 -.000000000000000D+00 -.000000000000000D+00 -.000000000000000D+00
 0.368921042977364D+03 0.000000000000000D+00 0.000000000000000D+00 0.368921042977364D+03
 0.401990963954028D+03 0.000000000000000D+00 0.000000000000000D+00 -.401990963954028D+03
 0.204414030263311D+03 -.116916021597455D+03 -.857159704317307D+02 0.111594178751670D+03
 0.551735819979058D+02 0.413714418128505D+02 0.191575533429179D+02 -.310727549908086D+02
 0.258417698845679D+03 0.181548283408753D+03 0.180408371208692D+03 0.356755864122453D+02
 0.166464132882164D+03 -.452341267498833D+02 -.620256785228280D+02 -.116197010173107D+03
 0.864425629423325D+02 -.607695768742647D+02 -.518242755970515D+02 -.330699209766641D+02
0.302694860104D-05 0.000000000000D+00 0.000000000000D+00 0.395219400808D-07 0.000000000000D+00  7 1 -1 23 -13 13 23 21 0 0.87314314D-01 0.31317159D-01 0.87808016D+05 0.87808016D+05 0.87808016D+05 0.11263854D+01  1  2  2  2  7  2       -1 0.124975026520D-03 0.100000000000D+01
-.164315687991D-06 0.000000000000D+00 -.116242796419D-07 0.395219400808D-07 0.000000000000D+00  7 1 -1 23 -13 13 23 21 2 0.87314314D-01 0.31317159D-01 0.87808016D+05 0.87808016D+05 0.87808016D+05 0.11263854D+01  1  2  3  2  7  2       -1 -.860738503115D-05 0.100000000000D+01
0.188164950743D-06 0.000000000000D+00 0.000000000000D+00 0.395219400808D-07 0.000000000000D+00  7 1 -1 23 -13 13 23 21 2 0.87314314D-01 0.31317159D-01 0.87808016D+05 0.87808016D+05 0.87808016D+05 0.11263854D+01  1  2 15  2  7  2       -1 0.985668623744D-05 0.100000000000D+01
0.297129396667D-05 0.000000000000D+00 0.000000000000D+00 0.395219400808D-07 0.000000000000D+00  7 1 -1 23 -13 13 23 21 2 0.87314314D-01 0.38185985D-01 0.11285126D+06 0.11285126D+06 0.11285126D+06 0.11174386D+01  1  2 12  2  7  2       -1 0.109011629802D-03 0.100000000000D+01
-.298539548876D-05 0.000000000000D+00 0.000000000000D+00 0.395219400808D-07 0.000000000000D+00  7 1 -1 23 -13 13 23 21 2 0.87314314D-01 0.31317159D-01 0.87808016D+05 0.87808016D+05 0.87808016D+05 0.11263854D+01  1  2  4  2  7  2       -1 -.156384632267D-03 0.100000000000D+01
-.609980571411D-05 0.000000000000D+00 -.181273499510D-05 0.395219400808D-07 0.000000000000D+00  7 1 -1 23 -13 13 23 21 2 0.87314314D-01 0.39887760D-01 0.87808016D+05 0.87808016D+05 0.87808016D+05 0.11263854D+01  1  2  5  2  7  2       -1 -.211825029442D-03 0.100000000000D+01
0.640186255896D-05 0.000000000000D+00 0.176095999935D-05 0.395219400808D-07 0.000000000000D+00  7 1 -1 23 -13 13 23 21 2 0.87314314D-01 0.31317159D-01 0.87808016D+05 0.87808016D+05 0.87808016D+05 0.11263854D+01  1  2  6  2  7  2       -1 0.335350182538D-03 0.100000000000D+01
0.844744506072D-07 0.000000000000D+00 0.000000000000D+00 0.395219400808D-07 0.000000000000D+00  7 1 21 23 -13 13 23 1 2 0.87314314D-01 0.38185985D-01 0.11285126D+06 0.11285126D+06 0.11285126D+06 0.11174386D+01  1  2 12  4  7  2       -1 0.313057919623D-04 0.100000000000D+01
-.172693726507D-06 0.000000000000D+00 -.598730668622D-07 0.395219400808D-07 0.000000000000D+00  7 1 21 23 -13 13 23 1 2 0.87314314D-01 0.39887760D-01 0.87808016D+05 0.87808016D+05 0.87808016D+05 0.11263854D+01  1  2  5  4  7  2       -1 -.601802394089D-04 0.100000000000D+01
  </mgrwgt>
  </event>
  <event>
  8     66 0.56006291E-06 0.14309883E+03 0.75467711E-02 0.10359612E+00
        3 -1    0    0  501    0 0.00000000E+00 0.00000000E+00 0.17290202E+03 0.17290274E+03 0.50000000E+00 0.0000E+00 0.9000E+01
       -3 -1    0    0    0  501 0.00000000E+00 0.00000000E+00 -.32596186E+03 0.32596225E+03 0.50000000E+00 0.0000E+00 0.9000E+01
       25  2    1    2    0    0 -.89216518E+02 -.61639046E+02 -.15989885E+03 0.35677342E+03 0.29993445E+03 0.0000E+00 0.0000E+00
       23  2    1    2    0    0 0.89216518E+02 0.61639046E+02 0.68390007E+01 0.14209157E+03 0.91565728E+02 0.0000E+00 0.0000E+00
       23  1    3    3    0    0 0.90980626E+01 -.13622364E+03 -.66453939E+02 0.17711869E+03 0.91188000E+02 0.0000E+00 0.9000E+01
      -13  1    4    4    0    0 0.53505865E+02 -.91787026E+01 -.20749954E+02 0.58117965E+02 0.10565837E+00 0.0000E+00 0.9000E+01
       13  1    4    4    0    0 0.35710653E+02 0.70817749E+02 0.27588955E+02 0.83973602E+02 0.10565837E+00 0.0000E+00 0.9000E+01
       23  1    3    3    0    0 -.98314580E+02 0.74584591E+02 -.93444911E+02 0.17965473E+03 0.91188000E+02 0.0000E+00 0.9000E+01
#aMCatNLO 1  0  0  1  2 0.33616040D+02 0.00000000D+00  -5  7  0 0.00000000D+00 0.00000000D+00 0.00000000D+00 0.00000000D+00 0.00000000D+00
  <mgrwgt>
 0.2582237725D-04    9    2    0
 0.237402062882320D+03 0.000000000000000D+00 0.000000000000000D+00 0.237402062882320D+03
 0.237402062882320D+03 0.000000000000000D+00 0.000000000000000D+00 -.237402062882320D+03
 0.164671875902669D+03 0.909805749188920D+01 -.136223640965583D+03 -.127247931715273D+02
 0.543740092611714D+02 0.535058860685580D+02 -.917879771332652D+01 -.306638413938574D+01
 0.971227410097021D+02 0.357106414941560D+02 0.708178509411078D+02 0.560571930567039D+02
 0.158635499591097D+03 -.983145850546032D+02 0.745845877378021D+02 -.402660157457909D+02
 0.000000000000000D+00 0.000000000000000D+00 -.000000000000000D+00 0.000000000000000D+00
 0.279188551628900D+03 0.000000000000000D+00 0.000000000000000D+00 0.279188551628900D+03
 0.244854642334253D+03 0.000000000000000D+00 0.000000000000000D+00 -.244854642334253D+03
 0.161683249215974D+03 -.194923094724014D+01 -.132892820989288D+03 -.127247931715273D+02
 0.506955853418928D+02 0.499492263796977D+02 -.810644469151365D+01 -.306638413938574D+01
 0.963925434718908D+02 0.291600498211398D+02 0.727928913975289D+02 0.560571930567039D+02
 0.167221264754046D+03 -.109345003725839D+03 0.779103213836183D+02 -.402660157457909D+02
 0.480505511793494D+02 0.321849584722416D+02 -.970394710034505D+01 0.343339092946472D+02
0.103596714750D-05 0.000000000000D+00 0.000000000000D+00 0.226433653546D-06 0.000000000000D+00  7 3 -3 23 -13 13 23 21 0 0.26600395D-01 0.50148064D-01 0.50899702D+05 0.50899702D+05 0.50899702D+05 0.11466147D+01  1  2  2  1  7  1        3 0.228538120514D-04 0.100000000000D+01
-.573720842060D-07 0.000000000000D+00 -.397838662281D-08 0.226433653546D-06 0.000000000000D+00  7 3 -3 23 -13 13 23 21 2 0.26600395D-01 0.50148064D-01 0.50899702D+05 0.50899702D+05 0.50899702D+05 0.11466147D+01  1  2  3  1  7  1        3 -.166398090892D-05 0.100000000000D+01
0.660199484060D-07 0.000000000000D+00 0.000000000000D+00 0.226433653546D-06 0.000000000000D+00  7 3 -3 23 -13 13 23 21 2 0.26600395D-01 0.50148064D-01 0.50899702D+05 0.50899702D+05 0.50899702D+05 0.11466147D+01  1  2 15  1  7  1        3 0.191479768037D-05 0.100000000000D+01
0.282689195120D-05 0.000000000000D+00 0.000000000000D+00 0.226433653546D-06 0.000000000000D+00  7 3 -3 23 -13 13 23 21 2 0.31649873D-01 0.50148064D-01 0.59077624D+05 0.59077624D+05 0.59077624D+05 0.11409765D+01  1  2 12  1  7  1        3 0.591975219751D-04 0.100000000000D+01
-.287004677386D-05 0.000000000000D+00 0.000000000000D+00 0.226433653546D-06 0.000000000000D+00  7 3 -3 23 -13 13 23 21 2 0.26600395D-01 0.50148064D-01 0.50899702D+05 0.50899702D+05 0.50899702D+05 0.11466147D+01  1  2  4  1  7  1        3 -.832408845785D-04 0.100000000000D+01
-.480016410528D-05 0.000000000000D+00 -.848181836585D-06 0.226433653546D-06 0.000000000000D+00  7 3 -3 23 -13 13 23 21 2 0.32107092D-01 0.50148064D-01 0.50899702D+05 0.50899702D+05 0.50899702D+05 0.11466147D+01  1  2  5  1  7  1        3 -.985590999676D-04 0.100000000000D+01
0.488777412456D-05 0.000000000000D+00 0.833387006095D-06 0.226433653546D-06 0.000000000000D+00  7 3 -3 23 -13 13 23 21 2 0.26600395D-01 0.50148064D-01 0.50899702D+05 0.50899702D+05 0.50899702D+05 0.11466147D+01  1  2  6  1  7  1        3 0.141761676309D-03 0.100000000000D+01
0.725350867779D-07 0.000000000000D+00 0.000000000000D+00 0.226433653546D-06 0.000000000000D+00  7 21 -3 23 -13 13 23 -3 2 0.31649873D-01 0.50148064D-01 0.59077624D+05 0.59077624D+05 0.59077624D+05 0.11409765D+01  1  2 12  3  7  1        3 0.249118414302D-04 0.100000000000D+01
-.122254691929D-06 0.000000000000D+00 -.231552472699D-07 0.226433653546D-06 0.000000000000D+00  7 21 -3 23 -13 13 23 -3 2 0.32107092D-01 0.50148064D-01 0.50899702D+05 0.50899702D+05 0.50899702D+05 0.11466147D+01  1  2  5  3  7  1        3 -.413533067422D-04 0.100000000000D+01
  </mgrwgt>
  </event>
  <event>
  8     66 0.56006291E-06 0.13950785E+03 0.75467711E-02 0.10355309E+00
        1 -1    0    0  501    0 0.00000000E+00 0.00000000E+00 0.11810490E+04 0.11810491E+04 0.32000000E+00 0.0000E+00 0.9000E+01
       -1 -1    0    0    0  501 0.00000000E+00 0.00000000E+00 -.12730600E+03 0.12730640E+03 0.32000000E+00 0.0000E+00 0.9000E+01
       25  2    1    2    0    0 -.98919768E+02 0.12382425E+03 0.12402362E+03 0.36084612E+03 0.29951711E+03 0.0000E+00 0.0000E+00
       23  2    1    2    0    0 0.98919768E+02 -.12382425E+03 0.92971941E+03 0.94750935E+03 0.90984684E+02 0.0000E+00 0.0000E+00
       23  1    3    3    0    0 0.45714632E+02 0.63593291E+02 -.28956821E+02 0.12364337E+03 0.91188000E+02 0.0000E+00 0.9000E+01
      -13  1    4    4    0    0 0.87930496E+02 -.51233287E+02 0.66720848E+03 0.67492503E+03 0.10565837E+00 0.0000E+00 0.9000E+01
       13  1    4    4    0    0 0.10989272E+02 -.72590968E+02 0.26251093E+03 0.27258432E+03 0.10565837E+00 0.0000E+00 0.9000E+01
       23  1    3    3    0    0 -.14463440E+03 0.60230963E+02 0.15298044E+03 0.23720275E+03 0.91188000E+02 0.0000E+00 0.9000E+01
#aMCatNLO 1  0  0  1  2 0.91306111D+01 0.00000000D+00  -5  7  0 0.00000000D+00 0.00000000D+00 0.00000000D+00 0.00000000D+00 0.00000000D+00
  <mgrwgt>
 0.1408689585D-03    8    2    0
 0.387756256798685D+03 0.000000000000000D+00 0.000000000000000D+00 0.387756256798685D+03
 0.387756256798685D+03 0.000000000000000D+00 0.000000000000000D+00 -.387756256798685D+03
 0.247942520865927D+03 0.457146317537895D+02 0.635932911182998D+02 -.216855500455279D+03
 0.232073233751752D+03 0.879305994527499D+02 -.512332581819587D+02 0.208569769525538D+03
 0.103180785205721D+03 0.109891683126900D+02 -.725909963533361D+02 0.724986887046545D+02
 0.192315973773970D+03 -.144634399519229D+03 0.602309634169949D+02 -.642129577749137D+02
 0.000000000000000D+00 -.000000000000000D+00 0.000000000000000D+00 -.000000000000000D+00
 0.391915087252615D+03 0.000000000000000D+00 0.000000000000000D+00 0.391915087252615D+03
 0.392827234485882D+03 0.000000000000000D+00 0.000000000000000D+00 -.392827234485882D+03
 0.248129512656743D+03 0.483590814205852D+02 0.623545898368415D+02 -.216855500455279D+03
 0.233282697171377D+03 0.904113084089319D+02 -.523952607723393D+02 0.208569769525538D+03
 0.103667636792530D+03 0.120918312399794D+02 -.731075007883420D+02 0.724986887046545D+02
 0.190486415413250D+03 -.142593765131223D+03 0.592750985869131D+02 -.642129577749137D+02
 0.917605970459612D+01 -.826845593827368D+01 0.387307313692666D+01 -.912147233266852D+00
0.397355750652D-05 0.000000000000D+00 0.000000000000D+00 0.583276912878D-06 0.000000000000D+00  7 1 -1 23 -13 13 23 21 0 0.18169988D+00 0.19585572D-01 0.56803467D+05 0.56803467D+05 0.56803467D+05 0.11424537D+01  1  2  2  1  7  1        1 0.109655755691D-03 0.100000000000D+01
-.157174399934D-06 0.000000000000D+00 -.152595070868D-07 0.583276912878D-06 0.000000000000D+00  7 1 -1 23 -13 13 23 21 2 0.18169988D+00 0.19585572D-01 0.56803467D+05 0.56803467D+05 0.56803467D+05 0.11424537D+01  1  2  3  1  7  1        1 -.566123166930D-05 0.100000000000D+01
0.250563810516D-06 0.000000000000D+00 0.000000000000D+00 0.583276912878D-06 0.000000000000D+00  7 1 -1 23 -13 13 23 21 2 0.18169988D+00 0.19585572D-01 0.56803467D+05 0.56803467D+05 0.56803467D+05 0.11424537D+01  1  2 15  1  7  1        1 0.902500521632D-05 0.100000000000D+01
0.248340280025D-05 0.000000000000D+00 0.000000000000D+00 0.583276912878D-06 0.000000000000D+00  7 1 -1 23 -13 13 23 21 2 0.18482278D+00 0.19585572D-01 0.59451760D+05 0.59451760D+05 0.59451760D+05 0.11407395D+01  1  2 12  1  7  1        1 0.862492650069D-04 0.100000000000D+01
-.172167026317D-05 0.000000000000D+00 0.000000000000D+00 0.583276912878D-06 0.000000000000D+00  7 1 -1 23 -13 13 23 21 2 0.18169988D+00 0.19585572D-01 0.56803467D+05 0.56803467D+05 0.56803467D+05 0.11424537D+01  1  2  4  1  7  1        1 -.620124792720D-04 0.100000000000D+01
0.207803662672D-08 0.000000000000D+00 0.000000000000D+00 0.583276912878D-06 0.485601181521D-07  7 1 -1 23 -13 13 23 21 2 0.18364868D+00 0.19841707D-01 0.59451760D+05 0.59451760D+05 0.59451760D+05 0.11407395D+01  1  2 11  1  7  1        1 0.715602144902D-07 0.100000000000D+01
0.907860088186D-07 0.000000000000D+00 0.000000000000D+00 0.583276912878D-06 0.000000000000D+00  7 21 -1 23 -13 13 23 -1 2 0.18482278D+00 0.19585572D-01 0.59451760D+05 0.59451760D+05 0.59451760D+05 0.11407395D+01  1  2 12  3  7  1        1 0.354070323703D-05 0.100000000000D+01
0.974685116181D-11 0.000000000000D+00 0.000000000000D+00 0.583276912878D-06 0.971665514919D-10  7 21 -1 23 -13 13 23 -1 2 0.18364868D+00 0.19841707D-01 0.59451760D+05 0.59451760D+05 0.59451760D+05 0.11407395D+01  1  2 11  3  7  1        1 0.380048203296D-09 0.100000000000D+01
  </mgrwgt>
  </event>
  <event>
  8     66 0.56006291E-06 0.11307449E+03 0.75467711E-02 0.10366999E+00
        1 -1    0    0  501    0 0.00000000E+00 0.00000000E+00 0.79670086E+02 0.79670729E+02 0.32000000E+00 0.0000E+00 0.9000E+01
       -1 -1    0    0    0  501 0.00000000E+00 0.00000000E+00 -.75023119E+03 0.75023126E+03 0.32000000E+00 0.0000E+00 0.9000E+01
       25  2    1    2    0    0 -.81481821E+02 -.64411680E+02 -.31414574E+03 0.44763570E+03 0.30149962E+03 0.0000E+00 0.0000E+00
       23  2    1    2    0    0 0.81481821E+02 0.64411680E+02 -.35641536E+03 0.38226629E+03 0.91145226E+02 0.0000E+00 0.0000E+00
       23  1    3    3    0    0 -.75854346E+02 -.14694406E+03 -.14334466E+03 0.23708518E+03 0.91188000E+02 0.0000E+00 0.9000E+01
      -13  1    4    4    0    0 0.93246683E+02 0.62366268E+02 -.23649212E+03 0.26174994E+03 0.10565837E+00 0.0000E+00 0.9000E+01
       13  1    4    4    0    0 -.11764862E+02 0.20454126E+01 -.11992324E+03 0.12051635E+03 0.10565837E+00 0.0000E+00 0.9000E+01
       23  1    3    3    0    0 -.56274753E+01 0.82532379E+02 -.17080107E+03 0.21055052E+03 0.91188000E+02 0.0000E+00 0.9000E+01
#aMCatNLO 1  0  0  2  1 0.43096979D+02 0.00000000D+00  -5  7  0 0.00000000D+00 0.00000000D+00 0.00000000D+00 0.00000000D+00 0.00000000D+00
  <mgrwgt>
 0.2638091934D-03    9    2    0
 0.244481652850033D+03 0.000000000000000D+00 0.000000000000000D+00 0.244481652850033D+03
 0.244481652850033D+03 0.000000000000000D+00 0.000000000000000D+00 -.244481652850033D+03
 0.205815254328630D+03 -.758543486774813D+02 -.146944061532820D+03 0.818427036290492D+02
 0.119936256536037D+03 0.932468222526934D+02 0.623663491858529D+02 -.424284605056662D+02
 0.400865320183674D+02 -.117649966750528D+02 0.204533455631976D+01 -.382665847580930D+02
 0.123125262817033D+03 -.562747690015933D+01 0.825323777906478D+02 -.114765836529000D+01
 0.000000000000000D+00 0.000000000000000D+00 0.000000000000000D+00 -.000000000000000D+00
 0.262881024142960D+03 0.000000000000000D+00 0.000000000000000D+00 0.262881024142960D+03
 0.272036647955983D+03 0.000000000000000D+00 0.000000000000000D+00 -.272036647955983D+03
 0.217379663350852D+03 -.933104867675961D+02 -.153406621814091D+03 0.818427036290492D+02
 0.110785264618838D+03 0.837299151127755D+02 0.588430277177556D+02 -.424284605056662D+02
 0.411518063976448D+02 -.151159529232453D+02 0.804753355480894D+00 -.382665847580930D+02
 0.121542169898170D+03 -.157196313973104D+02 0.787960899319566D+02 -.114765836529000D+01
 0.440587678334371D+02 0.404161559753764D+02 0.149627508088976D+02 -.915562381302301D+01
0.301741298502D-05 0.000000000000D+00 0.000000000000D+00 0.345605952709D-07 0.000000000000D+00  7 1 -1 23 -13 13 23 21 0 0.12256991D-01 0.11542024D+00 0.47542577D+05 0.47542577D+05 0.47542577D+05 0.11492256D+01  1  2  2  2  7  2       -1 0.137789166899D-03 0.100000000000D+01
-.164964285123D-06 0.000000000000D+00 -.115876603656D-07 0.345605952709D-07 0.000000000000D+00  7 1 -1 23 -13 13 23 21 2 0.12256991D-01 0.11542024D+00 0.47542577D+05 0.47542577D+05 0.47542577D+05 0.11492256D+01  1  2  3  2  7  2       -1 -.994903163269D-05 0.100000000000D+01
0.197658557528D-06 0.000000000000D+00 0.000000000000D+00 0.345605952709D-07 0.000000000000D+00  7 1 -1 23 -13 13 23 21 2 0.12256991D-01 0.11542024D+00 0.47542577D+05 0.47542577D+05 0.47542577D+05 0.11492256D+01  1  2 15  2  7  2       -1 0.119208302564D-04 0.100000000000D+01
0.343167400977D-05 0.000000000000D+00 0.000000000000D+00 0.345605952709D-07 0.000000000000D+00  7 1 -1 23 -13 13 23 21 2 0.12256991D-01 0.13236337D+00 0.58441655D+05 0.58441655D+05 0.58441655D+05 0.11413832D+01  1  2 12  2  7  2       -1 0.145573079984D-03 0.100000000000D+01
-.309649854623D-05 0.000000000000D+00 0.000000000000D+00 0.345605952709D-07 0.000000000000D+00  7 1 -1 23 -13 13 23 21 2 0.12256991D-01 0.11542024D+00 0.47542577D+05 0.47542577D+05 0.47542577D+05 0.11492256D+01  1  2  4  2  7  2       -1 -.186750495503D-03 0.100000000000D+01
-.933093381603D-05 0.000000000000D+00 -.235554109706D-05 0.345605952709D-07 0.000000000000D+00  7 1 -1 23 -13 13 23 21 2 0.12256991D-01 0.13548654D+00 0.47542577D+05 0.47542577D+05 0.47542577D+05 0.11492256D+01  1  2  5  2  7  2       -1 -.378996829183D-03 0.100000000000D+01
0.961466729722D-05 0.000000000000D+00 0.232560042468D-05 0.345605952709D-07 0.000000000000D+00  7 1 -1 23 -13 13 23 21 2 0.12256991D-01 0.11542024D+00 0.47542577D+05 0.47542577D+05 0.47542577D+05 0.11492256D+01  1  2  6  2  7  2       -1 0.579862659402D-03 0.100000000000D+01
0.726850582120D-07 0.000000000000D+00 0.000000000000D+00 0.345605952709D-07 0.000000000000D+00  7 1 21 23 -13 13 23 1 2 0.12256991D-01 0.13236337D+00 0.58441655D+05 0.58441655D+05 0.58441655D+05 0.11413832D+01  1  2 12  4  7  2       -1 0.207261289946D-04 0.100000000000D+01
-.206113264999D-06 0.000000000000D+00 -.566794385495D-07 0.345605952709D-07 0.000000000000D+00  7 1 21 23 -13 13 23 1 2 0.12256991D-01 0.13548654D+00 0.47542577D+05 0.47542577D+05 0.47542577D+05 0.11492256D+01  1  2  5  4  7  2       -1 -.563663158235D-04 0.100000000000D+01
  </mgrwgt>
  </event>
  <event>
  8     66 0.56006291E-06 0.35332809E+03 0.75467711E-02 0.95285888E-01
        1 -1    0    0  501    0 0.00000000E+00 0.00000000E+00 0.10156911E+03 0.10156961E+03 0.32000000E+00 0.0000E+00 0.9000E+01
       -1 -1    0    0    0  501 0.00000000E+00 0.00000000E+00 -.15452441E+04 0.15452441E+04 0.32000000E+00 0.0000E+00 0.9000E+01
       25  2    1    2    0    0 -.21076539E+03 0.22008818E+03 -.54072637E+03 0.68948774E+03 0.30024570E+03 0.0000E+00 0.0000E+00
       23  2    1    2    0    0 0.21076539E+03 -.22008818E+03 -.90294858E+03 0.95732597E+03 0.91082413E+02 0.0000E+00 0.0000E+00
       23  1    3    3    0    0 -.11683732E+03 0.10272331E+02 -.33976143E+03 0.37082282E+03 0.91188000E+02 0.0000E+00 0.9000E+01
      -13  1    4    4    0    0 0.47742947E+02 -.17731411E+02 -.23839081E+03 0.24377035E+03 0.10565837E+00 0.0000E+00 0.9000E+01
       13  1    4    4    0    0 0.16302244E+03 -.20235677E+03 -.66455777E+03 0.71355562E+03 0.10565837E+00 0.0000E+00 0.9000E+01
       23  1    3    3    0    0 -.93928066E+02 0.20981585E+03 -.20096493E+03 0.31866492E+03 0.91188000E+02 0.0000E+00 0.9000E+01
#aMCatNLO 1  0  0  2  1 0.21180802D+03 0.00000000D+00  -5  7  0 0.00000000D+00 0.00000000D+00 0.00000000D+00 0.00000000D+00 0.00000000D+00
  <mgrwgt>
 0.3585321313D-03    3    2    0
 0.396168529536840D+03 0.000000000000000D+00 0.000000000000000D+00 0.396168529536840D+03
 0.396168529536840D+03 0.000000000000000D+00 0.000000000000000D+00 -.396168529536840D+03
 0.151666553493069D+03 -.116837322085820D+03 0.102723313198395D+02 -.305124807502747D+02
 0.722991456137635D+02 0.477427921042210D+02 -.177311627611191D+02 -.513166456981750D+02
 0.272217456626761D+03 0.163022595829190D+03 -.202357021556670D+03 -.811024831196213D+02
 0.296153903340086D+03 -.939280658475919D+02 0.209815852997950D+03 0.162931609568071D+03
 0.000000000000000D+00 0.000000000000000D+00 0.000000000000000D+00 0.000000000000000D+00
 0.112942839942276D+04 0.000000000000000D+00 0.000000000000000D+00 0.112942839942276D+04
 0.425670861347789D+03 0.000000000000000D+00 0.000000000000000D+00 -.425670861347789D+03
 0.178060807709825D+03 -.148638519106895D+03 -.191305790411135D+02 -.305124807502747D+02
 0.686846707443173D+02 0.341453335723291D+02 -.303031692200278D+02 -.513166456981750D+02
 0.286501202329090D+03 0.109135887465085D+03 -.252179864848592D+03 -.811024831196213D+02
 0.286912237037019D+03 -.150163014439076D+03 0.157821861970115D+03 0.162931609568071D+03
 0.734940342950301D+03 0.155520312508558D+03 0.143791751139618D+03 0.703757538074974D+03
0.108866570371D-03 0.000000000000D+00 0.000000000000D+00 0.883149948865D-06 0.000000000000D+00  7 1 -1 23 -13 13 23 21 0 0.15626058D-01 0.23772990D+00 0.12484074D+06 0.12484074D+06 0.12484074D+06 0.11138996D+01  1  2  2  2  7  2       -1 0.354552202879D-03 0.100000000000D+01
-.595183105375D-05 0.000000000000D+00 -.418076295450D-06 0.883149948865D-06 0.000000000000D+00  7 1 -1 23 -13 13 23 21 2 0.15626058D-01 0.23772990D+00 0.12484074D+06 0.12484074D+06 0.12484074D+06 0.11138996D+01  1  2  3  2  7  2       -1 -.240507351167D-04 0.100000000000D+01
0.693674321724D-05 0.000000000000D+00 0.000000000000D+00 0.883149948865D-06 0.000000000000D+00  7 1 -1 23 -13 13 23 21 2 0.15626058D-01 0.23772990D+00 0.12484074D+06 0.12484074D+06 0.12484074D+06 0.11138996D+01  1  2 15  2  7  2       -1 0.280306635359D-04 0.100000000000D+01
  </mgrwgt>
  </event>
  <event>
  8     66 0.56006291E-06 0.14020717E+03 0.75467711E-02 0.10457983E+00
        1 -1    0    0  501    0 0.00000000E+00 0.00000000E+00 0.36656068E+02 0.36657465E+02 0.32000000E+00 0.0000E+00 0.9000E+01
       -1 -1    0    0    0  501 0.00000000E+00 0.00000000E+00 -.14075934E+04 0.14075934E+04 0.32000000E+00 0.0000E+00 0.9000E+01
       25  2    1    2    0    0 0.10762499E+02 0.82394247E+02 -.77918491E+03 0.83944327E+03 0.30105023E+03 0.0000E+00 0.0000E+00
       23  2    1    2    0    0 -.10762499E+02 -.82394247E+02 -.59175239E+03 0.60480759E+03 0.93363231E+02 0.0000E+00 0.0000E+00
       23  1    3    3    0    0 0.30814487E+02 0.14987845E+03 -.32217700E+03 0.36813904E+03 0.91188000E+02 0.0000E+00 0.9000E+01
      -13  1    4    4    0    0 -.23207008E+02 -.89279068E+02 -.57695741E+03 0.58428519E+03 0.10565837E+00 0.0000E+00 0.9000E+01
       13  1    4    4    0    0 0.12444509E+02 0.68848207E+01 -.14794978E+02 0.20522405E+02 0.10565837E+00 0.0000E+00 0.9000E+01
       23  1    3    3    0    0 -.20051988E+02 -.67484201E+02 -.45700790E+03 0.47130423E+03 0.91188000E+02 0.0000E+00 0.9000E+01
#aMCatNLO 1  0  0  2  1 0.49894435D+02 0.00000000D+00  -5  7  0 0.00000000D+00 0.00000000D+00 0.00000000D+00 0.00000000D+00 0.00000000D+00
  <mgrwgt>
 0.3511277764D-03    9    2    0
 0.227151651100991D+03 0.000000000000000D+00 0.000000000000000D+00 0.227151651100991D+03
 0.227151651100991D+03 0.000000000000000D+00 0.000000000000000D+00 -.227151651100991D+03
 0.198107087796989D+03 0.308144988586718D+02 0.149878536680700D+03 0.867067344209501D+02
 0.116402494829702D+03 -.232070296472365D+02 -.892792568872022D+02 -.709942875673806D+02
 0.205950701386181D+02 0.124445121120247D+02 0.688486756643830D+01 0.148959602208410D+02
 0.119198649436672D+03 -.200519813234601D+02 -.674841473599357D+02 -.306084070744105D+02
 0.000000000000000D+00 0.000000000000000D+00 0.000000000000000D+00 -.000000000000000D+00
 0.238950992303308D+03 0.000000000000000D+00 0.000000000000000D+00 0.238950992303308D+03
 0.288167890083668D+03 0.000000000000000D+00 0.000000000000000D+00 -.288167890083668D+03
 0.185891608050629D+03 0.150206455433733D+02 0.136002797813736D+03 0.867067344209501D+02
 0.125488735591652D+03 -.331560077371204D+02 -.980199624776900D+02 -.709942875673806D+02
 0.191930790600062D+02 0.108080268871383D+02 0.544712839114956D+01 0.148959602208410D+02
 0.126461526749280D+03 -.301559760246061D+02 -.763610432755440D+02 -.306084070744105D+02
 0.700839329354083D+02 0.374833113312149D+02 0.329310795483485D+02 -.492168977803596D+02
0.109199546130D-04 0.000000000000D+00 0.000000000000D+00 0.186069320076D-07 0.000000000000D+00  7 1 -1 23 -13 13 23 21 0 0.56395053D-02 0.21655293D+00 0.39958917D+05 0.39958917D+05 0.39958917D+05 0.11559585D+01  1  2  2  2  7  2       -1 0.212352158188D-03 0.100000000000D+01
-.594614100518D-06 0.000000000000D+00 -.419355010040D-07 0.186069320076D-07 0.000000000000D+00  7 1 -1 23 -13 13 23 21 2 0.56395053D-02 0.21655293D+00 0.39958917D+05 0.39958917D+05 0.39958917D+05 0.11559585D+01  1  2  3  2  7  2       -1 -.154509635830D-04 0.100000000000D+01
0.690773497411D-06 0.000000000000D+00 0.000000000000D+00 0.186069320076D-07 0.000000000000D+00  7 1 -1 23 -13 13 23 21 2 0.56395053D-02 0.21655293D+00 0.39958917D+05 0.39958917D+05 0.39958917D+05 0.11559585D+01  1  2 15  2  7  2       -1 0.179496519563D-04 0.100000000000D+01
0.147503736647D-04 0.000000000000D+00 0.000000000000D+00 0.186069320076D-07 0.000000000000D+00  7 1 -1 23 -13 13 23 21 2 0.56395053D-02 0.27925008D+00 0.51213039D+05 0.51213039D+05 0.51213039D+05 0.11463808D+01  1  2 12  2  7  2       -1 0.115540559912D-03 0.100000000000D+01
-.153518514565D-04 0.000000000000D+00 0.000000000000D+00 0.186069320076D-07 0.000000000000D+00  7 1 -1 23 -13 13 23 21 2 0.56395053D-02 0.21655293D+00 0.39958917D+05 0.39958917D+05 0.39958917D+05 0.11559585D+01  1  2  4  2  7  2       -1 -.398915696044D-03 0.100000000000D+01
-.229762000109D-04 0.000000000000D+00 -.500753674815D-05 0.186069320076D-07 0.000000000000D+00  7 1 -1 23 -13 13 23 21 2 0.56395053D-02 0.28046513D+00 0.39958917D+05 0.39958917D+05 0.39958917D+05 0.11559585D+01  1  2  5  2  7  2       -1 -.180251713834D-03 0.100000000000D+01
0.236392063095D-04 0.000000000000D+00 0.484462415378D-05 0.186069320076D-07 0.000000000000D+00  7 1 -1 23 -13 13 23 21 2 0.56395053D-02 0.21655293D+00 0.39958917D+05 0.39958917D+05 0.39958917D+05 0.11559585D+01  1  2  6  2  7  2       -1 0.614261443684D-03 0.100000000000D+01
0.505472327104D-06 0.000000000000D+00 0.000000000000D+00 0.186069320076D-07 0.000000000000D+00  7 1 21 23 -13 13 23 1 2 0.56395053D-02 0.27925008D+00 0.51213039D+05 0.51213039D+05 0.51213039D+05 0.11463808D+01  1  2 12  4  7  2       -1 0.338960250898D-04 0.100000000000D+01
-.708528780329D-06 0.000000000000D+00 -.173749127573D-06 0.186069320076D-07 0.000000000000D+00  7 1 21 23 -13 13 23 1 2 0.56395053D-02 0.28046513D+00 0.39958917D+05 0.39958917D+05 0.39958917D+05 0.11559585D+01  1  2  5  4  7  2       -1 -.482536889554D-04 0.100000000000D+01
  </mgrwgt>
  </event>
  <event>
  8     66 0.56006291E-06 0.13991708E+03 0.75467711E-02 0.10517894E+00
        3 -1    0    0  501    0 0.00000000E+00 0.00000000E+00 0.29222710E+03 0.29222753E+03 0.50000000E+00 0.0000E+00 0.9000E+01
       -3 -1    0    0    0  501 0.00000000E+00 0.00000000E+00 -.19100624E+03 0.19100690E+03 0.50000000E+00 0.0000E+00 0.9000E+01
       25  2    1    2    0    0 0.78295591E+02 0.40073165E+02 0.15021952E+03 0.34702164E+03 0.30020335E+03 0.0000E+00 0.0000E+00
       23  2    1    2    0    0 -.78295591E+02 -.40073165E+02 -.48998668E+02 0.13621279E+03 0.91744193E+02 0.0000E+00 0.0000E+00
       23  1    3    3    0    0 0.14027714E+03 -.40457721E+02 0.55545525E+02 0.18087305E+03 0.91188000E+02 0.0000E+00 0.9000E+01
      -13  1    4    4    0    0 -.88001879E+02 -.45349182E+01 -.22841249E+02 0.91030929E+02 0.10565837E+00 0.0000E+00 0.9000E+01
       13  1    4    4    0    0 0.97062875E+01 -.35538247E+02 -.26157419E+02 0.45181863E+02 0.10565837E+00 0.0000E+00 0.9000E+01
       23  1    3    3    0    0 -.61981547E+02 0.80530886E+02 0.94673999E+02 0.16614859E+03 0.91188000E+02 0.0000E+00 0.9000E+01
#aMCatNLO 1  0  0  1  1 0.30627288D+03 0.00000000D+00  -5  7  0 0.00000000D+00 0.00000000D+00 0.00000000D+00 0.00000000D+00 0.00000000D+00
  <mgrwgt>
 0.2016616187D-06    1    2    0
 0.236257195934674D+03 0.000000000000000D+00 0.000000000000000D+00 0.236257195934674D+03
 0.236257195934674D+03 0.000000000000000D+00 0.000000000000000D+00 -.236257195934674D+03
 0.173077734879499D+03 0.140277145078664D+03 -.404577173494269D+02 0.180595305163674D+02
 0.979892242088129D+02 -.880020029484822D+02 -.453488868005058D+01 -.428598917726104D+02
 0.518102228858340D+02 0.970639996351654D+01 -.355382823901180D+02 -.364295962095145D+02
 0.149637209895202D+03 -.619815420936982D+02 0.805308884195955D+02 0.612299574657575D+02
 0.000000000000000D+00 0.000000000000000D+00 0.000000000000000D+00 0.000000000000000D+00
 0.392064245981252D+03 0.000000000000000D+00 0.000000000000000D+00 0.392064245981252D+03
 0.307094791504564D+03 0.000000000000000D+00 0.000000000000000D+00 -.307094791504564D+03
 0.164740933274927D+03 0.103210203358419D+03 -.885766957643835D+02 0.180595305163674D+02
 0.125828792695511D+03 -.112560294631584D+03 -.364155848628155D+02 -.428598917726104D+02
 0.635332297188099D+02 -.294958811099020D+01 -.519678335943524D+02 -.364295962095145D+02
 0.149983642806582D+03 -.948572524442885D+02 0.378528167114997D+02 0.612299574657575D+02
 0.195072438989986D+03 0.107156931828444D+03 0.139107297510052D+03 0.849694544766878D+02
0.654965376115D-08 0.000000000000D+00 0.000000000000D+00 0.436894933183D-06 0.000000000000D+00  7 3 -3 23 -13 13 23 21 2 0.44958099D-01 0.29385659D-01 0.47008332D+05 0.47008332D+05 0.47008332D+05 0.11496598D+01  1  2 14  1  7  1        3 0.201661618661D-06 0.100000000000D+01
  </mgrwgt>
  </event>
  <event>
  8     66 0.56006291E-06 0.15152455E+03 0.75467711E-02 0.10639444E+00
        1 -1    0    0  501    0 0.00000000E+00 0.00000000E+00 0.32934282E+03 0.32934298E+03 0.32000000E+00 0.0000E+00 0.9000E+01
       -1 -1    0    0    0  501 0.00000000E+00 0.00000000E+00 -.14495305E+03 0.14495340E+03 0.32000000E+00 0.0000E+00 0.9000E+01
       25  2    1    2    0    0 -.55107831E+02 0.28108505E+02 0.19984135E+03 0.36349814E+03 0.29726650E+03 0.0000E+00 0.0000E+00
       23  2    1    2    0    0 0.55107831E+02 -.28108505E+02 -.15451576E+02 0.11079823E+03 0.90612007E+02 0.0000E+00 0.0000E+00
       23  1    3    3    0    0 -.23563220E+01 -.10228517E+02 -.38941222E+02 0.99708801E+02 0.91188000E+02 0.0000E+00 0.9000E+01
      -13  1    4    4    0    0 -.16391528E+02 -.21941559E+02 0.16788116E+02 0.32124231E+02 0.10565837E+00 0.0000E+00 0.9000E+01
       13  1    4    4    0    0 0.71499359E+02 -.61669462E+01 -.32239692E+02 0.78674001E+02 0.10565837E+00 0.0000E+00 0.9000E+01
       23  1    3    3    0    0 -.52751509E+02 0.38337022E+02 0.23878257E+03 0.26378934E+03 0.91188000E+02 0.0000E+00 0.9000E+01
#aMCatNLO 1  0  0  1  2 0.82924823D+02 0.00000000D+00  -5  7  0 0.00000000D+00 0.00000000D+00 0.00000000D+00 0.00000000D+00 0.00000000D+00
  <mgrwgt>
 0.2239286283D-03    3    2    0
 0.218493399615971D+03 0.000000000000000D+00 0.000000000000000D+00 0.218493399615971D+03
 0.218493399615971D+03 0.000000000000000D+00 0.000000000000000D+00 -.218493399615971D+03
 0.124653381861659D+03 -.235633204057984D+01 -.102285122844414D+02 -.843388374434356D+02
 0.277829843336848D+02 -.163916247388107D+02 -.219415734437315D+02 0.466649887186506D+01
 0.989950042660213D+02 0.714994807737909D+02 -.616694431871351D+01 -.681894707156301D+02
 0.185555428770576D+03 -.527515239944003D+02 0.383370300468865D+02 0.147861809287201D+03
 0.000000000000000D+00 0.000000000000000D+00 -.000000000000000D+00 -.000000000000000D+00
 0.224451296645763D+03 0.000000000000000D+00 0.000000000000000D+00 0.224451296645763D+03
 0.105747704785847D+04 0.000000000000000D+00 0.000000000000000D+00 -.105747704785847D+04
 0.126303400687439D+03 -.228489018439696D+02 0.147846691751064D+01 -.843388374434356D+02
 0.289143091202370D+02 -.210213989651377D+02 -.192966796555265D+02 0.466649887186506D+01
 0.884000111127629D+02 0.561972227736282D+02 0.257491762781388D+01 -.681894707156301D+02
 0.201167608092575D+03 -.843304625949002D+02 0.563774213185864D+02 0.147861809287201D+03
 0.837143015491218D+03 0.720035406303793D+02 -.411341262083844D+02 -.833025751212705D+03
0.146853880524D-05 0.000000000000D+00 0.000000000000D+00 0.102081858264D-06 0.000000000000D+00  7 1 -1 23 -13 13 23 21 0 0.50668166D-01 0.22300508D-01 0.22959691D+05 0.22959691D+05 0.22959691D+05 0.11782689D+01  1  2  2  1  7  1        1 0.219168525619D-03 0.100000000000D+01
-.682969923360D-07 0.000000000000D+00 -.563957568725D-08 0.102081858264D-06 0.000000000000D+00  7 1 -1 23 -13 13 23 21 2 0.50668166D-01 0.22300508D-01 0.22959691D+05 0.22959691D+05 0.22959691D+05 0.11782689D+01  1  2  3  1  7  1        1 -.141508702196D-04 0.100000000000D+01
0.912708936486D-07 0.000000000000D+00 0.000000000000D+00 0.102081858264D-06 0.000000000000D+00  7 1 -1 23 -13 13 23 21 2 0.50668166D-01 0.22300508D-01 0.22959691D+05 0.22959691D+05 0.22959691D+05 0.11782689D+01  1  2 15  1  7  1        1 0.189109728946D-04 0.100000000000D+01
  </mgrwgt>
  </event>
  <event>
  8     66 0.56006291E-06 0.30517350E+03 0.75467711E-02 0.93931794E-01
        1 -1    0    0  501    0 0.00000000E+00 0.00000000E+00 0.52639161E+03 0.52639171E+03 0.32000000E+00 0.0000E+00 0.9000E+01
       -1 -1    0    0    0  501 0.00000000E+00 0.00000000E+00 -.29475219E+03 0.29475236E+03 0.32000000E+00 0.0000E+00 0.9000E+01
       25  2    1    2    0    0 -.24428260E+03 0.57133347E+02 0.35374506E+03 0.52720457E+03 0.29978473E+03 0.0000E+00 0.0000E+00
       23  2    1    2    0    0 0.24428260E+03 -.57133347E+02 -.12210564E+03 0.29393950E+03 0.92479351E+02 0.0000E+00 0.0000E+00
       23  1    3    3    0    0 -.22407122E+03 0.64475404E+02 0.35391418E+03 0.43351527E+03 0.91188000E+02 0.0000E+00 0.9000E+01
      -11  1    4    4    0    0 0.12428733E+03 -.74722646E+02 -.79594770E+02 0.16542715E+03 0.51099893E-03 0.0000E+00 0.9000E+01
       11  1    4    4    0    0 0.11999528E+03 0.17589299E+02 -.42510868E+02 0.12851235E+03 0.51099893E-03 0.0000E+00 0.9000E+01
       23  1    3    3    0    0 -.20211379E+02 -.73420567E+01 -.16911948E+00 0.93689304E+02 0.91188000E+02 0.0000E+00 0.9000E+01
#aMCatNLO 1  0  0  1  2 0.35628782D+03 0.00000000D+00  -5  7  0 0.00000000D+00 0.00000000D+00 0.00000000D+00 0.00000000D+00 0.00000000D+00
  <mgrwgt>
 0.1029705421D-03    5    2    0
 0.393897436711042D+03 0.000000000000000D+00 0.000000000000000D+00 0.393897436711042D+03
 0.393897436711042D+03 0.000000000000000D+00 0.000000000000000D+00 -.393897436711042D+03
 0.347803758406558D+03 -.224071224673384D+03 0.644754041093338D+02 0.241427445738953D+03
 0.195833728636788D+03 0.124287326898215D+03 -.747226463015899D+02 -.131605606924518D+03
 0.146452268719904D+03 0.119995276977478D+03 0.175892988580417D+02 -.820976070417867D+02
 0.977051176588345D+02 -.202113792023097D+02 -.734205666578555D+01 -.277242317726483D+02
 0.000000000000000D+00 0.000000000000000D+00 0.000000000000000D+00 0.000000000000000D+00
 0.753611330120676D+03 0.000000000000000D+00 0.000000000000000D+00 0.753611330120676D+03
 0.531078736000552D+03 0.000000000000000D+00 0.000000000000000D+00 -.531078736000552D+03
 0.387224401005390D+03 -.275786876519526D+03 -.853338887755121D+02 0.241427445738953D+03
 0.228532485560691D+03 0.944294566823855D+02 -.161214574072092D+03 -.131605606924518D+03
 0.135505323658308D+03 0.100157097315798D+03 -.398777069931180D+02 -.820976070417867D+02
 0.113354334932744D+03 -.350612553999725D+02 -.503590036283390D+02 -.277242317726483D+02
 0.420073520964095D+03 0.116261577921314D+03 0.336785173469061D+03 0.222532594120125D+03
0.436380891924D-05 0.000000000000D+00 0.000000000000D+00 0.328075660221D-06 0.000000000000D+00  7 1 -1 23 -11 11 23 21 0 0.80983346D-01 0.45346511D-01 0.93130864D+05 0.93130864D+05 0.93130864D+05 0.11242671D+01  1  2  2  1  7  1        1 0.105992990568D-03 0.100000000000D+01
-.223235189851D-06 0.000000000000D+00 -.167581752672D-07 0.328075660221D-06 0.000000000000D+00  7 1 -1 23 -11 11 23 21 2 0.80983346D-01 0.45346511D-01 0.93130864D+05 0.93130864D+05 0.93130864D+05 0.11242671D+01  1  2  3  1  7  1        1 -.685351077338D-05 0.100000000000D+01
0.271836616943D-06 0.000000000000D+00 0.000000000000D+00 0.328075660221D-06 0.000000000000D+00  7 1 -1 23 -11 11 23 21 2 0.80983346D-01 0.45346511D-01 0.93130864D+05 0.93130864D+05 0.93130864D+05 0.11242671D+01  1  2 15  1  7  1        1 0.834561604764D-05 0.100000000000D+01
-.605849192966D-06 0.000000000000D+00 -.137380693730D-05 0.328075660221D-06 0.000000000000D+00  7 1 -1 23 -11 11 23 21 2 0.18881807D+00 0.45346511D-01 0.93130864D+05 0.93130864D+05 0.93130864D+05 0.11242671D+01  1  2  5  1  7  1        1 -.477539002607D-05 0.100000000000D+01
0.309146538081D-07 0.000000000000D+00 -.126766092965D-06 0.328075660221D-06 0.000000000000D+00  7 21 -1 23 -11 11 23 -1 2 0.18881807D+00 0.45346511D-01 0.93130864D+05 0.93130864D+05 0.93130864D+05 0.11242671D+01  1  2  5  3  7  1        1 0.260836322032D-06 0.100000000000D+01
  </mgrwgt>
  </event>
  <event>
  8     66 0.56006291E-06 0.25091508E+03 0.75467711E-02 0.97711373E-01
        3 -1    0    0  501    0 0.00000000E+00 0.00000000E+00 0.39623022E+03 0.39623053E+03 0.50000000E+00 0.0000E+00 0.9000E+01
       -3 -1    0    0    0  501 0.00000000E+00 0.00000000E+00 -.50668048E+03 0.50668073E+03 0.50000000E+00 0.0000E+00 0.9000E+01
       25  2    1    2    0    0 0.31618201E+03 -.54054237E+02 -.28640170E+03 0.52529658E+03 0.30169129E+03 0.0000E+00 0.0000E+00
       23  2    1    2    0    0 -.31618201E+03 0.54054237E+02 0.17595144E+03 0.37761468E+03 0.93493398E+02 0.0000E+00 0.0000E+00
       23  1    3    3    0    0 0.28406060E+03 -.12178198E+03 -.21383822E+03 0.38673416E+03 0.91188000E+02 0.0000E+00 0.9000E+01
      -11  1    4    4    0    0 -.29839823E+02 -.94576310E+01 0.48712994E+02 0.57903520E+02 0.51099893E-03 0.0000E+00 0.9000E+01
       11  1    4    4    0    0 -.28634219E+03 0.63511868E+02 0.12723844E+03 0.31971116E+03 0.51099893E-03 0.0000E+00 0.9000E+01
       23  1    3    3    0    0 0.32121408E+02 0.67727746E+02 -.72563479E+02 0.13856241E+03 0.91188000E+02 0.0000E+00 0.9000E+01
#aMCatNLO 1  0  0  1  2 0.34927449D+01 0.00000000D+00  -5  7  0 0.00000000D+00 0.00000000D+00 0.00000000D+00 0.00000000D+00 0.00000000D+00
  <mgrwgt>
 0.1511675078D-04   11    2    0
 0.448065141089876D+03 0.000000000000000D+00 0.000000000000000D+00 0.448065141089876D+03
 0.448065141089876D+03 0.000000000000000D+00 0.000000000000000D+00 -.448065141089876D+03
 0.363304476867965D+03 0.284060602639523D+03 -.121781982858005D+03 -.167790387828234D+03
 0.643456698119581D+02 -.298398231382810D+02 -.945763099076416D+01 0.562183546065534D+02
 0.337812854123652D+03 -.286342187916342D+03 0.635118680497521D+02 0.167606439158169D+03
 0.130667281376177D+03 0.321214084150994D+02 0.677277457990172D+02 -.560344059364886D+02
 0.000000000000000D+00 0.000000000000000D+00 -.000000000000000D+00 0.000000000000000D+00
 0.461573262088951D+03 0.000000000000000D+00 0.000000000000000D+00 0.461573262088951D+03
 0.448294377823503D+03 0.000000000000000D+00 0.000000000000000D+00 -.448294377823503D+03
 0.362134046375690D+03 0.282921538088806D+03 -.120944637079720D+03 -.167790387828234D+03
 0.644180330830854D+02 -.300420045288295D+02 -.930900400231385D+01 0.562183546065534D+02
 0.338861256578021D+03 -.287404683864919D+03 0.642929269427063D+02 0.167606439158169D+03
 0.130723752753939D+03 0.317109790660739D+02 0.680294594134691D+02 -.560344059364886D+02
 0.137305511217189D+02 0.281417123886820D+01 -.206874527414164D+01 0.132788842654486D+02
0.149093450711D-04 0.000000000000D+00 0.000000000000D+00 0.448281145803D-07 0.000000000000D+00  7 3 -3 23 -11 11 23 21 0 0.60958538D-01 0.77950886D-01 0.14626167D+06 0.14626167D+06 0.14626167D+06 0.11084179D+01  1  2  2  1  7  1        3 0.250715579688D-04 0.100000000000D+01
-.803040550528D-06 0.000000000000D+00 -.572558107936D-07 0.448281145803D-07 0.000000000000D+00  7 3 -3 23 -11 11 23 21 2 0.60958538D-01 0.77950886D-01 0.14626167D+06 0.14626167D+06 0.14626167D+06 0.11084179D+01  1  2  3  1  7  1        3 -.165907984835D-05 0.100000000000D+01
0.945801812440D-06 0.000000000000D+00 0.000000000000D+00 0.448281145803D-07 0.000000000000D+00  7 3 -3 23 -11 11 23 21 2 0.60958538D-01 0.77950886D-01 0.14626167D+06 0.14626167D+06 0.14626167D+06 0.11084179D+01  1  2 15  1  7  1        3 0.195402427253D-05 0.100000000000D+01
0.130609059938D-04 0.000000000000D+00 0.000000000000D+00 0.448281145803D-07 0.000000000000D+00  7 3 -3 23 -11 11 23 21 2 0.62811641D-01 0.77950886D-01 0.14763803D+06 0.14763803D+06 0.14763803D+06 0.11080963D+01  1  2 12  1  7  1        3 0.253174516498D-04 0.100000000000D+01
-.194283167425D-02 0.000000000000D+00 0.000000000000D+00 0.448281145803D-07 0.000000000000D+00  7 3 -3 23 -11 11 23 21 2 0.60958538D-01 0.77950886D-01 0.14626167D+06 0.14626167D+06 0.14626167D+06 0.11084179D+01  1  2  4  1  7  1        3 -.401388557200D-02 0.100000000000D+01
-.233412771088D-02 0.000000000000D+00 -.672748163311D-04 0.448281145803D-07 0.000000000000D+00  7 3 -3 23 -11 11 23 21 2 0.62812195D-01 0.77950886D-01 0.14626167D+06 0.14626167D+06 0.14626167D+06 0.11084179D+01  1  2  5  1  7  1        3 -.452749180962D-02 0.100000000000D+01
0.233512536472D-02 0.000000000000D+00 0.672446440646D-04 0.448281145803D-07 0.000000000000D+00  7 3 -3 23 -11 11 23 21 2 0.60958538D-01 0.77950886D-01 0.14626167D+06 0.14626167D+06 0.14626167D+06 0.11084179D+01  1  2  6  1  7  1        3 0.482436339415D-02 0.100000000000D+01
0.193044479672D-02 0.000000000000D+00 0.000000000000D+00 0.448281145803D-07 0.240735515106D-07  7 3 -3 23 -11 11 23 21 2 0.62796296D-01 0.77990767D-01 0.14763803D+06 0.14763803D+06 0.14763803D+06 0.11080963D+01  1  2 11  1  7  1        3 0.373942736141D-02 0.100000000000D+01
0.460869669469D-06 0.000000000000D+00 0.000000000000D+00 0.448281145803D-07 0.000000000000D+00  7 21 -3 23 -11 11 23 -3 2 0.62811641D-01 0.77950886D-01 0.14763803D+06 0.14763803D+06 0.14763803D+06 0.11080963D+01  1  2 12  3  7  1        3 0.130209748040D-04 0.100000000000D+01
-.128256816757D-04 0.000000000000D+00 -.361440106700D-06 0.448281145803D-07 0.000000000000D+00  7 21 -3 23 -11 11 23 -3 2 0.62812195D-01 0.77950886D-01 0.14626167D+06 0.14626167D+06 0.14626167D+06 0.11084179D+01  1  2  5  3  7  1        3 -.362742220971D-03 0.100000000000D+01
0.103327164663D-04 0.000000000000D+00 0.000000000000D+00 0.448281145803D-07 0.128563357142D-09  7 21 -3 23 -11 11 23 -3 2 0.62796296D-01 0.77990767D-01 0.14763803D+06 0.14763803D+06 0.14763803D+06 0.11080963D+01  1  2 11  3  7  1        3 0.291740668953D-03 0.100000000000D+01
  </mgrwgt>
  </event>
  <event>
  9     66 -.56006291E-06 0.14316596E+03 0.75467711E-02 0.11012695E+00
        1 -1    0    0  502    0 0.00000000E+00 0.00000000E+00 0.12129910E+04 0.12129911E+04 0.32000000E+00 0.0000E+00 0.9000E+01
       -1 -1    0    0    0  501 0.00000000E+00 0.00000000E+00 -.20356011E+03 0.20356036E+03 0.32000000E+00 0.0000E+00 0.9000E+01
       25  2    1    2    0    0 0.20202046E+00 0.64828450E+01 0.11507206E+04 0.11891265E+04 0.29970302E+03 0.0000E+00 0.0000E+00
       23  2    1    2    0    0 -.18870914E+02 -.31606011E+01 -.16992864E+03 0.19306917E+03 0.89631798E+02 0.0000E+00 0.0000E+00
       23  1    3    3    0    0 0.47861608E+02 -.63506127E+02 0.91131208E+03 0.91930883E+03 0.91188000E+02 0.0000E+00 0.9000E+01
      -11  1    4    4    0    0 -.31512587E+02 -.72310213E+01 -.17565549E+03 0.17860622E+03 0.51099893E-03 0.0000E+00 0.9000E+01
       11  1    4    4    0    0 0.12641672E+02 0.40704202E+01 0.57268440E+01 0.14462951E+02 0.51099893E-03 0.0000E+00 0.9000E+01
       23  1    3    3    0    0 -.47659588E+02 0.69988972E+02 0.23940851E+03 0.26981767E+03 0.91188000E+02 0.0000E+00 0.9000E+01
       21  1    1    2  502  501 0.18668894E+02 -.33222439E+01 0.28638974E+02 0.34355759E+02 0.75000000E+00 0.0000E+00 0.9000E+01
#aMCatNLO 2  0  0  1  2 0.18962196D+02 0.00000000D+00  -5  7  0 0.00000000D+00 0.00000000D+00 0.00000000D+00 0.00000000D+00 0.00000000D+00
  <mgrwgt>
 -.7657021298D-04    3    2    0
 0.486865605048156D+03 0.000000000000000D+00 0.000000000000000D+00 0.486865605048156D+03
 0.486865605048156D+03 0.000000000000000D+00 0.000000000000000D+00 -.486865605048156D+03
 0.388158084692247D+03 0.552913006909972D+02 -.648282865933071D+02 0.367548109358799D+03
 0.429878329710611D+03 -.232667387478071D+02 -.869842043046906D+01 -.429160080511737D+03
 0.149900388013241D+02 0.129268253211949D+02 0.401967553572786D+01 -.643744195841686D+01
 0.140704756892129D+03 -.449513872643850D+02 0.695070314880483D+02 0.680494131113555D+02
 0.000000000000000D+00 0.000000000000000D+00 -.000000000000000D+00 0.000000000000000D+00
 0.499932572740842D+03 0.000000000000000D+00 0.000000000000000D+00 0.499932572740842D+03
 0.493886126605313D+03 0.000000000000000D+00 0.000000000000000D+00 -.493886126605313D+03
 0.386950417766529D+03 0.478616084122148D+02 -.635061273631132D+02 0.367548109358799D+03
 0.430376237126468D+03 -.315125865133033D+02 -.723102133440432D+01 -.429160080511737D+03
 0.147587554708213D+02 0.126416724859393D+02 0.407042022864413D+01 -.643744195841686D+01
 0.141830414750168D+03 -.476595879570318D+02 0.699889723825893D+02 0.680494131113555D+02
 0.199028742321679D+02 0.186688935721810D+02 -.332224391371586D+01 0.604644613552860D+01
-.154249597716D-04 0.000000000000D+00 0.000000000000D+00 0.148396574547D-05 0.000000000000D+00  7 1 -1 23 -11 11 23 21 2 0.18789444D+00 0.30871357D-01 0.24025884D+05 0.24025884D+05 0.24025884D+05 0.11763911D+01  1  2 13  1  7  1        1 -.271117109994D-03 0.100000000000D+01
-.318986171831D-04 0.000000000000D+00 0.000000000000D+00 0.148396574547D-05 0.000000000000D+00  7 1 -1 23 -11 11 23 21 2 0.18173382D+00 0.30871357D-01 0.20496493D+05 0.20496493D+05 0.20496493D+05 0.11830043D+01  1  2  8  1  7  1        1 -.606690917642D-03 0.100000000000D+01
0.460662516588D-04 0.000000000000D+00 0.000000000000D+00 0.148396574547D-05 0.304700323736D-07  7 1 -1 23 -11 11 23 21 2 0.18661137D+00 0.31316517D-01 0.24025884D+05 0.24025884D+05 0.24025884D+05 0.11763911D+01  1  2  1  1  7  1        1 0.801237814659D-03 0.100000000000D+01
  </mgrwgt>
  </event>
  <event>
  8     66 0.56006291E-06 0.75363697E+03 0.75467711E-02 0.87001346E-01
        1 -1    0    0  501    0 0.00000000E+00 0.00000000E+00 0.17266493E+04 0.17266493E+04 0.32000000E+00 0.0000E+00 0.9000E+01
       -1 -1    0    0    0  501 0.00000000E+00 0.00000000E+00 -.68880806E+03 0.68880813E+03 0.32000000E+00 0.0000E+00 0.9000E+01
       25  2    1    2    0    0 0.71983245E+03 -.65800190E+02 -.34377211E+03 0.85353376E+03 0.29639871E+03 0.0000E+00 0.0000E+00
       23  2    1    2    0    0 -.71983245E+03 0.65800190E+02 0.13816133E+04 0.15619237E+04 0.90894217E+02 0.0000E+00 0.0000E+00
       23  1    3    3    0    0 0.72678142E+02 -.45237953E+02 -.31812078E+02 0.12905752E+03 0.91188000E+02 0.0000E+00 0.9000E+01
      -13  1    4    4    0    0 -.67084975E+03 0.37815477E+02 0.12645416E+04 0.14319689E+04 0.10565837E+00 0.0000E+00 0.9000E+01
       13  1    4    4    0    0 -.48982702E+02 0.27984713E+02 0.11707168E+03 0.12995476E+03 0.10565837E+00 0.0000E+00 0.9000E+01
       23  1    3    3    0    0 0.64715431E+03 -.20562237E+02 -.31196004E+03 0.72447624E+03 0.91188000E+02 0.0000E+00 0.9000E+01
#aMCatNLO 1  0  0  1  2 0.53284754D+03 0.00000000D+00  -5  7  0 0.00000000D+00 0.00000000D+00 0.00000000D+00 0.00000000D+00 0.00000000D+00
  <mgrwgt>
 0.1042271364D-02    4    2    0
 0.109056410258334D+04 0.000000000000000D+00 0.000000000000000D+00 0.109056410258334D+04
 0.109056410258334D+04 0.000000000000000D+00 0.000000000000000D+00 -.109056410258334D+04
 0.158059869688993D+03 0.726781415374702D+02 -.452379533458642D+02 -.966389485758110D+02
 0.984109585432412D+03 -.670850588120254D+03 0.378154905537414D+02 0.719027922429193D+03
 0.882092723119874D+02 -.489818614845283D+02 0.279846994299277D+02 0.678123113095065D+02
 0.950749477733296D+03 0.647154308067312D+03 -.205622366378049D+02 -.690201285162889D+03
 0.000000000000000D+00 -.000000000000000D+00 0.000000000000000D+00 -.000000000000000D+00
 0.124188505678032D+04 0.000000000000000D+00 0.000000000000000D+00 0.124188505678032D+04
 0.171787471507434D+04 0.000000000000000D+00 0.000000000000000D+00 -.171787471507434D+04
 0.181638130750479D+03 0.113287970155795D+03 -.500390710812020D+02 -.966389485758110D+02
 0.849211531196892D+03 -.451682808938881D+03 0.119042678905792D+02 0.719027922429193D+03
 0.781172461534906D+02 -.290980488014175D+02 0.256339255171331D+02 0.678123113095065D+02
 0.113630517885157D+04 0.896655134717279D+03 -.500595993346285D+02 -.690201285162889D+03
 0.714487684902227D+03 -.529162247132776D+03 0.625604770081181D+02 -.475989658294014D+03
0.243829768934D-02 0.000000000000D+00 0.000000000000D+00 0.246887632766D-06 0.000000000000D+00  7 1 -1 23 -13 13 23 21 0 0.26563836D+00 0.10597048D+00 0.56796869D+06 0.56796869D+06 0.56796869D+06 0.10646201D+01  1  2  2  1  7  1        1 0.117525751567D-02 0.100000000000D+01
-.112969522391D-03 0.000000000000D+00 -.936370514559D-05 0.246887632766D-06 0.000000000000D+00  7 1 -1 23 -13 13 23 21 2 0.26563836D+00 0.10597048D+00 0.56796869D+06 0.56796869D+06 0.56796869D+06 0.10646201D+01  1  2  3  1  7  1        1 -.617158798914D-04 0.100000000000D+01
0.151556560282D-03 0.000000000000D+00 0.000000000000D+00 0.246887632766D-06 0.000000000000D+00  7 1 -1 23 -13 13 23 21 2 0.26563836D+00 0.10597048D+00 0.56796869D+06 0.56796869D+06 0.56796869D+06 0.10646201D+01  1  2 15  1  7  1        1 0.827961938157D-04 0.100000000000D+01
-.282015180819D-03 0.000000000000D+00 0.000000000000D+00 0.246887632766D-06 0.000000000000D+00  7 1 -1 23 -13 13 23 21 2 0.26563836D+00 0.10597048D+00 0.56796869D+06 0.56796869D+06 0.56796869D+06 0.10646201D+01  1  2  4  1  7  1        1 -.154066465527D-03 0.100000000000D+01
  </mgrwgt>
  </event>
  <event>
  8     66 0.56006291E-06 0.22923381E+03 0.75467711E-02 0.97078377E-01
        1 -1    0    0  501    0 0.00000000E+00 0.00000000E+00 0.32707511E+03 0.32707527E+03 0.32000000E+00 0.0000E+00 0.9000E+01
       -1 -1    0    0    0  501 0.00000000E+00 0.00000000E+00 -.53340662E+03 0.53340672E+03 0.32000000E+00 0.0000E+00 0.9000E+01
       25  2    1    2    0    0 0.32909479E+03 -.15906276E+02 -.25893100E+03 0.51542352E+03 0.30009957E+03 0.0000E+00 0.0000E+00
       23  2    1    2    0    0 -.32909479E+03 0.15906276E+02 0.52599491E+02 0.34505847E+03 0.87990040E+02 0.0000E+00 0.0000E+00
       23  1    3    3    0    0 0.18897312E+03 0.67671919E+02 -.34165931E+02 0.22309839E+03 0.91188000E+02 0.0000E+00 0.9000E+01
      -11  1    4    4    0    0 -.19922388E+03 -.26241464E+02 0.55571003E+02 0.20848719E+03 0.51099893E-03 0.0000E+00 0.9000E+01
       11  1    4    4    0    0 -.12987091E+03 0.42147739E+02 -.29715126E+01 0.13657128E+03 0.51099893E-03 0.0000E+00 0.9000E+01
       23  1    3    3    0    0 0.14012167E+03 -.83578194E+02 -.22476507E+03 0.29232513E+03 0.91188000E+02 0.0000E+00 0.9000E+01
#aMCatNLO 1  0  0  2  1 0.63933551D+02 0.00000000D+00  -5  7  0 0.00000000D+00 0.00000000D+00 0.00000000D+00 0.00000000D+00 0.00000000D+00
  <mgrwgt>
 0.9817185715D-04    9    2    0
 0.417689046902135D+03 0.000000000000000D+00 0.000000000000000D+00 0.417689046902135D+03
 0.417689046902135D+03 0.000000000000000D+00 0.000000000000000D+00 -.417689046902135D+03
 0.221363997780969D+03 0.188973117370788D+03 0.676719185763522D+02 0.199108140701096D+02
 0.228478001069474D+03 -.199223883948113D+03 -.262414637908400D+02 0.108735581184106D+03
 0.139941435730289D+03 -.129870907962578D+03 0.421477394310984D+02 0.306711714820033D+02
 0.245594659223538D+03 0.140121674539903D+03 -.835781942166107D+02 -.159317566736219D+03
 0.000000000000000D+00 0.000000000000000D+00 -.000000000000000D+00 -.000000000000000D+00
 0.421609092231286D+03 0.000000000000000D+00 0.000000000000000D+00 0.421609092231286D+03
 0.797581339713731D+03 0.000000000000000D+00 0.000000000000000D+00 -.797581339713731D+03
 0.207707765106775D+03 0.172585257381947D+03 0.681553575232660D+02 0.199108140701096D+02
 0.244327393887752D+03 -.217282095381977D+03 -.257087497742034D+02 0.108735581184106D+03
 0.150380806166864D+03 -.140959403322507D+03 0.424748480665952D+02 0.306711714820033D+02
 0.235405053011372D+03 0.121750491393924D+03 -.830362475902849D+02 -.159317566736219D+03
 0.381369413772254D+03 0.639057499286144D+02 -.188520822537283D+01 -.375972247482445D+03
0.638076346972D-05 0.000000000000D+00 0.000000000000D+00 0.783477734658D-07 0.000000000000D+00  7 1 -1 23 -11 11 23 21 0 0.50319268D-01 0.82062576D-01 0.13870355D+06 0.13870355D+06 0.13870355D+06 0.11102453D+01  1  2  2  2  7  2       -1 0.955452417045D-04 0.100000000000D+01
-.348817500952D-06 0.000000000000D+00 -.245038118173D-07 0.783477734658D-07 0.000000000000D+00  7 1 -1 23 -11 11 23 21 2 0.50319268D-01 0.82062576D-01 0.13870355D+06 0.13870355D+06 0.13870355D+06 0.11102453D+01  1  2  3  2  7  2       -1 -.643832026344D-05 0.100000000000D+01
0.417151370831D-06 0.000000000000D+00 0.000000000000D+00 0.783477734658D-07 0.000000000000D+00  7 1 -1 23 -11 11 23 21 2 0.50319268D-01 0.82062576D-01 0.13870355D+06 0.13870355D+06 0.13870355D+06 0.11102453D+01  1  2 15  2  7  2       -1 0.769959682760D-05 0.100000000000D+01
0.720532504226D-04 0.000000000000D+00 0.000000000000D+00 0.783477734658D-07 0.000000000000D+00  7 1 -1 23 -11 11 23 21 2 0.50319268D-01 0.15674696D+00 0.16402659D+06 0.16402659D+06 0.16402659D+06 0.11045012D+01  1  2 12  2  7  2       -1 0.275040524068D-03 0.100000000000D+01
-.601629383470D-04 0.000000000000D+00 0.000000000000D+00 0.783477734658D-07 0.000000000000D+00  7 1 -1 23 -11 11 23 21 2 0.50319268D-01 0.82062576D-01 0.13870355D+06 0.13870355D+06 0.13870355D+06 0.11102453D+01  1  2  4  2  7  2       -1 -.111046109788D-02 0.100000000000D+01
-.719247714530D-04 0.000000000000D+00 -.192760137108D-05 0.783477734658D-07 0.000000000000D+00  7 1 -1 23 -11 11 23 21 2 0.50319268D-01 0.15715721D+00 0.13870355D+06 0.13870355D+06 0.13870355D+06 0.11102453D+01  1  2  5  2  7  2       -1 -.277424602726D-03 0.100000000000D+01
0.603326070896D-04 0.000000000000D+00 0.158177831692D-05 0.783477734658D-07 0.000000000000D+00  7 1 -1 23 -11 11 23 21 2 0.50319268D-01 0.82062576D-01 0.13870355D+06 0.13870355D+06 0.13870355D+06 0.11102453D+01  1  2  6  2  7  2       -1 0.111359276903D-02 0.100000000000D+01
0.506345367324D-05 0.000000000000D+00 0.000000000000D+00 0.783477734658D-07 0.000000000000D+00  7 1 21 23 -11 11 23 1 2 0.50319268D-01 0.15674696D+00 0.16402659D+06 0.16402659D+06 0.16402659D+06 0.11045012D+01  1  2 12  4  7  2       -1 0.122700454780D-03 0.100000000000D+01
-.496230946980D-05 0.000000000000D+00 -.135967005317D-06 0.783477734658D-07 0.000000000000D+00  7 1 21 23 -11 11 23 1 2 0.50319268D-01 0.15715721D+00 0.13870355D+06 0.13870355D+06 0.13870355D+06 0.11102453D+01  1  2  5  4  7  2       -1 -.122082708384D-03 0.100000000000D+01
  </mgrwgt>
  </event>
  <event>
  8     66 0.56006291E-06 0.42154544E+03 0.75467711E-02 0.90290193E-01
        1 -1    0    0  501    0 0.00000000E+00 0.00000000E+00 0.12645018E+04 0.12645018E+04 0.32000000E+00 0.0000E+00 0.9000E+01
       -1 -1    0    0    0  501 0.00000000E+00 0.00000000E+00 -.38677396E+03 0.38677409E+03 0.32000000E+00 0.0000E+00 0.9000E+01
       25  2    1    2    0    0 0.11508505E+03 0.37309725E+03 0.10942149E+04 0.11993669E+04 0.29787350E+03 0.0000E+00 0.0000E+00
       23  2    1    2    0    0 -.11508505E+03 -.37309725E+03 -.21648712E+03 0.45190896E+03 0.70063564E+02 0.0000E+00 0.0000E+00
       23  1    3    3    0    0 0.12585664E+03 0.17489340E+03 0.79621886E+03 0.82988392E+03 0.91188000E+02 0.0000E+00 0.9000E+01
      -11  1    4    4    0    0 -.94855765E+02 -.28836937E+03 -.19922748E+03 0.36310618E+03 0.51099893E-03 0.0000E+00 0.9000E+01
       11  1    4    4    0    0 -.20229282E+02 -.84727880E+02 -.17259643E+02 0.88802774E+02 0.51099893E-03 0.0000E+00 0.9000E+01
       23  1    3    3    0    0 -.10771594E+02 0.19820385E+03 0.29799607E+03 0.36948302E+03 0.91188000E+02 0.0000E+00 0.9000E+01
#aMCatNLO 1  0  0  2  1 0.57450335D+03 0.00000000D+00  -5  7  0 0.00000000D+00 0.00000000D+00 0.00000000D+00 0.00000000D+00 0.00000000D+00
  <mgrwgt>
 0.9302784578D-03    3    2    0
 0.699340041575499D+03 0.000000000000000D+00 0.000000000000000D+00 0.699340041575499D+03
 0.699340041575499D+03 0.000000000000000D+00 0.000000000000000D+00 -.699340041575499D+03
 0.480098259848336D+03 0.125856641600046D+03 0.174893398915681D+03 0.419227256444853D+03
 0.553704874529516D+03 -.948557652727814D+02 -.288369374127476D+03 -.463070810932399D+03
 0.115671303831575D+03 -.202292819191441D+02 -.847278795790475D+02 -.761039624800888D+02
 0.249205644941570D+03 -.107715944081208D+02 0.198203854790843D+03 0.119947516967635D+03
 0.000000000000000D+00 -.000000000000000D+00 -.000000000000000D+00 0.000000000000000D+00
 0.158503752053474D+04 0.000000000000000D+00 0.000000000000000D+00 0.158503752053474D+04
 0.855569315693619D+03 0.000000000000000D+00 0.000000000000000D+00 -.855569315693619D+03
 0.607257033956506D+03 0.237319640038704D+03 0.358292826960400D+03 0.419227256444853D+03
 0.477139493704772D+03 0.108143913555448D+02 -.114501394990916D+03 -.463070810932399D+03
 0.909934480506965D+02 0.955581066875929D+00 -.498706461539117D+02 -.761039624800888D+02
 0.336681475661105D+03 0.492867283692053D+02 0.297022854826524D+03 0.119947516967635D+03
 0.928535384855281D+03 -.298376340830330D+03 -.490943640642097D+03 0.729468204841123D+03
0.260490496316D-03 0.000000000000D+00 0.000000000000D+00 0.114084193768D-08 0.000000000000D+00  7 1 -1 23 -11 11 23 21 0 0.19453875D+00 0.59503699D-01 0.17770056D+06 0.17770056D+06 0.17770056D+06 0.11017904D+01  1  2  2  2  7  2       -1 0.908431265125D-03 0.100000000000D+01
-.996288889774D-05 0.000000000000D+00 -.100035209458D-05 0.114084193768D-08 0.000000000000D+00  7 1 -1 23 -11 11 23 21 2 0.19453875D+00 0.59503699D-01 0.17770056D+06 0.17770056D+06 0.17770056D+06 0.11017904D+01  1  2  3  2  7  2       -1 -.421777554595D-04 0.100000000000D+01
0.151234563772D-04 0.000000000000D+00 0.000000000000D+00 0.114084193768D-08 0.000000000000D+00  7 1 -1 23 -11 11 23 21 2 0.19453875D+00 0.59503699D-01 0.17770056D+06 0.17770056D+06 0.17770056D+06 0.11017904D+01  1  2 15  2  7  2       -1 0.640249481175D-04 0.100000000000D+01
  </mgrwgt>
  </event>
  <event>
  9     66 0.56006291E-06 0.54768842E+03 0.75467711E-02 0.91184845E-01
        1 -1    0    0  502    0 0.00000000E+00 0.00000000E+00 0.41841673E+03 0.41841686E+03 0.32000000E+00 0.0000E+00 0.9000E+01
       -1 -1    0    0    0  501 0.00000000E+00 0.00000000E+00 -.13404685E+04 0.13404685E+04 0.32000000E+00 0.0000E+00 0.9000E+01
       25  2    1    2    0    0 -.36874075E+03 -.49953083E+03 -.69039342E+03 0.97629576E+03 0.30167790E+03 0.0000E+00 0.0000E+00
       23  2    1    2    0    0 0.12798892E+03 0.45163803E+03 -.57663525E+02 0.48170771E+03 0.91428440E+02 0.0000E+00 0.0000E+00
       23  1    3    3    0    0 -.25638624E+03 -.26526237E+03 -.54641763E+03 0.66557157E+03 0.91188000E+02 0.0000E+00 0.9000E+01
      -11  1    4    4    0    0 0.24370194E+02 0.99956879E+02 -.51437047E+02 0.11502632E+03 0.51099893E-03 0.0000E+00 0.9000E+01
       11  1    4    4    0    0 0.10361873E+03 0.35168115E+03 -.62264773E+01 0.36668139E+03 0.51099893E-03 0.0000E+00 0.9000E+01
       23  1    3    3    0    0 -.11235451E+03 -.23426846E+03 -.14397578E+03 0.31072420E+03 0.91188000E+02 0.0000E+00 0.9000E+01
       21  1    1    2  502  501 0.24075183E+03 0.47892800E+02 -.17399479E+03 0.30088189E+03 0.75000000E+00 0.0000E+00 0.9000E+01
#aMCatNLO 2  0  0  1  2 0.24546927D+03 0.00000000D+00  -5  7  0 0.00000000D+00 0.00000000D+00 0.00000000D+00 0.00000000D+00 0.00000000D+00
  <mgrwgt>
 0.2765666762D-04    1    2    0
 0.613581652894892D+03 0.000000000000000D+00 0.000000000000000D+00 0.613581652894892D+03
 0.613581652894892D+03 0.000000000000000D+00 0.000000000000000D+00 -.613581652894892D+03
 0.397033171611828D+03 -.174230367303455D+03 -.248919088280042D+03 -.238753334249562D+03
 0.113990790135645D+03 0.454722233514492D+02 0.104154709507771D+03 0.883026763900121D+01
 0.465915477736886D+03 0.190005696628205D+03 0.368866126623025D+03 0.211926516211984D+03
 0.250223866305426D+03 -.612475526762001D+02 -.224101747850754D+03 0.179965503985772D+02
 0.000000000000000D+00 0.000000000000000D+00 0.000000000000000D+00 -.000000000000000D+00
 0.737572436262257D+03 0.000000000000000D+00 0.000000000000000D+00 0.737572436262257D+03
 0.760432059681364D+03 0.000000000000000D+00 0.000000000000000D+00 -.760432059681364D+03
 0.448794423964227D+03 -.256386240521011D+03 -.265262369539295D+03 -.238753334249562D+03
 0.103263050924757D+03 0.243701936759695D+02 0.999568793025685D+02 0.883026763900121D+01
 0.423472930214309D+03 0.103618728802878D+03 0.351681153023332D+03 0.211926516211984D+03
 0.275942703526972D+03 -.112354509021159D+03 -.234268463012289D+03 0.179965503985772D+02
 0.246531387313357D+03 0.240751827063323D+03 0.478928002256821D+02 -.228596234191065D+02
0.287036462584D-04 0.000000000000D+00 0.000000000000D+00 0.437498202120D-06 0.453799086683D-10  7 1 -1 23 -11 11 23 21 2 0.64371769D-01 0.20622577D+00 0.46946841D+06 0.46946841D+06 0.46946841D+06 0.10704497D+01  1  2  1  1  7  1        1 0.276566676152D-04 0.100000000000D+01
  </mgrwgt>
  </event>
  <event>
  8     66 0.56006291E-06 0.50127760E+03 0.75467711E-02 0.85045666E-01
        1 -1    0    0  501    0 0.00000000E+00 0.00000000E+00 0.24529668E+04 0.24529668E+04 0.32000000E+00 0.0000E+00 0.9000E+01
       -1 -1    0    0    0  501 0.00000000E+00 0.00000000E+00 -.13496419E+03 0.13496457E+03 0.32000000E+00 0.0000E+00 0.9000E+01
       25  2    1    2    0    0 -.27113073E+03 0.37016983E+03 0.62590642E+03 0.83223760E+03 0.30053784E+03 0.0000E+00 0.0000E+00
       23  2    1    2    0    0 0.27113073E+03 -.37016983E+03 0.16920962E+04 0.17556938E+04 0.93453604E+02 0.0000E+00 0.0000E+00
       23  1    3    3    0    0 -.16891983E+03 0.35396729E+03 0.52348591E+03 0.66043887E+03 0.91188000E+02 0.0000E+00 0.9000E+01
      -11  1    4    4    0    0 0.19725802E+03 -.22611752E+03 0.12295485E+04 0.12656340E+04 0.51099893E-03 0.0000E+00 0.9000E+01
       11  1    4    4    0    0 0.73872713E+02 -.14405231E+03 0.46254762E+03 0.49005974E+03 0.51099893E-03 0.0000E+00 0.9000E+01
       23  1    3    3    0    0 -.10221090E+03 0.16202538E+02 0.10242052E+03 0.17179873E+03 0.91188000E+02 0.0000E+00 0.9000E+01
#aMCatNLO 1  0  0  1  1 0.11374261D+04 0.00000000D+00  -5  7  0 0.00000000D+00 0.00000000D+00 0.00000000D+00 0.00000000D+00 0.00000000D+00
  <mgrwgt>
 0.1949482613D-03    3    2    0
 0.575380900881583D+03 0.000000000000000D+00 0.000000000000000D+00 0.575380900881583D+03
 0.575380900881583D+03 0.000000000000000D+00 0.000000000000000D+00 -.575380900881583D+03
 0.430783129508246D+03 -.168919827560271D+03 0.353967292494746D+03 -.153075474932679D+03
 0.369561511321806D+03 0.197258016661823D+03 -.226117522304863D+03 0.215721699464404D+03
 0.170369212352022D+03 0.738727131435943D+02 -.144052307769308D+03 0.530794065206942D+02
 0.180047948581094D+03 -.102210902245146D+03 0.162025375794258D+02 -.115725631052420D+03
 0.000000000000000D+00 0.000000000000000D+00 -.000000000000000D+00 -.000000000000000D+00
 0.119694780219439D+04 0.000000000000000D+00 0.000000000000000D+00 0.119694780219439D+04
 0.164273881425243D+04 0.000000000000000D+00 0.000000000000000D+00 -.164273881425243D+04
 0.992762862261880D+03 -.391064623964638D+03 0.894929722492181D+03 -.153075474932679D+03
 0.238812017928004D+03 0.102321137506303D+03 0.507080925010149D+01 0.215721699464404D+03
 0.800997800715059D+02 0.347869486869471D+02 -.488714596872882D+02 0.530794065206942D+02
 0.306345991096771D+03 -.178112828369570D+03 0.201037343806503D+03 -.115725631052420D+03
 0.122166596508866D+04 0.432069366140958D+03 -.105216641586150D+04 -.445791012058045D+03
0.571031394214D-04 0.000000000000D+00 0.000000000000D+00 0.291320422693D-06 0.000000000000D+00  7 1 -1 23 -11 11 23 21 0 0.37737953D+00 0.20763752D-01 0.25127923D+06 0.25127923D+06 0.25127923D+06 0.10902924D+01  1  2  2  1  7  1        1 0.192765857243D-03 0.100000000000D+01
-.309907663091D-05 0.000000000000D+00 -.219291090980D-06 0.291320422693D-06 0.000000000000D+00  7 1 -1 23 -11 11 23 21 2 0.37737953D+00 0.20763752D-01 0.25127923D+06 0.25127923D+06 0.25127923D+06 0.10902924D+01  1  2  3  1  7  1        1 -.124362203335D-04 0.100000000000D+01
0.364292653746D-05 0.000000000000D+00 0.000000000000D+00 0.291320422693D-06 0.000000000000D+00  7 1 -1 23 -11 11 23 21 2 0.37737953D+00 0.20763752D-01 0.25127923D+06 0.25127923D+06 0.25127923D+06 0.10902924D+01  1  2 15  1  7  1        1 0.146186243434D-04 0.100000000000D+01
  </mgrwgt>
  </event>
  <event>
  8     66 0.56006291E-06 0.21406444E+03 0.75467711E-02 0.93762443E-01
        3 -1    0    0  501    0 0.00000000E+00 0.00000000E+00 0.49685207E+02 0.49687723E+02 0.50000000E+00 0.0000E+00 0.9000E+01
       -3 -1    0    0    0  501 0.00000000E+00 0.00000000E+00 -.95650717E+03 0.95650730E+03 0.50000000E+00 0.0000E+00 0.9000E+01
       25  2    1    2    0    0 -.81281394E+01 0.76592130E+02 -.70570827E+03 0.77092776E+03 0.30062107E+03 0.0000E+00 0.0000E+00
       23  2    1    2    0    0 0.81281394E+01 -.76592130E+02 -.20111370E+03 0.23526727E+03 0.94718254E+02 0.0000E+00 0.0000E+00
       23  1    3    3    0    0 -.12062296E+03 0.64674753E+02 -.39785970E+03 0.43051169E+03 0.91188000E+02 0.0000E+00 0.9000E+01
      -11  1    4    4    0    0 0.18036389E+02 -.95409156E+02 -.13854405E+03 0.16918236E+03 0.51099893E-03 0.0000E+00 0.9000E+01
       11  1    4    4    0    0 -.99082491E+01 0.18817026E+02 -.62569653E+02 0.66084910E+02 0.51099893E-03 0.0000E+00 0.9000E+01
       23  1    3    3    0    0 0.11249482E+03 0.11917376E+02 -.30784856E+03 0.34041607E+03 0.91188000E+02 0.0000E+00 0.9000E+01
#aMCatNLO 1  0  0  2  2 0.45864802D+03 0.00000000D+00  -5  7  0 0.00000000D+00 0.00000000D+00 0.00000000D+00 0.00000000D+00 0.00000000D+00
  <mgrwgt>
 0.1009219521D-03    3    2    0
 0.218003643198272D+03 0.000000000000000D+00 0.000000000000000D+00 0.218003643198272D+03
 0.218003643198272D+03 0.000000000000000D+00 0.000000000000000D+00 -.218003643198272D+03
 0.166031181705925D+03 -.120622957439555D+03 0.646747560566722D+02 -.227679604315164D+02
 0.102281928455345D+03 0.180363882616152D+02 -.954091577012214D+02 0.321461383958317D+02
 0.223729535073627D+02 -.990824828954161D+01 0.188170230297491D+02 -.694948262630411D+01
 0.145321222727912D+03 0.112494817467481D+03 0.119173786148001D+02 -.242869533801121D+01
 0.000000000000000D+00 -.000000000000000D+00 -.000000000000000D+00 0.000000000000000D+00
 0.676379656800972D+03 0.000000000000000D+00 0.000000000000000D+00 0.676379656800972D+03
 0.462503817078659D+03 0.000000000000000D+00 0.000000000000000D+00 -.462503817078659D+03
 0.275371062414955D+03 -.735886109273589D+02 0.248153797051570D+03 -.227679604315164D+02
 0.559429686957570D+02 0.348963039928625D+02 -.296393235477500D+02 0.321461383958317D+02
 0.490580242015858D+02 -.229680226266647D+01 0.485089592668848D+02 -.694948262630411D+01
 0.252447315197961D+03 0.154879702215216D+03 0.177259061509813D+03 -.242869533801121D+01
 0.506064103369372D+03 -.113890593018054D+03 -.444282494280518D+03 0.213875839722313D+03
0.794199857714D-05 0.000000000000D+00 0.000000000000D+00 0.809208156497D-08 0.000000000000D+00  7 3 -3 23 -11 11 23 21 0 0.76440816D-02 0.14715515D+00 0.45823584D+05 0.45823584D+05 0.45823584D+05 0.11506424D+01  1  2  2  2  7  2       -3 0.997349547855D-04 0.100000000000D+01
-.441043767651D-06 0.000000000000D+00 -.304993657125D-07 0.809208156497D-08 0.000000000000D+00  7 3 -3 23 -11 11 23 21 2 0.76440816D-02 0.14715515D+00 0.45823584D+05 0.45823584D+05 0.45823584D+05 0.11506424D+01  1  2  3  2  7  2       -3 -.733297144848D-05 0.100000000000D+01
0.512436079691D-06 0.000000000000D+00 0.000000000000D+00 0.809208156497D-08 0.000000000000D+00  7 3 -3 23 -11 11 23 21 2 0.76440816D-02 0.14715515D+00 0.45823584D+05 0.45823584D+05 0.45823584D+05 0.11506424D+01  1  2 15  2  7  2       -3 0.851996880391D-05 0.100000000000D+01
  </mgrwgt>
  </event>
  <event>
  8     66 0.56006291E-06 0.97582094E+02 0.75467711E-02 0.10382933E+00
        1 -1    0    0  501    0 0.00000000E+00 0.00000000E+00 0.20475712E+04 0.20475712E+04 0.32000000E+00 0.0000E+00 0.9000E+01
       -1 -1    0    0    0  501 0.00000000E+00 0.00000000E+00 -.37152249E+02 0.37153627E+02 0.32000000E+00 0.0000E+00 0.9000E+01
       25  2    1    2    0    0 0.73948348E+02 0.14551405E+03 0.15768888E+04 0.16135132E+04 0.30033969E+03 0.0000E+00 0.0000E+00
       23  2    1    2    0    0 -.73948348E+02 -.14551405E+03 0.43353011E+03 0.47121159E+03 0.86309381E+02 0.0000E+00 0.0000E+00
       23  1    3    3    0    0 0.12610626E+03 0.62006608E+02 0.12336635E+04 0.12449854E+04 0.91188000E+02 0.0000E+00 0.9000E+01
      -13  1    4    4    0    0 -.42943172E+02 -.12650165E+03 0.40009162E+03 0.42180576E+03 0.10565837E+00 0.0000E+00 0.9000E+01
       13  1    4    4    0    0 -.31005176E+02 -.19012402E+02 0.33438491E+02 0.49405832E+02 0.10565837E+00 0.0000E+00 0.9000E+01
       23  1    3    3    0    0 -.52157914E+02 0.83507442E+02 0.34322527E+03 0.36852785E+03 0.91188000E+02 0.0000E+00 0.9000E+01
#aMCatNLO 1  0  0  1  2 0.62308276D+01 0.00000000D+00  -5  7  0 0.00000000D+00 0.00000000D+00 0.00000000D+00 0.00000000D+00 0.00000000D+00
  <mgrwgt>
 0.6318349056D-03   11    2    0
 0.275813951311120D+03 0.000000000000000D+00 0.000000000000000D+00 0.275813951311120D+03
 0.275813951311120D+03 0.000000000000000D+00 0.000000000000000D+00 -.275813951311120D+03
 0.208965855897559D+03 0.126106263536246D+03 0.620066100928674D+02 0.124915444156107D+03
 0.135956197784037D+03 -.429431920959759D+02 -.126501807743239D+03 -.252440608102745D+02
 0.648482949168415D+02 -.310051575046766D+02 -.190122453440520D+02 -.536890686146577D+02
 0.141857554023804D+03 -.521579139355933D+02 0.835074429944233D+02 -.459823147311748D+02
 0.000000000000000D+00 0.000000000000000D+00 0.000000000000000D+00 0.000000000000000D+00
 0.287674676996972D+03 0.000000000000000D+00 0.000000000000000D+00 0.287674676996972D+03
 0.276651075724882D+03 0.000000000000000D+00 0.000000000000000D+00 -.276651075724882D+03
 0.207399105555299D+03 0.124104510634446D+03 0.607728548992506D+02 0.124915444156107D+03
 0.137127512220134D+03 -.442560934194390D+02 -.127310997941026D+03 -.252440608102745D+02
 0.652632435510175D+02 -.316306932096429D+02 -.193977863986452D+02 -.536890686146577D+02
 0.141873229847752D+03 -.535220030701906D+02 0.826667038338344D+02 -.459823147311748D+02
 0.126626615476507D+02 0.530427906482650D+01 0.326922560658642D+01 0.110236012720904D+02
0.296686961558D-05 0.000000000000D+00 0.000000000000D+00 0.152446209905D-07 0.000000000000D+00  7 1 -1 23 -13 13 23 21 0 0.31501106D+00 0.57158385D-02 0.55620550D+05 0.55620550D+05 0.55620550D+05 0.11432480D+01  1  2  2  1  7  1        1 0.145398739724D-03 0.100000000000D+01
-.159913181653D-06 0.000000000000D+00 -.113935605185D-07 0.152446209905D-07 0.000000000000D+00  7 1 -1 23 -13 13 23 21 2 0.31501106D+00 0.57158385D-02 0.55620550D+05 0.55620550D+05 0.55620550D+05 0.11432480D+01  1  2  3  1  7  1        1 -.102430043872D-04 0.100000000000D+01
0.194672923691D-06 0.000000000000D+00 0.000000000000D+00 0.152446209905D-07 0.000000000000D+00  7 1 -1 23 -13 13 23 21 2 0.31501106D+00 0.57158385D-02 0.55620550D+05 0.55620550D+05 0.55620550D+05 0.11432480D+01  1  2 15  1  7  1        1 0.124694886989D-04 0.100000000000D+01
0.170033570285D-04 0.000000000000D+00 0.000000000000D+00 0.152446209905D-07 0.000000000000D+00  7 1 -1 23 -13 13 23 21 2 0.32902381D+00 0.57158385D-02 0.57096087D+05 0.57096087D+05 0.57096087D+05 0.11422600D+01  1  2 12  1  7  1        1 0.947477666212D-03 0.100000000000D+01
-.257130915695D-04 0.000000000000D+00 0.000000000000D+00 0.152446209905D-07 0.000000000000D+00  7 1 -1 23 -13 13 23 21 2 0.31501106D+00 0.57158385D-02 0.55620550D+05 0.55620550D+05 0.55620550D+05 0.11432480D+01  1  2  4  1  7  1        1 -.164701438012D-02 0.100000000000D+01
-.868858345714D-04 0.000000000000D+00 -.682672337179D-05 0.152446209905D-07 0.000000000000D+00  7 1 -1 23 -13 13 23 21 2 0.32890229D+00 0.57158385D-02 0.55620550D+05 0.55620550D+05 0.55620550D+05 0.11432480D+01  1  2  5  1  7  1        1 -.485846869888D-02 0.100000000000D+01
0.871056635352D-04 0.000000000000D+00 0.682037201356D-05 0.152446209905D-07 0.000000000000D+00  7 1 -1 23 -13 13 23 21 2 0.31501106D+00 0.57158385D-02 0.55620550D+05 0.55620550D+05 0.55620550D+05 0.11432480D+01  1  2  6  1  7  1        1 0.557942556402D-02 0.100000000000D+01
0.843085051091D-05 0.000000000000D+00 0.000000000000D+00 0.152446209905D-07 0.273553790616D-08  7 1 -1 23 -13 13 23 21 2 0.32855736D+00 0.57331866D-02 0.57096087D+05 0.57096087D+05 0.57096087D+05 0.11422600D+01  1  2 11  1  7  1        1 0.469826895572D-03 0.100000000000D+01
0.338693741410D-06 0.000000000000D+00 0.000000000000D+00 0.152446209905D-07 0.000000000000D+00  7 21 -1 23 -13 13 23 -1 2 0.32902381D+00 0.57158385D-02 0.57096087D+05 0.57096087D+05 0.57096087D+05 0.11422600D+01  1  2 12  3  7  1        1 0.929449279503D-05 0.100000000000D+01
-.655149228729D-06 0.000000000000D+00 -.518305331431D-07 0.152446209905D-07 0.000000000000D+00  7 21 -1 23 -13 13 23 -1 2 0.32890229D+00 0.57158385D-02 0.55620550D+05 0.55620550D+05 0.55620550D+05 0.11432480D+01  1  2  5  3  7  1        1 -.180788142273D-04 0.100000000000D+01
0.635051750969D-07 0.000000000000D+00 0.000000000000D+00 0.152446209905D-07 0.202151796666D-10  7 21 -1 23 -13 13 23 -1 2 0.32855736D+00 0.57331866D-02 0.57096087D+05 0.57096087D+05 0.57096087D+05 0.11422600D+01  1  2 11  3  7  1        1 0.174695618274D-05 0.100000000000D+01
  </mgrwgt>
  </event>
  <event>
  8     66 0.56006291E-06 0.70262291E+03 0.75467711E-02 0.83853865E-01
        1 -1    0    0  501    0 0.00000000E+00 0.00000000E+00 0.92293080E+03 0.92293085E+03 0.32000000E+00 0.0000E+00 0.9000E+01
       -1 -1    0    0    0  501 0.00000000E+00 0.00000000E+00 -.56126168E+03 0.56126177E+03 0.32000000E+00 0.0000E+00 0.9000E+01
       25  2    1    2    0    0 -.35367196E+03 0.58060293E+03 0.10035666E+03 0.74997411E+03 0.30034329E+03 0.0000E+00 0.0000E+00
       23  2    1    2    0    0 0.35367196E+03 -.58060293E+03 0.26131245E+03 0.73421851E+03 0.92784696E+02 0.0000E+00 0.0000E+00
       23  1    3    3    0    0 -.58760554E+02 0.93808127E+02 0.97733293E+02 0.17355061E+03 0.91188000E+02 0.0000E+00 0.9000E+01
      -11  1    4    4    0    0 0.34448043E+03 -.51766316E+03 0.24668447E+03 0.66895078E+03 0.51099893E-03 0.0000E+00 0.9000E+01
       11  1    4    4    0    0 0.91915332E+01 -.62939769E+02 0.14627983E+02 0.65267731E+02 0.51099893E-03 0.0000E+00 0.9000E+01
       23  1    3    3    0    0 -.29491141E+03 0.48679480E+03 0.26233703E+01 0.57642350E+03 0.91188000E+02 0.0000E+00 0.9000E+01
#aMCatNLO 1  0  0  2  2 0.11383437D+04 0.00000000D+00  -5  7  0 0.00000000D+00 0.00000000D+00 0.00000000D+00 0.00000000D+00 0.00000000D+00
  <mgrwgt>
 0.2532864080D-03    5    2    0
 0.719726195929049D+03 0.000000000000000D+00 0.000000000000000D+00 0.719726195929049D+03
 0.719726195929049D+03 0.000000000000000D+00 0.000000000000000D+00 -.719726195929049D+03
 0.154388868422238D+03 -.587605542166866D+02 0.938081273358155D+02 0.571655828501240D+02
 0.627762097970194D+03 0.344480427553149D+03 -.517663162079570D+03 0.862747779279669D+02
 0.636209958240784D+02 0.919153317903449D+01 -.629397688068405D+02 -.131618008173776D+01
 0.593680429641588D+03 -.294911406515497D+03 0.486794803550595D+03 -.142124180696353D+03
 0.000000000000000D+00 -.000000000000000D+00 0.000000000000000D+00 -.000000000000000D+00
 0.138691593645051D+04 0.000000000000000D+00 0.000000000000000D+00 0.138691593645051D+04
 0.160783716170183D+04 0.000000000000000D+00 0.000000000000000D+00 -.160783716170183D+04
 0.121851072050025D+03 -.570934675158626D+02 -.220556572361329D+01 0.571655828501240D+02
 0.121438384077471D+04 0.355597635985095D+03 -.115794434093787D+04 0.862747779279669D+02
 0.131003491749596D+03 0.103660769265247D+02 -.130586090261300D+03 -.131618008173776D+01
 0.367931767940732D+03 -.289108151188990D+03 0.152563851201610D+03 -.142124180696353D+03
 0.115958292563728D+04 -.197620942067670D+02 0.113817214572117D+04 -.220921225251319D+03
0.877322514426D-04 0.000000000000D+00 0.000000000000D+00 0.101520691441D-05 0.000000000000D+00  7 1 -1 23 -11 11 23 21 0 0.14198936D+00 0.86347962D-01 0.49367896D+06 0.49367896D+06 0.49367896D+06 0.10689011D+01  1  2  2  2  7  2       -1 0.249511625292D-03 0.100000000000D+01
-.487058615905D-05 0.000000000000D+00 -.336914945972D-06 0.101520691441D-05 0.000000000000D+00  7 1 -1 23 -11 11 23 21 2 0.14198936D+00 0.86347962D-01 0.49367896D+06 0.49367896D+06 0.49367896D+06 0.10689011D+01  1  2  3  2  7  2       -1 -.158266065095D-04 0.100000000000D+01
0.533584829838D-05 0.000000000000D+00 0.000000000000D+00 0.101520691441D-05 0.000000000000D+00  7 1 -1 23 -11 11 23 21 2 0.14198936D+00 0.86347962D-01 0.49367896D+06 0.49367896D+06 0.49367896D+06 0.10689011D+01  1  2 15  2  7  2       -1 0.173384411352D-04 0.100000000000D+01
0.176941360574D-04 0.000000000000D+00 -.273484586097D-04 0.101520691441D-05 0.000000000000D+00  7 1 -1 23 -11 11 23 21 2 0.14198936D+00 0.30068400D+00 0.49367896D+06 0.49367896D+06 0.49367896D+06 0.10689011D+01  1  2  5  2  7  2       -1 0.823893211678D-06 0.100000000000D+01
0.347325196599D-05 0.000000000000D+00 -.398860856569D-05 0.101520691441D-05 0.000000000000D+00  7 1 21 23 -11 11 23 1 2 0.14198936D+00 0.30068400D+00 0.49367896D+06 0.49367896D+06 0.49367896D+06 0.10689011D+01  1  2  5  4  7  2       -1 0.143905483262D-05 0.100000000000D+01
  </mgrwgt>
  </event>
  <event>
  9     66 0.56006291E-06 0.22274717E+03 0.75467711E-02 0.10175076E+00
        1 -1    0    0  501    0 0.00000000E+00 0.00000000E+00 0.80211722E+03 0.80211729E+03 0.32000000E+00 0.0000E+00 0.9000E+01
       -1 -1    0    0    0  502 0.00000000E+00 0.00000000E+00 -.23419058E+03 0.23419079E+03 0.32000000E+00 0.0000E+00 0.9000E+01
       25  2    1    2    0    0 0.15061681E+03 0.10163926E+03 0.49979551E+03 0.61045104E+03 0.29973149E+03 0.0000E+00 0.0000E+00
       23  2    1    2    0    0 -.48722781E+02 -.77778501E+02 0.21264093E+03 0.24743235E+03 0.87081552E+02 0.0000E+00 0.0000E+00
       23  1    3    3    0    0 -.34828234E+02 -.33709995E+02 0.13792871E+03 0.17230481E+03 0.91188000E+02 0.0000E+00 0.9000E+01
      -11  1    4    4    0    0 -.16631097E+02 -.67151721E+02 0.19951415E+03 0.21116781E+03 0.51099893E-03 0.0000E+00 0.9000E+01
       11  1    4    4    0    0 -.32091683E+02 -.10626781E+02 0.13126784E+02 0.36264543E+02 0.51099893E-03 0.0000E+00 0.9000E+01
       23  1    3    3    0    0 0.18544504E+03 0.13534925E+03 0.36186680E+03 0.43814623E+03 0.91188000E+02 0.0000E+00 0.9000E+01
       21  1    1    2  501  502 -.10189403E+03 -.23860755E+02 -.14450979E+03 0.17842469E+03 0.75000000E+00 0.0000E+00 0.9000E+01
#aMCatNLO 2  0  0  2  1 0.10465051D+03 0.00000000D+00  -5  7  0 0.00000000D+00 0.00000000D+00 0.00000000D+00 0.00000000D+00 0.00000000D+00
  <mgrwgt>
 0.8431855867D-04    2    2    0
 0.233155797520756D+03 0.000000000000000D+00 0.000000000000000D+00 0.233155797520756D+03
 0.233155797520756D+03 0.000000000000000D+00 0.000000000000000D+00 -.233155797520756D+03
 0.115598963224026D+03 -.584918459084563D+02 -.392513562571547D+02 -.926843830777081D+01
 0.907399791927044D+02 -.352330887022465D+02 -.715077910969582D+02 0.433475385324917D+02
 0.542175318995797D+02 -.428556473529163D+02 -.131474024424523D+02 -.304972140409681D+02
 0.205755120725203D+03 0.136580581963619D+03 0.123906549796565D+03 -.358188618375279D+01
 0.000000000000000D+00 -.000000000000000D+00 -.000000000000000D+00 -.000000000000000D+00
 0.244115702341808D+03 0.000000000000000D+00 0.000000000000000D+00 0.244115702341808D+03
 0.769504143485761D+03 0.000000000000000D+00 0.000000000000000D+00 -.769504143485761D+03
 0.103684738210056D+03 -.348282342579452D+02 -.337099947122008D+02 -.926843830777081D+01
 0.816391822399500D+02 -.166310972815147D+02 -.671517206272089D+02 0.433475385324917D+02
 0.455289432760444D+02 -.320916834256982D+02 -.106267806262018D+02 -.304972140409681D+02
 0.247057412708496D+03 0.185445043260029D+03 0.135349251390131D+03 -.358188618375279D+01
 0.535709569393022D+03 -.101894028294871D+03 -.238607554245191D+02 -.525388441143953D+03
-.637234674193D-05 0.000000000000D+00 0.000000000000D+00 0.127867719209D-07 0.000000000000D+00  7 1 -1 23 -11 11 23 21 2 0.11786222D+00 0.35549193D-01 0.77823574D+05 0.77823574D+05 0.77823574D+05 0.11307687D+01  1  2 13  2  7  2       -1 -.175032766585D-03 0.100000000000D+01
0.103748015549D-04 0.000000000000D+00 0.000000000000D+00 0.127867719209D-07 0.152019441560D-10  7 1 -1 23 -11 11 23 21 2 0.12340254D+00 0.36029303D-01 0.77823574D+05 0.77823574D+05 0.77823574D+05 0.11307687D+01  1  2  1  2  7  2       -1 0.259351325251D-03 0.100000000000D+01
  </mgrwgt>
  </event>
  <event>
  8     66 -.56006291E-06 0.37628875E+03 0.75467711E-02 0.97423137E-01
        1 -1    0    0  501    0 0.00000000E+00 0.00000000E+00 0.10385101E+04 0.10385102E+04 0.32000000E+00 0.0000E+00 0.9000E+01
       -1 -1    0    0    0  501 0.00000000E+00 0.00000000E+00 -.14573316E+03 0.14573351E+03 0.32000000E+00 0.0000E+00 0.9000E+01
       25  2    1    2    0    0 -.11836357E+03 0.29870833E+03 0.57042319E+03 0.72019046E+03 0.30009179E+03 0.0000E+00 0.0000E+00
       23  2    1    2    0    0 0.11836357E+03 -.29870833E+03 0.32235377E+03 0.46405322E+03 0.90536377E+02 0.0000E+00 0.0000E+00
       23  1    3    3    0    0 0.46843196E+02 0.56824132E+02 0.25253549E+03 0.27841101E+03 0.91188000E+02 0.0000E+00 0.9000E+01
      -13  1    4    4    0    0 0.62102066E+02 -.23732452E+03 0.20240953E+03 0.31803966E+03 0.10565837E+00 0.0000E+00 0.9000E+01
       13  1    4    4    0    0 0.56261499E+02 -.61383812E+02 0.11994423E+03 0.14601356E+03 0.10565837E+00 0.0000E+00 0.9000E+01
       23  1    3    3    0    0 -.16520676E+03 0.24188420E+03 0.31788770E+03 0.44177945E+03 0.91188000E+02 0.0000E+00 0.9000E+01
#aMCatNLO 1  0  0  1  1 0.33985728D+02 0.00000000D+00  -5  7  0 0.00000000D+00 0.00000000D+00 0.00000000D+00 0.00000000D+00 0.00000000D+00
  <mgrwgt>
 -.2785447138D-04    4    2    0
 0.389031617678781D+03 0.000000000000000D+00 0.000000000000000D+00 0.389031617678781D+03
 0.389031617678781D+03 0.000000000000000D+00 0.000000000000000D+00 -.389031617678781D+03
 0.133984759763394D+03 0.468431963357691D+02 0.568241315995135D+02 0.649106888722051D+02
 0.251817664755758D+03 0.621020742785512D+02 -.237324760768052D+03 -.568544332460697D+02
 0.846100994033331D+02 0.562614910967520D+02 -.613835726042259D+02 0.150190064569442D+02
 0.307650711435077D+03 -.165206761711072D+03 0.241884201772764D+03 -.230752620830795D+02
 0.000000000000000D+00 0.000000000000000D+00 0.000000000000000D+00 -.000000000000000D+00
 0.401982916766445D+03 0.000000000000000D+00 0.000000000000000D+00 0.401982916766445D+03
 0.412355611242412D+03 0.000000000000000D+00 0.000000000000000D+00 -.412355611242412D+03
 0.130914274720815D+03 0.436635479648283D+02 0.519941634314464D+02 0.649106888722051D+02
 0.259224737835317D+03 0.559679064208075D+02 -.246642720502611D+03 -.568544332460697D+02
 0.855790014274817D+02 0.542186693920137D+02 -.644866716440746D+02 0.150190064569442D+02
 0.303087114348852D+03 -.172537598294176D+03 0.230748471273351D+03 -.230752620830795D+02
 0.355333996763916D+02 0.186874745165270D+02 0.283867574418881D+02 -.103726944759669D+02
0.429455515651D-05 0.000000000000D+00 0.000000000000D+00 0.711733671403D-06 0.000000000000D+00  7 1 -1 23 -13 13 23 21 0 0.15977082D+00 0.22420517D-01 0.14159322D+06 0.14159322D+06 0.14159322D+06 0.11095340D+01  1  2  2  1  7  1        1 0.118480389822D-03 0.100000000000D+01
-.238264650043D-06 0.000000000000D+00 -.164922225833D-07 0.711733671403D-06 0.000000000000D+00  7 1 -1 23 -13 13 23 21 2 0.15977082D+00 0.22420517D-01 0.14159322D+06 0.14159322D+06 0.14159322D+06 0.11095340D+01  1  2  3  1  7  1        1 -.809224766381D-05 0.100000000000D+01
0.271798199210D-06 0.000000000000D+00 0.000000000000D+00 0.711733671403D-06 0.000000000000D+00  7 1 -1 23 -13 13 23 21 2 0.15977082D+00 0.22420517D-01 0.14159322D+06 0.14159322D+06 0.14159322D+06 0.11095340D+01  1  2 15  1  7  1        1 0.923115679216D-05 0.100000000000D+01
-.434215408840D-05 0.000000000000D+00 0.000000000000D+00 0.711733671403D-06 0.000000000000D+00  7 1 -1 23 -13 13 23 21 2 0.15977082D+00 0.22420517D-01 0.14159322D+06 0.14159322D+06 0.14159322D+06 0.11095340D+01  1  2  4  1  7  1        1 -.147473770328D-03 0.100000000000D+01
  </mgrwgt>
  </event>
  <event>
  8     66 0.56006291E-06 0.15375196E+03 0.75467711E-02 0.99629305E-01
        1 -1    0    0  501    0 0.00000000E+00 0.00000000E+00 0.61406338E+03 0.61406346E+03 0.32000000E+00 0.0000E+00 0.9000E+01
       -1 -1    0    0    0  501 0.00000000E+00 0.00000000E+00 -.20656048E+03 0.20656073E+03 0.32000000E+00 0.0000E+00 0.9000E+01
       25  2    1    2    0    0 0.17715545E+03 -.10717528E+01 0.49228445E+03 0.60337275E+03 0.30054865E+03 0.0000E+00 0.0000E+00
       23  2    1    2    0    0 -.17715545E+03 0.10717528E+01 -.84781555E+02 0.21725144E+03 0.92871262E+02 0.0000E+00 0.0000E+00
       23  1    3    3    0    0 0.16691748E+03 -.73024037E+02 0.41829123E+03 0.46527063E+03 0.91188000E+02 0.0000E+00 0.9000E+01
      -13  1    4    4    0    0 -.10537450E+03 -.44963476E+02 -.53206462E+02 0.12631880E+03 0.10565837E+00 0.0000E+00 0.9000E+01
       13  1    4    4    0    0 -.71780953E+02 0.46035228E+02 -.31575093E+02 0.90932641E+02 0.10565837E+00 0.0000E+00 0.9000E+01
       23  1    3    3    0    0 0.10237977E+02 0.71952284E+02 0.73993220E+02 0.13810212E+03 0.91188000E+02 0.0000E+00 0.9000E+01
#aMCatNLO 1  0  0  2  1 0.11876677D+03 0.00000000D+00  -5  7  0 0.00000000D+00 0.00000000D+00 0.00000000D+00 0.00000000D+00 0.00000000D+00
  <mgrwgt>
 0.1422041572D-03    9    2    0
 0.356147949315276D+03 0.000000000000000D+00 0.000000000000000D+00 0.356147949315276D+03
 0.356147949315276D+03 0.000000000000000D+00 0.000000000000000D+00 -.356147949315276D+03
 0.296727028216977D+03 0.166917477445167D+03 -.730240368789371D+02 0.215726038511174D+03
 0.175969139666916D+03 -.105374545113513D+03 -.449635923736533D+02 -.133565035537340D+03
 0.122825945987041D+03 -.717809101282878D+02 0.460353451971911D+02 -.883994397116947D+02
 0.116773784759618D+03 0.102379777966330D+02 0.719522840553992D+02 0.623843673786085D+01
 0.000000000000000D+00 0.000000000000000D+00 0.000000000000000D+00 -.000000000000000D+00
 0.407820021735110D+03 0.000000000000000D+00 0.000000000000000D+00 0.407820021735110D+03
 0.436486953179897D+03 0.000000000000000D+00 0.000000000000000D+00 -.436486953179897D+03
 0.303884235781337D+03 0.151677447469576D+03 -.120360315925959D+03 0.215726038511174D+03
 0.190919380147498D+03 -.114684047573473D+03 -.738793626798404D+02 -.133565035537340D+03
 0.120883025413235D+03 -.779648301645779D+02 0.268277868845676D+02 -.883994397116947D+02
 0.106442843766310D+03 0.457403455464430D+01 0.543597991168077D+02 0.623843673786085D+01
 0.122177489806628D+03 0.363973957138299D+02 0.113052092604424D+03 -.286669314447875D+02
0.319449680850D-05 0.000000000000D+00 0.000000000000D+00 0.148064512871D-06 0.000000000000D+00  7 1 -1 23 -13 13 23 21 0 0.94471314D-01 0.31778561D-01 0.67648456D+05 0.67648456D+05 0.67648456D+05 0.11359233D+01  1  2  2  2  7  2       -1 0.115435193152D-03 0.100000000000D+01
-.156155456305D-06 0.000000000000D+00 -.122677088750D-07 0.148064512871D-06 0.000000000000D+00  7 1 -1 23 -13 13 23 21 2 0.94471314D-01 0.31778561D-01 0.67648456D+05 0.67648456D+05 0.67648456D+05 0.11359233D+01  1  2  3  2  7  2       -1 -.728099929004D-05 0.100000000000D+01
0.191161853139D-06 0.000000000000D+00 0.000000000000D+00 0.148064512871D-06 0.000000000000D+00  7 1 -1 23 -13 13 23 21 2 0.94471314D-01 0.31778561D-01 0.67648456D+05 0.67648456D+05 0.67648456D+05 0.11359233D+01  1  2 15  2  7  2       -1 0.891322884207D-05 0.100000000000D+01
0.148559284556D-05 0.000000000000D+00 0.000000000000D+00 0.148064512871D-06 0.000000000000D+00  7 1 -1 23 -13 13 23 21 2 0.94471314D-01 0.40822564D-01 0.10821684D+06 0.10821684D+06 0.10821684D+06 0.11189186D+01  1  2 12  2  7  2       -1 0.435232155953D-04 0.100000000000D+01
-.192986338387D-05 0.000000000000D+00 0.000000000000D+00 0.148064512871D-06 0.000000000000D+00  7 1 -1 23 -13 13 23 21 2 0.94471314D-01 0.31778561D-01 0.67648456D+05 0.67648456D+05 0.67648456D+05 0.11359233D+01  1  2  4  2  7  2       -1 -.899829840102D-04 0.100000000000D+01
-.315351048880D-05 0.000000000000D+00 -.150319383930D-05 0.148064512871D-06 0.000000000000D+00  7 1 -1 23 -13 13 23 21 2 0.94471314D-01 0.44135191D-01 0.67648456D+05 0.67648456D+05 0.67648456D+05 0.11359233D+01  1  2  5  2  7  2       -1 -.839070713865D-04 0.100000000000D+01
0.353257193022D-05 0.000000000000D+00 0.142559638532D-05 0.148064512871D-06 0.000000000000D+00  7 1 -1 23 -13 13 23 21 2 0.94471314D-01 0.31778561D-01 0.67648456D+05 0.67648456D+05 0.67648456D+05 0.11359233D+01  1  2  6  2  7  2       -1 0.164711847568D-03 0.100000000000D+01
0.503429797364D-07 0.000000000000D+00 0.000000000000D+00 0.148064512871D-06 0.000000000000D+00  7 1 21 23 -13 13 23 1 2 0.94471314D-01 0.40822564D-01 0.10821684D+06 0.10821684D+06 0.10821684D+06 0.11189186D+01  1  2 12  4  7  2       -1 0.146039802475D-04 0.100000000000D+01
-.914315507037D-07 0.000000000000D+00 -.620312102121D-07 0.148064512871D-06 0.000000000000D+00  7 1 21 23 -13 13 23 1 2 0.94471314D-01 0.44135191D-01 0.67648456D+05 0.67648456D+05 0.67648456D+05 0.11359233D+01  1  2  5  4  7  2       -1 -.238122535180D-04 0.100000000000D+01
  </mgrwgt>
  </event>
  <event>
  8     66 0.56006291E-06 0.18233771E+03 0.75467711E-02 0.96586785E-01
        1 -1    0    0  501    0 0.00000000E+00 0.00000000E+00 0.49424476E+03 0.49424487E+03 0.32000000E+00 0.0000E+00 0.9000E+01
       -1 -1    0    0    0  501 0.00000000E+00 0.00000000E+00 -.34047507E+03 0.34047522E+03 0.32000000E+00 0.0000E+00 0.9000E+01
       25  2    1    2    0    0 -.84614504E+02 0.27886491E+03 0.27965654E+03 0.50418520E+03 0.30177753E+03 0.0000E+00 0.0000E+00
       23  2    1    2    0    0 0.84614504E+02 -.27886491E+03 -.12588685E+03 0.33053489E+03 0.92089963E+02 0.0000E+00 0.0000E+00
       23  1    3    3    0    0 -.61710708E+02 0.13929266E+03 0.28503425E+03 0.33581309E+03 0.91188000E+02 0.0000E+00 0.9000E+01
      -13  1    4    4    0    0 -.18943048E+02 -.56634946E+02 -.15763176E+02 0.61764432E+02 0.10565837E+00 0.0000E+00 0.9000E+01
       13  1    4    4    0    0 0.10355755E+03 -.22222997E+03 -.11012368E+03 0.26877046E+03 0.10565837E+00 0.0000E+00 0.9000E+01
       23  1    3    3    0    0 -.22903796E+02 0.13957225E+03 -.53777040E+01 0.16837211E+03 0.91188000E+02 0.0000E+00 0.9000E+01
#aMCatNLO 1  0  0  2  1 0.17198325D+03 0.00000000D+00  -5  7  0 0.00000000D+00 0.00000000D+00 0.00000000D+00 0.00000000D+00 0.00000000D+00
  <mgrwgt>
 0.1404872817D-03    9    2    0
 0.410217171103975D+03 0.000000000000000D+00 0.000000000000000D+00 0.410217171103975D+03
 0.410217171103975D+03 0.000000000000000D+00 0.000000000000000D+00 -.410217171103975D+03
 0.288237937634726D+03 -.617107077906617D+02 0.139292662585503D+03 0.227057702009284D+03
 0.657940086242289D+02 -.189432092650056D+02 -.566347278201535D+02 -.276136560115543D+02
 0.294090605088047D+03 0.103557713642889D+03 -.222230183859477D+03 -.162415606786706D+03
 0.172311790860947D+03 -.229037965872220D+02 0.139572249094128D+03 -.370284392110236D+02
 0.000000000000000D+00 0.000000000000000D+00 0.000000000000000D+00 -.000000000000000D+00
 0.489788274781215D+03 0.000000000000000D+00 0.000000000000000D+00 0.489788274781215D+03
 0.523790496531957D+03 0.000000000000000D+00 0.000000000000000D+00 -.523790496531957D+03
 0.288296616006225D+03 -.110618115215958D+03 0.104919588261549D+03 0.227057702009284D+03
 0.772994060253600D+02 -.310818189735620D+02 -.651659781085478D+02 -.276136560115543D+02
 0.309508910573575D+03 0.523543863700562D+02 -.258216875173491D+03 -.162415606786706D+03
 0.163161580339535D+03 -.513619917500698D+02 0.119571277688062D+03 -.370284392110236D+02
 0.175312258368477D+03 0.140707539569533D+03 0.988919873324278D+02 -.340022217507417D+02
0.566188290417D-05 0.000000000000D+00 0.000000000000D+00 0.512403683566D-07 0.000000000000D+00  7 1 -1 23 -13 13 23 21 0 0.76037675D-01 0.52380800D-01 0.10586392D+06 0.10586392D+06 0.10586392D+06 0.11196968D+01  1  2  2  2  7  2       -1 0.115648369824D-03 0.100000000000D+01
-.294011853570D-06 0.000000000000D+00 -.217431211600D-07 0.512403683566D-07 0.000000000000D+00  7 1 -1 23 -13 13 23 21 2 0.76037675D-01 0.52380800D-01 0.10586392D+06 0.10586392D+06 0.10586392D+06 0.11196968D+01  1  2  3  2  7  2       -1 -.752912256188D-05 0.100000000000D+01
0.357699696245D-06 0.000000000000D+00 0.000000000000D+00 0.512403683566D-07 0.000000000000D+00  7 1 -1 23 -13 13 23 21 2 0.76037675D-01 0.52380800D-01 0.10586392D+06 0.10586392D+06 0.10586392D+06 0.11196968D+01  1  2 15  2  7  2       -1 0.916005535380D-05 0.100000000000D+01
0.164298994539D-05 0.000000000000D+00 0.000000000000D+00 0.512403683566D-07 0.000000000000D+00  7 1 -1 23 -13 13 23 21 2 0.76037675D-01 0.70786731D-01 0.17817182D+06 0.17817182D+06 0.17817182D+06 0.11017011D+01  1  2 12  2  7  2       -1 0.228215758811D-04 0.100000000000D+01
-.269140282859D-05 0.000000000000D+00 0.000000000000D+00 0.512403683566D-07 0.000000000000D+00  7 1 -1 23 -13 13 23 21 2 0.76037675D-01 0.52380800D-01 0.10586392D+06 0.10586392D+06 0.10586392D+06 0.11196968D+01  1  2  4  2  7  2       -1 -.689220570999D-04 0.100000000000D+01
-.410641384521D-05 0.000000000000D+00 -.228314937901D-05 0.512403683566D-07 0.000000000000D+00  7 1 -1 23 -13 13 23 21 2 0.76037675D-01 0.77879457D-01 0.10586392D+06 0.10586392D+06 0.10586392D+06 0.11196968D+01  1  2  5  2  7  2       -1 -.495375593044D-04 0.100000000000D+01
0.479811199226D-05 0.000000000000D+00 0.211463211699D-05 0.512403683566D-07 0.000000000000D+00  7 1 -1 23 -13 13 23 21 2 0.76037675D-01 0.52380800D-01 0.10586392D+06 0.10586392D+06 0.10586392D+06 0.11196968D+01  1  2  6  2  7  2       -1 0.122871145557D-03 0.100000000000D+01
0.636831578561D-07 0.000000000000D+00 0.000000000000D+00 0.512403683566D-07 0.000000000000D+00  7 1 21 23 -13 13 23 1 2 0.76037675D-01 0.70786731D-01 0.17817182D+06 0.17817182D+06 0.17817182D+06 0.11017011D+01  1  2 12  4  7  2       -1 0.710897135395D-05 0.100000000000D+01
-.117217143808D-06 0.000000000000D+00 -.108003614061D-06 0.512403683566D-07 0.000000000000D+00  7 1 21 23 -13 13 23 1 2 0.76037675D-01 0.77879457D-01 0.10586392D+06 0.10586392D+06 0.10586392D+06 0.11196968D+01  1  2  5  4  7  2       -1 -.111340973499D-04 0.100000000000D+01
  </mgrwgt>
  </event>
  <event>
  8     66 0.56006291E-06 0.47156252E+03 0.75467711E-02 0.89877740E-01
        1 -1    0    0  501    0 0.00000000E+00 0.00000000E+00 0.63996399E+03 0.63996407E+03 0.32000000E+00 0.0000E+00 0.9000E+01
       -1 -1    0    0    0  501 0.00000000E+00 0.00000000E+00 -.67300609E+03 0.67300617E+03 0.32000000E+00 0.0000E+00 0.9000E+01
       25  2    1    2    0    0 0.21292178E+03 0.37118870E+03 -.46369772E+03 0.69916967E+03 0.30117423E+03 0.0000E+00 0.0000E+00
       23  2    1    2    0    0 -.21292178E+03 -.37118870E+03 0.43065562E+03 0.61380057E+03 0.90388866E+02 0.0000E+00 0.0000E+00
       23  1    3    3    0    0 0.13480292E+02 0.11131137E+02 -.38855262E+02 0.10065090E+03 0.91188000E+02 0.0000E+00 0.9000E+01
      -13  1    4    4    0    0 -.88912052E+02 -.18076789E+03 0.14217715E+03 0.24656994E+03 0.10565837E+00 0.0000E+00 0.9000E+01
       13  1    4    4    0    0 -.12400973E+03 -.19042080E+03 0.28847847E+03 0.36723063E+03 0.10565837E+00 0.0000E+00 0.9000E+01
       23  1    3    3    0    0 0.19944149E+03 0.36005756E+03 -.42484246E+03 0.59851877E+03 0.91188000E+02 0.0000E+00 0.9000E+01
#aMCatNLO 1  0  0  1  2 0.49737044D+03 0.00000000D+00  -5  7  0 0.00000000D+00 0.00000000D+00 0.00000000D+00 0.00000000D+00 0.00000000D+00
  <mgrwgt>
 0.2233691868D-03    3    2    0
 0.656277204956990D+03 0.000000000000000D+00 0.000000000000000D+00 0.656277204956990D+03
 0.656277204956990D+03 0.000000000000000D+00 0.000000000000000D+00 -.656277204956990D+03
 0.997046472127845D+02 0.134802922672694D+02 0.111311367161688D+02 -.363337975942615D+02
 0.250227040179020D+03 -.889120038203569D+02 -.180767880639955D+03 0.148429109484429D+03
 0.374609270160447D+03 -.124009775338488D+03 -.190420817432431D+03 0.297814696076277D+03
 0.588013452361729D+03 0.199441486891576D+03 0.360057561356218D+03 -.409910007966444D+03
 0.000000000000000D+00 0.000000000000000D+00 -.000000000000000D+00 -.000000000000000D+00
 0.830951209179931D+03 0.000000000000000D+00 0.000000000000000D+00 0.830951209179931D+03
 0.118072217806710D+04 0.000000000000000D+00 0.000000000000000D+00 -.118072217806710D+04
 0.107342227200850D+03 -.734271660481501D+01 0.428140404736520D+02 -.363337975942615D+02
 0.228851630541852D+03 -.137093650798121D+03 -.107457894871279D+03 0.148429109484429D+03
 0.366112338307090D+03 -.198505237627140D+03 -.770734824454720D+02 0.297814696076277D+03
 0.701323538545099D+03 0.697709681899831D+02 0.557355588238066D+03 -.409910007966444D+03
 0.608043652652141D+03 0.273170636840092D+03 -.415638251394967D+03 -.349770968887171D+03
0.620894750747D-04 0.000000000000D+00 0.000000000000D+00 0.601704359366D-06 0.000000000000D+00  7 1 -1 23 -13 13 23 21 0 0.98456011D-01 0.10353941D+00 0.22237121D+06 0.22237121D+06 0.22237121D+06 0.10943062D+01  1  2  2  1  7  1        1 0.219463935821D-03 0.100000000000D+01
-.299121759573D-05 0.000000000000D+00 -.238439932821D-06 0.601704359366D-06 0.000000000000D+00  7 1 -1 23 -13 13 23 21 2 0.98456011D-01 0.10353941D+00 0.22237121D+06 0.22237121D+06 0.22237121D+06 0.10943062D+01  1  2  3  1  7  1        1 -.126610831858D-04 0.100000000000D+01
0.391384445765D-05 0.000000000000D+00 0.000000000000D+00 0.601704359366D-06 0.000000000000D+00  7 1 -1 23 -13 13 23 21 2 0.98456011D-01 0.10353941D+00 0.22237121D+06 0.22237121D+06 0.22237121D+06 0.10943062D+01  1  2 15  1  7  1        1 0.165663341662D-04 0.100000000000D+01
  </mgrwgt>
  </event>
  <event>
  8     66 0.56006291E-06 0.12432043E+03 0.75467711E-02 0.10175375E+00
        1 -1    0    0  501    0 0.00000000E+00 0.00000000E+00 0.16188284E+03 0.16188315E+03 0.32000000E+00 0.0000E+00 0.9000E+01
       -1 -1    0    0    0  501 0.00000000E+00 0.00000000E+00 -.68400219E+03 0.68400227E+03 0.32000000E+00 0.0000E+00 0.9000E+01
       25  2    1    2    0    0 -.68420163E+02 0.14863875E+03 -.55897545E+03 0.65506547E+03 0.29980396E+03 0.0000E+00 0.0000E+00
       23  2    1    2    0    0 0.68420163E+02 -.14863875E+03 0.36856092E+02 0.19081996E+03 0.90989496E+02 0.0000E+00 0.0000E+00
       23  1    3    3    0    0 0.53104528E+02 0.14083572E+03 -.38897480E+03 0.42693259E+03 0.91188000E+02 0.0000E+00 0.9000E+01
      -11  1    4    4    0    0 0.92673760E+01 -.92567553E+02 -.14979040E+02 0.94228487E+02 0.51099893E-03 0.0000E+00 0.9000E+01
       11  1    4    4    0    0 0.59152787E+02 -.56071193E+02 0.51835132E+02 0.96591469E+02 0.51099893E-03 0.0000E+00 0.9000E+01
       23  1    3    3    0    0 -.12152469E+03 0.78030312E+01 -.17000065E+03 0.22813288E+03 0.91188000E+02 0.0000E+00 0.9000E+01
#aMCatNLO 1  0  0  2  1 0.58018353D+02 0.00000000D+00  -5  7  0 0.00000000D+00 0.00000000D+00 0.00000000D+00 0.00000000D+00 0.00000000D+00
  <mgrwgt>
 0.1122385584D-03    9    2    0
 0.332758743247281D+03 0.000000000000000D+00 0.000000000000000D+00 0.332758743247281D+03
 0.332758743247281D+03 0.000000000000000D+00 0.000000000000000D+00 -.332758743247281D+03
 0.237476526612920D+03 0.531045277677123D+02 0.140835715178797D+03 -.159452374735475D+03
 0.108014677505740D+03 0.926737599247182D+01 -.925675530359953D+02 0.548865595916840D+02
 0.163435887871379D+03 0.591527866780687D+02 -.560711933095915D+02 0.141662481106901D+03
 0.156590394504522D+03 -.121524690438253D+03 0.780303116679002D+01 -.370966659631109D+02
 0.000000000000000D+00 0.000000000000000D+00 0.000000000000000D+00 -.000000000000000D+00
 0.342769554227633D+03 0.000000000000000D+00 0.000000000000000D+00 0.342769554227633D+03
 0.430209952497617D+03 0.000000000000000D+00 0.000000000000000D+00 -.430209952497617D+03
 0.231207460683901D+03 0.331941411306691D+02 0.136435800718553D+03 -.159452374735475D+03
 0.109376786409570D+03 0.322661626890923D-01 -.946083819773278D+02 0.548865595916840D+02
 0.160075207643499D+03 0.454095584738687D+02 -.591082527905753D+02 0.141662481106901D+03
 0.167382201226830D+03 -.135287523851916D+03 0.476163921119449D+01 -.370966659631109D+02
 0.104937850761449D+03 0.566515580846893D+02 0.125191948381554D+02 -.874403982699840D+02
0.384600098313D-05 0.000000000000D+00 0.000000000000D+00 0.771094122879D-06 0.000000000000D+00  7 1 -1 23 -11 11 23 21 0 0.24905082D-01 0.10523114D+00 0.63164496D+05 0.63164496D+05 0.63164496D+05 0.11384728D+01  1  2  2  2  7  2       -1 0.859892986643D-04 0.100000000000D+01
-.193201945742D-06 0.000000000000D+00 -.147696564505D-07 0.771094122879D-06 0.000000000000D+00  7 1 -1 23 -11 11 23 21 2 0.24905082D-01 0.10523114D+00 0.63164496D+05 0.63164496D+05 0.63164496D+05 0.11384728D+01  1  2  3  2  7  2       -1 -.559876000908D-05 0.100000000000D+01
0.240149680532D-06 0.000000000000D+00 0.000000000000D+00 0.771094122879D-06 0.000000000000D+00  7 1 -1 23 -11 11 23 21 2 0.24905082D-01 0.10523114D+00 0.63164496D+05 0.63164496D+05 0.63164496D+05 0.11384728D+01  1  2 15  2  7  2       -1 0.695924889571D-05 0.100000000000D+01
0.953076872864D-05 0.000000000000D+00 0.000000000000D+00 0.771094122879D-06 0.000000000000D+00  7 1 -1 23 -11 11 23 21 2 0.24905082D-01 0.13730038D+00 0.77788211D+05 0.77788211D+05 0.77788211D+05 0.11307853D+01  1  2 12  2  7  2       -1 0.142164561238D-03 0.100000000000D+01
-.977317719035D-05 0.000000000000D+00 0.000000000000D+00 0.771094122879D-06 0.000000000000D+00  7 1 -1 23 -11 11 23 21 2 0.24905082D-01 0.10523114D+00 0.63164496D+05 0.63164496D+05 0.63164496D+05 0.11384728D+01  1  2  4  2  7  2       -1 -.283214920040D-03 0.100000000000D+01
-.119848838350D-04 0.000000000000D+00 -.193614077542D-05 0.771094122879D-06 0.000000000000D+00  7 1 -1 23 -11 11 23 21 2 0.24905082D-01 0.13807587D+00 0.63164496D+05 0.63164496D+05 0.63164496D+05 0.11384728D+01  1  2  5  2  7  2       -1 -.179615395074D-03 0.100000000000D+01
0.121298350067D-04 0.000000000000D+00 0.186683870746D-05 0.771094122879D-06 0.000000000000D+00  7 1 -1 23 -11 11 23 21 2 0.24905082D-01 0.10523114D+00 0.63164496D+05 0.63164496D+05 0.63164496D+05 0.11384728D+01  1  2  6  2  7  2       -1 0.351508029027D-03 0.100000000000D+01
0.337598381317D-06 0.000000000000D+00 0.000000000000D+00 0.771094122879D-06 0.000000000000D+00  7 1 21 23 -11 11 23 1 2 0.24905082D-01 0.13730038D+00 0.77788211D+05 0.77788211D+05 0.77788211D+05 0.11307853D+01  1  2 12  4  7  2       -1 0.332895439472D-04 0.100000000000D+01
-.393953972331D-06 0.000000000000D+00 -.696393792165D-07 0.771094122879D-06 0.000000000000D+00  7 1 21 23 -11 11 23 1 2 0.24905082D-01 0.13807587D+00 0.63164496D+05 0.63164496D+05 0.63164496D+05 0.11384728D+01  1  2  5  4  7  2       -1 -.392430482032D-04 0.100000000000D+01
  </mgrwgt>
  </event>
  <event>
  8     66 0.56006291E-06 0.20298465E+03 0.75467711E-02 0.10149716E+00
        1 -1    0    0  501    0 0.00000000E+00 0.00000000E+00 0.11965103E+03 0.11965146E+03 0.32000000E+00 0.0000E+00 0.9000E+01
       -1 -1    0    0    0  501 0.00000000E+00 0.00000000E+00 -.49981767E+03 0.49981777E+03 0.32000000E+00 0.0000E+00 0.9000E+01
       25  2    1    2    0    0 -.76597604E+02 0.16822830E+02 -.12232242E+03 0.33346898E+03 0.30014761E+03 0.0000E+00 0.0000E+00
       23  2    1    2    0    0 0.76597604E+02 -.16822830E+02 -.25784422E+03 0.28600025E+03 0.95719910E+02 0.0000E+00 0.0000E+00
       23  1    3    3    0    0 -.73696068E+02 -.97633826E+02 -.10688501E+03 0.18628777E+03 0.91188000E+02 0.0000E+00 0.9000E+01
      -13  1    4    4    0    0 0.87502350E+02 -.63108607E+00 -.25015620E+03 0.26501924E+03 0.10565837E+00 0.0000E+00 0.9000E+01
       13  1    4    4    0    0 -.10904747E+02 -.16191744E+02 -.76880148E+01 0.20981011E+02 0.10565837E+00 0.0000E+00 0.9000E+01
       23  1    3    3    0    0 -.29015354E+01 0.11445666E+03 -.15437406E+02 0.14718121E+03 0.91188000E+02 0.0000E+00 0.9000E+01
#aMCatNLO 1  0  0  2  2 0.15610297D+03 0.00000000D+00  -5  7  0 0.00000000D+00 0.00000000D+00 0.00000000D+00 0.00000000D+00 0.00000000D+00
  <mgrwgt>
 0.1811012921D-03    3    2    0
 0.244548284391620D+03 0.000000000000000D+00 0.000000000000000D+00 0.244548284391620D+03
 0.244548284391620D+03 0.000000000000000D+00 0.000000000000000D+00 -.244548284391620D+03
 0.152864339607701D+03 -.736960769117844D+02 -.976338216309200D+02 0.942231931388257D+01
 0.141220164753488D+03 0.875024740604733D+02 -.631080550835716D+00 -.110842472471688D+03
 0.205977347652320D+02 -.109048500146409D+02 -.161917537911736D+02 0.657099937475637D+01
 0.174414329656818D+03 -.290154713404804D+01 0.114456655972929D+03 0.948491537830490D+02
 0.000000000000000D+00 0.000000000000000D+00 -.000000000000000D+00 0.000000000000000D+00
 0.421683026163470D+03 0.000000000000000D+00 0.000000000000000D+00 0.421683026163470D+03
 0.293627618390698D+03 0.000000000000000D+00 0.000000000000000D+00 -.293627618390698D+03
 0.182525908996213D+03 -.125865729689233D+03 -.952338915483251D+02 0.942231931388257D+01
 0.120331030677545D+03 0.468184198699835D+02 0.124048424470154D+01 -.110842472471688D+03
 0.248607079716516D+02 -.179758700674256D+02 -.158664697834056D+02 0.657099937475637D+01
 0.185686276887246D+03 -.589148739572090D+02 0.117033404348898D+03 0.948491537830490D+02
 0.201906720021513D+03 0.155938053843884D+03 -.717352726186829D+01 0.128055407772771D+03
0.279252518868D-05 0.000000000000D+00 0.000000000000D+00 0.362210278910D-07 0.000000000000D+00  7 1 -1 23 -13 13 23 21 0 0.18407892D-01 0.76895066D-01 0.41202768D+05 0.41202768D+05 0.41202768D+05 0.11547620D+01  1  2  2  2  7  2       -1 0.178865105898D-03 0.100000000000D+01
-.148594683197D-06 0.000000000000D+00 -.107240320133D-07 0.362210278910D-07 0.000000000000D+00  7 1 -1 23 -13 13 23 21 2 0.18407892D-01 0.76895066D-01 0.41202768D+05 0.41202768D+05 0.41202768D+05 0.11547620D+01  1  2  3  2  7  2       -1 -.126916117679D-04 0.100000000000D+01
0.174776179248D-06 0.000000000000D+00 0.000000000000D+00 0.362210278910D-07 0.000000000000D+00  7 1 -1 23 -13 13 23 21 2 0.18407892D-01 0.76895066D-01 0.41202768D+05 0.41202768D+05 0.41202768D+05 0.11547620D+01  1  2 15  2  7  2       -1 0.149277979909D-04 0.100000000000D+01
  </mgrwgt>
  </event>
  <event>
  8     66 0.56006291E-06 0.12603142E+03 0.75467711E-02 0.95637303E-01
        1 -1    0    0  501    0 0.00000000E+00 0.00000000E+00 0.31183071E+03 0.31183087E+03 0.32000000E+00 0.0000E+00 0.9000E+01
       -1 -1    0    0    0  501 0.00000000E+00 0.00000000E+00 -.64280343E+03 0.64280351E+03 0.32000000E+00 0.0000E+00 0.9000E+01
       25  2    1    2    0    0 0.23024173E+03 -.27345952E+03 -.35179803E+03 0.58490201E+03 0.30092714E+03 0.0000E+00 0.0000E+00
       23  2    1    2    0    0 -.23024173E+03 0.27345952E+03 0.20825305E+02 0.36973237E+03 0.92070445E+02 0.0000E+00 0.0000E+00
       23  1    3    3    0    0 0.16461392E+02 -.18029636E+03 -.87392829E+02 0.22074989E+03 0.91188000E+02 0.0000E+00 0.9000E+01
      -11  1    4    4    0    0 0.77371022E+00 0.55112148E+01 0.14890749E+02 0.15896746E+02 0.51099893E-03 0.0000E+00 0.9000E+01
       11  1    4    4    0    0 -.23101544E+03 0.26794831E+03 0.59345553E+01 0.35383563E+03 0.51099893E-03 0.0000E+00 0.9000E+01
       23  1    3    3    0    0 0.21378034E+03 -.93163165E+02 -.26440520E+03 0.36415212E+03 0.91188000E+02 0.0000E+00 0.9000E+01
#aMCatNLO 1  0  0  1  2 0.94860202D+02 0.00000000D+00  -5  7  0 0.00000000D+00 0.00000000D+00 0.00000000D+00 0.00000000D+00 0.00000000D+00
  <mgrwgt>
 0.3899246827D-03    9    2    0
 0.447711921405795D+03 0.000000000000000D+00 0.000000000000000D+00 0.447711921405795D+03
 0.447711921405795D+03 0.000000000000000D+00 0.000000000000000D+00 -.447711921405795D+03
 0.203044390196720D+03 0.164613922499757D+02 -.180296358191599D+03 -.115766503962557D+02
 0.224519507507827D+02 0.773710223255438D+00 0.551121483768161D+01 0.217512752733931D+02
 0.379426828708216D+03 -.231015443439837D+03 0.267948308061841D+03 0.137114140199566D+03
 0.290500673155871D+03 0.213780340966606D+03 -.931631647079236D+02 -.147288765076703D+03
 0.000000000000000D+00 -.000000000000000D+00 -.000000000000000D+00 0.000000000000000D+00
 0.635432581493876D+03 0.000000000000000D+00 0.000000000000000D+00 0.635432581493876D+03
 0.462363199044586D+03 0.000000000000000D+00 0.000000000000000D+00 -.462363199044586D+03
 0.187795146018303D+03 0.255438756511817D+02 -.161756783803201D+03 -.115766503962557D+02
 0.231379637564668D+02 0.183314665024652D+01 0.767378421219550D+01 0.217512752733931D+02
 0.396274672546801D+03 -.212989385795650D+03 0.304743909205418D+03 0.137114140199566D+03
 0.293226732890560D+03 0.227345228816971D+03 -.654739043742654D+02 -.147288765076703D+03
 0.197361265326331D+03 -.417328653227499D+02 -.851870052401469D+02 0.173069382449290D+03
0.308896064593D-04 0.000000000000D+00 0.000000000000D+00 0.376128821961D-06 0.000000000000D+00  7 1 -1 23 -11 11 23 21 0 0.47973974D-01 0.98892854D-01 0.16502209D+06 0.16502209D+06 0.16502209D+06 0.11042956D+01  1  2  2  1  7  1        1 0.329901003195D-03 0.100000000000D+01
-.169636293803D-05 0.000000000000D+00 -.118624222224D-06 0.376128821961D-06 0.000000000000D+00  7 1 -1 23 -11 11 23 21 2 0.47973974D-01 0.98892854D-01 0.16502209D+06 0.16502209D+06 0.16502209D+06 0.11042956D+01  1  2  3  1  7  1        1 -.220933075125D-04 0.100000000000D+01
0.203147322172D-05 0.000000000000D+00 0.000000000000D+00 0.376128821961D-06 0.000000000000D+00  7 1 -1 23 -11 11 23 21 2 0.47973974D-01 0.98892854D-01 0.16502209D+06 0.16502209D+06 0.16502209D+06 0.11042956D+01  1  2 15  1  7  1        1 0.264577594715D-04 0.100000000000D+01
0.867197341707D-04 0.000000000000D+00 0.000000000000D+00 0.376128821961D-06 0.000000000000D+00  7 1 -1 23 -11 11 23 21 2 0.68621358D-01 0.98892854D-01 0.20955153D+06 0.20955153D+06 0.20955153D+06 0.10962727D+01  1  2 12  1  7  1        1 0.682873258478D-03 0.100000000000D+01
-.866148213460D-04 0.000000000000D+00 0.000000000000D+00 0.376128821961D-06 0.000000000000D+00  7 1 -1 23 -11 11 23 21 2 0.47973974D-01 0.98892854D-01 0.16502209D+06 0.16502209D+06 0.16502209D+06 0.11042956D+01  1  2  4  1  7  1        1 -.112806513290D-02 0.100000000000D+01
-.102060972492D-03 0.000000000000D+00 -.144245609107D-04 0.376128821961D-06 0.000000000000D+00  7 1 -1 23 -11 11 23 21 2 0.69419557D-01 0.98892854D-01 0.16502209D+06 0.16502209D+06 0.16502209D+06 0.11042956D+01  1  2  5  1  7  1        1 -.809633936265D-03 0.100000000000D+01
0.101326179546D-03 0.000000000000D+00 0.134928887100D-04 0.376128821961D-06 0.000000000000D+00  7 1 -1 23 -11 11 23 21 2 0.47973974D-01 0.98892854D-01 0.16502209D+06 0.16502209D+06 0.16502209D+06 0.11042956D+01  1  2  6  1  7  1        1 0.131966479199D-02 0.100000000000D+01
0.380739340651D-05 0.000000000000D+00 0.000000000000D+00 0.376128821961D-06 0.000000000000D+00  7 21 -1 23 -11 11 23 -1 2 0.68621358D-01 0.98892854D-01 0.20955153D+06 0.20955153D+06 0.20955153D+06 0.10962727D+01  1  2 12  3  7  1        1 0.984861139555D-04 0.100000000000D+01
-.414422207338D-05 0.000000000000D+00 -.648046866295D-06 0.376128821961D-06 0.000000000000D+00  7 21 -1 23 -11 11 23 -1 2 0.69419557D-01 0.98892854D-01 0.16502209D+06 0.16502209D+06 0.16502209D+06 0.11042956D+01  1  2  5  3  7  1        1 -.107665867692D-03 0.100000000000D+01
  </mgrwgt>
  </event>
  <event>
  8     66 0.56006291E-06 0.30278802E+03 0.75467711E-02 0.89344925E-01
        1 -1    0    0  501    0 0.00000000E+00 0.00000000E+00 0.23947675E+04 0.23947676E+04 0.32000000E+00 0.0000E+00 0.9000E+01
       -1 -1    0    0    0  501 0.00000000E+00 0.00000000E+00 -.20878776E+03 0.20878800E+03 0.32000000E+00 0.0000E+00 0.9000E+01
       25  2    1    2    0    0 -.22727626E+03 0.13909594E+03 0.13213382E+02 0.41260250E+03 0.31474442E+03 0.0000E+00 0.0000E+00
       23  2    1    2    0    0 0.22727626E+03 -.13909594E+03 0.21727664E+04 0.21909531E+04 0.91429309E+02 0.0000E+00 0.0000E+00
       23  1    3    3    0    0 -.16719484E+03 0.11756252E+03 0.12374439E+03 0.25574007E+03 0.91188000E+02 0.0000E+00 0.9000E+01
      -11  1    4    4    0    0 0.52427837E+02 -.56532405E+02 0.37678597E+03 0.38459363E+03 0.51099893E-03 0.0000E+00 0.9000E+01
       11  1    4    4    0    0 0.17484842E+03 -.82563538E+02 0.17959804E+04 0.18063594E+04 0.51099893E-03 0.0000E+00 0.9000E+01
       23  1    3    3    0    0 -.60081423E+02 0.21533428E+02 -.11053101E+03 0.15686243E+03 0.91188000E+02 0.0000E+00 0.9000E+01
#aMCatNLO 1  0  0  1  2 0.70487087D+03 0.00000000D+00  -5  7  0 0.00000000D+00 0.00000000D+00 0.00000000D+00 0.00000000D+00 0.00000000D+00
  <mgrwgt>
 0.3087699073D-03    3    2    0
 0.707105716299602D+03 0.000000000000000D+00 0.000000000000000D+00 0.707105716299602D+03
 0.707105716299602D+03 0.000000000000000D+00 0.000000000000000D+00 -.707105716299602D+03
 0.279541475123319D+03 -.167194837313661D+03 0.117562516159001D+03 -.167490674785625D+03
 0.125627867836238D+03 0.524278366517518D+02 -.565324054773397D+02 0.991855344898751D+02
 0.549408834574381D+03 0.174848423554506D+03 -.825635382612777D+02 0.514258065992807D+03
 0.459633255065265D+03 -.600814228925966D+02 0.215334275796161D+02 -.445952925697057D+03
 0.000000000000000D+00 -.000000000000000D+00 -.000000000000000D+00 -.000000000000000D+00
 0.900252558744440D+03 0.000000000000000D+00 0.000000000000000D+00 0.900252558744440D+03
 0.191737778191239D+04 0.000000000000000D+00 0.000000000000000D+00 -.191737778191239D+04
 0.348363170020318D+03 -.130425941222492D+03 0.260725132272836D+03 -.167490674785625D+03
 0.119576775166767D+03 0.667865519588941D+02 -.625607451440573D+00 0.991855344898751D+02
 0.595691124260968D+03 0.241903288853022D+03 0.178519903446996D+03 0.514258065992807D+03
 0.516507187972187D+03 -.292050395685354D+01 0.244094003617068D+03 -.445952925697057D+03
 0.123749208323659D+04 -.175343395632571D+03 -.682713431885460D+03 -.101712522316795D+04
0.151812972853D-03 0.000000000000D+00 0.000000000000D+00 0.131935098062D-07 0.000000000000D+00  7 1 -1 23 -11 11 23 21 0 0.36842580D+00 0.32121214D-01 0.91680584D+05 0.91680584D+05 0.91680584D+05 0.11248308D+01  1  2  2  1  7  1        1 0.288888108079D-03 0.100000000000D+01
-.105738364615D-05 0.000000000000D+00 -.583001789028D-06 0.131935098062D-07 0.000000000000D+00  7 1 -1 23 -11 11 23 21 2 0.36842580D+00 0.32121214D-01 0.91680584D+05 0.91680584D+05 0.91680584D+05 0.11248308D+01  1  2  3  1  7  1        1 -.254582056202D-05 0.100000000000D+01
0.931510992918D-05 0.000000000000D+00 0.000000000000D+00 0.131935098062D-07 0.000000000000D+00  7 1 -1 23 -11 11 23 21 2 0.36842580D+00 0.32121214D-01 0.91680584D+05 0.91680584D+05 0.91680584D+05 0.11248308D+01  1  2 15  1  7  1        1 0.224276197968D-04 0.100000000000D+01
  </mgrwgt>
  </event>
  <event>
  8     66 0.56006291E-06 0.25179119E+03 0.75467711E-02 0.10076036E+00
        1 -1    0    0  501    0 0.00000000E+00 0.00000000E+00 0.68682452E+03 0.68682459E+03 0.32000000E+00 0.0000E+00 0.9000E+01
       -1 -1    0    0    0  501 0.00000000E+00 0.00000000E+00 -.27620202E+03 0.27620221E+03 0.32000000E+00 0.0000E+00 0.9000E+01
       25  2    1    2    0    0 0.73676532E+02 0.14097296E+03 0.60656719E+03 0.69487869E+03 0.29938441E+03 0.0000E+00 0.0000E+00
       23  2    1    2    0    0 -.73676532E+02 -.14097296E+03 -.19594469E+03 0.26814812E+03 0.90595158E+02 0.0000E+00 0.0000E+00
       23  1    3    3    0    0 0.33927138E+02 0.18877225E+03 0.49161002E+03 0.53552001E+03 0.91188000E+02 0.0000E+00 0.9000E+01
      -11  1    4    4    0    0 -.83573151E+02 -.14711851E+03 -.17071085E+03 0.24035499E+03 0.51099893E-03 0.0000E+00 0.9000E+01
       11  1    4    4    0    0 0.98966192E+01 0.61455511E+01 -.25233846E+02 0.27793126E+02 0.51099893E-03 0.0000E+00 0.9000E+01
       23  1    3    3    0    0 0.39749394E+02 -.47799291E+02 0.11495717E+03 0.15935868E+03 0.91188000E+02 0.0000E+00 0.9000E+01
#aMCatNLO 1  0  0  1  1 0.92127635D+02 0.00000000D+00  -5  7  0 0.00000000D+00 0.00000000D+00 0.00000000D+00 0.00000000D+00 0.00000000D+00
  <mgrwgt>
 0.7991480496D-04    4    2    0
 0.435548443512147D+03 0.000000000000000D+00 0.000000000000000D+00 0.435548443512147D+03
 0.435548443512147D+03 0.000000000000000D+00 0.000000000000000D+00 -.435548443512147D+03
 0.360297448540048D+03 0.339271379576738D+02 0.188772253495198D+03 0.291054953060095D+03
 0.346191125780533D+03 -.835731514787582D+02 -.147118513411454D+03 -.302026434162152D+03
 0.426211024140248D+02 0.989661917038777D+01 0.614555110977792D+01 -.409981402205052D+02
 0.121987210289689D+03 0.397493943506966D+02 -.477992911935220D+02 0.519696213225628D+02
 0.000000000000000D+00 -.000000000000000D+00 0.000000000000000D+00 -.000000000000000D+00
 0.473613226829220D+03 0.000000000000000D+00 0.000000000000000D+00 0.473613226829220D+03
 0.497521078757073D+03 0.000000000000000D+00 0.000000000000000D+00 -.497521078757073D+03
 0.349442435247270D+03 0.582094267779377D+02 0.160291737594027D+03 0.291054953060095D+03
 0.354227450214857D+03 -.596097720126909D+02 -.175224982903720D+03 -.302026434162152D+03
 0.430432833556934D+02 0.128274497526721D+02 0.270800172469981D+01 -.409981402205052D+02
 0.129241902946971D+03 0.483446811973625D+02 -.578806391884980D+02 0.519696213225628D+02
 0.951792338215016D+02 -.597717857152814D+02 0.701058827734905D+02 -.239078519278534D+02
0.113713994620D-04 0.000000000000D+00 0.000000000000D+00 0.102605605855D-05 0.000000000000D+00  7 1 -1 23 -11 11 23 21 0 0.10566533D+00 0.42492639D-01 0.63398802D+05 0.63398802D+05 0.63398802D+05 0.11383347D+01  1  2  2  1  7  1        1 0.213068089478D-03 0.100000000000D+01
-.401073209902D-06 0.000000000000D+00 -.436691680922D-07 0.102605605855D-05 0.000000000000D+00  7 1 -1 23 -11 11 23 21 2 0.10566533D+00 0.42492639D-01 0.63398802D+05 0.63398802D+05 0.63398802D+05 0.11383347D+01  1  2  3  1  7  1        1 -.973796317102D-05 0.100000000000D+01
0.679096444317D-06 0.000000000000D+00 0.000000000000D+00 0.102605605855D-05 0.000000000000D+00  7 1 -1 23 -11 11 23 21 2 0.10566533D+00 0.42492639D-01 0.63398802D+05 0.63398802D+05 0.63398802D+05 0.11383347D+01  1  2 15  1  7  1        1 0.164883018887D-04 0.100000000000D+01
-.576214905128D-05 0.000000000000D+00 0.000000000000D+00 0.102605605855D-05 0.000000000000D+00  7 1 -1 23 -11 11 23 21 2 0.10566533D+00 0.42492639D-01 0.63398802D+05 0.63398802D+05 0.63398802D+05 0.11383347D+01  1  2  4  1  7  1        1 -.139903623234D-03 0.100000000000D+01
  </mgrwgt>
  </event>
  <event>
  8     66 0.56006291E-06 0.17423349E+03 0.75467711E-02 0.92298144E-01
        1 -1    0    0  501    0 0.00000000E+00 0.00000000E+00 0.21352649E+03 0.21352673E+03 0.32000000E+00 0.0000E+00 0.9000E+01
       -1 -1    0    0    0  501 0.00000000E+00 0.00000000E+00 -.23595042E+03 0.23595064E+03 0.32000000E+00 0.0000E+00 0.9000E+01
       25  2    1    2    0    0 0.59519663E+02 -.51308992E+02 0.39136320E+02 0.31287798E+03 0.30030947E+03 0.0000E+00 0.0000E+00
       23  2    1    2    0    0 -.59519663E+02 0.51308992E+02 -.61560251E+02 0.13659939E+03 0.93244437E+02 0.0000E+00 0.0000E+00
       23  1    3    3    0    0 -.22423194E+02 0.36105948E+02 0.10774543E+03 0.14741359E+03 0.91188000E+02 0.0000E+00 0.9000E+01
      -13  1    4    4    0    0 -.70701195E+02 0.48573624E+02 -.78394344E+02 0.11620560E+03 0.10565837E+00 0.0000E+00 0.9000E+01
       13  1    4    4    0    0 0.11181532E+02 0.27353672E+01 0.16834093E+02 0.20393792E+02 0.10565837E+00 0.0000E+00 0.9000E+01
       23  1    3    3    0    0 0.81942857E+02 -.87414939E+02 -.68609106E+02 0.16546439E+03 0.91188000E+02 0.0000E+00 0.9000E+01
#aMCatNLO 1  0  0  1  1 0.57445173D+03 0.00000000D+00  -5  7  0 0.00000000D+00 0.00000000D+00 0.00000000D+00 0.00000000D+00 0.00000000D+00
  <mgrwgt>
 0.1227194511D-03    3    2    0
 0.224458834198767D+03 0.000000000000000D+00 0.000000000000000D+00 0.224458834198767D+03
 0.224458834198767D+03 0.000000000000000D+00 0.000000000000000D+00 -.224458834198767D+03
 0.152979407653523D+03 -.224231355506590D+02 0.361058969488115D+02 0.115243286223629D+03
 0.112434774317415D+03 -.707013385799064D+02 0.485737543612244D+02 -.726876164561270D+02
 0.212598604728255D+02 0.111815544482118D+02 0.273534152194343D+01 0.178737912655378D+02
 0.162243625953771D+03 0.819429196823536D+02 -.874149928319793D+02 -.604294610330395D+02
 0.000000000000000D+00 0.000000000000000D+00 0.000000000000000D+00 -.000000000000000D+00
 0.527867350871932D+03 0.000000000000000D+00 0.000000000000000D+00 0.527867350871932D+03
 0.869602358547168D+03 0.000000000000000D+00 0.000000000000000D+00 -.869602358547168D+03
 0.204597540131838D+03 -.359061762659949D+02 -.137748443077710D+03 0.115243286223629D+03
 0.127622108170291D+03 -.797530874150165D+02 -.681421892481393D+02 -.726876164561270D+02
 0.299305298204563D+02 0.925133461487804D+01 -.221534875126416D+02 0.178737912655378D+02
 0.366905282807443D+03 0.619904693762293D+02 -.344687825653563D+03 -.604294610330395D+02
 0.668414248489072D+03 0.444174596899040D+02 0.572731945492054D+03 -.341735007675236D+03
0.102474706676D-05 0.000000000000D+00 0.000000000000D+00 0.712638051417D-07 0.000000000000D+00  7 1 -1 23 -13 13 23 21 0 0.32850265D-01 0.36300100D-01 0.30357310D+05 0.30357310D+05 0.30357310D+05 0.11668591D+01  1  2  2  1  7  1        1 0.120625044610D-03 0.100000000000D+01
-.524893758946D-07 0.000000000000D+00 -.393529855848D-08 0.712638051417D-07 0.000000000000D+00  7 1 -1 23 -13 13 23 21 2 0.32850265D-01 0.36300100D-01 0.30357310D+05 0.30357310D+05 0.30357310D+05 0.11668591D+01  1  2  3  1  7  1        1 -.841257738039D-05 0.100000000000D+01
0.655572012153D-07 0.000000000000D+00 0.000000000000D+00 0.712638051417D-07 0.000000000000D+00  7 1 -1 23 -13 13 23 21 2 0.32850265D-01 0.36300100D-01 0.30357310D+05 0.30357310D+05 0.30357310D+05 0.11668591D+01  1  2 15  1  7  1        1 0.105069839118D-04 0.100000000000D+01
  </mgrwgt>
  </event>
  <event>
  9     66 0.56006291E-06 0.28053026E+03 0.75467711E-02 0.10140560E+00
        1 -1    0    0  501    0 0.00000000E+00 0.00000000E+00 0.44274218E+03 0.44274230E+03 0.32000000E+00 0.0000E+00 0.9000E+01
       -1 -1    0    0    0  502 0.00000000E+00 0.00000000E+00 -.78010257E+03 0.78010264E+03 0.32000000E+00 0.0000E+00 0.9000E+01
       25  2    1    2    0    0 -.15124366E+03 0.15621122E+03 -.26895510E+03 0.45909970E+03 0.30192565E+03 0.0000E+00 0.0000E+00
       23  2    1    2    0    0 0.14998867E+03 -.16779714E+03 0.30526347E+03 0.38989404E+03 0.90438335E+02 0.0000E+00 0.0000E+00
       23  1    3    3    0    0 -.14977128E+03 0.29171465E+02 -.40611474E+02 0.18233748E+03 0.91188000E+02 0.0000E+00 0.9000E+01
      -13  1    4    4    0    0 0.65370203E+02 -.51556290E+02 0.50540411E+02 0.97394347E+02 0.10565837E+00 0.0000E+00 0.9000E+01
       13  1    4    4    0    0 0.84618465E+02 -.11624085E+03 0.25472306E+03 0.29249969E+03 0.10565837E+00 0.0000E+00 0.9000E+01
       23  1    3    3    0    0 -.14723796E+01 0.12703976E+03 -.22834362E+03 0.27676222E+03 0.91188000E+02 0.0000E+00 0.9000E+01
       21  1    1    2  501  502 0.12549962E+01 0.11585915E+02 -.37366877E+03 0.37385120E+03 0.75000000E+00 0.0000E+00 0.9000E+01
#aMCatNLO 2  0  0  2  1 0.11653688D+02 0.00000000D+00  -5  7  0 0.00000000D+00 0.00000000D+00 0.00000000D+00 0.00000000D+00 0.00000000D+00
  <mgrwgt>
 0.9259272005D-05    2    2    0
 0.424068467383331D+03 0.000000000000000D+00 0.000000000000000D+00 0.424068467383331D+03
 0.424068467383331D+03 0.000000000000000D+00 0.000000000000000D+00 -.424068467383331D+03
 0.184437113609610D+03 -.149498528090530D+03 0.316895094992894D+02 -.484537162568937D+02
 0.947213174316616D+02 0.655107732802430D+02 -.502582407795067D+02 0.464174083072649D+02
 0.280428158490082D+03 0.850344862148976D+02 -.112400539646477D+03 0.242435985190911D+03
 0.288550345235309D+03 -.104673140461051D+01 0.130969270926694D+03 -.240399677241282D+03
 0.000000000000000D+00 0.000000000000000D+00 0.000000000000000D+00 -.000000000000000D+00
 0.424195531157824D+03 0.000000000000000D+00 0.000000000000000D+00 0.424195531157824D+03
 0.814209050552530D+03 0.000000000000000D+00 0.000000000000000D+00 -.814209050552530D+03
 0.184242845419736D+03 -.149771284829576D+03 0.291714649230220D+02 -.484537162568937D+02
 0.953198708330143D+02 0.653701770435177D+02 -.515562017119023D+02 0.464174083072649D+02
 0.281864242613763D+03 0.846184911547934D+02 -.116240936435615D+03 0.242435985190911D+03
 0.286790034930635D+03 -.147237961816925D+01 0.127039757840063D+03 -.240399677241282D+03
 0.390187587913206D+03 0.125499624943460D+01 0.115859153844324D+02 -.390013519394706D+03
-.621531521949D-03 0.000000000000D+00 0.000000000000D+00 0.123165984242D-06 0.000000000000D+00  7 1 -1 23 -13 13 23 21 2 0.68093735D-01 0.12001668D+00 0.82033468D+05 0.82033468D+05 0.82033468D+05 0.11288492D+01  1  2 13  2  7  2       -1 -.347534346786D-02 0.100000000000D+01
0.623427335831D-03 0.000000000000D+00 0.000000000000D+00 0.123165984242D-06 0.754280608175D-08  7 1 -1 23 -13 13 23 21 2 0.68114138D-01 0.12001569D+00 0.82033468D+05 0.82033468D+05 0.82033468D+05 0.11288492D+01  1  2  1  2  7  2       -1 0.348460273986D-02 0.100000000000D+01
  </mgrwgt>
  </event>
  <event>
  8     66 0.56006291E-06 0.30335882E+03 0.75467711E-02 0.85592883E-01
        1 -1    0    0  501    0 0.00000000E+00 0.00000000E+00 0.12985032E+04 0.12985033E+04 0.32000000E+00 0.0000E+00 0.9000E+01
       -1 -1    0    0    0  501 0.00000000E+00 0.00000000E+00 -.92581195E+02 0.92581748E+02 0.32000000E+00 0.0000E+00 0.9000E+01
       25  2    1    2    0    0 -.19251026E+03 -.11169513E+03 0.37668479E+03 0.52795257E+03 0.29547671E+03 0.0000E+00 0.0000E+00
       23  2    1    2    0    0 0.19251026E+03 0.11169513E+03 0.82923724E+03 0.86313244E+03 0.88471502E+02 0.0000E+00 0.0000E+00
       23  1    3    3    0    0 -.21468491E+03 -.13954506E+02 0.25449342E+03 0.34549456E+03 0.91188000E+02 0.0000E+00 0.9000E+01
      -13  1    4    4    0    0 0.34574561E+02 -.12363164E+02 0.17289814E+03 0.17675414E+03 0.10565837E+00 0.0000E+00 0.9000E+01
       13  1    4    4    0    0 0.15793570E+03 0.12405829E+03 0.65633910E+03 0.68637830E+03 0.10565837E+00 0.0000E+00 0.9000E+01
       23  1    3    3    0    0 0.22174652E+02 -.97740622E+02 0.12219137E+03 0.18245802E+03 0.91188000E+02 0.0000E+00 0.9000E+01
#aMCatNLO 1  0  0  1  1 0.11848667D+04 0.00000000D+00  -5  7  0 0.00000000D+00 0.00000000D+00 0.00000000D+00 0.00000000D+00 0.00000000D+00
  <mgrwgt>
 0.7035106514D-03    3    2    0
 0.346723798470903D+03 0.000000000000000D+00 0.000000000000000D+00 0.346723798470903D+03
 0.346723798470903D+03 0.000000000000000D+00 0.000000000000000D+00 -.346723798470903D+03
 0.250506430856198D+03 -.214684909235062D+03 -.139545068629795D+02 -.902988485045909D+02
 0.539019533647205D+02 0.345743851115098D+02 -.123633582136430D+02 0.394611181338626D+02
 0.235514501182134D+03 0.157935873489966D+03 0.124058487132784D+03 0.123015575852637D+03
 0.153524711538753D+03 0.221746506335869D+02 -.977406220561615D+02 -.721778454819085D+02
 0.000000000000000D+00 0.000000000000000D+00 0.000000000000000D+00 -.000000000000000D+00
 0.126541700222939D+04 0.000000000000000D+00 0.000000000000000D+00 0.126541700222939D+04
 0.129263474515641D+04 0.000000000000000D+00 0.000000000000000D+00 -.129263474515641D+04
 0.797703487660265D+03 -.684786023633830D+03 -.388496876018153D+03 -.902988485045909D+02
 0.736732680835539D+02 -.226405417014170D+02 -.579480496410616D+02 0.394611181338626D+02
 0.123117676413063D+03 -.290346161704238D+01 -.408659438093788D+01 0.123015575852637D+03
 0.378378011423624D+03 -.216373047112153D+03 -.287798073811983D+03 -.721778454819085D+02
 0.118517930380529D+04 0.926703074064442D+03 0.738329593852135D+03 -.272177429270188D+02
0.185625331419D-04 0.000000000000D+00 0.000000000000D+00 0.199009346045D-08 0.000000000000D+00  7 1 -1 23 -13 13 23 21 0 0.19976977D+00 0.14243306D-01 0.92026571D+05 0.92026571D+05 0.92026571D+05 0.11246955D+01  1  2  2  1  7  1        1 0.695972965207D-03 0.100000000000D+01
-.100886780868D-05 0.000000000000D+00 -.712850148923D-07 0.199009346045D-08 0.000000000000D+00  7 1 -1 23 -13 13 23 21 2 0.19976977D+00 0.14243306D-01 0.92026571D+05 0.92026571D+05 0.92026571D+05 0.11246955D+01  1  2  3  1  7  1        1 -.478475030450D-04 0.100000000000D+01
0.116780042791D-05 0.000000000000D+00 0.000000000000D+00 0.199009346045D-08 0.000000000000D+00  7 1 -1 23 -13 13 23 21 2 0.19976977D+00 0.14243306D-01 0.92026571D+05 0.92026571D+05 0.92026571D+05 0.11246955D+01  1  2 15  1  7  1        1 0.553851892682D-04 0.100000000000D+01
  </mgrwgt>
  </event>
  <event>
  8     66 -.56006291E-06 0.57470335E+03 0.75467711E-02 0.92860082E-01
        1 -1    0    0  502    0 0.00000000E+00 0.00000000E+00 0.12113773E+04 0.12113774E+04 0.32000000E+00 0.0000E+00 0.9000E+01
       -1 -1    0    0    0  501 0.00000000E+00 0.00000000E+00 -.31700880E+03 0.31700896E+03 0.32000000E+00 0.0000E+00 0.9000E+01
       25  2    1    2    0    0 -.51388477E+03 0.11859490E+03 0.22864577E+03 0.64838109E+03 0.29996140E+03 0.0000E+00 0.0000E+00
       23  1    3    3    0    0 -.25059968E+03 0.17956449E+03 0.11916325E+03 0.34286840E+03 0.91188000E+02 0.0000E+00 0.9000E+01
      -11  1    1    2    0    0 0.48915365E+03 -.15331028E+03 0.57008652E+03 0.76666419E+03 0.51099893E-03 0.0000E+00 0.9000E+01
       11  1    1    2    0    0 0.27505835E+02 0.12405321E+02 0.81168763E+02 0.86595791E+02 0.51099893E-03 0.0000E+00 0.9000E+01
       23  1    3    3    0    0 -.26328509E+03 -.60969597E+02 0.10948252E+03 0.30551269E+03 0.91188000E+02 0.0000E+00 0.9000E+01
       21  1    1    2  502  501 -.27747115E+01 0.22310067E+02 0.14467453E+02 0.26745239E+02 0.75000000E+00 0.0000E+00 0.9000E+01
#aMCatNLO 2  0  0  1  2 0.22481951D+02 0.00000000D+00  -5  7  0 0.00000000D+00 0.00000000D+00 0.00000000D+00 0.00000000D+00 0.00000000D+00
  <mgrwgt>
 -.1064108560D-03    3    2    0
 0.608316243771989D+03 0.000000000000000D+00 0.000000000000000D+00 0.608316243771989D+03
 0.608316243771989D+03 0.000000000000000D+00 0.000000000000000D+00 -.608316243771989D+03
 0.340871089043481D+03 -.251372552279853D+03 0.185778747073902D+03 -.100875889575523D+03
 0.530034410070490D+03 0.487940558225478D+03 -.143556411435137D+03 0.149137668726741D+03
 0.483430781620252D+02 0.273957882694768D+02 0.132901536852352D+02 0.375485792846613D+02
 0.297383910267980D+03 -.263963794215102D+03 -.555124893240002D+02 -.858103584358795D+02
 0.000000000000000D+00 -.000000000000000D+00 0.000000000000000D+00 -.000000000000000D+00
 0.618942599164630D+03 0.000000000000000D+00 0.000000000000000D+00 0.618942599164630D+03
 0.620428598615327D+03 0.000000000000000D+00 0.000000000000000D+00 -.620428598615327D+03
 0.336949261423391D+03 -.250599683139308D+03 0.179564492989549D+03 -.100875889575523D+03
 0.533870191980009D+03 0.489153651097125D+03 -.153310284292597D+03 0.149137668726741D+03
 0.481701024768480D+02 0.275058352146891D+02 0.124053212564570D+02 0.375485792846613D+02
 0.297850634065459D+03 -.263285091649762D+03 -.609695970896844D+02 -.858103584358795D+02
 0.225310078342499D+02 -.277471152274392D+01 0.223100671362753D+02 -.148599945069766D+01
-.367004745593D-04 0.000000000000D+00 0.000000000000D+00 0.445650351874D-08 0.000000000000D+00  7 1 -1 23 -11 11 23 21 2 0.18815372D+00 0.47817992D-01 0.34338939D+06 0.34338939D+06 0.34338939D+06 0.10802380D+01  1  2 13  1  7  1        1 -.232091319701D-03 0.100000000000D+01
-.807294544583D-04 0.000000000000D+00 0.000000000000D+00 0.445650351874D-08 0.000000000000D+00  7 1 -1 23 -11 11 23 21 2 0.18316428D+00 0.47817992D-01 0.33028394D+06 0.33028394D+06 0.33028394D+06 0.10814753D+01  1  2  8  1  7  1        1 -.540439464324D-03 0.100000000000D+01
0.107111996472D-03 0.000000000000D+00 0.000000000000D+00 0.445650351874D-08 0.548938560212D-10  7 1 -1 23 -11 11 23 21 2 0.18636388D+00 0.48770109D-01 0.34338939D+06 0.34338939D+06 0.34338939D+06 0.10802380D+01  1  2  1  1  7  1        1 0.666119928022D-03 0.100000000000D+01
  </mgrwgt>
  </event>
  <event>
  8     66 0.56006291E-06 0.20811903E+03 0.75467711E-02 0.10420992E+00
        3 -1    0    0  501    0 0.00000000E+00 0.00000000E+00 0.90877675E+03 0.90877689E+03 0.50000000E+00 0.0000E+00 0.9000E+01
       -3 -1    0    0    0  501 0.00000000E+00 0.00000000E+00 -.13527485E+03 0.13527577E+03 0.50000000E+00 0.0000E+00 0.9000E+01
       25  2    1    2    0    0 -.11436895E+03 0.55078592E+02 0.83091181E+02 0.33627911E+03 0.30010929E+03 0.0000E+00 0.0000E+00
       23  2    1    2    0    0 0.11436895E+03 -.55078592E+02 0.69041072E+03 0.70777355E+03 0.90346723E+02 0.0000E+00 0.0000E+00
       23  1    3    3    0    0 -.30697658E+02 0.10504300E+03 0.13193250E+03 0.19415925E+03 0.91188000E+02 0.0000E+00 0.9000E+01
      -11  1    4    4    0    0 0.12123605E+03 -.55722156E+02 0.50793999E+03 0.52517252E+03 0.51099893E-03 0.0000E+00 0.9000E+01
       11  1    4    4    0    0 -.68670965E+01 0.64356312E+00 0.18247073E+03 0.18260103E+03 0.51099893E-03 0.0000E+00 0.9000E+01
       23  1    3    3    0    0 -.83671292E+02 -.49964411E+02 -.48841323E+02 0.14211986E+03 0.91188000E+02 0.0000E+00 0.9000E+01
#aMCatNLO 1  0  0  1  2 0.51664944D+02 0.00000000D+00  -5  7  0 0.00000000D+00 0.00000000D+00 0.00000000D+00 0.00000000D+00 0.00000000D+00
  <mgrwgt>
 0.1064240015D-04    4    2    0
 0.350621152851873D+03 0.000000000000000D+00 0.000000000000000D+00 0.350621152851873D+03
 0.350621152851873D+03 0.000000000000000D+00 0.000000000000000D+00 -.350621152851873D+03
 0.143548730465473D+03 -.306976579930369D+02 0.105043003033628D+03 -.177371920457809D+02
 0.221628408324418D+03 0.121236046489496D+03 -.557221555220859D+02 0.176963311994278D+03
 0.705942019489100D+02 -.686709651548430D+01 0.643563119081900D+00 0.702564599219336D+02
 0.265470964964946D+03 -.836712919809746D+02 -.499644106306235D+02 -.229482579870430D+03
 0.000000000000000D+00 -.000000000000000D+00 -.000000000000000D+00 -.000000000000000D+00
 0.365272841124127D+03 0.000000000000000D+00 0.000000000000000D+00 0.365272841124127D+03
 0.400275907634799D+03 0.000000000000000D+00 0.000000000000000D+00 -.400275907634799D+03
 0.149709943430399D+03 -.256338579834941D+02 0.114569250504428D+03 -.177371920457809D+02
 0.222796564626107D+03 0.128910087814074D+03 -.412854051327907D+02 0.176963311994278D+03
 0.705899356174853D+02 -.442922067141001D+01 0.522980439045365D+01 0.702564599219336D+02
 0.260046527374697D+03 -.745969977840729D+02 -.328934417970148D+02 -.229482579870430D+03
 0.624057777102379D+02 -.242500113750970D+02 -.456202079650760D+02 -.350030665106718D+02
0.564127439052D-05 0.000000000000D+00 0.000000000000D+00 0.628222089929D-06 0.000000000000D+00  7 3 -3 23 -11 11 23 21 0 0.13981189D+00 0.20811597D-01 0.43313529D+05 0.43313529D+05 0.43313529D+05 0.11528201D+01  1  2  2  1  7  1        3 0.191415155809D-04 0.100000000000D+01
-.209733685700D-06 0.000000000000D+00 -.216639790412D-07 0.628222089929D-06 0.000000000000D+00  7 3 -3 23 -11 11 23 21 2 0.13981189D+00 0.20811597D-01 0.43313529D+05 0.43313529D+05 0.43313529D+05 0.11528201D+01  1  2  3  1  7  1        3 -.945780461168D-06 0.100000000000D+01
0.350419275555D-06 0.000000000000D+00 0.000000000000D+00 0.628222089929D-06 0.000000000000D+00  7 3 -3 23 -11 11 23 21 2 0.13981189D+00 0.20811597D-01 0.43313529D+05 0.43313529D+05 0.43313529D+05 0.11528201D+01  1  2 15  1  7  1        3 0.158019300968D-05 0.100000000000D+01
-.202542615943D-05 0.000000000000D+00 0.000000000000D+00 0.628222089929D-06 0.000000000000D+00  7 3 -3 23 -11 11 23 21 2 0.13981189D+00 0.20811597D-01 0.43313529D+05 0.43313529D+05 0.43313529D+05 0.11528201D+01  1  2  4  1  7  1        3 -.913352798210D-05 0.100000000000D+01
  </mgrwgt>
  </event>
  <event>
  9     66 0.56006291E-06 0.36055881E+03 0.75467711E-02 0.97756026E-01
        1 -1    0    0  501    0 0.00000000E+00 0.00000000E+00 0.20458318E+04 0.20458319E+04 0.32000000E+00 0.0000E+00 0.9000E+01
       -1 -1    0    0    0  502 0.00000000E+00 0.00000000E+00 -.11592989E+03 0.11593033E+03 0.32000000E+00 0.0000E+00 0.9000E+01
       25  2    1    2    0    0 0.10663461E+02 -.31661841E+03 0.15195846E+04 0.15809243E+04 0.29970555E+03 0.0000E+00 0.0000E+00
       23  2    1    2    0    0 -.34288946E+02 0.27854087E+03 0.17058199E+03 0.33694925E+03 0.75338088E+02 0.0000E+00 0.0000E+00
       23  1    3    3    0    0 -.10678704E+03 -.11508836E+03 0.74758958E+03 0.76932063E+03 0.91188000E+02 0.0000E+00 0.9000E+01
      -13  1    4    4    0    0 -.34039919E+02 0.51185224E+02 0.52065830E+02 0.80557465E+02 0.10565837E+00 0.0000E+00 0.9000E+01
       13  1    4    4    0    0 -.24902769E+00 0.22735565E+03 0.11851616E+03 0.25639178E+03 0.10565837E+00 0.0000E+00 0.9000E+01
       23  1    3    3    0    0 0.11745050E+03 -.20153004E+03 0.77199505E+03 0.81160371E+03 0.91188000E+02 0.0000E+00 0.9000E+01
       21  1    1    2  501  502 0.23625485E+02 0.38077536E+02 0.23973533E+03 0.24388860E+03 0.75000000E+00 0.0000E+00 0.9000E+01
#aMCatNLO 2  0  0  2  2 0.44811408D+02 0.00000000D+00  -5  7  0 0.00000000D+00 0.00000000D+00 0.00000000D+00 0.00000000D+00 0.00000000D+00
  <mgrwgt>
 0.8157687369D-04    1    2    0
 0.452649930650392D+03 0.000000000000000D+00 0.000000000000000D+00 0.452649930650392D+03
 0.452649930650392D+03 0.000000000000000D+00 0.000000000000000D+00 -.452649930650392D+03
 0.226448275602178D+03 -.100785336221424D+03 -.105415326493280D+03 0.147287117977947D+03
 0.747193815115327D+02 -.321088977458717D+02 0.542972386145667D+02 -.400476533375419D+02
 0.331455567869629D+03 0.826594564295996D+01 0.241079595191220D+03 -.227321570460974D+03
 0.272676636317443D+03 0.124628288324336D+03 -.189961507312506D+03 0.120082105820568D+03
 0.000000000000000D+00 0.000000000000000D+00 0.000000000000000D+00 0.000000000000000D+00
 0.513949641187311D+03 0.000000000000000D+00 0.000000000000000D+00 0.513949641187311D+03
 0.461468361385591D+03 0.000000000000000D+00 0.000000000000000D+00 -.461468361385591D+03
 0.233789544043596D+03 -.106787043608683D+03 -.115088364986127D+03 0.147287117977947D+03
 0.733650244618760D+02 -.340399847520472D+02 0.511848777914739D+02 -.400476533375419D+02
 0.321505687826198D+03 -.248961704115581D+00 0.227355996019069D+03 -.227321570460974D+03
 0.277747985683908D+03 0.117450504624297D+03 -.201530044987501D+03 0.120082105820568D+03
 0.690097605573235D+02 0.236254854405496D+02 0.380775361630858D+02 0.524812798017197D+02
0.799431510246D-05 0.000000000000D+00 0.000000000000D+00 0.512958418166D-08 0.167852420339D-10  7 1 -1 23 -13 13 23 21 2 0.31474202D+00 0.17835326D-01 0.14655348D+06 0.14655348D+06 0.14655348D+06 0.11083494D+01  1  2  1  2  7  2       -1 0.815768736858D-04 0.100000000000D+01
  </mgrwgt>
  </event>
  <event>
  8     66 0.56006291E-06 0.10328030E+03 0.75467711E-02 0.99701538E-01
        1 -1    0    0  501    0 0.00000000E+00 0.00000000E+00 0.18115169E+03 0.18115198E+03 0.32000000E+00 0.0000E+00 0.9000E+01
       -1 -1    0    0    0  501 0.00000000E+00 0.00000000E+00 -.31392208E+03 0.31392224E+03 0.32000000E+00 0.0000E+00 0.9000E+01
       25  2    1    2    0    0 0.11993395E+03 -.38749495E+01 -.84860675E+02 0.33424577E+03 0.30019949E+03 0.0000E+00 0.0000E+00
       23  2    1    2    0    0 -.11993395E+03 0.38749495E+01 -.47909710E+02 0.16082844E+03 0.95766799E+02 0.0000E+00 0.0000E+00
       23  1    3    3    0    0 0.13835339E+03 0.69273294E+02 -.11353797E+03 0.21247722E+03 0.91188000E+02 0.0000E+00 0.9000E+01
      -13  1    4    4    0    0 -.73907854E+02 -.10012519E+02 0.20376339E+02 0.77316414E+02 0.10565837E+00 0.0000E+00 0.9000E+01
       13  1    4    4    0    0 -.46026098E+02 0.13887469E+02 -.68286049E+02 0.83512030E+02 0.10565837E+00 0.0000E+00 0.9000E+01
       23  1    3    3    0    0 -.18419434E+02 -.73148243E+02 0.28677297E+02 0.12176855E+03 0.91188000E+02 0.0000E+00 0.9000E+01
#aMCatNLO 1  0  0  2  1 0.18905896D+03 0.00000000D+00  -5  7  0 0.00000000D+00 0.00000000D+00 0.00000000D+00 0.00000000D+00 0.00000000D+00
  <mgrwgt>
 0.1492204708D-03    7    2    0
 0.238469341054848D+03 0.000000000000000D+00 0.000000000000000D+00 0.238469341054848D+03
 0.238469341054848D+03 0.000000000000000D+00 0.000000000000000D+00 -.238469341054848D+03
 0.188950017799419D+03 0.138353554333614D+03 0.692732882909544D+02 -.587057357931486D+02
 0.859287251444677D+02 -.739080111734132D+02 -.100124751478966D+02 0.426743720604869D+02
 0.676779693537463D+02 -.460262292842033D+02 0.138874339835724D+02 -.476343671216118D+02
 0.134381969812062D+03 -.184193138759973D+02 -.731482471266302D+02 0.636657308542735D+02
 0.000000000000000D+00 0.000000000000000D+00 -.000000000000000D+00 -.000000000000000D+00
 0.316804192797569D+03 0.000000000000000D+00 0.000000000000000D+00 0.316804192797569D+03
 0.404754620534724D+03 0.000000000000000D+00 0.000000000000000D+00 -.404754620534724D+03
 0.171864671745144D+03 0.803174865976908D+02 0.106418757658980D+03 -.587057357931486D+02
 0.114969822055675D+03 -.106221999575806D+03 0.106698059436058D+02 0.426743720604869D+02
 0.911357378174962D+02 -.715709848993843D+02 0.302371277901032D+02 -.476343671216118D+02
 0.135073428975107D+03 -.617604865859040D+02 -.454081147214560D+02 0.636657308542735D+02
 0.208515152738871D+03 0.159235984463404D+03 -.101917576671233D+03 -.879504277371557D+02
0.177332591653D-05 0.000000000000D+00 0.000000000000D+00 0.178375850590D-07 0.000000000000D+00  7 1 -1 23 -13 13 23 21 0 0.27869526D-01 0.48295739D-01 0.44226346D+05 0.44226346D+05 0.44226346D+05 0.11520124D+01  1  2  2  2  7  2       -1 0.157797239260D-03 0.100000000000D+01
-.966253824112D-07 0.000000000000D+00 -.681003844691D-08 0.178375850590D-07 0.000000000000D+00  7 1 -1 23 -13 13 23 21 2 0.27869526D-01 0.48295739D-01 0.44226346D+05 0.44226346D+05 0.44226346D+05 0.11520124D+01  1  2  3  2  7  2       -1 -.114108066238D-04 0.100000000000D+01
0.116921433597D-06 0.000000000000D+00 0.000000000000D+00 0.178375850590D-07 0.000000000000D+00  7 1 -1 23 -13 13 23 21 2 0.27869526D-01 0.48295739D-01 0.44226346D+05 0.44226346D+05 0.44226346D+05 0.11520124D+01  1  2 15  2  7  2       -1 0.138076335188D-04 0.100000000000D+01
0.113223573191D-07 0.000000000000D+00 0.000000000000D+00 0.178375850590D-07 0.000000000000D+00  7 1 -1 23 -13 13 23 21 2 0.27869526D-01 0.85444123D-01 0.10698366D+06 0.10698366D+06 0.10698366D+06 0.11193241D+01  1  2 12  2  7  2       -1 0.425407749109D-06 0.100000000000D+01
-.420379472054D-06 0.000000000000D+00 -.533148381313D-06 0.178375850590D-07 0.000000000000D+00  7 1 -1 23 -13 13 23 21 2 0.27869526D-01 0.10319775D+00 0.44226346D+05 0.44226346D+05 0.44226346D+05 0.11520124D+01  1  2  5  2  7  2       -1 -.113531552388D-04 0.100000000000D+01
0.711410976117D-09 0.000000000000D+00 0.000000000000D+00 0.178375850590D-07 0.000000000000D+00  7 1 21 23 -13 13 23 1 2 0.27869526D-01 0.85444123D-01 0.10698366D+06 0.10698366D+06 0.10698366D+06 0.11193241D+01  1  2 12  4  7  2       -1 0.203156962733D-06 0.100000000000D+01
-.126285484549D-08 0.000000000000D+00 -.438060237383D-07 0.178375850590D-07 0.000000000000D+00  7 1 21 23 -13 13 23 1 2 0.27869526D-01 0.10319775D+00 0.44226346D+05 0.44226346D+05 0.44226346D+05 0.11520124D+01  1  2  5  4  7  2       -1 -.249004821757D-06 0.100000000000D+01
  </mgrwgt>
  </event>
  <event>
  8     66 0.56006291E-06 0.10134509E+03 0.75467711E-02 0.10448551E+00
        1 -1    0    0  501    0 0.00000000E+00 0.00000000E+00 0.77058823E+03 0.77058829E+03 0.32000000E+00 0.0000E+00 0.9000E+01
       -1 -1    0    0    0  501 0.00000000E+00 0.00000000E+00 -.58753456E+02 0.58754328E+02 0.32000000E+00 0.0000E+00 0.9000E+01
       25  2    1    2    0    0 0.55258041E+02 -.47984692E+02 0.40488460E+03 0.50892688E+03 0.29953138E+03 0.0000E+00 0.0000E+00
       23  2    1    2    0    0 -.55258041E+02 0.47984692E+02 0.30695017E+03 0.32041574E+03 0.55604498E+02 0.0000E+00 0.0000E+00
       23  1    3    3    0    0 0.73212509E+02 -.22175747E+02 0.31273448E+02 0.12306549E+03 0.91188000E+02 0.0000E+00 0.9000E+01
      -11  1    4    4    0    0 -.10219580E+01 -.16154560E+01 -.20454235E+01 0.27996167E+01 0.51099893E-03 0.0000E+00 0.9000E+01
       11  1    4    4    0    0 -.54236083E+02 0.49600148E+02 0.30899559E+03 0.31761613E+03 0.51099893E-03 0.0000E+00 0.9000E+01
       23  1    3    3    0    0 -.17954468E+02 -.25808944E+02 0.37361115E+03 0.38586139E+03 0.91188000E+02 0.0000E+00 0.9000E+01
#aMCatNLO 1  0  0  2  1 0.13807434D+03 0.00000000D+00  -5  7  0 0.00000000D+00 0.00000000D+00 0.00000000D+00 0.00000000D+00 0.00000000D+00
  <mgrwgt>
 0.3516407264D-03    9    2    0
 0.212779488379396D+03 0.000000000000000D+00 0.000000000000000D+00 0.212779488379396D+03
 0.212779488379396D+03 0.000000000000000D+00 0.000000000000000D+00 -.212779488379396D+03
 0.187522609021259D+03 0.732125089651168D+02 -.221757471477939D+02 -.144905632463372D+03
 0.887737113464495D+01 -.102195808278737D+01 -.161545594526363D+01 -.866911887265167D+01
 0.102121647408642D+03 -.542360827233236D+02 0.496001475778386D+02 0.709020702133618D+02
 0.127037349194245D+03 -.179544681590058D+02 -.258089444847810D+02 0.826726811226618D+02
 0.000000000000000D+00 0.000000000000000D+00 0.000000000000000D+00 -.000000000000000D+00
 0.274041941073674D+03 0.000000000000000D+00 0.000000000000000D+00 0.274041941073674D+03
 0.318372256076923D+03 0.000000000000000D+00 0.000000000000000D+00 -.318372256076923D+03
 0.178787077552346D+03 0.208935654652751D+02 -.470678697016010D+02 -.144905632463372D+03
 0.985754722081140D+01 -.369781179575303D+01 -.288856419446600D+01 -.866911887265167D+01
 0.116338661426498D+03 -.854381310824981D+02 0.347549469730378D+02 0.709020702133618D+02
 0.142414707811059D+03 -.564395190956643D+02 -.441192263888434D+02 0.826726811226618D+02
 0.145016203139883D+03 0.124681896508640D+03 0.593207133118726D+02 -.443303150032484D+02
0.196114976679D-05 0.000000000000D+00 0.000000000000D+00 0.992031333715D-10 0.000000000000D+00  7 1 -1 23 -11 11 23 21 0 0.11855211D+00 0.90390654D-02 0.21154154D+05 0.21154154D+05 0.21154154D+05 0.11816806D+01  1  2  2  2  7  2       -1 0.366843433051D-03 0.100000000000D+01
-.897776018857D-07 0.000000000000D+00 -.753133148707D-08 0.992031333715D-10 0.000000000000D+00  7 1 -1 23 -11 11 23 21 2 0.11855211D+00 0.90390654D-02 0.21154154D+05 0.21154154D+05 0.21154154D+05 0.11816806D+01  1  2  3  2  7  2       -1 -.234497485962D-04 0.100000000000D+01
0.125737904155D-06 0.000000000000D+00 0.000000000000D+00 0.992031333715D-10 0.000000000000D+00  7 1 -1 23 -11 11 23 21 2 0.11855211D+00 0.90390654D-02 0.21154154D+05 0.21154154D+05 0.21154154D+05 0.11816806D+01  1  2 15  2  7  2       -1 0.328425150542D-04 0.100000000000D+01
0.286416122339D-08 0.000000000000D+00 0.000000000000D+00 0.992031333715D-10 0.000000000000D+00  7 1 -1 23 -11 11 23 21 2 0.11855211D+00 0.14303547D-01 0.51913214D+05 0.51913214D+05 0.51913214D+05 0.11458637D+01  1  2 12  2  7  2       -1 0.350339419415D-06 0.100000000000D+01
-.743533286314D-06 0.000000000000D+00 0.000000000000D+00 0.992031333715D-10 0.000000000000D+00  7 1 -1 23 -11 11 23 21 2 0.11855211D+00 0.90390654D-02 0.21154154D+05 0.21154154D+05 0.21154154D+05 0.11816806D+01  1  2  4  2  7  2       -1 -.194209560857D-03 0.100000000000D+01
-.306956598959D-06 0.000000000000D+00 -.637634287276D-06 0.992031333715D-10 0.000000000000D+00  7 1 -1 23 -11 11 23 21 2 0.11855211D+00 0.17414148D-01 0.21154154D+05 0.21154154D+05 0.21154154D+05 0.11816806D+01  1  2  5  2  7  2       -1 -.294906016228D-04 0.100000000000D+01
0.687970045648D-06 0.000000000000D+00 0.521452693219D-06 0.992031333715D-10 0.000000000000D+00  7 1 -1 23 -11 11 23 21 2 0.11855211D+00 0.90390654D-02 0.21154154D+05 0.21154154D+05 0.21154154D+05 0.11816806D+01  1  2  6  2  7  2       -1 0.179696542048D-03 0.100000000000D+01
0.151084411143D-09 0.000000000000D+00 0.000000000000D+00 0.992031333715D-10 0.000000000000D+00  7 1 21 23 -11 11 23 1 2 0.11855211D+00 0.14303547D-01 0.51913214D+05 0.51913214D+05 0.51913214D+05 0.11458637D+01  1  2 12  4  7  2       -1 0.244754120955D-06 0.100000000000D+01
0.151274502061D-07 0.000000000000D+00 -.453610052256D-07 0.992031333715D-10 0.000000000000D+00  7 1 21 23 -11 11 23 1 2 0.11855211D+00 0.17414148D-01 0.21154154D+05 0.21154154D+05 0.21154154D+05 0.11816806D+01  1  2  5  4  7  2       -1 0.188130538152D-04 0.100000000000D+01
  </mgrwgt>
  </event>
  <event>
  8     66 0.56006291E-06 0.10367570E+03 0.75467711E-02 0.10170334E+00
        3 -1    0    0  501    0 0.00000000E+00 0.00000000E+00 0.88715502E+03 0.88715516E+03 0.50000000E+00 0.0000E+00 0.9000E+01
       -3 -1    0    0    0  501 0.00000000E+00 0.00000000E+00 -.21665811E+03 0.21665869E+03 0.50000000E+00 0.0000E+00 0.9000E+01
       25  2    1    2    0    0 0.88029329E+02 0.14674207E+03 0.80519750E+03 0.87586584E+03 0.29919152E+03 0.0000E+00 0.0000E+00
       23  2    1    2    0    0 -.88029329E+02 -.14674207E+03 -.13470059E+03 0.22794801E+03 0.67332367E+02 0.0000E+00 0.0000E+00
       23  1    3    3    0    0 0.11375920E+03 0.18804233E+03 0.50202010E+03 0.55555423E+03 0.91188000E+02 0.0000E+00 0.9000E+01
      -11  1    4    4    0    0 -.19903023E+02 -.58797692E+02 -.87077452E+02 0.10693821E+03 0.51099893E-03 0.0000E+00 0.9000E+01
       11  1    4    4    0    0 -.68126307E+02 -.87944375E+02 -.47623140E+02 0.12100979E+03 0.51099893E-03 0.0000E+00 0.9000E+01
       23  1    3    3    0    0 -.25729874E+02 -.41300267E+02 0.30317740E+03 0.32031161E+03 0.91188000E+02 0.0000E+00 0.9000E+01
#aMCatNLO 1  0  0  1  2 0.37936226D+02 0.00000000D+00  -5  7  0 0.00000000D+00 0.00000000D+00 0.00000000D+00 0.00000000D+00 0.00000000D+00
  <mgrwgt>
 0.4309007610D-04    6    2    0
 0.438417299888137D+03 0.000000000000000D+00 0.000000000000000D+00 0.438417299888137D+03
 0.438417299888137D+03 0.000000000000000D+00 0.000000000000000D+00 -.438417299888137D+03
 0.315482001392369D+03 0.113759203522588D+03 0.188042334736384D+03 0.207153483724824D+03
 0.201206755168208D+03 -.199030225580737D+02 -.587976921311911D+02 -.191391900085708D+03
 0.188751054569964D+03 -.681263065828663D+02 -.879443752870638D+02 -.152484601871858D+03
 0.171394788645732D+03 -.257298743816482D+02 -.413002673181293D+02 0.136723018232742D+03
 0.000000000000000D+00 -.000000000000000D+00 0.000000000000000D+00 -.000000000000000D+00
 0.456955581184128D+03 0.000000000000000D+00 0.000000000000000D+00 0.456955581184128D+03
 0.458674436165158D+03 0.000000000000000D+00 0.000000000000000D+00 -.458674436165158D+03
 0.308191040233937D+03 0.115146644439285D+03 0.174628607025076D+03 0.207153483724824D+03
 0.203836768063076D+03 -.190019511317556D+02 -.675092175126409D+02 -.191391900085708D+03
 0.192409095575589D+03 -.672783667925758D+02 -.961422259671601D+02 -.152484601871858D+03
 0.173217967156119D+03 -.249632389719012D+02 -.487120702399229D+02 0.136723018232742D+03
 0.379751463205656D+02 -.390308754305288D+01 0.377349066946483D+02 -.171885498103077D+01
0.179807248410D-04 0.000000000000D+00 0.000000000000D+00 0.998348338178D-09 0.000000000000D+00  7 3 -3 23 -11 11 23 21 0 0.13648544D+00 0.33332073D-01 0.66208477D+05 0.66208477D+05 0.66208477D+05 0.11367213D+01  1  2  2  1  7  1        3 0.274453359114D-04 0.100000000000D+01
-.654031537843D-06 0.000000000000D+00 -.690507178232D-07 0.998348338178D-09 0.000000000000D+00  7 3 -3 23 -11 11 23 21 2 0.13648544D+00 0.33332073D-01 0.66208477D+05 0.66208477D+05 0.66208477D+05 0.11367213D+01  1  2  3  1  7  1        3 -.128993562023D-05 0.100000000000D+01
0.109454943570D-05 0.000000000000D+00 0.000000000000D+00 0.998348338178D-09 0.000000000000D+00  7 3 -3 23 -11 11 23 21 2 0.13648544D+00 0.33332073D-01 0.66208477D+05 0.66208477D+05 0.66208477D+05 0.11367213D+01  1  2 15  1  7  1        3 0.215876180814D-05 0.100000000000D+01
0.364173410374D-04 0.000000000000D+00 0.000000000000D+00 0.998348338178D-09 0.000000000000D+00  7 3 -3 23 -11 11 23 21 2 0.14527385D+00 0.33332073D-01 0.78387201D+05 0.78387201D+05 0.78387201D+05 0.11305052D+01  1  2 12  1  7  1        3 0.595945103777D-04 0.100000000000D+01
-.271426750211D-04 0.000000000000D+00 0.000000000000D+00 0.998348338178D-09 0.000000000000D+00  7 3 -3 23 -11 11 23 21 2 0.13648544D+00 0.33332073D-01 0.66208477D+05 0.66208477D+05 0.66208477D+05 0.11367213D+01  1  2  4  1  7  1        3 -.535330504911D-04 0.100000000000D+01
0.405391367258D-06 0.000000000000D+00 0.000000000000D+00 0.998348338178D-09 0.000000000000D+00  7 21 -3 23 -11 11 23 -3 2 0.14527385D+00 0.33332073D-01 0.78387201D+05 0.78387201D+05 0.78387201D+05 0.11305052D+01  1  2 12  3  7  1        3 0.871445411608D-05 0.100000000000D+01
  </mgrwgt>
  </event>
  <event>
  8     66 0.56006291E-06 0.43191269E+03 0.75467711E-02 0.93554576E-01
        1 -1    0    0  501    0 0.00000000E+00 0.00000000E+00 0.71993638E+03 0.71993645E+03 0.32000000E+00 0.0000E+00 0.9000E+01
       -1 -1    0    0    0  501 0.00000000E+00 0.00000000E+00 -.28884371E+03 0.28884389E+03 0.32000000E+00 0.0000E+00 0.9000E+01
       25  2    1    2    0    0 -.34490543E+03 0.15934689E+03 0.94154731E+02 0.49238076E+03 0.29870137E+03 0.0000E+00 0.0000E+00
       23  2    1    2    0    0 0.34490543E+03 -.15934689E+03 0.33693793E+03 0.51639959E+03 0.93755933E+02 0.0000E+00 0.0000E+00
       23  1    3    3    0    0 -.24346495E+03 0.21350856E+03 0.60579331E+02 0.34182772E+03 0.91188000E+02 0.0000E+00 0.9000E+01
      -13  1    4    4    0    0 0.18967917E+03 -.10033808E+03 0.24824955E+03 0.32813682E+03 0.10565837E+00 0.0000E+00 0.9000E+01
       13  1    4    4    0    0 0.15522625E+03 -.59008815E+02 0.88688380E+02 0.18826277E+03 0.10565837E+00 0.0000E+00 0.9000E+01
       23  1    3    3    0    0 -.10144048E+03 -.54161664E+02 0.33575400E+02 0.15055303E+03 0.91188000E+02 0.0000E+00 0.9000E+01
#aMCatNLO 1  0  0  2  2 0.21034028D+03 0.00000000D+00  -5  7  0 0.00000000D+00 0.00000000D+00 0.00000000D+00 0.00000000D+00 0.00000000D+00
  <mgrwgt>
 0.1915189865D-03    4    2    0
 0.456014499294719D+03 0.000000000000000D+00 0.000000000000000D+00 0.456014499294719D+03
 0.456014499294719D+03 0.000000000000000D+00 0.000000000000000D+00 -.456014499294719D+03
 0.349455753706791D+03 -.243464946279877D+03 0.213508558444727D+03 -.945673720612592D+02
 0.245605678985850D+03 0.189679217607119D+03 -.100338131230300D+03 0.119483067332836D+03
 0.166313548366899D+03 0.155226210651546D+03 -.590087629229990D+02 0.910965396972052D+01
 0.150654017529897D+03 -.101440481978788D+03 -.541616642914281D+02 -.340253492412971D+02
 0.000000000000000D+00 0.000000000000000D+00 0.000000000000000D+00 0.000000000000000D+00
 0.655004981242598D+03 0.000000000000000D+00 0.000000000000000D+00 0.655004981242598D+03
 0.527127153084120D+03 0.000000000000000D+00 0.000000000000000D+00 -.527127153084120D+03
 0.316870634349107D+03 -.253039781471220D+03 0.138273745531211D+03 -.945673720612592D+02
 0.269485853959124D+03 0.182277564866344D+03 -.158497039250616D+03 0.119483067332836D+03
 0.179659944317207D+03 0.150254714351229D+03 -.980725782869212D+02 0.910965396972052D+01
 0.169953614243185D+03 -.106047481326766D+03 -.903614240900300D+02 -.340253492412971D+02
 0.246162087458096D+03 0.265549835804117D+02 0.208657296096356D+03 0.127877828158478D+03
0.147741129331D-04 0.000000000000D+00 0.000000000000D+00 0.479982819419D-07 0.000000000000D+00  7 1 -1 23 -13 13 23 21 0 0.11075946D+00 0.44437514D-01 0.18654857D+06 0.18654857D+06 0.18654857D+06 0.11001553D+01  1  2  2  2  7  2       -1 0.232228341267D-03 0.100000000000D+01
-.817841470551D-06 0.000000000000D+00 -.567364837764D-07 0.479982819419D-07 0.000000000000D+00  7 1 -1 23 -13 13 23 21 2 0.11075946D+00 0.44437514D-01 0.18654857D+06 0.18654857D+06 0.18654857D+06 0.11001553D+01  1  2  3  2  7  2       -1 -.155593318604D-04 0.100000000000D+01
0.948351296906D-06 0.000000000000D+00 0.000000000000D+00 0.479982819419D-07 0.000000000000D+00  7 1 -1 23 -13 13 23 21 2 0.11075946D+00 0.44437514D-01 0.18654857D+06 0.18654857D+06 0.18654857D+06 0.11001553D+01  1  2 15  2  7  2       -1 0.180422650112D-04 0.100000000000D+01
-.227030598750D-05 0.000000000000D+00 0.000000000000D+00 0.479982819419D-07 0.000000000000D+00  7 1 -1 23 -13 13 23 21 2 0.11075946D+00 0.44437514D-01 0.18654857D+06 0.18654857D+06 0.18654857D+06 0.11001553D+01  1  2  4  2  7  2       -1 -.431922879386D-04 0.100000000000D+01
  </mgrwgt>
  </event>
  <event>
  9     66 0.56006291E-06 0.26503516E+03 0.75467711E-02 0.89740201E-01
       21 -1    0    0  501  502 0.00000000E+00 0.00000000E+00 0.88477770E+03 0.88477802E+03 0.75000000E+00 0.0000E+00 0.9000E+01
       -1 -1    0    0    0  501 0.00000000E+00 0.00000000E+00 -.80510734E+03 0.80510740E+03 0.32000000E+00 0.0000E+00 0.9000E+01
       25  2    1    2    0    0 0.12438850E+02 -.32181993E+03 0.97254558E+02 0.45122915E+03 0.30071001E+03 0.0000E+00 0.0000E+00
       23  2    1    2    0    0 0.31491421E+03 -.29339989E+03 0.23289394E+03 0.49811940E+03 0.92891866E+02 0.0000E+00 0.0000E+00
       23  1    3    3    0    0 -.10371301E+03 -.90172907E+02 0.51094542E+02 0.17266570E+03 0.91188000E+02 0.0000E+00 0.9000E+01
      -13  1    4    4    0    0 0.16759208E+03 -.21391587E+03 0.12628789E+03 0.29965939E+03 0.10565837E+00 0.0000E+00 0.9000E+01
       13  1    4    4    0    0 0.14732212E+03 -.79484025E+02 0.10660604E+03 0.19846002E+03 0.10565837E+00 0.0000E+00 0.9000E+01
       23  1    3    3    0    0 0.11615186E+03 -.23164702E+03 0.46160016E+02 0.27856345E+03 0.91188000E+02 0.0000E+00 0.9000E+01
       -1  1    1    2    0  502 -.32735306E+03 0.61521982E+03 -.25047814E+03 0.74053687E+03 0.32000000E+00 0.0000E+00 0.9000E+01
#aMCatNLO 2  0  0  1  2 0.69688984D+03 0.00000000D+00  -5  7  0 0.00000000D+00 0.00000000D+00 0.00000000D+00 0.00000000D+00 0.00000000D+00
  <mgrwgt>
 0.2164457925D-05    1    2    0
 0.276861516944870D+03 0.000000000000000D+00 0.000000000000000D+00 0.276861516944870D+03
 0.276861516944870D+03 0.000000000000000D+00 0.000000000000000D+00 -.276861516944870D+03
 0.226694128495325D+03 -.192568291262060D+03 0.768196676840897D+02 -.954821488926528D+01
 0.101712196653084D+03 0.826873593402735D+02 -.543479957203926D+02 0.235471211510950D+02
 0.101287838902388D+03 0.853306428315955D+02 0.370214644896263D+02 0.400913814990957D+02
 0.124028869838943D+03 0.245502890901906D+02 -.594931364533235D+02 -.540902877609254D+02
 0.000000000000000D+00 -.000000000000000D+00 0.000000000000000D+00 -.000000000000000D+00
 0.615502884850663D+03 0.000000000000000D+00 0.000000000000000D+00 0.615502884850663D+03
 0.115733216118616D+04 0.000000000000000D+00 0.000000000000000D+00 -.115733216118616D+04
 0.165208842364463D+03 -.103713009689523D+03 -.901729087086326D+02 -.954821488926528D+01
 0.272766667429954D+03 0.167592112264350D+03 -.213916039260996D+03 0.235471211510950D+02
 0.172130193817345D+03 0.147322100132930D+03 -.794838572636841D+02 0.400913814990957D+02
 0.279986790068737D+03 0.116151853482655D+03 -.231647013733134D+03 -.540902877609254D+02
 0.882742552356327D+03 -.327353056190413D+03 0.615219818966447D+03 -.541829276335499D+03
0.972250117029D-06 0.000000000000D+00 0.000000000000D+00 0.207961489411D-07 0.488030136635D-12  7 21 -1 23 -13 13 23 -1 2 0.13611967D+00 0.12386269D+00 0.62069140D+06 0.62069140D+06 0.62069140D+06 0.10619363D+01  1  2  1  3  7  1        1 0.216445792510D-05 0.100000000000D+01
  </mgrwgt>
  </event>
  <event>
  8     66 0.56006291E-06 0.92286999E+02 0.75467711E-02 0.10238488E+00
        1 -1    0    0  501    0 0.00000000E+00 0.00000000E+00 0.26783121E+04 0.26783121E+04 0.32000000E+00 0.0000E+00 0.9000E+01
       -1 -1    0    0    0  501 0.00000000E+00 0.00000000E+00 -.37367643E+02 0.37369013E+02 0.32000000E+00 0.0000E+00 0.9000E+01
       25  2    1    2    0    0 -.99719205E+02 -.23359025E+02 0.68070799E+03 0.75057925E+03 0.29919272E+03 0.0000E+00 0.0000E+00
       23  2    1    2    0    0 0.99719205E+02 0.23359025E+02 0.19602365E+04 0.19651019E+04 0.92783757E+02 0.0000E+00 0.0000E+00
       23  1    3    3    0    0 -.64094635E+02 0.60448203E+02 0.55941445E+03 0.57360430E+03 0.91188000E+02 0.0000E+00 0.9000E+01
      -13  1    4    4    0    0 0.59584228E+02 -.30371446E+02 0.12207114E+04 0.12225421E+04 0.10565837E+00 0.0000E+00 0.9000E+01
       13  1    4    4    0    0 0.40134976E+02 0.53730470E+02 0.73952507E+03 0.74255984E+03 0.10565837E+00 0.0000E+00 0.9000E+01
       23  1    3    3    0    0 -.35624569E+02 -.83807227E+02 0.12129354E+03 0.17697495E+03 0.91188000E+02 0.0000E+00 0.9000E+01
#aMCatNLO 1  0  0  2  1 0.11222450D+03 0.00000000D+00  -5  7  0 0.00000000D+00 0.00000000D+00 0.00000000D+00 0.00000000D+00 0.00000000D+00
  <mgrwgt>
 0.2287934914D-03    9    2    0
 0.316360705907974D+03 0.000000000000000D+00 0.000000000000000D+00 0.316360705907974D+03
 0.316360705907974D+03 0.000000000000000D+00 0.000000000000000D+00 -.316360705907974D+03
 0.126981425120976D+03 -.640946357037946D+02 0.604482025349659D+02 0.685007051377933D+01
 0.152046991258562D+03 0.595842538710644D+02 -.303715510864272D+02 0.136548793938336D+03
 0.100377631278992D+03 0.401349514451764D+02 0.537305759144947D+02 0.746852043283762D+02
 0.253315364157418D+03 -.356245696124462D+02 -.838072273630334D+02 -.218084068780492D+03
 0.000000000000000D+00 -.000000000000000D+00 0.000000000000000D+00 -.000000000000000D+00
 0.372024423296693D+03 0.000000000000000D+00 0.000000000000000D+00 0.372024423296693D+03
 0.383368867293503D+03 0.000000000000000D+00 0.000000000000000D+00 -.383368867293503D+03
 0.116746279684900D+03 -.610712941344752D+02 0.392149976789704D+02 0.685007051377933D+01
 0.161243044944994D+03 0.634704874466122D+02 -.576649255649281D+02 0.136548793938336D+03
 0.935128805650706D+02 0.425400832081890D+02 0.368391151718688D+02 0.746852043283762D+02
 0.271094654032457D+03 -.291194798089550D+02 -.129493069083943D+03 -.218084068780492D+03
 0.112796431362774D+03 -.158197967113710D+02 0.111103881798032D+03 -.113444439968105D+02
0.105944661030D-04 0.000000000000D+00 0.000000000000D+00 0.796071103686D-07 0.000000000000D+00  7 1 -1 23 -13 13 23 21 0 0.41204813D+00 0.57489749D-02 0.37949479D+05 0.37949479D+05 0.37949479D+05 0.11579812D+01  1  2  2  2  7  2       -1 0.197210806219D-03 0.100000000000D+01
-.420332577075D-06 0.000000000000D+00 -.406855394225D-07 0.796071103686D-07 0.000000000000D+00  7 1 -1 23 -13 13 23 21 2 0.41204813D+00 0.57489749D-02 0.37949479D+05 0.37949479D+05 0.37949479D+05 0.11579812D+01  1  2  3  2  7  2       -1 -.104917442254D-04 0.100000000000D+01
0.659835366146D-06 0.000000000000D+00 0.000000000000D+00 0.796071103686D-07 0.000000000000D+00  7 1 -1 23 -13 13 23 21 2 0.41204813D+00 0.57489749D-02 0.37949479D+05 0.37949479D+05 0.37949479D+05 0.11579812D+01  1  2 15  2  7  2       -1 0.164698723584D-04 0.100000000000D+01
0.228050566169D-05 0.000000000000D+00 0.000000000000D+00 0.796071103686D-07 0.000000000000D+00  7 1 -1 23 -13 13 23 21 2 0.41204813D+00 0.73788214D-02 0.70711012D+05 0.70711012D+05 0.70711012D+05 0.11342867D+01  1  2 12  2  7  2       -1 0.367873373176D-04 0.100000000000D+01
-.443032298486D-05 0.000000000000D+00 0.000000000000D+00 0.796071103686D-07 0.000000000000D+00  7 1 -1 23 -13 13 23 21 2 0.41204813D+00 0.57489749D-02 0.37949479D+05 0.37949479D+05 0.37949479D+05 0.11579812D+01  1  2  4  2  7  2       -1 -.110583424003D-03 0.100000000000D+01
-.436373719560D-05 0.000000000000D+00 -.426213576788D-05 0.796071103686D-07 0.000000000000D+00  7 1 -1 23 -13 13 23 21 2 0.41204813D+00 0.88267529D-02 0.37949479D+05 0.37949479D+05 0.37949479D+05 0.11579812D+01  1  2  5  2  7  2       -1 -.573777549195D-04 0.100000000000D+01
0.599545138825D-05 0.000000000000D+00 0.389828234199D-05 0.796071103686D-07 0.000000000000D+00  7 1 -1 23 -13 13 23 21 2 0.41204813D+00 0.57489749D-02 0.37949479D+05 0.37949479D+05 0.37949479D+05 0.11579812D+01  1  2  6  2  7  2       -1 0.149649934152D-03 0.100000000000D+01
0.770868185671D-07 0.000000000000D+00 0.000000000000D+00 0.796071103686D-07 0.000000000000D+00  7 1 21 23 -13 13 23 1 2 0.41204813D+00 0.73788214D-02 0.70711012D+05 0.70711012D+05 0.70711012D+05 0.11342867D+01  1  2 12  4  7  2       -1 0.184773080954D-04 0.100000000000D+01
-.591607077000D-07 0.000000000000D+00 -.213573702825D-06 0.796071103686D-07 0.000000000000D+00  7 1 21 23 -13 13 23 1 2 0.41204813D+00 0.88267529D-02 0.37949479D+05 0.37949479D+05 0.37949479D+05 0.11579812D+01  1  2  5  4  7  2       -1 -.113488436080D-04 0.100000000000D+01
  </mgrwgt>
  </event>
  <event>
  8     66 0.56006291E-06 0.35346634E+03 0.75467711E-02 0.91984453E-01
        1 -1    0    0  501    0 0.00000000E+00 0.00000000E+00 0.12490161E+04 0.12490162E+04 0.32000000E+00 0.0000E+00 0.9000E+01
       -1 -1    0    0    0  501 0.00000000E+00 0.00000000E+00 -.21395016E+03 0.21395040E+03 0.32000000E+00 0.0000E+00 0.9000E+01
       25  2    1    2    0    0 -.30282781E+03 -.47616036E+02 0.55836240E+02 0.43283001E+03 0.30041998E+03 0.0000E+00 0.0000E+00
       23  2    1    2    0    0 0.30282781E+03 0.47616036E+02 0.97922974E+03 0.10301366E+04 0.91205818E+02 0.0000E+00 0.0000E+00
       23  1    3    3    0    0 -.11656918E+03 -.10094862E+03 0.11222783E+03 0.21139853E+03 0.91188000E+02 0.0000E+00 0.9000E+01
      -11  1    4    4    0    0 0.10499866E+02 0.16657753E+02 0.12966120E+03 0.13114784E+03 0.51099893E-03 0.0000E+00 0.9000E+01
       11  1    4    4    0    0 0.29232794E+03 0.30958283E+02 0.84956854E+03 0.89898873E+03 0.51099893E-03 0.0000E+00 0.9000E+01
       23  1    3    3    0    0 -.18625862E+03 0.53332588E+02 -.56391593E+02 0.22143149E+03 0.91188000E+02 0.0000E+00 0.9000E+01
#aMCatNLO 1  0  0  2  1 0.47352589D+03 0.00000000D+00  -5  7  0 0.00000000D+00 0.00000000D+00 0.00000000D+00 0.00000000D+00 0.00000000D+00
  <mgrwgt>
 0.4599289488D-03    3    2    0
 0.516940430644791D+03 0.000000000000000D+00 0.000000000000000D+00 0.516940430644791D+03
 0.516940430644791D+03 0.000000000000000D+00 0.000000000000000D+00 -.516940430644791D+03
 0.186777582293091D+03 -.116569183397019D+03 -.100948623896101D+03 -.528357333524204D+02
 0.557675513236163D+02 0.104998656045210D+02 0.166577527566372D+02 0.521755869733913D+02
 0.421548553023454D+03 0.292327940579144D+03 0.309582833861710D+02 0.302140931359367D+03
 0.369787174649421D+03 -.186258622786646D+03 0.533325877532927D+02 -.301480784980338D+03
 0.000000000000000D+00 0.000000000000000D+00 0.000000000000000D+00 0.000000000000000D+00
 0.104393281665312D+04 0.000000000000000D+00 0.000000000000000D+00 0.104393281665312D+04
 0.686507466003894D+03 0.000000000000000D+00 0.000000000000000D+00 -.686507466003894D+03
 0.275124021010145D+03 -.202431802821031D+03 -.153648059149895D+03 -.528357333524204D+02
 0.532490084858732D+02 -.976515906501286D+01 0.421979823518498D+01 0.521755869733913D+02
 0.342132808388975D+03 0.150367658070404D+03 -.561719109506137D+02 0.302140931359367D+03
 0.466655717280997D+03 -.341744503732145D+03 -.420991399383836D+02 -.301480784980338D+03
 0.593278727491023D+03 0.403573807547784D+03 0.247699311803707D+03 0.357425350649226D+03
0.436032010301D-04 0.000000000000D+00 0.000000000000D+00 0.238270838548D-05 0.000000000000D+00  7 1 -1 23 -11 11 23 21 0 0.19215635D+00 0.32915431D-01 0.12493846D+06 0.12493846D+06 0.12493846D+06 0.11138723D+01  1  2  2  2  7  2       -1 0.451672710061D-03 0.100000000000D+01
-.199678882560D-05 0.000000000000D+00 -.167447772942D-06 0.238270838548D-05 0.000000000000D+00  7 1 -1 23 -11 11 23 21 2 0.19215635D+00 0.32915431D-01 0.12493846D+06 0.12493846D+06 0.12493846D+06 0.11138723D+01  1  2  3  2  7  2       -1 -.256630606117D-04 0.100000000000D+01
0.263918941639D-05 0.000000000000D+00 0.000000000000D+00 0.238270838548D-05 0.000000000000D+00  7 1 -1 23 -11 11 23 21 2 0.19215635D+00 0.32915431D-01 0.12493846D+06 0.12493846D+06 0.12493846D+06 0.11138723D+01  1  2 15  2  7  2       -1 0.339192993722D-04 0.100000000000D+01
  </mgrwgt>
  </event>
  <event>
  8     66 0.56006291E-06 0.64109039E+02 0.75467711E-02 0.10121804E+00
        1 -1    0    0  501    0 0.00000000E+00 0.00000000E+00 0.24927895E+03 0.24927915E+03 0.32000000E+00 0.0000E+00 0.9000E+01
       -1 -1    0    0    0  501 0.00000000E+00 0.00000000E+00 -.15628936E+03 0.15628968E+03 0.32000000E+00 0.0000E+00 0.9000E+01
       25  2    1    2    0    0 -.16401200E+02 -.43233647E+01 0.52203584E+02 0.30439034E+03 0.29940036E+03 0.0000E+00 0.0000E+00
       23  2    1    2    0    0 0.16401200E+02 0.43233647E+01 0.40786006E+02 0.10117850E+03 0.91026916E+02 0.0000E+00 0.0000E+00
       23  1    3    3    0    0 -.12549392E+03 -.18388577E+02 0.38288540E+02 0.16083571E+03 0.91188000E+02 0.0000E+00 0.9000E+01
      -11  1    4    4    0    0 -.51061189E+01 -.40472157E+02 0.29165553E+02 0.50146759E+02 0.51099893E-03 0.0000E+00 0.9000E+01
       11  1    4    4    0    0 0.21507319E+02 0.44795522E+02 0.11620453E+02 0.51031740E+02 0.51099893E-03 0.0000E+00 0.9000E+01
       23  1    3    3    0    0 0.10909272E+03 0.14065212E+02 0.13915044E+02 0.14355463E+03 0.91188000E+02 0.0000E+00 0.9000E+01
#aMCatNLO 1  0  0  2  1 0.16006429D+03 0.00000000D+00  -5  7  0 0.00000000D+00 0.00000000D+00 0.00000000D+00 0.00000000D+00 0.00000000D+00
  <mgrwgt>
 0.1080323222D-03    7    2    0
 0.197382254784072D+03 0.000000000000000D+00 0.000000000000000D+00 0.197382254784072D+03
 0.197382254784072D+03 0.000000000000000D+00 0.000000000000000D+00 -.197382254784072D+03
 0.156218526517292D+03 -.125493955342910D+03 -.183885870880169D+02 0.145042081197495D+01
 0.446490579367075D+02 -.510607749777097D+01 -.404721286956491D+02 0.181513951547820D+02
 0.496911562299098D+02 0.215073527000440D+02 0.447955132374273D+02 -.823474145839054D-01
 0.144205768884235D+03 0.109092680140637D+03 0.140652025462387D+02 -.195194685521730D+02
 0.000000000000000D+00 -.000000000000000D+00 -.000000000000000D+00 -.000000000000000D+00
 0.247151362175654D+03 0.000000000000000D+00 0.000000000000000D+00 0.247151362175654D+03
 0.400489156580821D+03 0.000000000000000D+00 0.000000000000000D+00 -.400489156580821D+03
 0.117144863192726D+03 -.727751748379856D+02 -.104564733639644D+02 0.145042081197495D+01
 0.436908004816108D+02 0.119304745099128D+02 -.379087942122564D+02 0.181513951547820D+02
 0.649464104338042D+02 0.436154803501071D+02 0.481219214180905D+02 -.823474145839054D-01
 0.200198670129517D+03 0.175511896132025D+03 0.240586957503709D+02 -.195194685521730D+02
 0.221659774518817D+03 -.158282676154060D+03 -.238153495922407D+02 -.153337794405167D+03
0.656708575888D-06 0.000000000000D+00 0.000000000000D+00 0.408359001151D-07 0.000000000000D+00  7 1 -1 23 -11 11 23 21 0 0.38350648D-01 0.24044557D-01 0.37942060D+05 0.37942060D+05 0.37942060D+05 0.11579889D+01  1  2  2  2  7  2       -1 0.124996074230D-03 0.100000000000D+01
-.364760402581D-07 0.000000000000D+00 -.252193384675D-08 0.408359001151D-07 0.000000000000D+00  7 1 -1 23 -11 11 23 21 2 0.38350648D-01 0.24044557D-01 0.37942060D+05 0.37942060D+05 0.37942060D+05 0.11579889D+01  1  2  3  2  7  2       -1 -.930979562664D-05 0.100000000000D+01
0.422750791015D-07 0.000000000000D+00 0.000000000000D+00 0.408359001151D-07 0.000000000000D+00  7 1 -1 23 -11 11 23 21 2 0.38350648D-01 0.24044557D-01 0.37942060D+05 0.37942060D+05 0.37942060D+05 0.11579889D+01  1  2 15  2  7  2       -1 0.107898868339D-04 0.100000000000D+01
0.225792673050D-07 0.000000000000D+00 0.000000000000D+00 0.408359001151D-07 0.000000000000D+00  7 1 -1 23 -11 11 23 21 2 0.38350648D-01 0.49098840D-01 0.84428942D+05 0.84428942D+05 0.84428942D+05 0.11278047D+01  1  2 12  2  7  2       -1 0.164098823551D-05 0.100000000000D+01
-.263376083281D-06 0.000000000000D+00 -.199721502112D-06 0.408359001151D-07 0.000000000000D+00  7 1 -1 23 -11 11 23 21 2 0.38350648D-01 0.59072766D-01 0.37942060D+05 0.37942060D+05 0.37942060D+05 0.11579889D+01  1  2  5  2  7  2       -1 -.145332716472D-04 0.100000000000D+01
0.174319412298D-08 0.000000000000D+00 0.000000000000D+00 0.408359001151D-07 0.000000000000D+00  7 1 21 23 -11 11 23 1 2 0.38350648D-01 0.49098840D-01 0.84428942D+05 0.84428942D+05 0.84428942D+05 0.11278047D+01  1  2 12  4  7  2       -1 0.118885053989D-05 0.100000000000D+01
-.135429561850D-07 0.000000000000D+00 -.197078604837D-07 0.408359001151D-07 0.000000000000D+00  7 1 21 23 -11 11 23 1 2 0.38350648D-01 0.59072766D-01 0.37942060D+05 0.37942060D+05 0.37942060D+05 0.11579889D+01  1  2  5  4  7  2       -1 -.674041039627D-05 0.100000000000D+01
  </mgrwgt>
  </event>
  <event>
  9     66 0.56006291E-06 0.23250123E+03 0.75467711E-02 0.99583885E-01
        3 -1    0    0  501    0 0.00000000E+00 0.00000000E+00 0.15198345E+03 0.15198428E+03 0.50000000E+00 0.0000E+00 0.9000E+01
       21 -1    0    0  502  501 0.00000000E+00 0.00000000E+00 -.95301007E+03 0.95301037E+03 0.75000000E+00 0.0000E+00 0.9000E+01
       25  2    1    2    0    0 0.17329525E+03 0.87049780E+02 -.42856424E+03 0.55718740E+03 0.29863285E+03 0.0000E+00 0.0000E+00
       23  2    1    2    0    0 -.19903913E+03 0.78937666E+02 -.23779195E+03 0.33251453E+03 0.90405585E+02 0.0000E+00 0.0000E+00
       23  1    3    3    0    0 0.14013289E+03 0.56694939E+02 -.41947827E+03 0.45511407E+03 0.91188000E+02 0.0000E+00 0.9000E+01
      -13  1    4    4    0    0 -.61872598E+02 0.24045416E+02 -.14112603E+03 0.15595823E+03 0.10565837E+00 0.0000E+00 0.9000E+01
       13  1    4    4    0    0 -.13716653E+03 0.54892250E+02 -.96665916E+02 0.17655630E+03 0.10565837E+00 0.0000E+00 0.9000E+01
       23  1    3    3    0    0 0.33162367E+02 0.30354842E+02 -.90859682E+01 0.10207333E+03 0.91188000E+02 0.0000E+00 0.9000E+01
        3  1    1    2  502    0 0.25743875E+02 -.16598745E+03 -.13467043E+03 0.21529272E+03 0.50000000E+00 0.0000E+00 0.9000E+01
#aMCatNLO 2  0  0  2  1 0.16797196D+03 0.00000000D+00  -5  7  0 0.00000000D+00 0.00000000D+00 0.00000000D+00 0.00000000D+00 0.00000000D+00
  <mgrwgt>
 0.8228956920D-05    1    2    0
 0.282543964967311D+03 0.000000000000000D+00 0.000000000000000D+00 0.282543964967311D+03
 0.282543964967311D+03 0.000000000000000D+00 0.000000000000000D+00 -.282543964967311D+03
 0.211632259520719D+03 0.149594114272512D+03 -.430771889085623D+01 -.118642346819443D+03
 0.692493938792026D+02 -.586372550258465D+02 0.318567946131416D+01 -.367015302411295D+02
 0.141616866232749D+03 -.130504222507543D+03 0.119354040133897D+02 0.536798923277911D+02
 0.142589410301951D+03 0.395473632608772D+02 -.108133645838476D+02 0.101663984732781D+03
 0.000000000000000D+00 0.000000000000000D+00 -.000000000000000D+00 0.000000000000000D+00
 0.401163638698291D+03 0.000000000000000D+00 0.000000000000000D+00 0.401163638698291D+03
 0.361054909640740D+03 0.000000000000000D+00 0.000000000000000D+00 -.361054909640740D+03
 0.212703550019280D+03 0.140132887949513D+03 0.566949389532131D+02 -.118642346819443D+03
 0.758510913666515D+02 -.618724958413135D+02 0.240453737304750D+02 -.367015302411295D+02
 0.157192175862008D+03 -.137166634472449D+03 0.548922918032295D+02 0.536798923277911D+02
 0.143777523114551D+03 0.331623674449127D+02 0.303548415027413D+02 0.101663984732781D+03
 0.172694207976540D+03 0.257438749193365D+02 -.165987445989659D+03 0.401087290575506D+02
0.211552244632D-06 0.000000000000D+00 0.000000000000D+00 0.100364905911D-06 0.100447784408D-11  7 3 21 23 -13 13 23 3 2 0.23382133D-01 0.14661688D+00 0.10900048D+06 0.10900048D+06 0.10900048D+06 0.11186635D+01  1  2  1  4  7  2       -3 0.822895691955D-05 0.100000000000D+01
  </mgrwgt>
  </event>
  <event>
  9     66 0.56006291E-06 0.31894954E+03 0.75467711E-02 0.96202696E-01
        1 -1    0    0  502    0 0.00000000E+00 0.00000000E+00 0.66452376E+03 0.66452384E+03 0.32000000E+00 0.0000E+00 0.9000E+01
       -1 -1    0    0    0  501 0.00000000E+00 0.00000000E+00 -.33976250E+03 0.33976265E+03 0.32000000E+00 0.0000E+00 0.9000E+01
       25  2    1    2    0    0 0.36286911E+03 -.52562927E+02 0.52124976E+02 0.47679425E+03 0.30029801E+03 0.0000E+00 0.0000E+00
       23  2    1    2    0    0 -.16195409E+03 0.93003106E+02 0.24364086E+03 0.32050540E+03 0.92109386E+02 0.0000E+00 0.0000E+00
       23  1    3    3    0    0 0.21763101E+03 -.13423292E+03 -.23193046E+02 0.27246082E+03 0.91188000E+02 0.0000E+00 0.9000E+01
      -11  1    4    4    0    0 -.16797810E+03 0.69871247E+02 0.19738884E+03 0.26844177E+03 0.51099893E-03 0.0000E+00 0.9000E+01
       11  1    4    4    0    0 0.60240114E+01 0.23131860E+02 0.46252026E+02 0.52063630E+02 0.51099893E-03 0.0000E+00 0.9000E+01
       23  1    3    3    0    0 0.14523810E+03 0.81669990E+02 0.75318022E+02 0.20433343E+03 0.91188000E+02 0.0000E+00 0.9000E+01
       21  1    1    2  502  501 -.20091502E+03 -.40440179E+02 0.28995421E+02 0.20698684E+03 0.75000000E+00 0.0000E+00 0.9000E+01
#aMCatNLO 2  0  0  1  2 0.20494451D+03 0.00000000D+00  -5  7  0 0.00000000D+00 0.00000000D+00 0.00000000D+00 0.00000000D+00 0.00000000D+00
  <mgrwgt>
 0.3621981923D-04    1    2    0
 0.355741144435565D+03 0.000000000000000D+00 0.000000000000000D+00 0.355741144435565D+03
 0.355741144435565D+03 0.000000000000000D+00 0.000000000000000D+00 -.355741144435565D+03
 0.261138888907344D+03 0.139611823006374D+03 -.149936620223773D+03 -.133812618046547D+03
 0.262229118690552D+03 -.233355928759548D+03 0.567119956211439D+02 0.105322698193029D+03
 0.361003695423590D+02 -.417307550005601D+01 0.210793897391800D+02 0.290082996776692D+02
 0.152013911730875D+03 0.979171812532295D+02 0.721452348634491D+02 -.518379824151722D+00
 0.000000000000000D+00 -.000000000000000D+00 -.000000000000000D+00 -.000000000000000D+00
 0.450128995671445D+03 0.000000000000000D+00 0.000000000000000D+00 0.450128995671445D+03
 0.501588945956039D+03 0.000000000000000D+00 0.000000000000000D+00 -.501588945956039D+03
 0.302659543574246D+03 0.217631006665852D+03 -.134232917578766D+03 -.133812618046547D+03
 0.210217751204233D+03 -.167978096917367D+03 0.698712467523259D+02 0.105322698193029D+03
 0.375879380985843D+02 0.602401139514846D+01 0.231318595669405D+02 0.290082996776692D+02
 0.189946342688933D+03 0.145238100143319D+03 0.816699902413295D+02 -.518379824151722D+00
 0.211306366061488D+03 -.200915021286952D+03 -.404401789818299D+02 -.514599502845939D+02
0.226329801920D-05 0.000000000000D+00 0.000000000000D+00 0.434373972571D-06 0.766152605174D-10  7 1 -1 23 -11 11 23 21 2 0.10223430D+00 0.52271097D-01 0.19018134D+06 0.19018134D+06 0.19018134D+06 0.10995084D+01  1  2  1  1  7  1        1 0.362198192265D-04 0.100000000000D+01
  </mgrwgt>
  </event>
  <event>
  8     66 -.56006291E-06 0.79308583E+02 0.75467711E-02 0.10472230E+00
        1 -1    0    0  501    0 0.00000000E+00 0.00000000E+00 0.11528755E+03 0.11528799E+03 0.32000000E+00 0.0000E+00 0.9000E+01
       -1 -1    0    0    0  501 0.00000000E+00 0.00000000E+00 -.69821650E+03 0.69821657E+03 0.32000000E+00 0.0000E+00 0.9000E+01
       25  2    1    2    0    0 0.40971498E+02 -.61847607E+02 -.61841477E+03 0.69124666E+03 0.29980214E+03 0.0000E+00 0.0000E+00
       23  2    1    2    0    0 -.40971498E+02 0.61847607E+02 0.35485826E+02 0.12225790E+03 0.90465244E+02 0.0000E+00 0.0000E+00
       23  1    3    3    0    0 -.28548552E+02 -.46305519E+02 -.62063640E+02 0.12298930E+03 0.91188000E+02 0.0000E+00 0.9000E+01
      -11  1    4    4    0    0 -.20033692E+00 0.37147357E+02 0.58519980E+02 0.69314892E+02 0.51099893E-03 0.0000E+00 0.9000E+01
       11  1    4    4    0    0 -.40771161E+02 0.24700250E+02 -.23034153E+02 0.52943009E+02 0.51099893E-03 0.0000E+00 0.9000E+01
       23  1    3    3    0    0 0.69520051E+02 -.15542088E+02 -.55635113E+03 0.56825736E+03 0.91188000E+02 0.0000E+00 0.9000E+01
#aMCatNLO 1  0  0  1  2 0.10464462D+03 0.00000000D+00  -5  7  0 0.00000000D+00 0.00000000D+00 0.00000000D+00 0.00000000D+00 0.00000000D+00
  <mgrwgt>
 -.2995848456D-03    7    2    0
 0.283717956234025D+03 0.000000000000000D+00 0.000000000000000D+00 0.283717956234025D+03
 0.283717956234025D+03 0.000000000000000D+00 0.000000000000000D+00 -.283717956234025D+03
 0.112565423028628D+03 -.285485523348086D+02 -.463055189264344D+02 0.373698032394385D+02
 0.159491088415340D+03 -.200336927906047D+00 0.371473570762621D+02 0.155104613120544D+03
 0.522386823966905D+02 -.407711614353851D+02 0.247002501127789D+02 0.213656260876727D+02
 0.243140718627391D+03 0.695200506980997D+02 -.155420882626065D+02 -.213840042447656D+03
 0.000000000000000D+00 -.000000000000000D+00 -.000000000000000D+00 0.000000000000000D+00
 0.410944673499211D+04 0.000000000000000D+00 0.000000000000000D+00 0.410944673499211D+04
 0.289218649333298D+03 0.000000000000000D+00 0.000000000000000D+00 -.289218649333298D+03
 0.105344437647631D+03 -.119742489508409D+02 -.352464802101494D+02 0.373698032394385D+02
 0.165952071695979D+03 0.245529883836817D+02 0.536637666432814D+02 0.155104613120544D+03
 0.493933693607089D+02 -.330409905558542D+02 0.298581295759317D+02 0.213656260876727D+02
 0.256314463300561D+03 0.107508793778741D+03 0.980552187696601D+01 -.213840042447656D+03
 0.382166104232053D+04 -.870465426557274D+02 -.580809378860297D+02 0.382022808565881D+04
0.220691925804D-05 0.000000000000D+00 0.000000000000D+00 0.371533076430D-06 0.000000000000D+00  7 1 -1 23 -11 11 23 21 0 0.17736586D-01 0.10741796D+00 0.23518263D+05 0.23518263D+05 0.23518263D+05 0.11772734D+01  1  2  2  1  7  1        1 0.740699851658D-04 0.100000000000D+01
-.661846396801D-07 0.000000000000D+00 -.847515104605D-08 0.371533076430D-06 0.000000000000D+00  7 1 -1 23 -11 11 23 21 2 0.17736586D-01 0.10741796D+00 0.23518263D+05 0.23518263D+05 0.23518263D+05 0.11772734D+01  1  2  3  1  7  1        1 -.307870198834D-05 0.100000000000D+01
0.137647780095D-06 0.000000000000D+00 0.000000000000D+00 0.371533076430D-06 0.000000000000D+00  7 1 -1 23 -11 11 23 21 2 0.17736586D-01 0.10741796D+00 0.23518263D+05 0.23518263D+05 0.23518263D+05 0.11772734D+01  1  2 15  1  7  1        1 0.640294328593D-05 0.100000000000D+01
0.102033272116D-03 0.000000000000D+00 0.000000000000D+00 0.371533076430D-06 0.000000000000D+00  7 1 -1 23 -11 11 23 21 2 0.25296523D+00 0.10741796D+00 0.50175756D+05 0.50175756D+05 0.50175756D+05 0.11471614D+01  1  2 12  1  7  1        1 0.847854756344D-04 0.100000000000D+01
-.439709785152D-03 0.000000000000D+00 -.240481089600D-05 0.371533076430D-06 0.000000000000D+00  7 1 -1 23 -11 11 23 21 2 0.25726696D+00 0.10741796D+00 0.23518263D+05 0.23518263D+05 0.23518263D+05 0.11772734D+01  1  2  5  1  7  1        1 -.391392451117D-03 0.100000000000D+01
0.307888557626D-04 0.000000000000D+00 0.000000000000D+00 0.371533076430D-06 0.000000000000D+00  7 21 -1 23 -11 11 23 -1 2 0.25296523D+00 0.10741796D+00 0.50175756D+05 0.50175756D+05 0.50175756D+05 0.11471614D+01  1  2 12  3  7  1        1 0.189212649318D-04 0.100000000000D+01
-.133702222551D-03 0.000000000000D+00 -.728378869779D-06 0.371533076430D-06 0.000000000000D+00  7 21 -1 23 -11 11 23 -1 2 0.25726696D+00 0.10741796D+00 0.23518263D+05 0.23518263D+05 0.23518263D+05 0.11772734D+01  1  2  5  3  7  1        1 -.892933615516D-04 0.100000000000D+01
  </mgrwgt>
  </event>
  <event>
  8     66 0.56006291E-06 0.13405796E+03 0.75467711E-02 0.10037081E+00
        3 -1    0    0  501    0 0.00000000E+00 0.00000000E+00 0.44662127E+03 0.44662155E+03 0.50000000E+00 0.0000E+00 0.9000E+01
       -3 -1    0    0    0  501 0.00000000E+00 0.00000000E+00 -.10679849E+03 0.10679966E+03 0.50000000E+00 0.0000E+00 0.9000E+01
       25  2    1    2    0    0 0.24080041E+02 -.79409889E+02 0.21329778E+03 0.37635435E+03 0.29876559E+03 0.0000E+00 0.0000E+00
       23  2    1    2    0    0 -.24080041E+02 0.79409889E+02 0.12652500E+03 0.17706686E+03 0.91969106E+02 0.0000E+00 0.0000E+00
       23  1    3    3    0    0 0.84735848E+02 0.48224619E+02 0.51815029E+02 0.14319856E+03 0.91188000E+02 0.0000E+00 0.9000E+01
      -13  1    4    4    0    0 -.92367805E+01 0.86374159E+02 0.13347979E+03 0.15925665E+03 0.10565837E+00 0.0000E+00 0.9000E+01
       13  1    4    4    0    0 -.14843261E+02 -.69642700E+01 -.69547861E+01 0.17810212E+02 0.10565837E+00 0.0000E+00 0.9000E+01
       23  1    3    3    0    0 -.60655806E+02 -.12763451E+03 0.16148275E+03 0.23315579E+03 0.91188000E+02 0.0000E+00 0.9000E+01
#aMCatNLO 1  0  0  2  1 0.18178428D+03 0.00000000D+00  -5  7  0 0.00000000D+00 0.00000000D+00 0.00000000D+00 0.00000000D+00 0.00000000D+00
  <mgrwgt>
 0.3297290328D-04    7    2    0
 0.218400725760095D+03 0.000000000000000D+00 0.000000000000000D+00 0.218400725760095D+03
 0.218400725760095D+03 0.000000000000000D+00 0.000000000000000D+00 -.218400725760095D+03
 0.141119468689407D+03 0.847358602162803D+02 0.482245769817851D+02 -.457567182773780D+02
 0.979314119019135D+02 -.923680829721098D+01 0.863743184662832D+02 0.452185793570287D+02
 0.279758226171631D+02 -.148432608907450D+02 -.696433782872746D+01 -.226676477792384D+02
 0.169774748311707D+03 -.606557910283244D+02 -.127634557619341D+03 0.232057866995878D+02
 0.000000000000000D+00 0.000000000000000D+00 0.000000000000000D+00 -.000000000000000D+00
 0.289106869689274D+03 0.000000000000000D+00 0.000000000000000D+00 0.289106869689274D+03
 0.393776125497003D+03 0.000000000000000D+00 0.000000000000000D+00 -.393776125497003D+03
 0.126043010421063D+03 0.739026641187017D+02 -.403832894242942D+01 -.457567182773780D+02
 0.716556391305543D+02 -.161134093287695D+02 0.531993302584144D+02 0.452185793570287D+02
 0.343936488905107D+02 -.173722863646612D+02 -.191651896579273D+02 -.226676477792384D+02
 0.241026116138630D+03 -.773133933101371D+02 -.207996317264027D+03 0.232057866995878D+02
 0.209764580605518D+03 0.368964248848660D+02 0.178000505605969D+03 -.104669255807729D+03
0.126700054142D-05 0.000000000000D+00 0.000000000000D+00 0.212867624928D-07 0.000000000000D+00  7 3 -3 23 -13 13 23 21 0 0.68711076D-01 0.16430648D-01 0.40993981D+05 0.40993981D+05 0.40993981D+05 0.11549601D+01  1  2  2  2  7  2       -3 0.348453488204D-04 0.100000000000D+01
-.698979531150D-07 0.000000000000D+00 -.486561568795D-08 0.212867624928D-07 0.000000000000D+00  7 3 -3 23 -13 13 23 21 2 0.68711076D-01 0.16430648D-01 0.40993981D+05 0.40993981D+05 0.40993981D+05 0.11549601D+01  1  2  3  2  7  2       -3 -.256428565311D-05 0.100000000000D+01
0.820854540491D-07 0.000000000000D+00 0.000000000000D+00 0.212867624928D-07 0.000000000000D+00  7 3 -3 23 -13 13 23 21 2 0.68711076D-01 0.16430648D-01 0.40993981D+05 0.40993981D+05 0.40993981D+05 0.11549601D+01  1  2 15  2  7  2       -3 0.301139794180D-05 0.100000000000D+01
0.884692889904D-08 0.000000000000D+00 0.000000000000D+00 0.212867624928D-07 0.000000000000D+00  7 3 -3 23 -13 13 23 21 2 0.68711076D-01 0.30541881D-01 0.96282376D+05 0.96282376D+05 0.96282376D+05 0.11230747D+01  1  2 12  2  7  2       -3 0.102792654077D-06 0.100000000000D+01
-.287859422890D-06 0.000000000000D+00 -.388560402385D-06 0.212867624928D-07 0.000000000000D+00  7 3 -3 23 -13 13 23 21 2 0.68711076D-01 0.38452460D-01 0.40993981D+05 0.40993981D+05 0.40993981D+05 0.11549601D+01  1  2  5  2  7  2       -3 -.225684187109D-05 0.100000000000D+01
0.597817295842D-09 0.000000000000D+00 0.000000000000D+00 0.212867624928D-07 0.000000000000D+00  7 3 21 23 -13 13 23 3 2 0.68711076D-01 0.30541881D-01 0.96282376D+05 0.96282376D+05 0.96282376D+05 0.11230747D+01  1  2 12  4  7  2       -3 0.112804446703D-06 0.100000000000D+01
-.214706351752D-08 0.000000000000D+00 -.360282632136D-07 0.212867624928D-07 0.000000000000D+00  7 3 21 23 -13 13 23 3 2 0.68711076D-01 0.38452460D-01 0.40993981D+05 0.40993981D+05 0.40993981D+05 0.11549601D+01  1  2  5  4  7  2       -3 -.278313055884D-06 0.100000000000D+01
  </mgrwgt>
  </event>
  <event>
  8     66 0.56006291E-06 0.35980653E+03 0.75467711E-02 0.89418701E-01
        1 -1    0    0  501    0 0.00000000E+00 0.00000000E+00 0.40307235E+03 0.40307248E+03 0.32000000E+00 0.0000E+00 0.9000E+01
       -1 -1    0    0    0  501 0.00000000E+00 0.00000000E+00 -.46393778E+03 0.46393789E+03 0.32000000E+00 0.0000E+00 0.9000E+01
       25  2    1    2    0    0 -.30699938E+03 0.10717007E+03 -.21985975E+03 0.49410668E+03 0.30011507E+03 0.0000E+00 0.0000E+00
       23  2    1    2    0    0 0.30699938E+03 -.10717007E+03 0.15899432E+03 0.37290369E+03 0.89687930E+02 0.0000E+00 0.0000E+00
       23  1    3    3    0    0 -.13835988E+03 0.10022865E+03 -.23161009E+03 0.30190681E+03 0.91188000E+02 0.0000E+00 0.9000E+01
      -13  1    4    4    0    0 0.86898917E+02 -.68475558E+02 0.77293015E+02 0.13496127E+03 0.10565837E+00 0.0000E+00 0.9000E+01
       13  1    4    4    0    0 0.22010047E+03 -.38694511E+02 0.81701305E+02 0.23794242E+03 0.10565837E+00 0.0000E+00 0.9000E+01
       23  1    3    3    0    0 -.16863950E+03 0.69414209E+01 0.11750341E+02 0.19219986E+03 0.91188000E+02 0.0000E+00 0.9000E+01
#aMCatNLO 1  0  0  1  1 0.66776836D+03 0.00000000D+00  -5  7  0 0.00000000D+00 0.00000000D+00 0.00000000D+00 0.00000000D+00 0.00000000D+00
  <mgrwgt>
 0.1778478622D-03    5    2    0
 0.432435654652217D+03 0.000000000000000D+00 0.000000000000000D+00 0.432435654652217D+03
 0.432435654652217D+03 0.000000000000000D+00 0.000000000000000D+00 -.432435654652217D+03
 0.286353921986897D+03 -.138359882100521D+03 0.100228648353661D+03 -.210936195015473D+03
 0.140734431356700D+03 0.868987326017066D+02 -.684755992816047D+02 0.869820828937538D+02
 0.244280799766612D+03 0.220100652040220D+03 -.386944700275803D+02 0.986486193282508D+02
 0.193502156194226D+03 -.168639502541406D+03 0.694142095552382D+01 0.253054927934688D+02
 0.000000000000000D+00 -.000000000000000D+00 0.000000000000000D+00 0.000000000000000D+00
 0.151803578401671D+04 0.000000000000000D+00 0.000000000000000D+00 0.151803578401671D+04
 0.661057524860411D+03 0.000000000000000D+00 0.000000000000000D+00 -.661057524860411D+03
 0.267899179832544D+03 -.107317505036727D+03 -.862762653111280D+02 -.210936195015473D+03
 0.240970220530992D+03 0.108277087891024D+03 -.196918350277618D+03 0.869820828937538D+02
 0.365992656793697D+03 0.254280593818411D+03 -.244050106205457D+03 0.986486193282508D+02
 0.217803014683658D+03 -.145603293703301D+03 -.131461837650778D+03 0.253054927934688D+02
 0.108642823703623D+04 -.109636882969406D+03 0.658706559444981D+03 0.856978259156301D+03
0.115722897304D-04 0.000000000000D+00 0.000000000000D+00 0.355027160844D-06 0.000000000000D+00  7 1 -1 23 -13 13 23 21 0 0.62011149D-01 0.71375062D-01 0.12946074D+06 0.12946074D+06 0.12946074D+06 0.11126343D+01  1  2  2  1  7  1        1 0.173621504893D-03 0.100000000000D+01
-.616478695099D-06 0.000000000000D+00 -.444406396187D-07 0.355027160844D-06 0.000000000000D+00  7 1 -1 23 -13 13 23 21 2 0.62011149D-01 0.71375062D-01 0.12946074D+06 0.12946074D+06 0.12946074D+06 0.11126343D+01  1  2  3  1  7  1        1 -.114500456108D-04 0.100000000000D+01
0.744914582684D-06 0.000000000000D+00 0.000000000000D+00 0.355027160844D-06 0.000000000000D+00  7 1 -1 23 -13 13 23 21 2 0.62011149D-01 0.71375062D-01 0.12946074D+06 0.12946074D+06 0.12946074D+06 0.11126343D+01  1  2 15  1  7  1        1 0.138355242699D-04 0.100000000000D+01
0.119522800168D-05 0.000000000000D+00 -.461853660966D-05 0.355027160844D-06 0.000000000000D+00  7 1 -1 23 -13 13 23 21 2 0.27400596D+00 0.71375062D-01 0.12946074D+06 0.12946074D+06 0.12946074D+06 0.11126343D+01  1  2  5  1  7  1        1 0.167443206212D-05 0.100000000000D+01
0.189084105068D-06 0.000000000000D+00 -.828312004817D-06 0.355027160844D-06 0.000000000000D+00  7 21 -1 23 -13 13 23 -1 2 0.27400596D+00 0.71375062D-01 0.12946074D+06 0.12946074D+06 0.12946074D+06 0.11126343D+01  1  2  5  3  7  1        1 0.166446589364D-06 0.100000000000D+01
  </mgrwgt>
  </event>
  <event>
  8     66 0.56006291E-06 0.47089490E+03 0.75467711E-02 0.91106278E-01
        1 -1    0    0  501    0 0.00000000E+00 0.00000000E+00 0.87079851E+03 0.87079857E+03 0.32000000E+00 0.0000E+00 0.9000E+01
       -1 -1    0    0    0  501 0.00000000E+00 0.00000000E+00 -.45037439E+03 0.45037450E+03 0.32000000E+00 0.0000E+00 0.9000E+01
       25  2    1    2    0    0 0.25774788E+03 -.33754061E+03 -.20580796E+03 0.55916907E+03 0.29990916E+03 0.0000E+00 0.0000E+00
       23  2    1    2    0    0 -.25774788E+03 0.33754061E+03 0.62623209E+03 0.76200400E+03 0.90087956E+02 0.0000E+00 0.0000E+00
       23  1    3    3    0    0 0.13745032E+03 -.32607212E+03 -.11718585E+03 0.38374913E+03 0.91188000E+02 0.0000E+00 0.9000E+01
      -13  1    4    4    0    0 -.12313989E+03 0.14847108E+03 0.20789181E+03 0.28359498E+03 0.10565837E+00 0.0000E+00 0.9000E+01
       13  1    4    4    0    0 -.13460799E+03 0.18906952E+03 0.41834028E+03 0.47840902E+03 0.10565837E+00 0.0000E+00 0.9000E+01
       23  1    3    3    0    0 0.12029756E+03 -.11468490E+02 -.88622109E+02 0.17541995E+03 0.91188000E+02 0.0000E+00 0.9000E+01
#aMCatNLO 1  0  0  1  2 0.40130184D+03 0.00000000D+00  -5  7  0 0.00000000D+00 0.00000000D+00 0.00000000D+00 0.00000000D+00 0.00000000D+00
  <mgrwgt>
 0.1755002330D-03    4    2    0
 0.626247124249227D+03 0.000000000000000D+00 0.000000000000000D+00 0.626247124249227D+03
 0.626247124249227D+03 0.000000000000000D+00 0.000000000000000D+00 -.626247124249227D+03
 0.444127205836889D+03 0.137450323177557D+03 -.326072115426124D+03 -.252424459631788D+03
 0.229362397981477D+03 -.123139875586518D+03 0.148471027329805D+03 0.124096876237812D+03
 0.364218043349823D+03 -.134608002725411D+03 0.189069578077473D+03 0.280692292999747D+03
 0.214786601330264D+03 0.120297555134372D+03 -.114684899811540D+02 -.152364709605770D+03
 0.000000000000000D+00 -.000000000000000D+00 0.000000000000000D+00 -.000000000000000D+00
 0.775743199756930D+03 0.000000000000000D+00 0.000000000000000D+00 0.775743199756930D+03
 0.998404666279399D+03 0.000000000000000D+00 0.000000000000000D+00 -.998404666279399D+03
 0.578875052601113D+03 0.180874934602974D+03 -.479945023301535D+03 -.252424459631788D+03
 0.184349603844030D+03 -.105578542976427D+03 0.862433360233874D+02 0.124096876237812D+03
 0.312441276962336D+03 -.105885027962084D+03 0.872911739746227D+02 0.280692292999747D+03
 0.239546979154080D+03 0.139583200916010D+03 -.798061975452765D+02 -.152364709605770D+03
 0.458934953474771D+03 -.108994564580472D+03 0.386216710848801D+03 -.222661466522469D+03
0.414539304161D-04 0.000000000000D+00 0.000000000000D+00 0.246572785544D-05 0.000000000000D+00  7 1 -1 23 -13 13 23 21 0 0.13396902D+00 0.69288380D-01 0.22174200D+06 0.22174200D+06 0.22174200D+06 0.10943997D+01  1  2  2  1  7  1        1 0.210334414459D-03 0.100000000000D+01
-.207538156936D-05 0.000000000000D+00 -.159194007868D-06 0.246572785544D-05 0.000000000000D+00  7 1 -1 23 -13 13 23 21 2 0.13396902D+00 0.69288380D-01 0.22174200D+06 0.22174200D+06 0.22174200D+06 0.10943997D+01  1  2  3  1  7  1        1 -.126123073761D-04 0.100000000000D+01
0.268071901401D-05 0.000000000000D+00 0.000000000000D+00 0.246572785544D-05 0.000000000000D+00  7 1 -1 23 -13 13 23 21 2 0.13396902D+00 0.69288380D-01 0.22174200D+06 0.22174200D+06 0.22174200D+06 0.10943997D+01  1  2 15  1  7  1        1 0.162910053230D-04 0.100000000000D+01
-.633737489284D-05 0.000000000000D+00 0.000000000000D+00 0.246572785544D-05 0.000000000000D+00  7 1 -1 23 -13 13 23 21 2 0.13396902D+00 0.69288380D-01 0.22174200D+06 0.22174200D+06 0.22174200D+06 0.10943997D+01  1  2  4  1  7  1        1 -.385128794079D-04 0.100000000000D+01
  </mgrwgt>
  </event>
  <event>
  8     66 0.56006291E-06 0.13772571E+03 0.75467711E-02 0.10076975E+00
        1 -1    0    0  501    0 0.00000000E+00 0.00000000E+00 0.85590556E+03 0.85590562E+03 0.32000000E+00 0.0000E+00 0.9000E+01
       -1 -1    0    0    0  501 0.00000000E+00 0.00000000E+00 -.41897252E+03 0.41897265E+03 0.32000000E+00 0.0000E+00 0.9000E+01
       25  2    1    2    0    0 0.31998870E+00 -.18426823E+03 -.32874658E+03 0.48172895E+03 0.30005597E+03 0.0000E+00 0.0000E+00
       23  2    1    2    0    0 -.31998870E+00 0.18426823E+03 0.76567962E+03 0.79314932E+03 0.94157782E+02 0.0000E+00 0.0000E+00
       23  1    3    3    0    0 -.10953374E+03 -.14011637E+03 -.15763678E+03 0.25454831E+03 0.91188000E+02 0.0000E+00 0.9000E+01
      -11  1    4    4    0    0 0.33382145E+02 0.20793556E+02 0.12210725E+03 0.12828453E+03 0.51099893E-03 0.0000E+00 0.9000E+01
       11  1    4    4    0    0 -.33702134E+02 0.16347467E+03 0.64357237E+03 0.66486479E+03 0.51099893E-03 0.0000E+00 0.9000E+01
       23  1    3    3    0    0 0.10985373E+03 -.44151861E+02 -.17110980E+03 0.22718064E+03 0.91188000E+02 0.0000E+00 0.9000E+01
#aMCatNLO 1  0  0  2  1 0.50713447D+02 0.00000000D+00  -5  7  0 0.00000000D+00 0.00000000D+00 0.00000000D+00 0.00000000D+00 0.00000000D+00
  <mgrwgt>
 0.2658053339D-03    9    2    0
 0.598833056807430D+03 0.000000000000000D+00 0.000000000000000D+00 0.598833056807430D+03
 0.598833056807430D+03 0.000000000000000D+00 0.000000000000000D+00 -.598833056807430D+03
 0.328467857629444D+03 -.109533739642131D+03 -.140116365421531D+03 -.260663856667445D+03
 0.920076672868903D+02 0.333821451211853D+02 0.207935561653733D+02 0.831785504122349D+02
 0.472939527294967D+03 -.337021338255011D+02 0.163474669884978D+03 0.442506491432151D+03
 0.304251061403559D+03 0.109853728346447D+03 -.441518606288206D+02 -.265021185176941D+03
 0.000000000000000D+00 -.000000000000000D+00 0.000000000000000D+00 -.000000000000000D+00
 0.613257169012594D+03 0.000000000000000D+00 0.000000000000000D+00 0.613257169012594D+03
 0.645667640527034D+03 0.000000000000000D+00 0.000000000000000D+00 -.645667640527034D+03
 0.330945725975771D+03 -.101503899119723D+03 -.151529318906859D+03 -.260663856667445D+03
 0.921833824413202D+02 0.356250845930812D+02 0.176056268669371D+02 0.831785504122349D+02
 0.466880869398717D+03 -.222577109431316D+02 0.147208510468933D+03 0.442506491432151D+03
 0.308729348886179D+03 0.117318140758269D+03 -.547611612013163D+02 -.265021185176941D+03
 0.601854828376401D+02 -.291816152884960D+02 0.414763427723049D+02 -.324104715144404D+02
0.301800941303D-04 0.000000000000D+00 0.000000000000D+00 0.886608215463D-06 0.000000000000D+00  7 1 -1 23 -11 11 23 21 0 0.13167779D+00 0.64457325D-01 0.77157671D+05 0.77157671D+05 0.77157671D+05 0.11310827D+01  1  2  2  2  7  2       -1 0.188572627411D-03 0.100000000000D+01
-.473700635430D-06 0.000000000000D+00 -.115899508062D-06 0.886608215463D-06 0.000000000000D+00  7 1 -1 23 -11 11 23 21 2 0.13167779D+00 0.64457325D-01 0.77157671D+05 0.77157671D+05 0.77157671D+05 0.11310827D+01  1  2  3  2  7  2       -1 -.378661177791D-05 0.100000000000D+01
0.182846860678D-05 0.000000000000D+00 0.000000000000D+00 0.886608215463D-06 0.000000000000D+00  7 1 -1 23 -11 11 23 21 2 0.13167779D+00 0.64457325D-01 0.77157671D+05 0.77157671D+05 0.77157671D+05 0.11310827D+01  1  2 15  2  7  2       -1 0.146161947950D-04 0.100000000000D+01
0.942665774565D-04 0.000000000000D+00 0.000000000000D+00 0.886608215463D-06 0.000000000000D+00  7 1 -1 23 -11 11 23 21 2 0.13167779D+00 0.70233022D-01 0.90481373D+05 0.90481373D+05 0.90481373D+05 0.11253044D+01  1  2 12  2  7  2       -1 0.629049258629D-03 0.100000000000D+01
-.945324229544D-04 0.000000000000D+00 0.000000000000D+00 0.886608215463D-06 0.000000000000D+00  7 1 -1 23 -11 11 23 21 2 0.13167779D+00 0.64457325D-01 0.77157671D+05 0.77157671D+05 0.77157671D+05 0.11310827D+01  1  2  4  2  7  2       -1 -.755662035007D-03 0.100000000000D+01
-.187665933758D-03 0.000000000000D+00 -.409317404584D-04 0.886608215463D-06 0.000000000000D+00  7 1 -1 23 -11 11 23 21 2 0.13167779D+00 0.70785920D-01 0.77157671D+05 0.77157671D+05 0.77157671D+05 0.11310827D+01  1  2  5  2  7  2       -1 -.125422407959D-02 0.100000000000D+01
0.190840731384D-03 0.000000000000D+00 0.407528761516D-04 0.886608215463D-06 0.000000000000D+00  7 1 -1 23 -11 11 23 21 2 0.13167779D+00 0.64457325D-01 0.77157671D+05 0.77157671D+05 0.77157671D+05 0.11310827D+01  1  2  6  2  7  2       -1 0.152551993203D-02 0.100000000000D+01
0.134456815993D-05 0.000000000000D+00 0.000000000000D+00 0.886608215463D-06 0.000000000000D+00  7 1 21 23 -11 11 23 1 2 0.13167779D+00 0.70233022D-01 0.90481373D+05 0.90481373D+05 0.90481373D+05 0.11253044D+01  1  2 12  4  7  2       -1 0.738352614631D-04 0.100000000000D+01
-.276022225954D-05 0.000000000000D+00 -.628075457606D-06 0.886608215463D-06 0.000000000000D+00  7 1 21 23 -11 11 23 1 2 0.13167779D+00 0.70785920D-01 0.77157671D+05 0.77157671D+05 0.77157671D+05 0.11310827D+01  1  2  5  4  7  2       -1 -.152115214098D-03 0.100000000000D+01
  </mgrwgt>
  </event>
  <event>
  8     66 0.56006291E-06 0.27391395E+03 0.75467711E-02 0.94172033E-01
        1 -1    0    0  501    0 0.00000000E+00 0.00000000E+00 0.96445558E+03 0.96445563E+03 0.32000000E+00 0.0000E+00 0.9000E+01
       -1 -1    0    0    0  501 0.00000000E+00 0.00000000E+00 -.38595916E+03 0.38595929E+03 0.32000000E+00 0.0000E+00 0.9000E+01
       25  2    1    2    0    0 0.65666900E+02 0.17862154E+03 0.89924784E+03 0.96656888E+03 0.29898316E+03 0.0000E+00 0.0000E+00
       23  2    1    2    0    0 -.65666900E+02 -.17862154E+03 -.32075142E+03 0.38384604E+03 0.90766270E+02 0.0000E+00 0.0000E+00
       23  1    3    3    0    0 -.19212419E+02 0.19747695E+03 0.45312407E+03 0.50299397E+03 0.91188000E+02 0.0000E+00 0.9000E+01
      -13  1    4    4    0    0 -.67839109E+02 -.80282613E+02 -.11502923E+03 0.15581777E+03 0.10565837E+00 0.0000E+00 0.9000E+01
       13  1    4    4    0    0 0.21722095E+01 -.98338926E+02 -.20572219E+03 0.22802827E+03 0.10565837E+00 0.0000E+00 0.9000E+01
       23  1    3    3    0    0 0.84879319E+02 -.18855413E+02 0.44612377E+03 0.46357491E+03 0.91188000E+02 0.0000E+00 0.9000E+01
#aMCatNLO 1  0  0  1  1 0.36100438D+03 0.00000000D+00  -5  7  0 0.00000000D+00 0.00000000D+00 0.00000000D+00 0.00000000D+00 0.00000000D+00
  <mgrwgt>
 0.3229850593D-03    3    2    0
 0.610115223845969D+03 0.000000000000000D+00 0.000000000000000D+00 0.610115223845969D+03
 0.610115223845969D+03 0.000000000000000D+00 0.000000000000000D+00 -.610115223845969D+03
 0.341836998538247D+03 -.192124193424883D+02 0.197476951503589D+03 0.263003837982442D+03
 0.226975518064525D+03 -.678392040682846D+02 -.802825882195744D+02 -.201172647794892D+03
 0.349886801373940D+03 0.217230439312132D+01 -.983389500599445D+02 -.335775975570645D+03
 0.301531129715226D+03 0.848793190176515D+02 -.188554132240705D+02 0.273944785383095D+03
 0.000000000000000D+00 -.000000000000000D+00 0.000000000000000D+00 -.000000000000000D+00
 0.639910343198336D+03 0.000000000000000D+00 0.000000000000000D+00 0.639910343198336D+03
 0.955182572641719D+04 0.000000000000000D+00 0.000000000000000D+00 -.955182572641719D+04
 0.315838796015645D+03 0.555704858481678D+02 0.138491140632590D+03 0.263003837982442D+03
 0.235651523301706D+03 -.152348746104978D+02 -.121774811883285D+03 -.201172647794892D+03
 0.383400086505908D+03 0.855527849702827D+02 -.164106189847146D+03 -.335775975570645D+03
 0.337621484366531D+03 0.157555993052246D+03 -.761799118967093D+02 0.273944785383095D+03
 0.891922417942574D+04 -.283444389260199D+03 0.223569772994550D+03 -.891191538321885D+04
0.508765649154D-04 0.000000000000D+00 0.000000000000D+00 0.641780898396D-06 0.000000000000D+00  7 1 -1 23 -13 13 23 21 0 0.14837780D+00 0.59378346D-01 0.75028852D+05 0.75028852D+05 0.75028852D+05 0.11321071D+01  1  2  2  1  7  1        1 0.304659103304D-03 0.100000000000D+01
-.622475830929D-06 0.000000000000D+00 -.195379405382D-06 0.641780898396D-06 0.000000000000D+00  7 1 -1 23 -13 13 23 21 2 0.14837780D+00 0.59378346D-01 0.75028852D+05 0.75028852D+05 0.75028852D+05 0.11321071D+01  1  2  3  1  7  1        1 -.477742537606D-05 0.100000000000D+01
0.301026083242D-05 0.000000000000D+00 0.000000000000D+00 0.641780898396D-06 0.000000000000D+00  7 1 -1 23 -13 13 23 21 2 0.14837780D+00 0.59378346D-01 0.75028852D+05 0.75028852D+05 0.75028852D+05 0.11321071D+01  1  2 15  1  7  1        1 0.231033813278D-04 0.100000000000D+01
  </mgrwgt>
  </event>
  <event>
  8     66 0.56006291E-06 0.21540366E+03 0.75467711E-02 0.10501918E+00
        1 -1    0    0  501    0 0.00000000E+00 0.00000000E+00 0.64218623E+03 0.64218631E+03 0.32000000E+00 0.0000E+00 0.9000E+01
       -1 -1    0    0    0  501 0.00000000E+00 0.00000000E+00 -.20244656E+03 0.20244682E+03 0.32000000E+00 0.0000E+00 0.9000E+01
       25  2    1    2    0    0 0.15445055E+03 -.35232846E+02 -.30116214E+02 0.34011712E+03 0.29946008E+03 0.0000E+00 0.0000E+00
       23  2    1    2    0    0 -.15445055E+03 0.35232846E+02 0.46985588E+03 0.50451600E+03 0.93142502E+02 0.0000E+00 0.0000E+00
       23  1    3    3    0    0 0.55657481E+02 0.66070311E+01 -.12932387E+03 0.16787294E+03 0.91188000E+02 0.0000E+00 0.9000E+01
      -11  1    4    4    0    0 -.15276708E+03 0.55570155E+02 0.40091844E+03 0.43262156E+03 0.51099893E-03 0.0000E+00 0.9000E+01
       11  1    4    4    0    0 -.16834764E+01 -.20337309E+02 0.68937438E+02 0.71894440E+02 0.51099893E-03 0.0000E+00 0.9000E+01
       23  1    3    3    0    0 0.98793072E+02 -.41839877E+02 0.99207660E+02 0.17224418E+03 0.91188000E+02 0.0000E+00 0.9000E+01
#aMCatNLO 1  0  0  2  1 0.78816398D+01 0.00000000D+00  -5  7  0 0.00000000D+00 0.00000000D+00 0.00000000D+00 0.00000000D+00 0.00000000D+00
  <mgrwgt>
 0.1305801020D-03    6    2    0
 0.360566963207654D+03 0.000000000000000D+00 0.000000000000000D+00 0.360566963207654D+03
 0.360566963207654D+03 0.000000000000000D+00 0.000000000000000D+00 -.360566963207654D+03
 0.275482644569192D+03 0.556574811481213D+02 0.660703108179593D+01 -.253838586600553D+03
 0.262235287119542D+03 -.152767076921976D+03 0.555701546815887D+02 0.205770561373701D+03
 0.421695593340853D+02 -.168347639976127D+01 -.203373088526164D+02 0.369030013721876D+02
 0.141246435392489D+03 0.987930721736157D+02 -.418398769107682D+02 0.111650238546650D+02
 0.000000000000000D+00 0.000000000000000D+00 0.000000000000000D+00 0.000000000000000D+00
 0.369153181260163D+03 0.000000000000000D+00 0.000000000000000D+00 0.369153181260163D+03
 0.362401765698905D+03 0.000000000000000D+00 0.000000000000000D+00 -.362401765698905D+03
 0.275137111110391D+03 0.541779889689492D+02 0.398698257906570D+01 -.253838586600553D+03
 0.262543069473725D+03 -.154177134346124D+03 0.530730689281717D+02 0.205770561373701D+03
 0.423746754179293D+02 -.191064321101255D+01 -.207396009850574D+02 0.369030013721876D+02
 0.141122140354458D+03 0.980343596589404D+02 -.431834890069066D+02 0.111650238546650D+02
 0.103779506025651D+02 0.387542892924655D+01 0.686303848472659D+01 0.675141556125835D+01
0.470281783131D-05 0.000000000000D+00 0.000000000000D+00 0.155907793856D-06 0.000000000000D+00  7 1 -1 23 -11 11 23 21 0 0.98797907D-01 0.31145651D-01 0.46398739D+05 0.46398739D+05 0.46398739D+05 0.11501619D+01  1  2  2  2  7  2       -1 0.165610527983D-03 0.100000000000D+01
-.176961747741D-06 0.000000000000D+00 -.180600587526D-07 0.155907793856D-06 0.000000000000D+00  7 1 -1 23 -11 11 23 21 2 0.98797907D-01 0.31145651D-01 0.46398739D+05 0.46398739D+05 0.46398739D+05 0.11501619D+01  1  2  3  2  7  2       -1 -.824379392327D-05 0.100000000000D+01
0.278857296319D-06 0.000000000000D+00 0.000000000000D+00 0.155907793856D-06 0.000000000000D+00  7 1 -1 23 -11 11 23 21 2 0.98797907D-01 0.31145651D-01 0.46398739D+05 0.46398739D+05 0.46398739D+05 0.11501619D+01  1  2 15  2  7  2       -1 0.129906158489D-04 0.100000000000D+01
-.900174314789D-06 0.000000000000D+00 0.000000000000D+00 0.155907793856D-06 0.000000000000D+00  7 1 -1 23 -11 11 23 21 2 0.98797907D-01 0.31145651D-01 0.46398739D+05 0.46398739D+05 0.46398739D+05 0.11501619D+01  1  2  4  2  7  2       -1 -.419347776617D-04 0.100000000000D+01
0.434704848891D-07 0.000000000000D+00 0.000000000000D+00 0.155907793856D-06 0.176681955975D-07  7 1 -1 23 -11 11 23 21 2 0.10115059D+00 0.31304140D-01 0.48089946D+05 0.48089946D+05 0.48089946D+05 0.11487863D+01  1  2 11  2  7  2       -1 0.193505763942D-05 0.100000000000D+01
0.455279799721D-09 0.000000000000D+00 0.000000000000D+00 0.155907793856D-06 0.168451386999D-10  7 1 21 23 -11 11 23 1 2 0.10115059D+00 0.31304140D-01 0.48089946D+05 0.48089946D+05 0.48089946D+05 0.11487863D+01  1  2 11  4  7  2       -1 0.222472096080D-06 0.100000000000D+01
  </mgrwgt>
  </event>
  <event>
  7     66 0.56006291E-06 0.10259486E+03 0.75467711E-02 0.10879666E+00
        1 -1    0    0  501    0 0.00000000E+00 0.00000000E+00 0.51415879E+02 0.51416875E+02 0.32000000E+00 0.0000E+00 0.9000E+01
       -1 -1    0    0    0  501 0.00000000E+00 0.00000000E+00 -.91748628E+03 0.91748633E+03 0.32000000E+00 0.0000E+00 0.9000E+01
       23  2    1    2    0    0 0.26544554E+02 0.10944373E+03 -.27903524E+03 0.31382208E+03 0.89112796E+02 0.0000E+00 0.0000E+00
       23  1    1    2    0    0 -.27487371E+02 -.78100341E+02 -.52764583E+03 0.54183078E+03 0.91188000E+02 0.0000E+00 0.9000E+01
      -11  1    3    3    0    0 0.73508177E+01 0.67649102E+01 -.13776847E+03 0.13813019E+03 0.51099893E-03 0.0000E+00 0.9000E+01
       11  1    3    3    0    0 0.19193737E+02 0.10267882E+03 -.14126677E+03 0.17569189E+03 0.51099893E-03 0.0000E+00 0.9000E+01
       23  1    1    2    0    0 0.94281708E+00 -.31343393E+02 -.59389326E+02 0.11325034E+03 0.91188000E+02 0.0000E+00 0.9000E+01
#aMCatNLO 1  0  0  2  1 0.43024511D+01 0.00000000D+00  -5  7  0 0.00000000D+00 0.00000000D+00 0.00000000D+00 0.00000000D+00 0.00000000D+00
  <mgrwgt>
 0.2594287704D-02   11    2    0
 0.217195472423503D+03 0.000000000000000D+00 0.000000000000000D+00 0.217195472423503D+03
 0.217195472423503D+03 0.000000000000000D+00 0.000000000000000D+00 -.217195472423503D+03
 0.156548257622122D+03 -.274873714669149D+02 -.781003410510891D+02 -.966275672780067D+02
 0.334205684596415D+02 0.735081769428712D+01 0.676491027191916D+01 -.318925675417302D+02
 0.110226675446313D+03 0.191937366965475D+02 0.102678824055732D+03 0.351934587970906D+02
 0.134195443318930D+03 0.942817076080280D+00 -.313433932765621D+02 0.933266760226463D+02
 0.000000000000000D+00 0.000000000000000D+00 -.000000000000000D+00 -.000000000000000D+00
 0.218941810418490D+03 0.000000000000000D+00 0.000000000000000D+00 0.218941810418490D+03
 0.219872376708593D+03 0.000000000000000D+00 0.000000000000000D+00 -.219872376708593D+03
 0.156637049357541D+03 -.289941055873210D+02 -.777326763373188D+02 -.966275672780067D+02
 0.333673601772593D+02 0.702950105309807D+01 0.684331613617380D+01 -.318925675417302D+02
 0.110288481396079D+03 0.181328385526166D+02 0.102937698403333D+03 0.351934587970906D+02
 0.134119360336016D+03 -.348045108917525D+00 -.310284044080309D+02 0.933266760226463D+02
 0.440193586018752D+01 0.417981109052383D+01 -.101993379415682D+01 -.930566290102777D+00
0.188584196680D-04 0.000000000000D+00 0.000000000000D+00 0.138151391177D-09 0.000000000000D+00  7 1 -1 23 -11 11 23 21 0 0.79102162D-02 0.14115182D+00 0.27896470D+05 0.27896470D+05 0.27896470D+05 0.11702766D+01  1  2  2  2  7  2       -1 0.932672034916D-03 0.100000000000D+01
-.959800820968D-06 0.000000000000D+00 -.724212970612D-07 0.138151391177D-09 0.000000000000D+00  7 1 -1 23 -11 11 23 21 2 0.79102162D-02 0.14115182D+00 0.27896470D+05 0.27896470D+05 0.27896470D+05 0.11702766D+01  1  2  3  2  7  2       -1 -.650102471801D-04 0.100000000000D+01
0.117421484203D-05 0.000000000000D+00 0.000000000000D+00 0.138151391177D-09 0.000000000000D+00  7 1 -1 23 -11 11 23 21 2 0.79102162D-02 0.14115182D+00 0.27896470D+05 0.27896470D+05 0.27896470D+05 0.11702766D+01  1  2 15  2  7  2       -1 0.795331650643D-04 0.100000000000D+01
0.181016671959D-05 0.000000000000D+00 0.000000000000D+00 0.138151391177D-09 0.000000000000D+00  7 1 -1 23 -11 11 23 21 2 0.79102162D-02 0.14345317D+00 0.28601549D+05 0.28601549D+05 0.28601549D+05 0.11692643D+01  1  2 12  2  7  2       -1 0.117199987760D-03 0.100000000000D+01
-.136025525838D-03 0.000000000000D+00 0.000000000000D+00 0.138151391177D-09 0.000000000000D+00  7 1 -1 23 -11 11 23 21 2 0.79102162D-02 0.14115182D+00 0.27896470D+05 0.27896470D+05 0.27896470D+05 0.11702766D+01  1  2  4  2  7  2       -1 -.921342518606D-02 0.100000000000D+01
-.952806300937D-03 0.000000000000D+00 -.117762600940D-03 0.138151391177D-09 0.000000000000D+00  7 1 -1 23 -11 11 23 21 2 0.79102162D-02 0.14370266D+00 0.27896470D+05 0.27896470D+05 0.27896470D+05 0.11702766D+01  1  2  5  2  7  2       -1 -.615195163854D-01 0.100000000000D+01
0.954781204397D-03 0.000000000000D+00 0.117743715681D-03 0.138151391177D-09 0.000000000000D+00  7 1 -1 23 -11 11 23 21 2 0.79102162D-02 0.14115182D+00 0.27896470D+05 0.27896470D+05 0.27896470D+05 0.11702766D+01  1  2  6  2  7  2       -1 0.646702531866D-01 0.100000000000D+01
0.134455199169D-03 0.000000000000D+00 0.000000000000D+00 0.138151391177D-09 0.544220917795D-10  7 1 -1 23 -11 11 23 21 2 0.79738175D-02 0.14289149D+00 0.28601549D+05 0.28601549D+05 0.28601549D+05 0.11692643D+01  1  2 11  2  7  2       -1 0.870491861337D-02 0.100000000000D+01
0.905154784791D-07 0.000000000000D+00 0.000000000000D+00 0.138151391177D-09 0.000000000000D+00  7 1 21 23 -11 11 23 1 2 0.79102162D-02 0.14345317D+00 0.28601549D+05 0.28601549D+05 0.28601549D+05 0.11692643D+01  1  2 12  4  7  2       -1 0.396676862084D-04 0.100000000000D+01
-.310158042584D-05 0.000000000000D+00 -.385053374048D-06 0.138151391177D-09 0.000000000000D+00  7 1 21 23 -11 11 23 1 2 0.79102162D-02 0.14370266D+00 0.27896470D+05 0.27896470D+05 0.27896470D+05 0.11702766D+01  1  2  5  4  7  2       -1 -.135611376626D-02 0.100000000000D+01
0.465463003326D-06 0.000000000000D+00 0.000000000000D+00 0.138151391177D-09 0.123251503002D-12  7 1 21 23 -11 11 23 1 2 0.79738175D-02 0.14289149D+00 0.28601549D+05 0.28601549D+05 0.28601549D+05 0.11692643D+01  1  2 11  4  7  2       -1 0.204108615282D-03 0.100000000000D+01
  </mgrwgt>
  </event>
  <event>
  8     66 0.56006291E-06 0.27128704E+03 0.75467711E-02 0.10134472E+00
        1 -1    0    0  501    0 0.00000000E+00 0.00000000E+00 0.58731899E+03 0.58731908E+03 0.32000000E+00 0.0000E+00 0.9000E+01
       -1 -1    0    0    0  501 0.00000000E+00 0.00000000E+00 -.14066692E+03 0.14066728E+03 0.32000000E+00 0.0000E+00 0.9000E+01
       25  2    1    2    0    0 -.16933823E+03 0.50634370E+02 0.17529788E+03 0.39137573E+03 0.30200388E+03 0.0000E+00 0.0000E+00
       23  2    1    2    0    0 0.16933823E+03 -.50634370E+02 0.27135419E+03 0.33661063E+03 0.91838665E+02 0.0000E+00 0.0000E+00
       23  1    3    3    0    0 -.20566030E+03 -.22878459E+02 0.12869484E+03 0.26018685E+03 0.91188000E+02 0.0000E+00 0.9000E+01
      -11  1    4    4    0    0 -.85124910E+01 0.11147429E+01 0.66023293E+00 0.86105205E+01 0.51099893E-03 0.0000E+00 0.9000E+01
       11  1    4    4    0    0 0.17785072E+03 -.51749113E+02 0.27069396E+03 0.32800011E+03 0.51099893E-03 0.0000E+00 0.9000E+01
       23  1    3    3    0    0 0.36322070E+02 0.73512829E+02 0.46603046E+02 0.13118889E+03 0.91188000E+02 0.0000E+00 0.9000E+01
#aMCatNLO 1  0  0  2  1 0.31304020D+02 0.00000000D+00  -5  7  0 0.00000000D+00 0.00000000D+00 0.00000000D+00 0.00000000D+00 0.00000000D+00
  <mgrwgt>
 0.2149565921D-03    4    2    0
 0.287430888718675D+03 0.000000000000000D+00 0.000000000000000D+00 0.287430888718675D+03
 0.287430888718675D+03 0.000000000000000D+00 0.000000000000000D+00 -.287430888718675D+03
 0.229499793322434D+03 -.205660299431068D+03 -.228784592304560D+02 -.391831740955704D+02
 0.103911014267501D+02 -.851249102380639D+01 0.111474285230038D+01 -.585404422633354D+01
 0.205046828136616D+03 0.177850721031873D+03 -.517491129051712D+02 0.879508503134432D+02
 0.129924054551550D+03 0.363220694230011D+02 0.735128292833268D+02 -.429136319915392D+02
 0.000000000000000D+00 -.000000000000000D+00 -.000000000000000D+00 0.000000000000000D+00
 0.337563084759350D+03 0.000000000000000D+00 0.000000000000000D+00 0.337563084759350D+03
 0.292785391951673D+03 0.000000000000000D+00 0.000000000000000D+00 -.292785391951673D+03
 0.219129018412678D+03 -.194548566131597D+03 -.178272165645552D+02 -.391831740955704D+02
 0.100096268528528D+02 -.800720147077660D+01 0.134444060332718D+01 -.585404422633354D+01
 0.213001054043639D+03 0.188205019399893D+03 -.470421898462366D+02 0.879508503134432D+02
 0.133573775294731D+03 0.428484394056094D+02 0.764796282174927D+02 -.429136319915392D+02
 0.546350021071230D+02 -.284976912031289D+02 -.129546624100281D+02 0.447776928076765D+02
0.363479005975D-05 0.000000000000D+00 0.000000000000D+00 0.389617733898D-07 0.000000000000D+00  7 1 -1 23 -11 11 23 21 0 0.90356803D-01 0.21641099D-01 0.73596657D+05 0.73596657D+05 0.73596657D+05 0.11328144D+01  1  2  2  2  7  2       -1 0.262388833087D-03 0.100000000000D+01
-.201112393284D-06 0.000000000000D+00 -.139585508916D-07 0.389617733898D-07 0.000000000000D+00  7 1 -1 23 -11 11 23 21 2 0.90356803D-01 0.21641099D-01 0.73596657D+05 0.73596657D+05 0.73596657D+05 0.11328144D+01  1  2  3  2  7  2       -1 -.186304092718D-04 0.100000000000D+01
0.237948768545D-06 0.000000000000D+00 0.000000000000D+00 0.389617733898D-07 0.000000000000D+00  7 1 -1 23 -11 11 23 21 2 0.90356803D-01 0.21641099D-01 0.73596657D+05 0.73596657D+05 0.73596657D+05 0.11328144D+01  1  2 15  2  7  2       -1 0.220428133311D-04 0.100000000000D+01
-.548860097214D-06 0.000000000000D+00 0.000000000000D+00 0.389617733898D-07 0.000000000000D+00  7 1 -1 23 -11 11 23 21 2 0.90356803D-01 0.21641099D-01 0.73596657D+05 0.73596657D+05 0.73596657D+05 0.11328144D+01  1  2  4  2  7  2       -1 -.508446450121D-04 0.100000000000D+01
  </mgrwgt>
  </event>
  <event>
  9     66 -.56006291E-06 0.46566249E+03 0.75467711E-02 0.95323811E-01
        1 -1    0    0  501    0 0.00000000E+00 0.00000000E+00 0.91562338E+03 0.91562344E+03 0.32000000E+00 0.0000E+00 0.9000E+01
       -1 -1    0    0    0  502 0.00000000E+00 0.00000000E+00 -.24799134E+03 0.24799154E+03 0.32000000E+00 0.0000E+00 0.9000E+01
       25  2    1    2    0    0 0.19981459E+03 0.36890154E+03 0.39230401E+03 0.64797225E+03 0.29991895E+03 0.0000E+00 0.0000E+00
       23  2    1    2    0    0 -.19073324E+03 -.37112335E+03 0.26934112E+03 0.50451561E+03 0.88767412E+02 0.0000E+00 0.0000E+00
       23  1    3    3    0    0 0.10006087E+03 0.16984025E+02 0.13211473E+03 0.18992153E+03 0.91188000E+02 0.0000E+00 0.9000E+01
      -11  1    4    4    0    0 -.17552472E+02 -.51863361E+02 0.74176301E+02 0.92195559E+02 0.51099893E-03 0.0000E+00 0.9000E+01
       11  1    4    4    0    0 -.17318077E+03 -.31925999E+03 0.19516482E+03 0.41232005E+03 0.51099893E-03 0.0000E+00 0.9000E+01
       23  1    3    3    0    0 0.99753721E+02 0.35191752E+03 0.26018928E+03 0.45805072E+03 0.91188000E+02 0.0000E+00 0.9000E+01
       21  1    1    2  501  502 -.90813473E+01 0.22218012E+01 0.59869081E+01 0.11127122E+02 0.75000000E+00 0.0000E+00 0.9000E+01
#aMCatNLO 2  0  0  2  1 0.93491855D+01 0.00000000D+00  -5  7  0 0.00000000D+00 0.00000000D+00 0.00000000D+00 0.00000000D+00 0.00000000D+00
  <mgrwgt>
 -.6605502467D-04    3    2    0
 0.471796188913914D+03 0.000000000000000D+00 0.000000000000000D+00 0.471796188913914D+03
 0.471796188913914D+03 0.000000000000000D+00 0.000000000000000D+00 -.471796188913914D+03
 0.138405356032763D+03 0.987244499953114D+02 0.173109880411723D+02 0.281887193876845D+02
 0.606406378015306D+02 -.181358372388795D+02 -.517206370994342D+02 0.259490666238679D+02
 0.367666580303469D+03 -.176714702612622D+03 -.318395389901185D+03 -.507444956842779D+02
 0.376879803690066D+03 0.961260898561903D+02 0.352805038959447D+03 -.339329032727449D+01
 0.000000000000000D+00 -.000000000000000D+00 0.000000000000000D+00 -.000000000000000D+00
 0.476255370443511D+03 0.000000000000000D+00 0.000000000000000D+00 0.476255370443511D+03
 0.476745338180755D+03 0.000000000000000D+00 0.000000000000000D+00 -.476745338180755D+03
 0.139321535224434D+03 0.100060870532288D+03 0.169840254620742D+02 0.281887193876845D+02
 0.605908532880764D+02 -.175524718554013D+02 -.518633606247476D+02 0.259490666238679D+02
 0.366733584397489D+03 -.173180772361855D+03 -.319259985226664D+03 -.507444956842779D+02
 0.376992720004057D+03 0.997537210098268D+02 0.351917519196624D+03 -.339329032727449D+01
 0.936201571020902D+01 -.908134732485867D+01 0.222180119271327D+01 -.489967737244763D+00
-.567505322296D-05 0.000000000000D+00 0.000000000000D+00 0.378750363841D-06 0.000000000000D+00  7 1 -1 23 -11 11 23 21 2 0.13954184D+00 0.38327982D-01 0.22124118D+06 0.22124118D+06 0.22124118D+06 0.10944745D+01  1  2 13  2  7  2       -1 -.953578387638D-04 0.100000000000D+01
-.746509330423D-04 0.000000000000D+00 0.000000000000D+00 0.378750363841D-06 0.000000000000D+00  7 1 -1 23 -11 11 23 21 2 0.13954184D+00 0.37755279D-01 0.21684156D+06 0.21684156D+06 0.21684156D+06 0.10951388D+01  1  2  8  2  7  2       -1 -.128983810842D-02 0.100000000000D+01
0.791192148465D-04 0.000000000000D+00 0.000000000000D+00 0.378750363841D-06 0.276850242562D-07  7 1 -1 23 -11 11 23 21 2 0.14086072D+00 0.38151333D-01 0.22124118D+06 0.22124118D+06 0.22124118D+06 0.10944745D+01  1  2  1  2  7  2       -1 0.131914092252D-02 0.100000000000D+01
  </mgrwgt>
  </event>
  <event>
  8     66 0.56006291E-06 0.14073266E+03 0.75467711E-02 0.10168228E+00
        1 -1    0    0  501    0 0.00000000E+00 0.00000000E+00 0.53493390E+03 0.53493399E+03 0.32000000E+00 0.0000E+00 0.9000E+01
       -1 -1    0    0    0  501 0.00000000E+00 0.00000000E+00 -.47030119E+03 0.47030130E+03 0.32000000E+00 0.0000E+00 0.9000E+01
       25  2    1    2    0    0 -.80905515E+02 0.15263022E+03 0.45339698E+03 0.57052253E+03 0.30014239E+03 0.0000E+00 0.0000E+00
       23  2    1    2    0    0 0.80905515E+02 -.15263022E+03 -.38876428E+03 0.43471276E+03 0.89419427E+02 0.0000E+00 0.0000E+00
       23  1    3    3    0    0 -.56282659E+02 0.21002100E+03 0.30754019E+03 0.38752133E+03 0.91188000E+02 0.0000E+00 0.9000E+01
      -11  1    4    4    0    0 0.26882661E+01 -.10046401E+03 -.20169158E+03 0.22534360E+03 0.51099893E-03 0.0000E+00 0.9000E+01
       11  1    4    4    0    0 0.78217249E+02 -.52166211E+02 -.18707270E+03 0.20936916E+03 0.51099893E-03 0.0000E+00 0.9000E+01
       23  1    3    3    0    0 -.24622855E+02 -.57390780E+02 0.14585679E+03 0.18300120E+03 0.91188000E+02 0.0000E+00 0.9000E+01
#aMCatNLO 1  0  0  1  2 0.17494545D+02 0.00000000D+00  -5  7  0 0.00000000D+00 0.00000000D+00 0.00000000D+00 0.00000000D+00 0.00000000D+00
  <mgrwgt>
 0.2079850418D-03    9    2    0
 0.501577663624279D+03 0.000000000000000D+00 0.000000000000000D+00 0.501577663624279D+03
 0.501577663624279D+03 0.000000000000000D+00 0.000000000000000D+00 -.501577663624279D+03
 0.368510194814527D+03 -.562826594804527D+02 0.210021002896278D+03 0.283210086194842D+03
 0.238805701551713D+03 0.268826610198086D+01 -.100464011951606D+03 -.216628526795430D+03
 0.221856255506360D+03 0.782172487222259D+02 -.521662106489376D+02 -.200950109669438D+03
 0.173983175375958D+03 -.246228553437540D+02 -.573907802957341D+02 0.134368550270027D+03
 0.000000000000000D+00 -.000000000000000D+00 0.000000000000000D+00 0.000000000000000D+00
 0.512602474643861D+03 0.000000000000000D+00 0.000000000000000D+00 0.512602474643861D+03
 0.508642512931488D+03 0.000000000000000D+00 0.000000000000000D+00 -.508642512931488D+03
 0.365088783805657D+03 -.523008217899373D+02 0.205015218543163D+03 0.283210086194842D+03
 0.240242354871182D+03 0.528844912052954D+01 -.103732843200175D+03 -.216628526795430D+03
 0.223451128541418D+03 0.806342936982172D+02 -.552048091207968D+02 -.200950109669438D+03
 0.174525596648726D+03 -.227312150820224D+02 -.597688639746477D+02 0.134368550270027D+03
 0.179371237083666D+02 -.108907059467871D+02 0.136912977524560D+02 0.395996171237219D+01
0.864118290840D-05 0.000000000000D+00 0.000000000000D+00 0.634372670187D-06 0.000000000000D+00  7 1 -1 23 -11 11 23 21 0 0.82297538D-01 0.72354045D-01 0.73121295D+05 0.73121295D+05 0.73121295D+05 0.11330525D+01  1  2  2  1  7  1        1 0.871511174517D-04 0.100000000000D+01
-.257269648554D-06 0.000000000000D+00 -.331844176440D-07 0.634372670187D-06 0.000000000000D+00  7 1 -1 23 -11 11 23 21 2 0.82297538D-01 0.72354045D-01 0.73121295D+05 0.73121295D+05 0.73121295D+05 0.11330525D+01  1  2  3  1  7  1        1 -.333110573405D-05 0.100000000000D+01
0.533733539738D-06 0.000000000000D+00 0.000000000000D+00 0.634372670187D-06 0.000000000000D+00  7 1 -1 23 -11 11 23 21 2 0.82297538D-01 0.72354045D-01 0.73121295D+05 0.73121295D+05 0.73121295D+05 0.11330525D+01  1  2 15  1  7  1        1 0.691073690452D-05 0.100000000000D+01
0.123081671471D-04 0.000000000000D+00 0.000000000000D+00 0.634372670187D-06 0.000000000000D+00  7 1 -1 23 -11 11 23 21 2 0.84675582D-01 0.72354045D-01 0.78639010D+05 0.78639010D+05 0.78639010D+05 0.11303881D+01  1  2 12  1  7  1        1 0.152083587747D-03 0.100000000000D+01
-.108190687553D-04 0.000000000000D+00 0.000000000000D+00 0.634372670187D-06 0.000000000000D+00  7 1 -1 23 -11 11 23 21 2 0.82297538D-01 0.72354045D-01 0.73121295D+05 0.73121295D+05 0.73121295D+05 0.11330525D+01  1  2  4  1  7  1        1 -.140084390717D-03 0.100000000000D+01
-.213005521095D-03 0.000000000000D+00 -.345517210911D-04 0.634372670187D-06 0.000000000000D+00  7 1 -1 23 -11 11 23 21 2 0.85066398D-01 0.72354045D-01 0.73121295D+05 0.73121295D+05 0.73121295D+05 0.11330525D+01  1  2  5  1  7  1        1 -.263335183679D-02 0.100000000000D+01
0.214050573265D-03 0.000000000000D+00 0.345328125085D-04 0.634372670187D-06 0.000000000000D+00  7 1 -1 23 -11 11 23 21 2 0.82297538D-01 0.72354045D-01 0.73121295D+05 0.73121295D+05 0.73121295D+05 0.11330525D+01  1  2  6  1  7  1        1 0.277150878849D-02 0.100000000000D+01
0.278499024623D-06 0.000000000000D+00 0.000000000000D+00 0.634372670187D-06 0.000000000000D+00  7 21 -1 23 -11 11 23 -1 2 0.84675582D-01 0.72354045D-01 0.78639010D+05 0.78639010D+05 0.78639010D+05 0.11303881D+01  1  2 12  3  7  1        1 0.950172419671D-05 0.100000000000D+01
-.124478816675D-05 0.000000000000D+00 -.204125027811D-06 0.634372670187D-06 0.000000000000D+00  7 21 -1 23 -11 11 23 -1 2 0.85066398D-01 0.72354045D-01 0.73121295D+05 0.73121295D+05 0.73121295D+05 0.11330525D+01  1  2  5  3  7  1        1 -.424035797803D-04 0.100000000000D+01
  </mgrwgt>
  </event>
  <event>
  8     66 0.56006291E-06 0.16977001E+03 0.75467711E-02 0.95010452E-01
        1 -1    0    0  501    0 0.00000000E+00 0.00000000E+00 0.11870306E+04 0.11870307E+04 0.32000000E+00 0.0000E+00 0.9000E+01
       -1 -1    0    0    0  501 0.00000000E+00 0.00000000E+00 -.49595844E+02 0.49596876E+02 0.32000000E+00 0.0000E+00 0.9000E+01
       25  2    1    2    0    0 -.59368425E+02 -.51267170E+02 0.50214358E+03 0.58998108E+03 0.29962738E+03 0.0000E+00 0.0000E+00
       23  2    1    2    0    0 0.59368425E+02 0.51267170E+02 0.63529119E+03 0.64664645E+03 0.91672289E+02 0.0000E+00 0.0000E+00
       23  1    3    3    0    0 -.92652840E+02 0.30536441E+02 0.96007649E+02 0.16446806E+03 0.91188000E+02 0.0000E+00 0.9000E+01
      -13  1    4    4    0    0 0.12251699E+02 0.57053446E+01 0.75271290E+01 0.15470098E+02 0.10565837E+00 0.0000E+00 0.9000E+01
       13  1    4    4    0    0 0.47116726E+02 0.45561825E+02 0.62776406E+03 0.63117636E+03 0.10565837E+00 0.0000E+00 0.9000E+01
       23  1    3    3    0    0 0.33284415E+02 -.81803610E+02 0.40613593E+03 0.42551301E+03 0.91188000E+02 0.0000E+00 0.9000E+01
#aMCatNLO 1  0  0  1  1 0.43424453D+03 0.00000000D+00  -5  7  0 0.00000000D+00 0.00000000D+00 0.00000000D+00 0.00000000D+00 0.00000000D+00
  <mgrwgt>
 0.2584582060D-03    3    2    0
 0.242636456561707D+03 0.000000000000000D+00 0.000000000000000D+00 0.242636456561707D+03
 0.242636456561707D+03 0.000000000000000D+00 0.000000000000000D+00 -.242636456561707D+03
 0.194083151021900D+03 -.926528427416507D+02 0.305364381178663D+02 -.140840316832768D+03
 0.217796066054350D+02 0.122516526954066D+02 0.570529250616196D+01 -.170791658911604D+02
 0.137014584165951D+03 0.471167772834766D+02 0.455618811658813D+02 0.120320906567454D+03
 0.132395571330127D+03 0.332844127627676D+02 -.818036117899096D+02 0.375985761564741D+02
 0.000000000000000D+00 -.000000000000000D+00 0.000000000000000D+00 -.000000000000000D+00
 0.442155392833103D+03 0.000000000000000D+00 0.000000000000000D+00 0.442155392833103D+03
 0.730055009772646D+03 0.000000000000000D+00 0.000000000000000D+00 -.730055009772646D+03
 0.179659317031529D+03 0.159187300817100D+02 -.622319695917360D+02 -.140840316832768D+03
 0.342451010065197D+02 0.285267381950006D+02 -.820086845174686D+01 -.170791658911604D+02
 0.189432202003777D+03 0.141949032237473D+03 -.354670388618888D+02 0.120320906567454D+03
 0.247860825127047D+03 0.143748271083510D+03 -.176188872861392D+03 0.375985761564741D+02
 0.521012957436875D+03 -.330142771597694D+03 0.282088749766764D+03 -.287899616939543D+03
0.215562057932D-05 0.000000000000D+00 0.000000000000D+00 0.355260128053D-06 0.000000000000D+00  7 1 -1 23 -13 13 23 21 0 0.18262018D+00 0.76302126D-02 0.28821855D+05 0.28821855D+05 0.28821855D+05 0.11689537D+01  1  2  2  1  7  1        1 0.252904710525D-03 0.100000000000D+01
-.101186831954D-06 0.000000000000D+00 -.827815061252D-08 0.355260128053D-06 0.000000000000D+00  7 1 -1 23 -13 13 23 21 2 0.18262018D+00 0.76302126D-02 0.28821855D+05 0.28821855D+05 0.28821855D+05 0.11689537D+01  1  2  3  1  7  1        1 -.162219559866D-04 0.100000000000D+01
0.135827575441D-06 0.000000000000D+00 0.000000000000D+00 0.355260128053D-06 0.000000000000D+00  7 1 -1 23 -13 13 23 21 2 0.18262018D+00 0.76302126D-02 0.28821855D+05 0.28821855D+05 0.28821855D+05 0.11689537D+01  1  2 15  1  7  1        1 0.217754514892D-04 0.100000000000D+01
  </mgrwgt>
  </event>
  <event>
  8     66 0.56006291E-06 0.35134259E+03 0.75467711E-02 0.96159087E-01
        1 -1    0    0  501    0 0.00000000E+00 0.00000000E+00 0.27327311E+03 0.27327330E+03 0.32000000E+00 0.0000E+00 0.9000E+01
       -1 -1    0    0    0  501 0.00000000E+00 0.00000000E+00 -.45655665E+03 0.45655676E+03 0.32000000E+00 0.0000E+00 0.9000E+01
       25  2    1    2    0    0 -.25949639E+03 0.10561002E+03 -.93754979E+02 0.42132982E+03 0.30039469E+03 0.0000E+00 0.0000E+00
       23  2    1    2    0    0 0.25949639E+03 -.10561002E+03 -.89528558E+02 0.30850023E+03 0.93086945E+02 0.0000E+00 0.0000E+00
       23  1    3    3    0    0 -.22320379E+02 -.53116523E+02 -.48734833E+02 0.11836342E+03 0.91188000E+02 0.0000E+00 0.9000E+01
      -11  1    4    4    0    0 0.19746749E+03 -.33821296E+02 -.59830653E+02 0.20908610E+03 0.51099893E-03 0.0000E+00 0.9000E+01
       11  1    4    4    0    0 0.62028901E+02 -.71788719E+02 -.29697905E+02 0.99414136E+02 0.51099893E-03 0.0000E+00 0.9000E+01
       23  1    3    3    0    0 -.23717601E+03 0.15872654E+03 -.45020145E+02 0.30296640E+03 0.91188000E+02 0.0000E+00 0.9000E+01
#aMCatNLO 1  0  0  1  1 0.15594039D+03 0.00000000D+00  -5  7  0 0.00000000D+00 0.00000000D+00 0.00000000D+00 0.00000000D+00 0.00000000D+00
  <mgrwgt>
 0.7655658214D-04    4    2    0
 0.353220558692591D+03 0.000000000000000D+00 0.000000000000000D+00 0.353220558692591D+03
 0.353220558692591D+03 0.000000000000000D+00 0.000000000000000D+00 -.353220558692591D+03
 0.109638139819685D+03 -.223203789975518D+02 -.531165230306269D+02 -.196393997276731D+02
 0.200485702583543D+03 0.197467488114227D+03 -.338212964459741D+02 -.756491804238499D+01
 0.950005389505526D+02 0.620289014232012D+02 -.717887191053386D+02 -.488851698790663D+01
 0.301316736031402D+03 -.237176010539877D+03 0.158726538581940D+03 0.320928347579648D+02
 0.000000000000000D+00 -.000000000000000D+00 0.000000000000000D+00 -.000000000000000D+00
 0.385646001119260D+03 0.000000000000000D+00 0.000000000000000D+00 0.385646001119260D+03
 0.615854029896517D+03 0.000000000000000D+00 0.000000000000000D+00 -.615854029896517D+03
 0.118399714539437D+03 -.686206370407787D+01 -.725978451407346D+02 -.196393997276731D+02
 0.238254618500536D+03 0.227208980965659D+03 -.713029748355213D+02 -.756491804238499D+01
 0.118211927064288D+03 0.764822277510571D+02 -.900035051547817D+02 -.488851698790663D+01
 0.248581359999053D+03 -.199899312898559D+03 0.111748627977530D+03 0.320928347579648D+02
 0.278052410912463D+03 -.969298321140789D+02 0.122155697153507D+03 -.230208028777257D+03
0.319815039904D-05 0.000000000000D+00 0.000000000000D+00 0.431496817900D-07 0.000000000000D+00  7 1 -1 23 -11 11 23 21 0 0.42042040D-01 0.70239507D-01 0.12344162D+06 0.12344162D+06 0.12344162D+06 0.11142929D+01  1  2  2  1  7  1        1 0.829171906166D-04 0.100000000000D+01
-.177668883072D-06 0.000000000000D+00 -.122817396247D-07 0.431496817900D-07 0.000000000000D+00  7 1 -1 23 -11 11 23 21 2 0.42042040D-01 0.70239507D-01 0.12344162D+06 0.12344162D+06 0.12344162D+06 0.11142929D+01  1  2  3  1  7  1        1 -.571947060808D-05 0.100000000000D+01
0.205132267425D-06 0.000000000000D+00 0.000000000000D+00 0.431496817900D-07 0.000000000000D+00  7 1 -1 23 -11 11 23 21 2 0.42042040D-01 0.70239507D-01 0.12344162D+06 0.12344162D+06 0.12344162D+06 0.11142929D+01  1  2 15  1  7  1        1 0.660356475494D-05 0.100000000000D+01
-.225048489759D-06 0.000000000000D+00 0.000000000000D+00 0.431496817900D-07 0.000000000000D+00  7 1 -1 23 -11 11 23 21 2 0.42042040D-01 0.70239507D-01 0.12344162D+06 0.12344162D+06 0.12344162D+06 0.11142929D+01  1  2  4  1  7  1        1 -.724470261935D-05 0.100000000000D+01
  </mgrwgt>
  </event>
  <event>
  9     66 0.56006291E-06 0.27922732E+03 0.75467711E-02 0.95808157E-01
        1 -1    0    0  501    0 0.00000000E+00 0.00000000E+00 0.18080929E+04 0.18080929E+04 0.32000000E+00 0.0000E+00 0.9000E+01
       21 -1    0    0  502  501 0.00000000E+00 0.00000000E+00 -.39563883E+03 0.39563954E+03 0.75000000E+00 0.0000E+00 0.9000E+01
       25  2    1    2    0    0 -.17512300E+03 -.22863551E+03 0.15184667E+04 0.15747856E+04 0.30210298E+03 0.0000E+00 0.0000E+00
       23  2    1    2    0    0 -.10034090E+03 0.19789681E+03 0.12337126E+03 0.26916598E+03 0.89433848E+02 0.0000E+00 0.0000E+00
       23  1    3    3    0    0 0.38192784E+02 -.81194967E+02 0.30822081E+03 0.33371640E+03 0.91188000E+02 0.0000E+00 0.9000E+01
      -13  1    4    4    0    0 -.62600559E+01 0.19702127E+02 -.14285999E+02 0.25128928E+02 0.10565837E+00 0.0000E+00 0.9000E+01
       13  1    4    4    0    0 -.94080844E+02 0.17819469E+03 0.13765726E+03 0.24403705E+03 0.10565837E+00 0.0000E+00 0.9000E+01
       23  1    3    3    0    0 -.21331578E+03 -.14744054E+03 0.12102459E+04 0.12410692E+04 0.91188000E+02 0.0000E+00 0.9000E+01
        1  1    1    2  502    0 0.27546390E+03 0.30738695E+02 -.22938389E+03 0.35978091E+03 0.32000000E+00 0.0000E+00 0.9000E+01
#aMCatNLO 2  0  0  2  1 0.27717364D+03 0.00000000D+00  -5  7  0 0.00000000D+00 0.00000000D+00 0.00000000D+00 0.00000000D+00 0.00000000D+00
  <mgrwgt>
 0.1329103881D-03    2    2    0
 0.396137671794415D+03 0.000000000000000D+00 0.000000000000000D+00 0.396137671794415D+03
 0.396137671794415D+03 0.000000000000000D+00 0.000000000000000D+00 -.396137671794415D+03
 0.148096416449485D+03 0.851814273937522D+02 -.759515590249942D+02 0.243471215960936D+02
 0.866779888895269D+02 0.224113539773472D+02 0.229013017767211D+02 -.805377883217967D+02
 0.256909901079784D+03 -.565651719504102D+01 0.188062090245400D+03 -.174938135632508D+03
 0.300591037170033D+03 -.101936264176058D+03 -.135011832997127D+03 0.231128802358211D+03
 0.000000000000000D+00 0.000000000000000D+00 0.000000000000000D+00 -.000000000000000D+00
 0.435379514243096D+03 0.000000000000000D+00 0.000000000000000D+00 0.435379514243096D+03
 0.164305503955674D+04 0.000000000000000D+00 0.000000000000000D+00 -.164305503955674D+04
 0.130228049712761D+03 0.381927813905827D+02 -.811949672555237D+02 0.243471215960936D+02
 0.831485852198480D+02 -.625993346924271D+01 0.197019062340790D+02 -.805377883217967D+02
 0.266848281339404D+03 -.940809671340277D+02 0.178194908957417D+03 -.174938135632508D+03
 0.359135224673361D+03 -.213315778180704D+03 -.147440543124355D+03 0.231128802358211D+03
 0.123907441285446D+04 0.275463897393392D+03 0.307386951883828D+02 -.120767552531365D+04
-.460810389997D-09 0.000000000000D+00 0.000000000000D+00 0.240899847262D-07 0.000000000000D+00  7 1 21 23 -13 13 23 1 2 0.25309619D+00 0.58634955D-01 0.20347378D+06 0.20347378D+06 0.20347378D+06 0.10972515D+01  1  2 13  4  7  2       -1 -.939226580509D-08 0.100000000000D+01
0.908962024160D-05 0.000000000000D+00 0.000000000000D+00 0.240899847262D-07 0.902386637736D-12  7 1 21 23 -13 13 23 1 2 0.27816818D+00 0.60867566D-01 0.20347378D+06 0.20347378D+06 0.20347378D+06 0.10972515D+01  1  2  1  4  7  2       -1 0.132919780346D-03 0.100000000000D+01
  </mgrwgt>
  </event>
  <event>
  7     66 0.56006291E-06 0.39411042E+03 0.75467711E-02 0.89063960E-01
        1 -1    0    0  501    0 0.00000000E+00 0.00000000E+00 0.12462086E+04 0.12462086E+04 0.32000000E+00 0.0000E+00 0.9000E+01
       -1 -1    0    0    0  501 0.00000000E+00 0.00000000E+00 -.67873966E+03 0.67873974E+03 0.32000000E+00 0.0000E+00 0.9000E+01
       25  2    1    2    0    0 -.77919610E+03 -.22782356E+03 -.10198999E+03 0.87131437E+03 0.29956076E+03 0.0000E+00 0.0000E+00
       23  1    3    3    0    0 -.33311245E+03 -.18763281E+03 0.33785783E+02 0.39449551E+03 0.91188000E+02 0.0000E+00 0.9000E+01
      -11  1    1    2    0    0 0.72484928E+03 0.22440372E+03 0.61641808E+03 0.97761688E+03 0.51099893E-03 0.0000E+00 0.9000E+01
       11  1    1    2    0    0 0.54346815E+02 0.34198424E+01 0.53040848E+02 0.76017124E+02 0.51099893E-03 0.0000E+00 0.9000E+01
       23  1    3    3    0    0 -.44608365E+03 -.40190749E+02 -.13577578E+03 0.47681886E+03 0.91188000E+02 0.0000E+00 0.9000E+01
#aMCatNLO 1  0  0  2  1 0.21432521D+02 0.00000000D+00  -5  7  0 0.00000000D+00 0.00000000D+00 0.00000000D+00 0.00000000D+00 0.00000000D+00
  <mgrwgt>
 0.8783522603D-03    9    2    0
 0.919701752147145D+03 0.000000000000000D+00 0.000000000000000D+00 0.919701752147145D+03
 0.919701752147145D+03 0.000000000000000D+00 0.000000000000000D+00 -.919701752147145D+03
 0.402419101304970D+03 -.333112449387650D+03 -.187632810631072D+03 -.863475893626711D+02
 0.832913443699402D+03 0.724849280643490D+03 0.224403717241330D+03 0.343484056011462D+03
 0.631889665011073D+02 0.543468152613155D+02 0.341984235762500D+01 0.320557925604639D+02
 0.540881992788811D+03 -.446083646517156D+03 -.401907489678836D+02 -.289192259209255D+03
 0.000000000000000D+00 -.000000000000000D+00 0.000000000000000D+00 -.000000000000000D+00
 0.922199575649820D+03 0.000000000000000D+00 0.000000000000000D+00 0.922199575649820D+03
 0.966918060151991D+03 0.000000000000000D+00 0.000000000000000D+00 -.966918060151991D+03
 0.400044517189828D+03 -.328983993796528D+03 -.189826210062214D+03 -.863475893626711D+02
 0.839201756595625D+03 0.733451855499914D+03 0.219833271373627D+03 0.343484056011462D+03
 0.637337780101441D+02 0.549997980285603D+02 0.307292036740165D+01 0.320557925604639D+02
 0.536548312911417D+03 -.440540562610180D+03 -.431357236248674D+02 -.289192259209255D+03
 0.495892710947974D+02 -.189270971217665D+02 0.100557419460534D+02 -.447184845021710D+02
0.277086432089D-03 0.000000000000D+00 0.000000000000D+00 0.266295723832D-08 0.000000000000D+00  7 1 -1 23 -11 11 23 21 0 0.19172441D+00 0.10442150D+00 0.69170008D+06 0.69170008D+06 0.69170008D+06 0.10586893D+01  1  2  2  2  7  2       -1 0.291040697707D-03 0.100000000000D+01
-.152042897953D-04 0.000000000000D+00 -.106408485776D-05 0.266295723832D-08 0.000000000000D+00  7 1 -1 23 -11 11 23 21 2 0.19172441D+00 0.10442150D+00 0.69170008D+06 0.69170008D+06 0.69170008D+06 0.10586893D+01  1  2  3  2  7  2       -1 -.178995301778D-04 0.100000000000D+01
0.173317627765D-04 0.000000000000D+00 0.000000000000D+00 0.266295723832D-08 0.000000000000D+00  7 1 -1 23 -11 11 23 21 2 0.19172441D+00 0.10442150D+00 0.69170008D+06 0.69170008D+06 0.69170008D+06 0.10586893D+01  1  2 15  2  7  2       -1 0.204041369265D-04 0.100000000000D+01
0.337218872897D-02 0.000000000000D+00 0.000000000000D+00 0.266295723832D-08 0.000000000000D+00  7 1 -1 23 -11 11 23 21 2 0.19172441D+00 0.10992007D+00 0.70960671D+06 0.70960671D+06 0.70960671D+06 0.10579276D+01  1  2 12  2  7  2       -1 0.350966453240D-02 0.100000000000D+01
-.342053596647D-02 0.000000000000D+00 0.000000000000D+00 0.266295723832D-08 0.000000000000D+00  7 1 -1 23 -11 11 23 21 2 0.19172441D+00 0.10442150D+00 0.69170008D+06 0.69170008D+06 0.69170008D+06 0.10586893D+01  1  2  4  2  7  2       -1 -.402688896229D-02 0.100000000000D+01
-.945555005649D-02 0.000000000000D+00 -.640026613490D-03 0.266295723832D-08 0.000000000000D+00  7 1 -1 23 -11 11 23 21 2 0.19172441D+00 0.10992882D+00 0.69170008D+06 0.69170008D+06 0.69170008D+06 0.10586893D+01  1  2  5  2  7  2       -1 -.986841953835D-02 0.100000000000D+01
0.947677010812D-02 0.000000000000D+00 0.639182163768D-03 0.266295723832D-08 0.000000000000D+00  7 1 -1 23 -11 11 23 21 2 0.19172441D+00 0.10442150D+00 0.69170008D+06 0.69170008D+06 0.69170008D+06 0.10586893D+01  1  2  6  2  7  2       -1 0.111567021428D-01 0.100000000000D+01
0.569747315372D-04 0.000000000000D+00 0.000000000000D+00 0.266295723832D-08 0.000000000000D+00  7 1 21 23 -11 11 23 1 2 0.19172441D+00 0.10992007D+00 0.70960671D+06 0.70960671D+06 0.70960671D+06 0.10579276D+01  1  2 12  4  7  2       -1 0.389922033275D-03 0.100000000000D+01
-.839003860100D-04 0.000000000000D+00 -.571925429539D-05 0.266295723832D-08 0.000000000000D+00  7 1 21 23 -11 11 23 1 2 0.19172441D+00 0.10992882D+00 0.69170008D+06 0.69170008D+06 0.69170008D+06 0.10586893D+01  1  2  5  4  7  2       -1 -.576173251974D-03 0.100000000000D+01
  </mgrwgt>
  </event>
  <event>
  7     66 0.56006291E-06 0.14635124E+03 0.75467711E-02 0.10379574E+00
        1 -1    0    0  501    0 0.00000000E+00 0.00000000E+00 0.28733210E+03 0.28733228E+03 0.32000000E+00 0.0000E+00 0.9000E+01
       -1 -1    0    0    0  501 0.00000000E+00 0.00000000E+00 -.43697597E+03 0.43697609E+03 0.32000000E+00 0.0000E+00 0.9000E+01
       25  2    1    2    0    0 0.49198641E+02 -.16241915E+03 -.21276693E+02 0.34564462E+03 0.30036148E+03 0.0000E+00 0.0000E+00
       23  1    3    3    0    0 0.60775935E+02 -.15357323E+03 -.10932642E+03 0.21805038E+03 0.91188000E+02 0.0000E+00 0.9000E+01
      -11  1    1    2    0    0 0.11831782E+02 0.97829930E+02 -.22605831E+03 0.24660302E+03 0.51099893E-03 0.0000E+00 0.9000E+01
       11  1    1    2    0    0 -.61030423E+02 0.64589218E+02 0.97691130E+02 0.13206073E+03 0.51099893E-03 0.0000E+00 0.9000E+01
       23  1    3    3    0    0 -.11577294E+02 -.88459164E+01 0.88049728E+02 0.12759424E+03 0.91188000E+02 0.0000E+00 0.9000E+01
#aMCatNLO 1  0  0  1  2 0.90921485D+01 0.00000000D+00  -5  7  0 0.00000000D+00 0.00000000D+00 0.00000000D+00 0.00000000D+00 0.00000000D+00
  <mgrwgt>
 0.1421066868D-02   11    2    0
 0.354340698494114D+03 0.000000000000000D+00 0.000000000000000D+00 0.354340698494114D+03
 0.354340698494114D+03 0.000000000000000D+00 0.000000000000000D+00 -.354340698494114D+03
 0.199773460144655D+03 0.607759614215147D+02 -.153573319881171D+03 -.656940025278903D+02
 0.204306719782714D+03 0.118317310308497D+02 0.978300136702367D+02 -.178970763853953D+03
 0.155600987556989D+03 -.610304184659639D+02 0.645892879205137D+02 0.127730885992780D+03
 0.149000229503871D+03 -.115772739864005D+02 -.884598170957985D+01 0.116933880389063D+03
 0.000000000000000D+00 -.000000000000000D+00 -.000000000000000D+00 0.000000000000000D+00
 0.359548724533010D+03 0.000000000000000D+00 0.000000000000000D+00 0.359548724533010D+03
 0.358360462029970D+03 0.000000000000000D+00 0.000000000000000D+00 -.358360462029970D+03
 0.198226912173196D+03 0.616858948101706D+02 -.151187981595940D+03 -.656940025278903D+02
 0.205550335493066D+03 0.127687719109867D+02 0.100286412692498D+03 -.178970763853953D+03
 0.156108957085938D+03 -.603177676597477D+02 0.664574612101861D+02 0.127730885992780D+03
 0.148853514468301D+03 -.108963020943442D+02 -.706085287977897D+01 0.116933880389063D+03
 0.916946734247815D+01 -.324059696706543D+01 -.849503942696498D+01 0.118826250303974D+01
0.256903060356D-04 0.000000000000D+00 0.000000000000D+00 0.155747651344D-09 0.000000000000D+00  7 1 -1 23 -11 11 23 21 0 0.44204961D-01 0.67227096D-01 0.54852626D+05 0.54852626D+05 0.54852626D+05 0.11437737D+01  1  2  2  1  7  1        1 0.688194077123D-03 0.100000000000D+01
-.112973244967D-05 0.000000000000D+00 -.986575395895D-07 0.155747651344D-09 0.000000000000D+00  7 1 -1 23 -11 11 23 21 2 0.44204961D-01 0.67227096D-01 0.54852626D+05 0.54852626D+05 0.54852626D+05 0.11437737D+01  1  2  3  1  7  1        1 -.395910926172D-04 0.100000000000D+01
0.164004167797D-05 0.000000000000D+00 0.000000000000D+00 0.155747651344D-09 0.000000000000D+00  7 1 -1 23 -11 11 23 21 2 0.44204961D-01 0.67227096D-01 0.54852626D+05 0.54852626D+05 0.54852626D+05 0.11437737D+01  1  2 15  1  7  1        1 0.574747073854D-04 0.100000000000D+01
0.217764285002D-04 0.000000000000D+00 0.000000000000D+00 0.155747651344D-09 0.000000000000D+00  7 1 -1 23 -11 11 23 21 2 0.45102156D-01 0.67227096D-01 0.57376830D+05 0.57376830D+05 0.57376830D+05 0.11420752D+01  1  2 12  1  7  1        1 0.740728200424D-03 0.100000000000D+01
-.181222897325D-04 0.000000000000D+00 0.000000000000D+00 0.155747651344D-09 0.000000000000D+00  7 1 -1 23 -11 11 23 21 2 0.44204961D-01 0.67227096D-01 0.54852626D+05 0.54852626D+05 0.54852626D+05 0.11437737D+01  1  2  4  1  7  1        1 -.635089530663D-03 0.100000000000D+01
-.997544487301D-03 0.000000000000D+00 -.142123896256D-03 0.155747651344D-09 0.000000000000D+00  7 1 -1 23 -11 11 23 21 2 0.45315010D-01 0.67227096D-01 0.54852626D+05 0.54852626D+05 0.54852626D+05 0.11437737D+01  1  2  5  1  7  1        1 -.338507745224D-01 0.100000000000D+01
0.100080522991D-02 0.000000000000D+00 0.142080196887D-03 0.155747651344D-09 0.000000000000D+00  7 1 -1 23 -11 11 23 21 2 0.44204961D-01 0.67227096D-01 0.54852626D+05 0.54852626D+05 0.54852626D+05 0.11437737D+01  1  2  6  1  7  1        1 0.350728816903D-01 0.100000000000D+01
0.214351311256D-07 0.000000000000D+00 0.000000000000D+00 0.155747651344D-09 0.131075327107D-10  7 1 -1 23 -11 11 23 21 2 0.44854676D-01 0.67989743D-01 0.57376830D+05 0.57376830D+05 0.57376830D+05 0.11420752D+01  1  2 11  1  7  1        1 0.718748416705D-06 0.100000000000D+01
0.756437354972D-06 0.000000000000D+00 0.000000000000D+00 0.155747651344D-09 0.000000000000D+00  7 21 -1 23 -11 11 23 -1 2 0.45102156D-01 0.67227096D-01 0.57376830D+05 0.57376830D+05 0.57376830D+05 0.11420752D+01  1  2 12  3  7  1        1 0.126722724488D-03 0.100000000000D+01
-.443920654204D-05 0.000000000000D+00 -.636997587923D-06 0.155747651344D-09 0.000000000000D+00  7 21 -1 23 -11 11 23 -1 2 0.45315010D-01 0.67227096D-01 0.54852626D+05 0.54852626D+05 0.54852626D+05 0.11437737D+01  1  2  5  3  7  1        1 -.740214173611D-03 0.100000000000D+01
0.967065350874D-10 0.000000000000D+00 0.000000000000D+00 0.155747651344D-09 0.352047025141D-13  7 21 -1 23 -11 11 23 -1 2 0.44854676D-01 0.67989743D-01 0.57376830D+05 0.57376830D+05 0.57376830D+05 0.11420752D+01  1  2 11  3  7  1        1 0.160390998228D-07 0.100000000000D+01
  </mgrwgt>
  </event>
  <event>
  8     66 0.56006291E-06 0.21259613E+03 0.75467711E-02 0.95227260E-01
        1 -1    0    0  501    0 0.00000000E+00 0.00000000E+00 0.64105072E+03 0.64105080E+03 0.32000000E+00 0.0000E+00 0.9000E+01
       -1 -1    0    0    0  501 0.00000000E+00 0.00000000E+00 -.38147368E+03 0.38147381E+03 0.32000000E+00 0.0000E+00 0.9000E+01
       25  2    1    2    0    0 -.25692131E+03 0.22432557E+03 0.43210827E+03 0.62967287E+03 0.30567932E+03 0.0000E+00 0.0000E+00
       23  2    1    2    0    0 0.25692131E+03 -.22432557E+03 -.17253122E+03 0.39285175E+03 0.90746633E+02 0.0000E+00 0.0000E+00
       23  1    3    3    0    0 -.20487450E+03 0.18089174E+03 0.14846625E+03 0.32411859E+03 0.91188000E+02 0.0000E+00 0.9000E+01
      -13  1    4    4    0    0 0.22391137E+03 -.16424659E+03 -.10574201E+03 0.29714412E+03 0.10565837E+00 0.0000E+00 0.9000E+01
       13  1    4    4    0    0 0.33009940E+02 -.60078986E+02 -.66789211E+02 0.95707631E+02 0.10565837E+00 0.0000E+00 0.9000E+01
       23  1    3    3    0    0 -.52046804E+02 0.43433831E+02 0.28364202E+03 0.30555428E+03 0.91188000E+02 0.0000E+00 0.9000E+01
#aMCatNLO 1  0  0  2  1 0.18192681D+03 0.00000000D+00  -5  7  0 0.00000000D+00 0.00000000D+00 0.00000000D+00 0.00000000D+00 0.00000000D+00
  <mgrwgt>
 0.2076642291D-03    9    2    0
 0.494513990775994D+03 0.000000000000000D+00 0.000000000000000D+00 0.494513990775994D+03
 0.494513990775994D+03 0.000000000000000D+00 0.000000000000000D+00 -.494513990775994D+03
 0.296129950159267D+03 -.204874499846275D+03 0.180891737820588D+03 0.684274399515008D+02
 0.334960866220361D+03 0.223911628083183D+03 -.164246728741520D+03 -.187310909468568D+03
 0.116478061889406D+03 0.330096817553835D+02 -.600788457846594D+02 -.941702293779919D+02
 0.241459103282954D+03 -.520468099922923D+02 0.434338367055912D+02 0.213053698895059D+03
 0.000000000000000D+00 -.000000000000000D+00 -.000000000000000D+00 -.000000000000000D+00
 0.546494609437208D+03 0.000000000000000D+00 0.000000000000000D+00 0.546494609437208D+03
 0.692223729357881D+03 0.000000000000000D+00 0.000000000000000D+00 -.692223729357881D+03
 0.318770743771145D+03 -.184902588157275D+03 0.233298637147399D+03 0.684274399515008D+02
 0.327016053570862D+03 0.245412570776415D+03 -.107827605890282D+03 -.187310909468568D+03
 0.110267788725399D+03 0.403743638073417D+02 -.407536977026391D+02 -.941702293779919D+02
 0.249566472707979D+03 -.360983494725180D+02 0.852830786756425D+02 0.213053698895059D+03
 0.233097280019703D+03 -.647859969539633D+02 -.170000412230120D+03 -.145729119920673D+03
0.175101385146D-04 0.000000000000D+00 0.000000000000D+00 0.195030384691D-07 0.000000000000D+00  7 1 -1 23 -13 13 23 21 0 0.98623205D-01 0.58688275D-01 0.13986987D+06 0.13986987D+06 0.13986987D+06 0.11099563D+01  1  2  2  2  7  2       -1 0.199166500594D-03 0.100000000000D+01
-.880492273260D-06 0.000000000000D+00 -.672435424216D-07 0.195030384691D-07 0.000000000000D+00  7 1 -1 23 -13 13 23 21 2 0.98623205D-01 0.58688275D-01 0.13986987D+06 0.13986987D+06 0.13986987D+06 0.11099563D+01  1  2  3  2  7  2       -1 -.123385468825D-04 0.100000000000D+01
0.108662848054D-05 0.000000000000D+00 0.000000000000D+00 0.195030384691D-07 0.000000000000D+00  7 1 -1 23 -13 13 23 21 2 0.98623205D-01 0.58688275D-01 0.13986987D+06 0.13986987D+06 0.13986987D+06 0.11099563D+01  1  2 15  2  7  2       -1 0.152271824049D-04 0.100000000000D+01
0.101983491673D-04 0.000000000000D+00 0.000000000000D+00 0.195030384691D-07 0.000000000000D+00  7 1 -1 23 -13 13 23 21 2 0.98623205D-01 0.84275444D-01 0.22498758D+06 0.22498758D+06 0.22498758D+06 0.10939200D+01  1  2 12  2  7  2       -1 0.672180967976D-04 0.100000000000D+01
-.155926923243D-04 0.000000000000D+00 0.000000000000D+00 0.195030384691D-07 0.000000000000D+00  7 1 -1 23 -13 13 23 21 2 0.98623205D-01 0.58688275D-01 0.13986987D+06 0.13986987D+06 0.13986987D+06 0.11099563D+01  1  2  4  2  7  2       -1 -.218504092666D-03 0.100000000000D+01
-.181595001875D-04 0.000000000000D+00 -.685773612152D-05 0.195030384691D-07 0.000000000000D+00  7 1 -1 23 -13 13 23 21 2 0.98623205D-01 0.88472296D-01 0.13986987D+06 0.13986987D+06 0.13986987D+06 0.11099563D+01  1  2  5  2  7  2       -1 -.113402279555D-03 0.100000000000D+01
0.198207988043D-04 0.000000000000D+00 0.631802729948D-05 0.195030384691D-07 0.000000000000D+00  7 1 -1 23 -13 13 23 21 2 0.98623205D-01 0.58688275D-01 0.13986987D+06 0.13986987D+06 0.13986987D+06 0.11099563D+01  1  2  6  2  7  2       -1 0.277753550738D-03 0.100000000000D+01
0.451280876298D-06 0.000000000000D+00 0.000000000000D+00 0.195030384691D-07 0.000000000000D+00  7 1 21 23 -13 13 23 1 2 0.98623205D-01 0.84275444D-01 0.22498758D+06 0.22498758D+06 0.22498758D+06 0.10939200D+01  1  2 12  4  7  2       -1 0.222167567989D-04 0.100000000000D+01
-.638620518967D-06 0.000000000000D+00 -.332681463779D-06 0.195030384691D-07 0.000000000000D+00  7 1 21 23 -13 13 23 1 2 0.98623205D-01 0.88472296D-01 0.13986987D+06 0.13986987D+06 0.13986987D+06 0.11099563D+01  1  2  5  4  7  2       -1 -.296729391197D-04 0.100000000000D+01
  </mgrwgt>
  </event>
  <event>
  9     66 0.56006291E-06 0.23825057E+03 0.75467711E-02 0.10335210E+00
        1 -1    0    0  501    0 0.00000000E+00 0.00000000E+00 0.93575902E+03 0.93575908E+03 0.32000000E+00 0.0000E+00 0.9000E+01
       -1 -1    0    0    0  502 0.00000000E+00 0.00000000E+00 -.72638848E+02 0.72639553E+02 0.32000000E+00 0.0000E+00 0.9000E+01
       25  2    1    2    0    0 0.11674593E+03 0.26873077E+02 0.43111123E+03 0.53836498E+03 0.29937966E+03 0.0000E+00 0.0000E+00
       23  2    1    2    0    0 -.13438371E+03 -.29751828E+02 0.36658039E+03 0.40220419E+03 0.91885105E+02 0.0000E+00 0.0000E+00
       23  1    3    3    0    0 0.73599817E+02 0.12786680E+03 0.28826367E+03 0.33641945E+03 0.91188000E+02 0.0000E+00 0.9000E+01
      -11  1    4    4    0    0 -.14612751E+03 -.29678298E+02 0.35752813E+03 0.38737632E+03 0.51099893E-03 0.0000E+00 0.9000E+01
       11  1    4    4    0    0 0.11743798E+02 -.73529821E-01 0.90522603E+01 0.14827866E+02 0.51099893E-03 0.0000E+00 0.9000E+01
       23  1    3    3    0    0 0.43146114E+02 -.10099372E+03 0.14284756E+03 0.20194553E+03 0.91188000E+02 0.0000E+00 0.9000E+01
       21  1    1    2  501  502 0.17637777E+02 0.28787515E+01 0.65428551E+02 0.67829464E+02 0.75000000E+00 0.0000E+00 0.9000E+01
#aMCatNLO 2  0  0  2  1 0.17871161D+02 0.00000000D+00  -5  7  0 0.00000000D+00 0.00000000D+00 0.00000000D+00 0.00000000D+00 0.00000000D+00
  <mgrwgt>
 0.1351996717D-03    2    2    0
 0.249017596096523D+03 0.000000000000000D+00 0.000000000000000D+00 0.249017596096523D+03
 0.249017596096523D+03 0.000000000000000D+00 0.000000000000000D+00 -.249017596096523D+03
 0.176988458584076D+03 0.798045976040623D+02 0.128879514200239D+03 0.556418446236230D+01
 0.153592011770002D+03 -.140597003566699D+03 -.287756369195041D+02 0.547261490285855D+02
 0.139199889828253D+02 0.122291035976820D+02 0.567936429262872D-02 -.664944254986539D+01
 0.153534732856143D+03 0.485633023649550D+02 -.100109556645028D+03 -.536408909410824D+02
 0.000000000000000D+00 0.000000000000000D+00 0.000000000000000D+00 0.000000000000000D+00
 0.268273932325212D+03 0.000000000000000D+00 0.000000000000000D+00 0.268273932325212D+03
 0.253359069951453D+03 0.000000000000000D+00 0.000000000000000D+00 -.253359069951453D+03
 0.173531159140356D+03 0.735998170357637D+02 0.127866800351642D+03 0.556418446236230D+01
 0.158836396632986D+03 -.146127506338637D+03 -.296782984536543D+02 0.547261490285855D+02
 0.134958247597414D+02 0.117437980690548D+02 -.735298235636904D-01 -.664944254986539D+01
 0.152492346901842D+03 0.431461137631224D+02 -.100993723596163D+03 -.536408909410824D+02
 0.232772748417391D+02 0.176377774706957D+02 0.287875152173959D+01 0.149148623737587D+02
-.205409592672D-07 0.000000000000D+00 0.000000000000D+00 0.105874745804D-06 0.000000000000D+00  7 1 -1 23 -11 11 23 21 2 0.13362637D+00 0.10983511D-01 0.56763334D+05 0.56763334D+05 0.56763334D+05 0.11424803D+01  1  2  8  2  7  2       -1 -.310962056817D-05 0.100000000000D+01
0.106532474684D-05 0.000000000000D+00 0.000000000000D+00 0.105874745804D-06 0.230390805826D-08  7 1 -1 23 -11 11 23 21 2 0.14395959D+00 0.11175002D-01 0.61235093D+05 0.61235093D+05 0.61235093D+05 0.11396318D+01  1  2  1  2  7  2       -1 0.138309292309D-03 0.100000000000D+01
  </mgrwgt>
  </event>
  <event>
  8     66 0.56006291E-06 0.18140606E+03 0.75467711E-02 0.10731880E+00
        1 -1    0    0  501    0 0.00000000E+00 0.00000000E+00 0.21000357E+03 0.21000381E+03 0.32000000E+00 0.0000E+00 0.9000E+01
       -1 -1    0    0    0  501 0.00000000E+00 0.00000000E+00 -.21493056E+03 0.21493080E+03 0.32000000E+00 0.0000E+00 0.9000E+01
       25  2    1    2    0    0 0.20498204E+02 0.26678653E+01 0.68863565E+02 0.30753665E+03 0.29901389E+03 0.0000E+00 0.0000E+00
       23  2    1    2    0    0 -.20498204E+02 -.26678653E+01 -.73790553E+02 0.11739796E+03 0.88937848E+02 0.0000E+00 0.0000E+00
       23  1    3    3    0    0 -.44198051E+02 0.10230421E+03 0.32489758E+01 0.14403273E+03 0.91188000E+02 0.0000E+00 0.9000E+01
      -13  1    4    4    0    0 -.72612152E+01 0.31545521E+02 -.73937051E+02 0.80712724E+02 0.10565837E+00 0.0000E+00 0.9000E+01
       13  1    4    4    0    0 -.13236989E+02 -.34213387E+02 0.14649831E+00 0.36685233E+02 0.10565837E+00 0.0000E+00 0.9000E+01
       23  1    3    3    0    0 0.64696255E+02 -.99636347E+02 0.65614589E+02 0.16350392E+03 0.91188000E+02 0.0000E+00 0.9000E+01
#aMCatNLO 1  0  0  2  2 0.99556017D+01 0.00000000D+00  -5  7  0 0.00000000D+00 0.00000000D+00 0.00000000D+00 0.00000000D+00 0.00000000D+00
  <mgrwgt>
 0.2360947370D-04    6    2    0
 0.212453021762347D+03 0.000000000000000D+00 0.000000000000000D+00 0.212453021762347D+03
 0.212453021762347D+03 0.000000000000000D+00 0.000000000000000D+00 -.212453021762347D+03
 0.144080068923246D+03 -.441980365683488D+02 0.102304196004063D+03 0.491934552480108D+01
 0.798608976557478D+02 -.726121485440694D+01 0.315456104332566D+02 -.730062476478087D+02
 0.366893358570223D+02 -.132370006227713D+02 -.342134771440470D+02 0.571980642950003D+00
 0.164275741088677D+03 0.646962520455270D+02 -.996363292932728D+02 0.675149214800576D+02
 0.000000000000000D+00 0.000000000000000D+00 -.000000000000000D+00 0.000000000000000D+00
 0.222259325216219D+03 0.000000000000000D+00 0.000000000000000D+00 0.222259325216219D+03
 0.215053236162984D+03 0.000000000000000D+00 0.000000000000000D+00 -.215053236162984D+03
 0.146607715087748D+03 -.464329527032896D+02 0.104873026666116D+03 0.491934552480108D+01
 0.805521030329910D+02 -.849452985150352D+01 0.329631926552381D+02 -.730062476478087D+02
 0.362981977704469D+02 -.137981560119065D+02 -.335684806060336D+02 0.571980642950003D+00
 0.161564642127166D+03 0.621910696129662D+02 -.967568523651733D+02 0.675149214800576D+02
 0.122899033608520D+02 0.653456895373346D+01 -.751088635014758D+01 0.720608905323481D+01
0.546539134561D-06 0.000000000000D+00 0.000000000000D+00 0.128365236738D-07 0.000000000000D+00  7 1 -1 23 -13 13 23 21 0 0.32308278D-01 0.33066277D-01 0.32908159D+05 0.32908159D+05 0.32908159D+05 0.11636260D+01  1  2  2  2  7  2       -1 0.768547596724D-04 0.100000000000D+01
-.294418800549D-07 0.000000000000D+00 -.209885418377D-08 0.128365236738D-07 0.000000000000D+00  7 1 -1 23 -13 13 23 21 2 0.32308278D-01 0.33066277D-01 0.32908159D+05 0.32908159D+05 0.32908159D+05 0.11636260D+01  1  2  3  2  7  2       -1 -.560585517074D-05 0.100000000000D+01
0.332568749339D-07 0.000000000000D+00 0.000000000000D+00 0.128365236738D-07 0.000000000000D+00  7 1 -1 23 -13 13 23 21 2 0.32308278D-01 0.33066277D-01 0.32908159D+05 0.32908159D+05 0.32908159D+05 0.11636260D+01  1  2 15  2  7  2       -1 0.633224590151D-05 0.100000000000D+01
-.283458559820D-06 0.000000000000D+00 0.000000000000D+00 0.128365236738D-07 0.000000000000D+00  7 1 -1 23 -13 13 23 21 2 0.32308278D-01 0.33066277D-01 0.32908159D+05 0.32908159D+05 0.32908159D+05 0.11636260D+01  1  2  4  2  7  2       -1 -.539716767508D-04 0.100000000000D+01
0.225375936946D-15 0.000000000000D+00 0.000000000000D+00 0.128365236738D-07 0.932708927319D-09  7 1 -1 23 -13 13 23 21 2 0.33799548D-01 0.33470975D-01 0.34893543D+05 0.34893543D+05 0.34893543D+05 0.11612958D+01  1  2 11  2  7  2       -1 0.395552243394D-13 0.100000000000D+01
0.425761994241D-17 0.000000000000D+00 0.000000000000D+00 0.128365236738D-07 0.216258809546D-11  7 1 21 23 -13 13 23 1 2 0.33799548D-01 0.33470975D-01 0.34893543D+05 0.34893543D+05 0.34893543D+05 0.11612958D+01  1  2 11  4  7  2       -1 0.812159085398D-14 0.100000000000D+01
  </mgrwgt>
  </event>
  <event>
  8     66 0.56006291E-06 0.10817615E+03 0.75467711E-02 0.97869335E-01
        1 -1    0    0  501    0 0.00000000E+00 0.00000000E+00 0.15854264E+04 0.15854264E+04 0.32000000E+00 0.0000E+00 0.9000E+01
       -1 -1    0    0    0  501 0.00000000E+00 0.00000000E+00 -.14641957E+03 0.14641992E+03 0.32000000E+00 0.0000E+00 0.9000E+01
       25  2    1    2    0    0 0.24686434E+03 -.10106922E+03 0.13880755E+04 0.14453292E+04 0.30177119E+03 0.0000E+00 0.0000E+00
       23  2    1    2    0    0 -.24686434E+03 0.10106922E+03 0.50931308E+02 0.28651714E+03 0.91329541E+02 0.0000E+00 0.0000E+00
       23  1    3    3    0    0 0.21127222E+03 -.15696819E+03 0.11278415E+04 0.11617300E+04 0.91188000E+02 0.0000E+00 0.9000E+01
      -13  1    4    4    0    0 -.23648527E+03 0.80087399E+02 0.23992319E+02 0.25082846E+03 0.10565837E+00 0.0000E+00 0.9000E+01
       13  1    4    4    0    0 -.10379075E+02 0.20981822E+02 0.26938988E+02 0.35688686E+02 0.10565837E+00 0.0000E+00 0.9000E+01
       23  1    3    3    0    0 0.35592122E+02 0.55898964E+02 0.26023408E+03 0.28359923E+03 0.91188000E+02 0.0000E+00 0.9000E+01
#aMCatNLO 1  0  0  2  1 0.87996925D+02 0.00000000D+00  -5  7  0 0.00000000D+00 0.00000000D+00 0.00000000D+00 0.00000000D+00 0.00000000D+00
  <mgrwgt>
 0.2778228656D-03    9    2    0
 0.481806784989946D+03 0.000000000000000D+00 0.000000000000000D+00 0.481806784989946D+03
 0.481806784989946D+03 0.000000000000000D+00 0.000000000000000D+00 -.481806784989946D+03
 0.403653794483963D+03 0.211272219158851D+03 -.156968184581796D+03 0.292140673132124D+03
 0.414971061053367D+03 -.236485569255548D+03 0.800874782959300D+02 -.331453696412992D+03
 0.239114815800338D+02 -.103787721977587D+02 0.209817430995084D+02 -.487919004810795D+01
 0.121077232862528D+03 0.355921222944551D+02 0.558989631863572D+02 0.441922133289757D+02
 0.000000000000000D+00 -.000000000000000D+00 0.000000000000000D+00 -.000000000000000D+00
 0.519366319564377D+03 0.000000000000000D+00 0.000000000000000D+00 0.519366319564377D+03
 0.538259018597535D+03 0.000000000000000D+00 0.000000000000000D+00 -.538259018597535D+03
 0.420559070951595D+03 0.213038208557820D+03 -.194481951892848D+03 0.292140673132124D+03
 0.408376761073709D+03 -.234721433330816D+03 0.426130831358700D+02 -.331453696412992D+03
 0.220524811653564D+02 -.102802880872249D+02 0.188897090201650D+02 -.487919004810795D+01
 0.116634842307811D+03 0.361014531025054D+02 0.450795792032460D+02 0.441922133289757D+02
 0.900021826634406D+02 -.413794024228455D+01 0.878995805335675D+02 -.188926990331583D+02
0.172541304049D-04 0.000000000000D+00 0.000000000000D+00 0.341861608215D-06 0.000000000000D+00  7 1 -1 23 -13 13 23 21 0 0.24391179D+00 0.22526116D-01 0.11034403D+06 0.11034403D+06 0.11034403D+06 0.11182308D+01  1  2  2  2  7  2       -1 0.199668809314D-03 0.100000000000D+01
-.797397918958D-06 0.000000000000D+00 -.662604038718D-07 0.341861608215D-06 0.000000000000D+00  7 1 -1 23 -13 13 23 21 2 0.24391179D+00 0.22526116D-01 0.11034403D+06 0.11034403D+06 0.11034403D+06 0.11182308D+01  1  2  3  2  7  2       -1 -.115386539682D-04 0.100000000000D+01
0.103539495989D-05 0.000000000000D+00 0.000000000000D+00 0.341861608215D-06 0.000000000000D+00  7 1 -1 23 -13 13 23 21 2 0.24391179D+00 0.22526116D-01 0.11034403D+06 0.11034403D+06 0.11034403D+06 0.11182308D+01  1  2 15  2  7  2       -1 0.149825625055D-04 0.100000000000D+01
0.179469117633D-04 0.000000000000D+00 0.000000000000D+00 0.341861608215D-06 0.000000000000D+00  7 1 -1 23 -13 13 23 21 2 0.24391179D+00 0.25957642D-01 0.14384141D+06 0.14384141D+06 0.14384141D+06 0.11089916D+01  1  2 12  2  7  2       -1 0.200661268648D-03 0.100000000000D+01
-.167876709150D-04 0.000000000000D+00 0.000000000000D+00 0.341861608215D-06 0.000000000000D+00  7 1 -1 23 -13 13 23 21 2 0.24391179D+00 0.22526116D-01 0.11034403D+06 0.11034403D+06 0.11034403D+06 0.11182308D+01  1  2  4  2  7  2       -1 -.242924042080D-03 0.100000000000D+01
-.397513012496D-04 0.000000000000D+00 -.128090785743D-04 0.341861608215D-06 0.000000000000D+00  7 1 -1 23 -13 13 23 21 2 0.24391179D+00 0.27237764D-01 0.11034403D+06 0.11034403D+06 0.11034403D+06 0.11182308D+01  1  2  5  2  7  2       -1 -.421548116945D-03 0.100000000000D+01
0.416580975396D-04 0.000000000000D+00 0.125814697001D-04 0.341861608215D-06 0.000000000000D+00  7 1 -1 23 -13 13 23 21 2 0.24391179D+00 0.22526116D-01 0.11034403D+06 0.11034403D+06 0.11034403D+06 0.11182308D+01  1  2  6  2  7  2       -1 0.602808661841D-03 0.100000000000D+01
0.391062408506D-06 0.000000000000D+00 0.000000000000D+00 0.341861608215D-06 0.000000000000D+00  7 1 21 23 -13 13 23 1 2 0.24391179D+00 0.25957642D-01 0.14384141D+06 0.14384141D+06 0.14384141D+06 0.11089916D+01  1  2 12  4  7  2       -1 0.490935963338D-04 0.100000000000D+01
-.958228790425D-06 0.000000000000D+00 -.352245242510D-06 0.341861608215D-06 0.000000000000D+00  7 1 21 23 -13 13 23 1 2 0.24391179D+00 0.27237764D-01 0.11034403D+06 0.11034403D+06 0.11034403D+06 0.11182308D+01  1  2  5  4  7  2       -1 -.113381220071D-03 0.100000000000D+01
  </mgrwgt>
  </event>
  <event>
  8     66 0.56006291E-06 0.34947382E+03 0.75467711E-02 0.96305160E-01
        1 -1    0    0  501    0 0.00000000E+00 0.00000000E+00 0.99411735E+03 0.99411740E+03 0.32000000E+00 0.0000E+00 0.9000E+01
       -1 -1    0    0    0  501 0.00000000E+00 0.00000000E+00 -.12964464E+03 0.12964503E+03 0.32000000E+00 0.0000E+00 0.9000E+01
       25  2    1    2    0    0 -.53893960E+02 -.27844669E+03 0.41798905E+03 0.58747511E+03 0.29995840E+03 0.0000E+00 0.0000E+00
       23  2    1    2    0    0 0.53893960E+02 0.27844669E+03 0.44648366E+03 0.53628732E+03 0.88426905E+02 0.0000E+00 0.0000E+00
       23  1    3    3    0    0 -.12833215E+03 -.70718063E+02 0.15121996E+03 0.22946223E+03 0.91188000E+02 0.0000E+00 0.9000E+01
      -13  1    4    4    0    0 0.45549953E+02 0.11149494E+03 0.12289544E+03 0.17207330E+03 0.10565837E+00 0.0000E+00 0.9000E+01
       13  1    4    4    0    0 0.83440065E+01 0.16695175E+03 0.32358822E+03 0.36421402E+03 0.10565837E+00 0.0000E+00 0.9000E+01
       23  1    3    3    0    0 0.74438192E+02 -.20772862E+03 0.26676909E+03 0.35801288E+03 0.91188000E+02 0.0000E+00 0.9000E+01
#aMCatNLO 1  0  0  1  1 0.15245735D+03 0.00000000D+00  -5  7  0 0.00000000D+00 0.00000000D+00 0.00000000D+00 0.00000000D+00 0.00000000D+00
  <mgrwgt>
 0.1590499282D-03    4    2    0
 0.359001717761525D+03 0.000000000000000D+00 0.000000000000000D+00 0.359001717761525D+03
 0.359001717761525D+03 0.000000000000000D+00 0.000000000000000D+00 -.359001717761525D+03
 0.177068094175111D+03 -.128332151596254D+03 -.707180631930744D+02 -.395938509834868D+02
 0.121349967382627D+03 0.455500058750347D+02 0.111494860539071D+03 -.148292825828502D+02
 0.180440517275557D+03 0.834395372128597D+01 0.166951825733796D+03 0.679429657515766D+02
 0.239144856689753D+03 0.744381919999333D+02 -.207728623079793D+03 -.135198321852396D+02
 0.000000000000000D+00 -.000000000000000D+00 0.000000000000000D+00 -.000000000000000D+00
 0.414696854950742D+03 0.000000000000000D+00 0.000000000000000D+00 0.414696854950742D+03
 0.488847552906264D+03 0.000000000000000D+00 0.000000000000000D+00 -.488847552906264D+03
 0.195821475320615D+03 -.128030763567006D+03 -.109869237721434D+03 -.395938509834868D+02
 0.100456292300613D+03 0.457292808050659D+02 0.882065299051923D+02 -.148292825828502D+02
 0.149028314258240D+03 0.861024693503498D+01 0.132359568990121D+03 0.679429657515766D+02
 0.288704937861797D+03 0.748648266455036D+02 -.263149694415186D+03 -.135198321852396D+02
 0.169533388115740D+03 -.117359081859822D+01 0.152452833241306D+03 -.741506979555222D+02
0.591135723028D-05 0.000000000000D+00 0.000000000000D+00 0.151520682598D-06 0.000000000000D+00  7 1 -1 23 -13 13 23 21 0 0.15294116D+00 0.19945363D-01 0.12213195D+06 0.12213195D+06 0.12213195D+06 0.11146656D+01  1  2  2  1  7  1        1 0.213354243859D-03 0.100000000000D+01
-.328119831330D-06 0.000000000000D+00 -.227011682604D-07 0.151520682598D-06 0.000000000000D+00  7 1 -1 23 -13 13 23 21 2 0.15294116D+00 0.19945363D-01 0.12213195D+06 0.12213195D+06 0.12213195D+06 0.11146656D+01  1  2  3  1  7  1        1 -.147141691331D-04 0.100000000000D+01
0.373597739638D-06 0.000000000000D+00 0.000000000000D+00 0.151520682598D-06 0.000000000000D+00  7 1 -1 23 -13 13 23 21 2 0.15294116D+00 0.19945363D-01 0.12213195D+06 0.12213195D+06 0.12213195D+06 0.11146656D+01  1  2 15  1  7  1        1 0.167535753828D-04 0.100000000000D+01
-.125644148576D-05 0.000000000000D+00 0.000000000000D+00 0.151520682598D-06 0.000000000000D+00  7 1 -1 23 -13 13 23 21 2 0.15294116D+00 0.19945363D-01 0.12213195D+06 0.12213195D+06 0.12213195D+06 0.11146656D+01  1  2  4  1  7  1        1 -.563437219030D-04 0.100000000000D+01
  </mgrwgt>
  </event>
  <event>
  8     66 0.56006291E-06 0.71096616E+02 0.75467711E-02 0.10227690E+00
        3 -1    0    0  501    0 0.00000000E+00 0.00000000E+00 0.33655125E+03 0.33655162E+03 0.50000000E+00 0.0000E+00 0.9000E+01
       -3 -1    0    0    0  501 0.00000000E+00 0.00000000E+00 -.14938403E+03 0.14938486E+03 0.50000000E+00 0.0000E+00 0.9000E+01
       25  2    1    2    0    0 0.50497888E+02 -.33410447E+02 0.21135830E+03 0.37215682E+03 0.30027000E+03 0.0000E+00 0.0000E+00
       23  2    1    2    0    0 -.50497888E+02 0.33410447E+02 -.24191072E+02 0.11377966E+03 0.93243280E+02 0.0000E+00 0.0000E+00
       23  1    3    3    0    0 -.64702669E+02 -.76029071E+02 0.16286123E+03 0.21167401E+03 0.91188000E+02 0.0000E+00 0.9000E+01
      -11  1    4    4    0    0 -.54971143E+02 0.57896853E+02 -.11258780E+01 0.79844472E+02 0.51099893E-03 0.0000E+00 0.9000E+01
       11  1    4    4    0    0 0.44732551E+01 -.24486406E+02 -.23065194E+02 0.33935192E+02 0.51099893E-03 0.0000E+00 0.9000E+01
       23  1    3    3    0    0 0.11520056E+03 0.42618625E+02 0.48497068E+02 0.16048281E+03 0.91188000E+02 0.0000E+00 0.9000E+01
#aMCatNLO 1  0  0  1  2 0.12371016D+03 0.00000000D+00  -5  7  0 0.00000000D+00 0.00000000D+00 0.00000000D+00 0.00000000D+00 0.00000000D+00
  <mgrwgt>
 0.1269259536D-04    7    2    0
 0.224222376117142D+03 0.000000000000000D+00 0.000000000000000D+00 0.224222376117142D+03
 0.224222376117142D+03 0.000000000000000D+00 0.000000000000000D+00 -.224222376117142D+03
 0.161397449840375D+03 -.647026692113672D+02 -.760290713886079D+02 0.881307572399487D+02
 0.869896887336358D+02 -.549711429929201D+02 0.578968527379047D+02 -.345446642344681D+02
 0.463990177934977D+02 0.447325501110071D+01 -.244864058647551D+02 -.391570526167824D+02
 0.153658595866775D+03 0.115200557193187D+03 0.426186245154582D+02 -.144290403886981D+02
 0.000000000000000D+00 -.000000000000000D+00 0.000000000000000D+00 0.000000000000000D+00
 0.783914603789545D+03 0.000000000000000D+00 0.000000000000000D+00 0.783914603789545D+03
 0.239537614367393D+03 0.000000000000000D+00 0.000000000000000D+00 -.239537614367393D+03
 0.164750213125621D+03 -.284494834331751D+02 -.101247113053342D+03 0.881307572399487D+02
 0.686695713609755D+02 -.376687222949241D+02 0.458611334846387D+02 -.345446642344681D+02
 0.530025379027993D+02 0.155223087817999D+02 -.321722269137010D+02 -.391570526167824D+02
 0.178773226143035D+03 0.152152263338513D+03 0.169146858090175D+02 -.144290403886981D+02
 0.558256669624508D+03 -.101556366392214D+03 0.706435206733868D+02 0.544376989422152D+03
0.773286177818D-06 0.000000000000D+00 0.000000000000D+00 0.425769775178D-07 0.000000000000D+00  7 3 -3 23 -11 11 23 21 0 0.51777208D-01 0.22982251D-01 0.38596365D+05 0.38596365D+05 0.38596365D+05 0.11573174D+01  1  2  2  1  7  1        3 0.211832235389D-04 0.100000000000D+01
-.420477201798D-07 0.000000000000D+00 -.296962253375D-08 0.425769775178D-07 0.000000000000D+00  7 3 -3 23 -11 11 23 21 2 0.51777208D-01 0.22982251D-01 0.38596365D+05 0.38596365D+05 0.38596365D+05 0.11573174D+01  1  2  3  1  7  1        3 -.154276300439D-05 0.100000000000D+01
0.486562055580D-07 0.000000000000D+00 0.000000000000D+00 0.425769775178D-07 0.000000000000D+00  7 3 -3 23 -11 11 23 21 2 0.51777208D-01 0.22982251D-01 0.38596365D+05 0.38596365D+05 0.38596365D+05 0.11573174D+01  1  2 15  1  7  1        3 0.178523338597D-05 0.100000000000D+01
0.111612032684D-05 0.000000000000D+00 0.000000000000D+00 0.425769775178D-07 0.000000000000D+00  7 3 -3 23 -11 11 23 21 2 0.17726035D+00 0.22982251D-01 0.71868333D+05 0.71868333D+05 0.71868333D+05 0.11336884D+01  1  2 12  1  7  1        3 0.200221185313D-05 0.100000000000D+01
-.294096297557D-05 0.000000000000D+00 -.277815147348D-06 0.425769775178D-07 0.000000000000D+00  7 3 -3 23 -11 11 23 21 2 0.18468641D+00 0.22982251D-01 0.38596365D+05 0.38596365D+05 0.38596365D+05 0.11573174D+01  1  2  5  1  7  1        3 -.484926051812D-05 0.100000000000D+01
0.160098416079D-06 0.000000000000D+00 0.000000000000D+00 0.425769775178D-07 0.000000000000D+00  7 21 -3 23 -11 11 23 -3 2 0.17726035D+00 0.22982251D-01 0.71868333D+05 0.71868333D+05 0.71868333D+05 0.11336884D+01  1  2 12  3  7  1        3 0.379059787699D-05 0.100000000000D+01
-.430779993263D-06 0.000000000000D+00 -.414621199252D-07 0.425769775178D-07 0.000000000000D+00  7 21 -3 23 -11 11 23 -3 2 0.18468641D+00 0.22982251D-01 0.38596365D+05 0.38596365D+05 0.38596365D+05 0.11573174D+01  1  2  5  3  7  1        3 -.967664777503D-05 0.100000000000D+01
  </mgrwgt>
  </event>
  <event>
  8     66 0.56006291E-06 0.23722698E+03 0.75467711E-02 0.96341636E-01
        1 -1    0    0  501    0 0.00000000E+00 0.00000000E+00 0.78406057E+03 0.78406063E+03 0.32000000E+00 0.0000E+00 0.9000E+01
       -1 -1    0    0    0  501 0.00000000E+00 0.00000000E+00 -.12574018E+03 0.12574058E+03 0.32000000E+00 0.0000E+00 0.9000E+01
       25  2    1    2    0    0 0.79225600E+02 0.14945736E+03 0.16934175E+03 0.38391187E+03 0.30016245E+03 0.0000E+00 0.0000E+00
       23  2    1    2    0    0 -.79225600E+02 -.14945736E+03 0.48897864E+03 0.52588934E+03 0.94049418E+02 0.0000E+00 0.0000E+00
       23  1    3    3    0    0 0.10786802E+03 0.69343105E+02 0.20097682E+03 0.25524676E+03 0.91188000E+02 0.0000E+00 0.9000E+01
      -13  1    4    4    0    0 0.20561555E+02 -.34495170E+02 0.12716712E+03 0.13335734E+03 0.10565837E+00 0.0000E+00 0.9000E+01
       13  1    4    4    0    0 -.99787155E+02 -.11496219E+03 0.36181152E+03 0.39253200E+03 0.10565837E+00 0.0000E+00 0.9000E+01
       23  1    3    3    0    0 -.28642418E+02 0.80114256E+02 -.31635065E+02 0.12866511E+03 0.91188000E+02 0.0000E+00 0.9000E+01
#aMCatNLO 1  0  0  2  2 0.31069940D+03 0.00000000D+00  -5  7  0 0.00000000D+00 0.00000000D+00 0.00000000D+00 0.00000000D+00 0.00000000D+00
  <mgrwgt>
 0.2190000491D-03    3    2    0
 0.313987464277253D+03 0.000000000000000D+00 0.000000000000000D+00 0.313987464277253D+03
 0.313987464277253D+03 0.000000000000000D+00 0.000000000000000D+00 -.313987464277253D+03
 0.159109337277910D+03 0.107868018997079D+03 0.693431066835299D+02 0.235913945780713D+02
 0.598938919346813D+02 0.205616974883845D+02 -.344950698026061D+02 0.444363032530022D+02
 0.189399741860584D+03 -.997872994402914D+02 -.114962295272544D+03 0.112687300761612D+03
 0.219571957481330D+03 -.286424170451721D+02 0.801142583916204D+02 -.180714998592685D+03
 0.000000000000000D+00 -.000000000000000D+00 -.000000000000000D+00 0.000000000000000D+00
 0.506900596701856D+03 0.000000000000000D+00 0.000000000000000D+00 0.506900596701856D+03
 0.504441547365418D+03 0.000000000000000D+00 0.000000000000000D+00 -.504441547365418D+03
 0.232703533551966D+03 0.150460333478313D+03 0.150468658979295D+03 0.235913945780713D+02
 0.564418050792778D+02 0.332080574257629D+02 -.104075566691540D+02 0.444363032530022D+02
 0.138003356405040D+03 -.641966980036308D+02 -.471729010296072D+02 0.112687300761612D+03
 0.273484322508430D+03 0.249556388068259D+02 0.182202438757784D+03 -.180714998592685D+03
 0.310709126522561D+03 -.144427331707271D+03 -.275090640038318D+03 0.245904933643797D+01
0.381091684517D-05 0.000000000000D+00 0.000000000000D+00 0.100968480687D-06 0.000000000000D+00  7 1 -1 23 -13 13 23 21 0 0.12062474D+00 0.19344679D-01 0.56276640D+05 0.56276640D+05 0.56276640D+05 0.11428052D+01  1  2  2  2  7  2       -1 0.215045210975D-03 0.100000000000D+01
-.191487636323D-06 0.000000000000D+00 -.146349241229D-07 0.100968480687D-06 0.000000000000D+00  7 1 -1 23 -13 13 23 21 2 0.12062474D+00 0.19344679D-01 0.56276640D+05 0.56276640D+05 0.56276640D+05 0.11428052D+01  1  2  3  2  7  2       -1 -.141118980337D-04 0.100000000000D+01
0.245151756939D-06 0.000000000000D+00 0.000000000000D+00 0.100968480687D-06 0.000000000000D+00  7 1 -1 23 -13 13 23 21 2 0.12062474D+00 0.19344679D-01 0.56276640D+05 0.56276640D+05 0.56276640D+05 0.11428052D+01  1  2 15  2  7  2       -1 0.180667361252D-04 0.100000000000D+01
  </mgrwgt>
  </event>
  <event>
  8     66 0.56006291E-06 0.23800887E+03 0.75467711E-02 0.98428157E-01
        1 -1    0    0  501    0 0.00000000E+00 0.00000000E+00 0.36083187E+03 0.36083201E+03 0.32000000E+00 0.0000E+00 0.9000E+01
       -1 -1    0    0    0  501 0.00000000E+00 0.00000000E+00 -.29771049E+03 0.29771066E+03 0.32000000E+00 0.0000E+00 0.9000E+01
       25  2    1    2    0    0 -.23407726E+03 0.23755522E+02 0.11102162E+03 0.39695921E+03 0.29982383E+03 0.0000E+00 0.0000E+00
       23  2    1    2    0    0 0.23407726E+03 -.23755522E+02 -.47900245E+02 0.26158346E+03 0.10380262E+03 0.0000E+00 0.0000E+00
       23  1    3    3    0    0 -.12575688E+03 0.11629068E+03 -.10568835E+01 0.19404815E+03 0.91188000E+02 0.0000E+00 0.9000E+01
      -13  1    4    4    0    0 0.21460178E+03 -.19807712E+02 -.74812356E+02 0.22812972E+03 0.10565837E+00 0.0000E+00 0.9000E+01
       13  1    4    4    0    0 0.19475476E+02 -.39478100E+01 0.26912111E+02 0.33453733E+02 0.10565837E+00 0.0000E+00 0.9000E+01
       23  1    3    3    0    0 -.10832038E+03 -.92535155E+02 0.11207850E+03 0.20291107E+03 0.91188000E+02 0.0000E+00 0.9000E+01
#aMCatNLO 1  0  0  2  1 0.11295680D+03 0.00000000D+00  -5  7  0 0.00000000D+00 0.00000000D+00 0.00000000D+00 0.00000000D+00 0.00000000D+00
  <mgrwgt>
 0.1335790788D-03    7    2    0
 0.327755298802675D+03 0.000000000000000D+00 0.000000000000000D+00 0.327755298802675D+03
 0.327755298802675D+03 0.000000000000000D+00 0.000000000000000D+00 -.327755298802675D+03
 0.195047498782399D+03 -.125756894274647D+03 0.116290678271278D+03 -.197473321456707D+02
 0.236389097783469D+03 0.214602003721062D+03 -.198077321995727D+02 -.971258940494129D+02
 0.310167788688282D+02 0.194752866370515D+02 -.394779252618212D+01 0.238153042385079D+02
 0.193057222170653D+03 -.108320396083467D+03 -.925351535455231D+02 0.930579219565758D+02
 0.000000000000000D+00 0.000000000000000D+00 0.000000000000000D+00 -.000000000000000D+00
 0.338474040543975D+03 0.000000000000000D+00 0.000000000000000D+00 0.338474040543975D+03
 0.874315577484935D+03 0.000000000000000D+00 0.000000000000000D+00 -.874315577484935D+03
 0.178681296816248D+03 -.126914881002559D+03 0.843469640305502D+02 -.197473321456707D+02
 0.241944394704681D+03 0.213119902683250D+03 -.606923217087523D+02 -.971258940494129D+02
 0.320321685672930D+02 0.192799314886132D+02 -.933677401167891D+01 0.238153042385079D+02
 0.212513833532725D+03 -.109577045036560D+03 -.127200520678785D+03 0.930579219565758D+02
 0.547617924407964D+03 0.409209186725562D+01 0.112882652368666D+03 -.535841536940961D+03
0.394505192333D-05 0.000000000000D+00 0.000000000000D+00 0.108558996919D-07 0.000000000000D+00  7 1 -1 23 -13 13 23 21 0 0.55512619D-01 0.45801638D-01 0.89574397D+05 0.89574397D+05 0.89574397D+05 0.11256672D+01  1  2  2  2  7  2       -1 0.157034541093D-03 0.100000000000D+01
-.216969877619D-06 0.000000000000D+00 -.151500381416D-07 0.108558996919D-07 0.000000000000D+00  7 1 -1 23 -13 13 23 21 2 0.55512619D-01 0.45801638D-01 0.89574397D+05 0.89574397D+05 0.89574397D+05 0.11256672D+01  1  2  3  2  7  2       -1 -.109436425269D-04 0.100000000000D+01
0.251351388767D-06 0.000000000000D+00 0.000000000000D+00 0.108558996919D-07 0.000000000000D+00  7 1 -1 23 -13 13 23 21 2 0.55512619D-01 0.45801638D-01 0.89574397D+05 0.89574397D+05 0.89574397D+05 0.11256672D+01  1  2 15  2  7  2       -1 0.126777955423D-04 0.100000000000D+01
0.179429362388D-04 0.000000000000D+00 0.000000000000D+00 0.108558996919D-07 0.000000000000D+00  7 1 -1 23 -13 13 23 21 2 0.55512619D-01 0.12149293D+00 0.13126658D+06 0.13126658D+06 0.13126658D+06 0.11121532D+01  1  2 12  2  7  2       -1 0.121921617604D-03 0.100000000000D+01
-.201547947049D-04 0.000000000000D+00 -.118414573346D-05 0.108558996919D-07 0.000000000000D+00  7 1 -1 23 -13 13 23 21 2 0.55512619D-01 0.12350282D+00 0.89574397D+05 0.89574397D+05 0.89574397D+05 0.11256672D+01  1  2  5  2  7  2       -1 -.136775719161D-03 0.100000000000D+01
0.194624966811D-05 0.000000000000D+00 0.000000000000D+00 0.108558996919D-07 0.000000000000D+00  7 1 21 23 -13 13 23 1 2 0.55512619D-01 0.12149293D+00 0.13126658D+06 0.13126658D+06 0.13126658D+06 0.11121532D+01  1  2 12  4  7  2       -1 0.885973145312D-04 0.100000000000D+01
-.216050835513D-05 0.000000000000D+00 -.130990829432D-06 0.108558996919D-07 0.000000000000D+00  7 1 21 23 -13 13 23 1 2 0.55512619D-01 0.12350282D+00 0.89574397D+05 0.89574397D+05 0.89574397D+05 0.11256672D+01  1  2  5  4  7  2       -1 -.989328282496D-04 0.100000000000D+01
  </mgrwgt>
  </event>
  <event>
  8     66 0.56006291E-06 0.24485273E+03 0.75467711E-02 0.92722155E-01
        1 -1    0    0  501    0 0.00000000E+00 0.00000000E+00 0.48555757E+03 0.48555767E+03 0.32000000E+00 0.0000E+00 0.9000E+01
       -1 -1    0    0    0  501 0.00000000E+00 0.00000000E+00 -.12669861E+03 0.12669901E+03 0.32000000E+00 0.0000E+00 0.9000E+01
       25  2    1    2    0    0 0.12473558E+03 -.16700183E+02 0.23581626E+03 0.40183529E+03 0.30004072E+03 0.0000E+00 0.0000E+00
       23  2    1    2    0    0 -.12473558E+03 0.16700183E+02 0.12304270E+03 0.21042139E+03 0.11532474E+03 0.0000E+00 0.0000E+00
       23  1    3    3    0    0 -.17797857E+02 0.84026126E+02 0.64874850E+02 0.14107144E+03 0.91188000E+02 0.0000E+00 0.9000E+01
      -13  1    4    4    0    0 0.68991434E+01 -.27738745E+02 0.37912826E+02 0.47480835E+02 0.10565837E+00 0.0000E+00 0.9000E+01
       13  1    4    4    0    0 -.13163473E+03 0.44438928E+02 0.85129874E+02 0.16294056E+03 0.10565837E+00 0.0000E+00 0.9000E+01
       23  1    3    3    0    0 0.14253344E+03 -.10072631E+03 0.17094141E+03 0.26076385E+03 0.91188000E+02 0.0000E+00 0.9000E+01
#aMCatNLO 1  0  0  2  2 0.49277822D+03 0.00000000D+00  -5  7  0 0.00000000D+00 0.00000000D+00 0.00000000D+00 0.00000000D+00 0.00000000D+00
  <mgrwgt>
 0.1864496540D-03    3    2    0
 0.248031499149585D+03 0.000000000000000D+00 0.000000000000000D+00 0.248031499149585D+03
 0.248031499149585D+03 0.000000000000000D+00 0.000000000000000D+00 -.248031499149585D+03
 0.127182947229093D+03 -.177955944491687D+02 0.840258229792712D+02 -.219824614803526D+02
 0.311719454918482D+02 0.689570132326128D+01 -.277360695826684D+02 0.124438713072945D+02
 0.139523732167681D+03 -.131637072372147D+03 0.444370273236283D+02 -.128024848341222D+02
 0.198184373410548D+03 0.142536965498055D+03 -.100726780720231D+03 0.223410750071803D+02
 0.000000000000000D+00 -.000000000000000D+00 0.000000000000000D+00 0.000000000000000D+00
 0.169881079215908D+04 0.000000000000000D+00 0.000000000000000D+00 0.169881079215908D+04
 0.394605324990674D+03 0.000000000000000D+00 0.000000000000000D+00 -.394605324990674D+03
 0.136907695490046D+03 0.858625607761912D+02 0.507233455581829D+02 -.219824614803526D+02
 0.588873780692539D+02 0.422448649477969D+02 -.390927710491484D+02 0.124438713072945D+02
 0.586639385743834D+02 -.538464769689554D+02 0.194450762190035D+02 -.128024848341222D+02
 0.444761179506441D+03 0.394899371221770D+03 -.181803791016951D+03 0.223410750071803D+02
 0.139419592550963D+04 -.469160319976803D+03 0.150728140288913D+03 0.130420546716841D+04
0.165718114950D-05 0.000000000000D+00 0.000000000000D+00 0.907630904557D-09 0.000000000000D+00  7 1 -1 23 -13 13 23 21 0 0.74701203D-01 0.19492133D-01 0.59952857D+05 0.59952857D+05 0.59952857D+05 0.11404246D+01  1  2  2  2  7  2       -1 0.184327652831D-03 0.100000000000D+01
-.920469950983D-07 0.000000000000D+00 -.636401195988D-08 0.907630904557D-09 0.000000000000D+00  7 1 -1 23 -13 13 23 21 2 0.74701203D-01 0.19492133D-01 0.59952857D+05 0.59952857D+05 0.59952857D+05 0.11404246D+01  1  2  3  2  7  2       -1 -.133156770563D-04 0.100000000000D+01
0.106715707392D-06 0.000000000000D+00 0.000000000000D+00 0.907630904557D-09 0.000000000000D+00  7 1 -1 23 -13 13 23 21 2 0.74701203D-01 0.19492133D-01 0.59952857D+05 0.59952857D+05 0.59952857D+05 0.11404246D+01  1  2 15  2  7  2       -1 0.154376782745D-04 0.100000000000D+01
  </mgrwgt>
  </event>
  <event>
  8     66 0.56006291E-06 0.10863407E+03 0.75467711E-02 0.10050606E+00
        1 -1    0    0  501    0 0.00000000E+00 0.00000000E+00 0.12126908E+03 0.12126950E+03 0.32000000E+00 0.0000E+00 0.9000E+01
       -1 -1    0    0    0  501 0.00000000E+00 0.00000000E+00 -.86332551E+03 0.86332557E+03 0.32000000E+00 0.0000E+00 0.9000E+01
       25  2    1    2    0    0 0.26786025E+02 0.23896944E+03 -.38651617E+03 0.54538336E+03 0.30037372E+03 0.0000E+00 0.0000E+00
       23  2    1    2    0    0 -.26786025E+02 -.23896944E+03 -.35554026E+03 0.43921171E+03 0.93135203E+02 0.0000E+00 0.0000E+00
       23  1    3    3    0    0 -.88598108E+02 0.16172624E+03 -.14274512E+03 0.25039254E+03 0.91188000E+02 0.0000E+00 0.9000E+01
      -13  1    4    4    0    0 -.29745773E+02 -.13582721E+03 -.27557963E+03 0.30867132E+03 0.10565837E+00 0.0000E+00 0.9000E+01
       13  1    4    4    0    0 0.29597488E+01 -.10314223E+03 -.79960633E+02 0.13054039E+03 0.10565837E+00 0.0000E+00 0.9000E+01
       23  1    3    3    0    0 0.11538413E+03 0.77243196E+02 -.24377105E+03 0.29499082E+03 0.91188000E+02 0.0000E+00 0.9000E+01
#aMCatNLO 1  0  0  1  2 0.13011733D+02 0.00000000D+00  -5  7  0 0.00000000D+00 0.00000000D+00 0.00000000D+00 0.00000000D+00 0.00000000D+00
  <mgrwgt>
 0.1123507122D-05    1    2    0
 0.323565950599866D+03 0.000000000000000D+00 0.000000000000000D+00 0.323565950599866D+03
 0.323565950599866D+03 0.000000000000000D+00 0.000000000000000D+00 -.323565950599866D+03
 0.217282318825130D+03 -.885981071213568D+02 0.161726239729025D+03 0.699382122136956D+02
 0.153632765457496D+03 -.297458151305264D+02 -.135827252180828D+03 -.653388909405734D+02
 0.106924231157369D+03 0.295979031182346D+01 -.103142184282331D+03 0.280307094340140D+02
 0.169292585759737D+03 0.115384131940060D+03 0.772431967341351D+02 -.326300307071362D+02
 0.000000000000000D+00 0.000000000000000D+00 -.000000000000000D+00 -.000000000000000D+00
 0.401445525317526D+03 0.000000000000000D+00 0.000000000000000D+00 0.401445525317526D+03
 0.427210684727838D+03 0.000000000000000D+00 0.000000000000000D+00 -.427210684727838D+03
 0.265344329865933D+03 -.135597232979688D+03 0.197013702387944D+03 0.699382122136956D+02
 0.143977330221213D+03 -.587276676275842D+02 -.114067357308338D+03 -.653388909405734D+02
 0.942484091035505D+02 -.166307943865529D+02 -.884333569714975D+02 0.280307094340140D+02
 0.163043512633065D+03 0.830205934616272D+02 0.101542098782028D+03 -.326300307071362D+02
 0.162042628221602D+03 0.127935101532198D+03 -.960550868901363D+02 -.257651594103126D+02
0.482600737890D-07 0.000000000000D+00 0.000000000000D+00 0.179391808206D-06 0.000000000000D+00  7 1 -1 23 -13 13 23 21 2 0.18656818D-01 0.13281935D+00 0.94269865D+05 0.94269865D+05 0.94269865D+05 0.11238311D+01  1  2 14  1  7  1        1 0.112350712153D-05 0.100000000000D+01
  </mgrwgt>
  </event>
  <event>
  8     66 0.56006291E-06 0.14598964E+03 0.75467711E-02 0.99406013E-01
        1 -1    0    0  501    0 0.00000000E+00 0.00000000E+00 0.44260713E+03 0.44260725E+03 0.32000000E+00 0.0000E+00 0.9000E+01
       -1 -1    0    0    0  501 0.00000000E+00 0.00000000E+00 -.54375032E+03 0.54375042E+03 0.32000000E+00 0.0000E+00 0.9000E+01
       25  2    1    2    0    0 0.21915302E+03 0.20148793E+03 0.27008782E+03 0.50298961E+03 0.30236681E+03 0.0000E+00 0.0000E+00
       23  2    1    2    0    0 -.21915302E+03 -.20148793E+03 -.37123101E+03 0.48336805E+03 0.84892767E+02 0.0000E+00 0.0000E+00
       23  1    3    3    0    0 0.36566885E+02 0.60138948E+02 -.24474818E+02 0.11776289E+03 0.91188000E+02 0.0000E+00 0.9000E+01
      -11  1    4    4    0    0 -.20528238E+03 -.19699742E+03 -.37250729E+03 0.46873289E+03 0.51099893E-03 0.0000E+00 0.9000E+01
       11  1    4    4    0    0 -.13870637E+02 -.44905060E+01 0.12762773E+01 0.14635167E+02 0.51099893E-03 0.0000E+00 0.9000E+01
       23  1    3    3    0    0 0.18258614E+03 0.14134898E+03 0.29456263E+03 0.38522672E+03 0.91188000E+02 0.0000E+00 0.9000E+01
#aMCatNLO 1  0  0  2  1 0.70166688D+01 0.00000000D+00  -5  7  0 0.00000000D+00 0.00000000D+00 0.00000000D+00 0.00000000D+00 0.00000000D+00
  <mgrwgt>
 0.4822395729D-03    8    2    0
 0.490579121260481D+03 0.000000000000000D+00 0.000000000000000D+00 0.490579121260481D+03
 0.490579121260481D+03 0.000000000000000D+00 0.000000000000000D+00 -.490579121260481D+03
 0.115863947934676D+03 0.365668846340087D+02 0.601389478946959D+02 -.124648698866640D+02
 0.432816726342710D+03 -.205282384407714D+03 -.196997419161106D+03 -.326161736103068D+03
 0.148442880973272D+02 -.138706372037655D+02 -.449050603806138D+01 0.279171420458881D+01
 0.417633280146248D+03 0.182586136977470D+03 0.141348977304472D+03 0.335834891785144D+03
 0.000000000000000D+00 -.000000000000000D+00 0.000000000000000D+00 0.000000000000000D+00
 0.494243693155515D+03 0.000000000000000D+00 0.000000000000000D+00 0.494243693155515D+03
 0.493961961116895D+03 0.000000000000000D+00 0.000000000000000D+00 -.493961961116895D+03
 0.116067883905216D+03 0.373885837280613D+02 0.600268536219671D+02 -.124648698866640D+02
 0.431563629870293D+03 -.202220016685342D+03 -.197415180218837D+03 -.326161736103068D+03
 0.147507239631227D+02 -.137657865913867D+02 -.450480951390167D+01 0.279171420458881D+01
 0.418801094013118D+03 0.185549496349183D+03 0.140944722734873D+03 0.335834891785144D+03
 0.702232252065913D+01 -.695227680051568D+01 0.948413375898311D+00 0.281732038620180D+00
0.379050196877D-04 0.000000000000D+00 0.000000000000D+00 0.723226543240D-08 0.000000000000D+00  7 1 -1 23 -11 11 23 21 0 0.68093421D-01 0.83653912D-01 0.10974144D+06 0.10974144D+06 0.10974144D+06 0.11184241D+01  1  2  2  2  7  2       -1 0.366483638158D-03 0.100000000000D+01
-.171109839037D-05 0.000000000000D+00 -.145565256222D-06 0.723226543240D-08 0.000000000000D+00  7 1 -1 23 -11 11 23 21 2 0.68093421D-01 0.83653912D-01 0.10974144D+06 0.10974144D+06 0.10974144D+06 0.11184241D+01  1  2  3  2  7  2       -1 -.206940700405D-04 0.100000000000D+01
0.241572375128D-05 0.000000000000D+00 0.000000000000D+00 0.723226543240D-08 0.000000000000D+00  7 1 -1 23 -11 11 23 21 2 0.68093421D-01 0.83653912D-01 0.10974144D+06 0.10974144D+06 0.10974144D+06 0.11184241D+01  1  2 15  2  7  2       -1 0.292158281424D-04 0.100000000000D+01
0.113140666506D-04 0.000000000000D+00 0.000000000000D+00 0.723226543240D-08 0.000000000000D+00  7 1 -1 23 -11 11 23 21 2 0.68093421D-01 0.84540964D-01 0.11213158D+06 0.11213158D+06 0.11213158D+06 0.11176640D+01  1  2 12  2  7  2       -1 0.133621414751D-03 0.100000000000D+01
-.217902705144D-04 0.000000000000D+00 0.000000000000D+00 0.723226543240D-08 0.000000000000D+00  7 1 -1 23 -11 11 23 21 2 0.68093421D-01 0.83653912D-01 0.10974144D+06 0.10974144D+06 0.10974144D+06 0.11184241D+01  1  2  4  2  7  2       -1 -.263532118764D-03 0.100000000000D+01
0.135504482918D-04 0.000000000000D+00 0.000000000000D+00 0.723226543240D-08 0.978697231380D-09  7 1 -1 23 -11 11 23 21 2 0.68602071D-01 0.84230756D-01 0.11213158D+06 0.11213158D+06 0.11213158D+06 0.11176640D+01  1  2 11  2  7  2       -1 0.159629733297D-03 0.100000000000D+01
0.824592616856D-06 0.000000000000D+00 0.000000000000D+00 0.723226543240D-08 0.000000000000D+00  7 1 21 23 -11 11 23 1 2 0.68093421D-01 0.84540964D-01 0.11213158D+06 0.11213158D+06 0.11213158D+06 0.11176640D+01  1  2 12  4  7  2       -1 0.742070952073D-04 0.100000000000D+01
0.368013742217D-07 0.000000000000D+00 0.000000000000D+00 0.723226543240D-08 0.124965250000D-11  7 1 21 23 -11 11 23 1 2 0.68602071D-01 0.84230756D-01 0.11213158D+06 0.11213158D+06 0.11213158D+06 0.11176640D+01  1  2 11  4  7  2       -1 0.330805214660D-05 0.100000000000D+01
  </mgrwgt>
  </event>
  <event>
  7     66 0.56006291E-06 0.24438035E+03 0.75467711E-02 0.87267629E-01
        1 -1    0    0  501    0 0.00000000E+00 0.00000000E+00 0.97271700E+03 0.97271705E+03 0.32000000E+00 0.0000E+00 0.9000E+01
       -1 -1    0    0    0  501 0.00000000E+00 0.00000000E+00 -.14461580E+03 0.14461616E+03 0.32000000E+00 0.0000E+00 0.9000E+01
       25  2    1    2    0    0 0.15300507E+01 -.48187475E+02 0.78107383E+03 0.83879445E+03 0.30195271E+03 0.0000E+00 0.0000E+00
       23  1    3    3    0    0 0.55752585E+02 -.13168166E+03 0.39808587E+03 0.43270778E+03 0.91188000E+02 0.0000E+00 0.9000E+01
      -13  1    1    2    0    0 0.53231476E+02 -.49175556E+02 0.12347969E+03 0.14317497E+03 0.10565837E+00 0.0000E+00 0.9000E+01
       13  1    1    2    0    0 -.54761527E+02 0.97363031E+02 -.76452326E+02 0.13536378E+03 0.10565837E+00 0.0000E+00 0.9000E+01
       23  1    3    3    0    0 -.54222534E+02 0.83494184E+02 0.38298796E+03 0.40608668E+03 0.91188000E+02 0.0000E+00 0.9000E+01
#aMCatNLO 1  0  0  2  1 0.94993989D+03 0.00000000D+00  -5  7  0 0.00000000D+00 0.00000000D+00 0.00000000D+00 0.00000000D+00 0.00000000D+00
  <mgrwgt>
 0.7508351229D-03    5    2    0
 0.375060629526661D+03 0.000000000000000D+00 0.000000000000000D+00 0.375060629526661D+03
 0.375060629526661D+03 0.000000000000000D+00 0.000000000000000D+00 -.375060629526661D+03
 0.205072892954795D+03 0.557526609627346D+02 -.131684056357014D+03 0.115284821974906D+03
 0.769312021091820D+02 0.532236276082110D+02 -.491659305015302D+02 0.258527870858246D+02
 0.286032102487856D+03 -.547538220184220D+02 0.973579319133515D+02 -.263320746849832D+03
 0.182085061501489D+03 -.542224665525236D+02 0.834920549451930D+02 0.122183137789101D+03
 0.000000000000000D+00 0.000000000000000D+00 -.000000000000000D+00 -.000000000000000D+00
 0.907770495888352D+03 0.000000000000000D+00 0.000000000000000D+00 0.907770495888352D+03
 0.135079928300653D+04 0.000000000000000D+00 0.000000000000000D+00 -.135079928300653D+04
 0.157297493892508D+03 0.361264252067169D+02 0.427965122978653D+02 0.115284821974906D+03
 0.547299135817366D+02 0.460927687128920D+02 0.142286159881847D+02 0.258527870858246D+02
 0.591813291869343D+03 -.102298547780598D+03 0.520038617636859D+03 -.263320746849832D+03
 0.406559106386764D+03 -.861038498959365D+02 0.366922966731590D+03 0.122183137789101D+03
 0.104816997316453D+04 0.106183203756926D+03 -.943986712654499D+03 -.443028787118181D+03
0.215754903043D-04 0.000000000000D+00 0.000000000000D+00 0.147745235236D-10 0.000000000000D+00  7 1 -1 23 -13 13 23 21 0 0.14964880D+00 0.22248616D-01 0.59721755D+05 0.59721755D+05 0.59721755D+05 0.11405694D+01  1  2  2  2  7  2       -1 0.686537735942D-03 0.100000000000D+01
-.931219951834D-06 0.000000000000D+00 -.828555637254D-07 0.147745235236D-10 0.000000000000D+00  7 1 -1 23 -13 13 23 21 2 0.14964880D+00 0.22248616D-01 0.59721755D+05 0.59721755D+05 0.59721755D+05 0.11405694D+01  1  2  3  2  7  2       -1 -.385477883353D-04 0.100000000000D+01
0.130979856012D-05 0.000000000000D+00 0.000000000000D+00 0.147745235236D-10 0.000000000000D+00  7 1 -1 23 -13 13 23 21 2 0.14964880D+00 0.22248616D-01 0.59721755D+05 0.59721755D+05 0.59721755D+05 0.11405694D+01  1  2 15  2  7  2       -1 0.542190247941D-04 0.100000000000D+01
0.362772891236D-04 0.000000000000D+00 -.128629604676D-04 0.147745235236D-10 0.000000000000D+00  7 1 -1 23 -13 13 23 21 2 0.14964880D+00 0.18180355D+00 0.59721755D+05 0.59721755D+05 0.59721755D+05 0.11405694D+01  1  2  5  2  7  2       -1 0.203821414886D-04 0.100000000000D+01
0.764697907415D-05 0.000000000000D+00 -.327494011129D-05 0.147745235236D-10 0.000000000000D+00  7 1 21 23 -13 13 23 1 2 0.14964880D+00 0.18180355D+00 0.59721755D+05 0.59721755D+05 0.59721755D+05 0.11405694D+01  1  2  5  4  7  2       -1 0.282440089758D-04 0.100000000000D+01
  </mgrwgt>
  </event>
  <event>
  9     66 0.56006291E-06 0.15511481E+03 0.75467711E-02 0.10475622E+00
        1 -1    0    0  501    0 0.00000000E+00 0.00000000E+00 0.11950206E+04 0.11950207E+04 0.32000000E+00 0.0000E+00 0.9000E+01
       -1 -1    0    0    0  502 0.00000000E+00 0.00000000E+00 -.30376027E+03 0.30376044E+03 0.32000000E+00 0.0000E+00 0.9000E+01
       25  2    1    2    0    0 -.28798029E+02 0.43118102E+01 0.10036286E+04 0.10479715E+04 0.30020993E+03 0.0000E+00 0.0000E+00
       23  2    1    2    0    0 -.70583256E+02 0.69708392E+02 -.23834390E+03 0.27410063E+03 0.92098241E+02 0.0000E+00 0.0000E+00
       23  1    3    3    0    0 -.77553866E+02 0.94627434E+01 0.17111442E+03 0.20904435E+03 0.91188000E+02 0.0000E+00 0.9000E+01
      -13  1    4    4    0    0 -.20130752E+02 0.23744066E+02 -.18466312E+03 0.18726854E+03 0.10565837E+00 0.0000E+00 0.9000E+01
       13  1    4    4    0    0 -.50452504E+02 0.45964326E+02 -.53680778E+02 0.86832088E+02 0.10565837E+00 0.0000E+00 0.9000E+01
       23  1    3    3    0    0 0.48755837E+02 -.51509333E+01 0.83251419E+03 0.83892716E+03 0.91188000E+02 0.0000E+00 0.9000E+01
       21  1    1    2  501  502 0.99381285E+02 -.74020202E+02 0.12597565E+03 0.17670896E+03 0.75000000E+00 0.0000E+00 0.9000E+01
#aMCatNLO 2  0  0  2  1 0.12391784D+03 0.00000000D+00  -5  7  0 0.00000000D+00 0.00000000D+00 0.00000000D+00 0.00000000D+00 0.00000000D+00
  <mgrwgt>
 0.7745172858D-04    1    2    0
 0.535457385078236D+03 0.000000000000000D+00 0.000000000000000D+00 0.535457385078236D+03
 0.535457385078236D+03 0.000000000000000D+00 0.000000000000000D+00 -.535457385078236D+03
 0.127939807934205D+03 -.653990266011559D+02 0.409693911625853D+00 0.614503261241242D+02
 0.359640699165788D+03 0.131840785978848D+02 -.106916113303793D+01 -.359397369860233D+03
 0.137697910945564D+03 -.373977867628286D+02 0.362410375761516D+02 -.127470417820836D+03
 0.445636352110915D+03 0.896127347660998D+02 -.355815703547395D+02 0.425417461556946D+03
 0.000000000000000D+00 0.000000000000000D+00 -.000000000000000D+00 0.000000000000000D+00
 0.617193015620040D+03 0.000000000000000D+00 0.000000000000000D+00 0.617193015620040D+03
 0.588144386290739D+03 0.000000000000000D+00 0.000000000000000D+00 -.588144386290739D+03
 0.134890843336226D+03 -.775538662987342D+02 0.946274343492441D+01 0.614503261241242D+02
 0.360742975437700D+03 -.201307119078406D+02 0.237440372151674D+02 -.359397369860233D+03
 0.144592145583974D+03 -.504525441465344D+02 0.459643550406248D+02 -.127470417820836D+03
 0.437834365637060D+03 0.487558373691441D+02 -.515093328293477D+01 0.425417461556946D+03
 0.127277071915818D+03 0.993812849839650D+02 -.740202024077818D+02 0.290486293293012D+02
0.921709896262D-05 0.000000000000D+00 0.000000000000D+00 0.229245008904D-05 0.105975309711D-08  7 1 -1 23 -13 13 23 21 2 0.18384900D+00 0.46732279D-01 0.49932329D+05 0.49932329D+05 0.49932329D+05 0.11473471D+01  1  2  1  2  7  2       -1 0.774517285831D-04 0.100000000000D+01
  </mgrwgt>
  </event>
  <event>
  8     66 0.56006291E-06 0.17858435E+03 0.75467711E-02 0.91035716E-01
        1 -1    0    0  501    0 0.00000000E+00 0.00000000E+00 0.62085372E+02 0.62086196E+02 0.32000000E+00 0.0000E+00 0.9000E+01
       -1 -1    0    0    0  501 0.00000000E+00 0.00000000E+00 -.82053057E+03 0.82053063E+03 0.32000000E+00 0.0000E+00 0.9000E+01
       25  2    1    2    0    0 -.55207868E+02 -.80038192E+02 -.58044266E+03 0.66014201E+03 0.29903140E+03 0.0000E+00 0.0000E+00
       23  2    1    2    0    0 0.55207868E+02 0.80038192E+02 -.17800254E+03 0.22247481E+03 0.91411807E+02 0.0000E+00 0.0000E+00
       23  1    3    3    0    0 -.10137506E+02 -.91218204E+02 -.86312083E+02 0.15552671E+03 0.91188000E+02 0.0000E+00 0.9000E+01
      -11  1    4    4    0    0 0.11971132E+02 0.81327221E+02 -.77146934E+02 0.11273453E+03 0.51099893E-03 0.0000E+00 0.9000E+01
       11  1    4    4    0    0 0.43236736E+02 -.12890293E+01 -.10085561E+03 0.10974028E+03 0.51099893E-03 0.0000E+00 0.9000E+01
       23  1    3    3    0    0 -.45070362E+02 0.11180012E+02 -.49413058E+03 0.50461531E+03 0.91188000E+02 0.0000E+00 0.9000E+01
#aMCatNLO 1  0  0  2  1 0.65475177D+03 0.00000000D+00  -5  7  0 0.00000000D+00 0.00000000D+00 0.00000000D+00 0.00000000D+00 0.00000000D+00
  <mgrwgt>
 0.1382661617D-03    5    2    0
 0.225706306940760D+03 0.000000000000000D+00 0.000000000000000D+00 0.225706306940760D+03
 0.225706306940760D+03 0.000000000000000D+00 0.000000000000000D+00 -.225706306940760D+03
 0.159072879939787D+03 -.101375063645548D+02 -.912182039177328D+02 0.925494463898587D+02
 0.908031160376954D+02 0.119711323743430D+02 0.813272209092686D+02 0.385717644269246D+02
 0.451143184298969D+02 0.432367359208926D+02 -.128902927506872D+01 -.128150223499275D+02
 0.156422299474140D+03 -.450703619306808D+02 0.111800122835330D+02 -.118306188466856D+03
 0.000000000000000D+00 -.000000000000000D+00 -.000000000000000D+00 -.000000000000000D+00
 0.559398190666598D+03 0.000000000000000D+00 0.000000000000000D+00 0.559398190666598D+03
 0.106020757493957D+04 0.000000000000000D+00 0.000000000000000D+00 -.106020757493957D+04
 0.190861397184838D+03 0.138848331228693D+03 0.163878759845948D+02 0.925494463898587D+02
 0.243116877588797D+03 0.154138828401038D+03 0.184008849615108D+03 0.385717644269246D+02
 0.129225094226394D+03 0.117462398046761D+03 0.523209826465031D+02 -.128150223499275D+02
 0.232078482696782D+03 0.120335310565795D+03 0.130645434624862D+03 -.118306188466856D+03
 0.824323913909356D+03 -.530784868242287D+03 -.383363142871068D+03 -.500809384272973D+03
0.265561983806D-05 0.000000000000D+00 0.000000000000D+00 0.315716842756D-07 0.000000000000D+00  7 1 -1 23 -11 11 23 21 0 0.95516639D-02 0.12623554D+00 0.31892369D+05 0.31892369D+05 0.31892369D+05 0.11648791D+01  1  2  2  2  7  2       -1 0.136117987579D-03 0.100000000000D+01
-.137697704094D-06 0.000000000000D+00 -.101982794189D-07 0.315716842756D-07 0.000000000000D+00  7 1 -1 23 -11 11 23 21 2 0.95516639D-02 0.12623554D+00 0.31892369D+05 0.31892369D+05 0.31892369D+05 0.11648791D+01  1  2  3  2  7  2       -1 -.957718856658D-05 0.100000000000D+01
0.168295076570D-06 0.000000000000D+00 0.000000000000D+00 0.315716842756D-07 0.000000000000D+00  7 1 -1 23 -11 11 23 21 2 0.95516639D-02 0.12623554D+00 0.31892369D+05 0.31892369D+05 0.31892369D+05 0.11648791D+01  1  2 15  2  7  2       -1 0.117053054279D-04 0.100000000000D+01
0.172149377204D-05 0.000000000000D+00 -.107175424103D-05 0.315716842756D-07 0.000000000000D+00  7 1 -1 23 -11 11 23 21 2 0.95516639D-02 0.72413438D+00 0.31892369D+05 0.31892369D+05 0.31892369D+05 0.11648791D+01  1  2  5  2  7  2       -1 0.161180314766D-07 0.100000000000D+01
0.309353820111D-06 0.000000000000D+00 -.229345897892D-06 0.315716842756D-07 0.000000000000D+00  7 1 21 23 -11 11 23 1 2 0.95516639D-02 0.72413438D+00 0.31892369D+05 0.31892369D+05 0.31892369D+05 0.11648791D+01  1  2  5  4  7  2       -1 0.393927621427D-08 0.100000000000D+01
  </mgrwgt>
  </event>
  <event>
  8     66 0.56006291E-06 0.40689263E+03 0.75467711E-02 0.85613085E-01
        1 -1    0    0  501    0 0.00000000E+00 0.00000000E+00 0.24042495E+03 0.24042516E+03 0.32000000E+00 0.0000E+00 0.9000E+01
       -1 -1    0    0    0  501 0.00000000E+00 0.00000000E+00 -.93284730E+03 0.93284735E+03 0.32000000E+00 0.0000E+00 0.9000E+01
       25  2    1    2    0    0 0.15225809E+03 -.33403673E+03 -.12401391E+03 0.48992488E+03 0.29980639E+03 0.0000E+00 0.0000E+00
       23  2    1    2    0    0 -.15225809E+03 0.33403673E+03 -.56840843E+03 0.68334764E+03 0.95460951E+02 0.0000E+00 0.0000E+00
       23  1    3    3    0    0 -.41724107E+01 -.19494141E+03 -.14667320E+03 0.26047618E+03 0.91188000E+02 0.0000E+00 0.9000E+01
      -11  1    4    4    0    0 -.36296609E+02 0.39414572E+02 -.38230168E+02 0.65821714E+02 0.51099893E-03 0.0000E+00 0.9000E+01
       11  1    4    4    0    0 -.11596148E+03 0.29462216E+03 -.53017827E+03 0.61752593E+03 0.51099893E-03 0.0000E+00 0.9000E+01
       23  1    3    3    0    0 0.15643050E+03 -.13909532E+03 0.22659288E+02 0.22944869E+03 0.91188000E+02 0.0000E+00 0.9000E+01
#aMCatNLO 1  0  0  1  2 0.10829901D+04 0.00000000D+00  -5  7  0 0.00000000D+00 0.00000000D+00 0.00000000D+00 0.00000000D+00 0.00000000D+00
  <mgrwgt>
 0.1694121386D-03    5    2    0
 0.473582013439576D+03 0.000000000000000D+00 0.000000000000000D+00 0.473582013439576D+03
 0.473582013439576D+03 0.000000000000000D+00 0.000000000000000D+00 -.473582013439576D+03
 0.215432319767942D+03 -.417241068474588D+01 -.194941409303179D+03 0.873332608832698D+01
 0.535866909721080D+02 -.362966091468767D+02 0.394145723851018D+02 0.762297500084969D+00
 0.377356942558303D+03 -.115961476575039D+03 0.294622155580873D+03 -.205302176043915D+03
 0.300788073580800D+03 0.156430496406662D+03 -.139095318662796D+03 0.195806552455503D+03
 0.000000000000000D+00 0.000000000000000D+00 0.000000000000000D+00 0.000000000000000D+00
 0.144962413955242D+04 0.000000000000000D+00 0.000000000000000D+00 0.144962413955242D+04
 0.112090114299967D+04 0.000000000000000D+00 0.000000000000000D+00 -.112090114299967D+04
 0.530680625102659D+03 -.149299944438212D+03 -.500939048309802D+03 0.873332608832698D+01
 0.584636003210142D+02 -.580916772307693D+02 -.653976310983627D+01 0.762297500084969D+00
 0.325650546010912D+03 -.252704504192611D+03 0.630303019233844D+01 -.205302176043915D+03
 0.523950290478830D+03 -.399058406206137D+01 -.477339004066486D+03 0.195806552455503D+03
 0.113178022063868D+04 0.464086709923654D+03 0.978514785293786D+03 0.328722996552753D+03
0.256873496347D-04 0.000000000000D+00 0.000000000000D+00 0.140660140997D-06 0.000000000000D+00  7 1 -1 23 -11 11 23 21 0 0.36988475D-01 0.14351499D+00 0.16556161D+06 0.16556161D+06 0.16556161D+06 0.11041848D+01  1  2  2  1  7  1        1 0.154953020710D-03 0.100000000000D+01
-.138710506641D-05 0.000000000000D+00 -.986461862317D-07 0.140660140997D-06 0.000000000000D+00  7 1 -1 23 -11 11 23 21 2 0.36988475D-01 0.14351499D+00 0.16556161D+06 0.16556161D+06 0.16556161D+06 0.11041848D+01  1  2  3  1  7  1        1 -.102017252632D-04 0.100000000000D+01
0.163727790362D-05 0.000000000000D+00 0.000000000000D+00 0.140660140997D-06 0.000000000000D+00  7 1 -1 23 -11 11 23 21 2 0.36988475D-01 0.14351499D+00 0.16556161D+06 0.16556161D+06 0.16556161D+06 0.11041848D+01  1  2 15  1  7  1        1 0.120416684769D-04 0.100000000000D+01
0.269829608109D-04 0.000000000000D+00 -.135433842971D-04 0.140660140997D-06 0.000000000000D+00  7 1 -1 23 -11 11 23 21 2 0.23492904D+00 0.14351499D+00 0.16556161D+06 0.16556161D+06 0.16556161D+06 0.11041848D+01  1  2  5  1  7  1        1 0.110070512153D-04 0.100000000000D+01
0.509476579909D-05 0.000000000000D+00 -.306778360738D-05 0.140660140997D-06 0.000000000000D+00  7 21 -1 23 -11 11 23 -1 2 0.23492904D+00 0.14351499D+00 0.16556161D+06 0.16556161D+06 0.16556161D+06 0.11041848D+01  1  2  5  3  7  1        1 0.161212342295D-05 0.100000000000D+01
  </mgrwgt>
  </event>
  <event>
  8     66 0.56006291E-06 0.37412838E+03 0.75467711E-02 0.94558721E-01
        1 -1    0    0  501    0 0.00000000E+00 0.00000000E+00 0.23255976E+04 0.23255976E+04 0.32000000E+00 0.0000E+00 0.9000E+01
       -1 -1    0    0    0  501 0.00000000E+00 0.00000000E+00 -.67975374E+02 0.67976128E+02 0.32000000E+00 0.0000E+00 0.9000E+01
       25  2    1    2    0    0 0.10818327E+03 -.29486050E+03 0.93336242E+03 0.10297506E+04 0.30095605E+03 0.0000E+00 0.0000E+00
       23  2    1    2    0    0 -.10818327E+03 0.29486050E+03 0.13242598E+04 0.13638232E+04 0.87768106E+02 0.0000E+00 0.0000E+00
       23  1    3    3    0    0 0.12615811E+03 -.37232438E+02 0.37953852E+03 0.41190638E+03 0.91188000E+02 0.0000E+00 0.9000E+01
      -13  1    4    4    0    0 -.58116239E+02 0.14051640E+03 0.46054923E+03 0.48500305E+03 0.10565837E+00 0.0000E+00 0.9000E+01
       13  1    4    4    0    0 -.50067028E+02 0.15434409E+03 0.86371059E+03 0.87882012E+03 0.10565837E+00 0.0000E+00 0.9000E+01
       23  1    3    3    0    0 -.17974846E+02 -.25762806E+03 0.55382390E+03 0.61784422E+03 0.91188000E+02 0.0000E+00 0.9000E+01
#aMCatNLO 1  0  0  2  1 0.22630195D+03 0.00000000D+00  -5  7  0 0.00000000D+00 0.00000000D+00 0.00000000D+00 0.00000000D+00 0.00000000D+00
  <mgrwgt>
 0.1632644226D-03    4    2    0
 0.397598159919286D+03 0.000000000000000D+00 0.000000000000000D+00 0.397598159919286D+03
 0.397598159919286D+03 0.000000000000000D+00 0.000000000000000D+00 -.397598159919286D+03
 0.162316765326491D+03 0.126158113458979D+03 -.372324388767086D+02 -.270066078176978D+02
 0.152345211687787D+03 -.581162507801982D+02 0.140516383306282D+03 0.931187102421662D+01
 0.193145498858201D+03 -.500670169620287D+02 0.154344113292738D+03 0.104768183307651D+03
 0.287388843966093D+03 -.179748457167517D+02 -.257628057722311D+03 -.870734465141700D+02
 0.000000000000000D+00 0.000000000000000D+00 0.000000000000000D+00 0.000000000000000D+00
 0.548101568855870D+03 0.000000000000000D+00 0.000000000000000D+00 0.548101568855870D+03
 0.508423205038233D+03 0.000000000000000D+00 0.000000000000000D+00 -.508423205038233D+03
 0.150285266532595D+03 0.947740523607256D+02 -.675198646775938D+02 -.270066078176978D+02
 0.142525947464618D+03 -.877201993531345D+02 0.111946868576847D+03 0.931187102421662D+01
 0.180565271460638D+03 -.875861641633771D+02 0.118135976193598D+03 0.104768183307651D+03
 0.353394194960029D+03 -.823070380725807D+02 -.319712327074371D+03 -.870734465141700D+02
 0.229754093476222D+03 0.162839349228367D+03 0.157149346981520D+03 0.396783638176365D+02
0.171489596964D-04 0.000000000000D+00 0.000000000000D+00 0.411838579892D-07 0.000000000000D+00  7 1 -1 23 -13 13 23 21 0 0.35778431D+00 0.10457810D-01 0.13997205D+06 0.13997205D+06 0.13997205D+06 0.11099311D+01  1  2  2  2  7  2       -1 0.214550901170D-03 0.100000000000D+01
-.948431874604D-06 0.000000000000D+00 -.658565206590D-07 0.411838579892D-07 0.000000000000D+00  7 1 -1 23 -13 13 23 21 2 0.35778431D+00 0.10457810D-01 0.13997205D+06 0.13997205D+06 0.13997205D+06 0.11099311D+01  1  2  3  2  7  2       -1 -.146180938016D-04 0.100000000000D+01
0.112727006966D-05 0.000000000000D+00 0.000000000000D+00 0.411838579892D-07 0.000000000000D+00  7 1 -1 23 -13 13 23 21 2 0.35778431D+00 0.10457810D-01 0.13997205D+06 0.13997205D+06 0.13997205D+06 0.11099311D+01  1  2 15  2  7  2       -1 0.173745105572D-04 0.100000000000D+01
-.350633982797D-05 0.000000000000D+00 0.000000000000D+00 0.411838579892D-07 0.000000000000D+00  7 1 -1 23 -13 13 23 21 2 0.35778431D+00 0.10457810D-01 0.13997205D+06 0.13997205D+06 0.13997205D+06 0.11099311D+01  1  2  4  2  7  2       -1 -.540428953076D-04 0.100000000000D+01
  </mgrwgt>
  </event>
  <event>
  8     66 0.56006291E-06 0.25705550E+03 0.75467711E-02 0.93158625E-01
        1 -1    0    0  501    0 0.00000000E+00 0.00000000E+00 0.45383801E+03 0.45383812E+03 0.32000000E+00 0.0000E+00 0.9000E+01
       -1 -1    0    0    0  501 0.00000000E+00 0.00000000E+00 -.27053056E+03 0.27053075E+03 0.32000000E+00 0.0000E+00 0.9000E+01
       25  2    1    2    0    0 0.14628054E+03 0.85570869E+02 0.33461665E+03 0.48001793E+03 0.29954722E+03 0.0000E+00 0.0000E+00
       23  2    1    2    0    0 -.14628054E+03 -.85570869E+02 -.15130920E+03 0.24435094E+03 0.89958538E+02 0.0000E+00 0.0000E+00
       23  1    3    3    0    0 -.55695908E+02 0.55267613E+02 0.12480730E+03 0.17334548E+03 0.91188000E+02 0.0000E+00 0.9000E+01
      -13  1    4    4    0    0 -.11187635E+03 -.57778419E+02 -.15531357E+03 0.19994245E+03 0.10565837E+00 0.0000E+00 0.9000E+01
       13  1    4    4    0    0 -.34404188E+02 -.27792449E+02 0.40043739E+01 0.44408496E+02 0.10565837E+00 0.0000E+00 0.9000E+01
       23  1    3    3    0    0 0.20197645E+03 0.30303256E+02 0.20980935E+03 0.30667244E+03 0.91188000E+02 0.0000E+00 0.9000E+01
#aMCatNLO 1  0  0  2  1 0.45350207D+03 0.00000000D+00  -5  7  0 0.00000000D+00 0.00000000D+00 0.00000000D+00 0.00000000D+00 0.00000000D+00
  <mgrwgt>
 0.1720679725D-03    5    2    0
 0.350395718654223D+03 0.000000000000000D+00 0.000000000000000D+00 0.350395718654223D+03
 0.350395718654223D+03 0.000000000000000D+00 0.000000000000000D+00 -.350395718654223D+03
 0.146531419621387D+03 -.556959077747188D+02 0.552676127801343D+02 0.836639852445131D+02
 0.247295279623808D+03 -.111876461535808D+03 -.577784608951976D+02 -.212838582345933D+03
 0.448548644018114D+02 -.344040807306013D+02 -.277924077944063D+02 -.747664086181604D+01
 0.262109873661440D+03 0.201976450041128D+03 0.303032559094697D+02 0.136651237963235D+03
 0.000000000000000D+00 0.000000000000000D+00 -.000000000000000D+00 -.000000000000000D+00
 0.595712653617886D+03 0.000000000000000D+00 0.000000000000000D+00 0.595712653617886D+03
 0.705654953971468D+03 0.000000000000000D+00 0.000000000000000D+00 -.705654953971468D+03
 0.220477076440415D+03 -.927895192103765D+02 0.157115666276237D+03 0.836639852445131D+02
 0.284202542217795D+03 -.165595037246848D+03 0.897168128460131D+02 -.212838582345933D+03
 0.441473797990810D+02 -.433995527665770D+02 -.309351001434175D+01 -.747664086181604D+01
 0.285902161316829D+03 0.146588779985324D+03 0.182381367598677D+03 0.136651237963235D+03
 0.466638447815233D+03 0.155195329238477D+03 -.426120336706585D+03 -.109942300353582D+03
0.450709975810D-05 0.000000000000D+00 0.000000000000D+00 0.487448223809D-06 0.000000000000D+00  7 1 -1 23 -13 13 23 21 0 0.69821255D-01 0.41620109D-01 0.66077530D+05 0.66077530D+05 0.66077530D+05 0.11367948D+01  1  2  2  2  7  2       -1 0.156747463732D-03 0.100000000000D+01
-.221180632161D-06 0.000000000000D+00 -.173084498177D-07 0.487448223809D-06 0.000000000000D+00  7 1 -1 23 -13 13 23 21 2 0.69821255D-01 0.41620109D-01 0.66077530D+05 0.66077530D+05 0.66077530D+05 0.11367948D+01  1  2  3  2  7  2       -1 -.994064588200D-05 0.100000000000D+01
0.272566486508D-06 0.000000000000D+00 0.000000000000D+00 0.487448223809D-06 0.000000000000D+00  7 1 -1 23 -13 13 23 21 2 0.69821255D-01 0.41620109D-01 0.66077530D+05 0.66077530D+05 0.66077530D+05 0.11367948D+01  1  2 15  2  7  2       -1 0.122501093121D-04 0.100000000000D+01
0.130699080489D-05 0.000000000000D+00 -.141332861685D-05 0.487448223809D-06 0.000000000000D+00  7 1 -1 23 -13 13 23 21 2 0.69821255D-01 0.13043089D+00 0.66077530D+05 0.66077530D+05 0.66077530D+05 0.11367948D+01  1  2  5  2  7  2       -1 0.588373915695D-05 0.100000000000D+01
0.235663634968D-06 0.000000000000D+00 -.185201033404D-06 0.487448223809D-06 0.000000000000D+00  7 1 21 23 -13 13 23 1 2 0.69821255D-01 0.13043089D+00 0.66077530D+05 0.66077530D+05 0.66077530D+05 0.11367948D+01  1  2  5  4  7  2       -1 0.712730620070D-05 0.100000000000D+01
  </mgrwgt>
  </event>
  <event>
  7     66 0.56006291E-06 0.40489740E+03 0.75467711E-02 0.91780569E-01
        1 -1    0    0  501    0 0.00000000E+00 0.00000000E+00 0.78846148E+03 0.78846155E+03 0.32000000E+00 0.0000E+00 0.9000E+01
       -1 -1    0    0    0  501 0.00000000E+00 0.00000000E+00 -.47289373E+03 0.47289384E+03 0.32000000E+00 0.0000E+00 0.9000E+01
       23  2    1    2    0    0 -.72901108E+01 -.52870921E+03 0.19634248E+03 0.57159097E+03 0.92624462E+02 0.0000E+00 0.0000E+00
       23  1    1    2    0    0 0.19276480E+03 0.23175527E+03 0.85872460E+02 0.32643239E+03 0.91188000E+02 0.0000E+00 0.9000E+01
      -11  1    3    3    0    0 -.86837740E+01 -.41427864E+03 0.19297788E+03 0.45710246E+03 0.51099893E-03 0.0000E+00 0.9000E+01
       11  1    3    3    0    0 0.13936632E+01 -.11443057E+03 0.33646042E+01 0.11448850E+03 0.51099893E-03 0.0000E+00 0.9000E+01
       23  1    1    2    0    0 -.18547469E+03 0.29695394E+03 0.33352811E+02 0.36333203E+03 0.91188000E+02 0.0000E+00 0.9000E+01
#aMCatNLO 1  0  0  1  2 0.87162537D+02 0.00000000D+00  -5  7  0 0.00000000D+00 0.00000000D+00 0.00000000D+00 0.00000000D+00 0.00000000D+00
  <mgrwgt>
 0.6119647731D-03    9    2    0
 0.610621485681278D+03 0.000000000000000D+00 0.000000000000000D+00 0.610621485681278D+03
 0.610621485681278D+03 0.000000000000000D+00 0.000000000000000D+00 -.610621485681278D+03
 0.314964901242177D+03 0.192764802473584D+03 0.231755269300690D+03 0.434324178226294D+01
 0.422250990664963D+03 -.868377404737843D+01 -.414278638669314D+03 0.812016054529485D+02
 0.117379533499696D+03 0.139366321370311D+01 -.114430567112411D+03 -.261085790073877D+02
 0.366647545955721D+03 -.185474691639909D+03 0.296953936481036D+03 -.594362682278237D+02
 0.000000000000000D+00 0.000000000000000D+00 -.000000000000000D+00 0.000000000000000D+00
 0.737328653226974D+03 0.000000000000000D+00 0.000000000000000D+00 0.737328653226974D+03
 0.627350681899470D+03 0.000000000000000D+00 0.000000000000000D+00 -.627350681899470D+03
 0.327291244693151D+03 0.185745583110365D+03 0.253542939390163D+03 0.434324178226294D+01
 0.395371707785325D+03 -.176195749939182D+02 -.386541895744797D+03 0.812016054529485D+02
 0.109873936996622D+03 -.108999065331207D+01 -.106721300843498D+03 -.261085790073877D+02
 0.391812612503937D+03 -.193763905007789D+03 0.322683670346739D+03 -.594362682278237D+02
 0.140329833147408D+03 0.267278875446546D+02 -.829634131486068D+02 0.109977971327504D+03
0.771885966386D-04 0.000000000000D+00 0.000000000000D+00 0.667175434362D-10 0.000000000000D+00  7 1 -1 23 -11 11 23 21 0 0.12130178D+00 0.72752894D-01 0.36333263D+06 0.36333263D+06 0.36333263D+06 0.10784507D+01  1  2  2  1  7  1        1 0.409742311394D-03 0.100000000000D+01
-.428738230217D-05 0.000000000000D+00 -.296424535317D-06 0.667175434362D-10 0.000000000000D+00  7 1 -1 23 -11 11 23 21 2 0.12130178D+00 0.72752894D-01 0.36333263D+06 0.36333263D+06 0.36333263D+06 0.10784507D+01  1  2  3  1  7  1        1 -.264697905760D-04 0.100000000000D+01
0.489429012632D-05 0.000000000000D+00 0.000000000000D+00 0.667175434362D-10 0.000000000000D+00  7 1 -1 23 -11 11 23 21 2 0.12130178D+00 0.72752894D-01 0.36333263D+06 0.36333263D+06 0.36333263D+06 0.10784507D+01  1  2 15  1  7  1        1 0.302167676059D-04 0.100000000000D+01
0.225113323618D-03 0.000000000000D+00 0.000000000000D+00 0.667175434362D-10 0.000000000000D+00  7 1 -1 23 -11 11 23 21 2 0.14789892D+00 0.72752894D-01 0.41949803D+06 0.41949803D+06 0.41949803D+06 0.10739407D+01  1  2 12  1  7  1        1 0.985707737132D-03 0.100000000000D+01
-.228028687145D-03 0.000000000000D+00 0.000000000000D+00 0.667175434362D-10 0.000000000000D+00  7 1 -1 23 -11 11 23 21 2 0.12130178D+00 0.72752894D-01 0.36333263D+06 0.36333263D+06 0.36333263D+06 0.10784507D+01  1  2  4  1  7  1        1 -.140782210884D-02 0.100000000000D+01
-.345976978848D-03 0.000000000000D+00 -.535488598031D-04 0.667175434362D-10 0.000000000000D+00  7 1 -1 23 -11 11 23 21 2 0.14851249D+00 0.72752894D-01 0.36333263D+06 0.36333263D+06 0.36333263D+06 0.10784507D+01  1  2  5  1  7  1        1 -.152621481037D-02 0.100000000000D+01
0.350686162564D-03 0.000000000000D+00 0.524705704009D-04 0.667175434362D-10 0.000000000000D+00  7 1 -1 23 -11 11 23 21 2 0.12130178D+00 0.72752894D-01 0.36333263D+06 0.36333263D+06 0.36333263D+06 0.10784507D+01  1  2  6  1  7  1        1 0.216509483567D-02 0.100000000000D+01
0.639865545009D-05 0.000000000000D+00 0.000000000000D+00 0.667175434362D-10 0.000000000000D+00  7 21 -1 23 -11 11 23 -1 2 0.14789892D+00 0.72752894D-01 0.41949803D+06 0.41949803D+06 0.41949803D+06 0.10739407D+01  1  2 12  3  7  1        1 0.385472726668D-04 0.100000000000D+01
-.936178065379D-05 0.000000000000D+00 -.154639341130D-05 0.667175434362D-10 0.000000000000D+00  7 21 -1 23 -11 11 23 -1 2 0.14851249D+00 0.72752894D-01 0.36333263D+06 0.36333263D+06 0.36333263D+06 0.10784507D+01  1  2  5  3  7  1        1 -.568374415729D-04 0.100000000000D+01
  </mgrwgt>
  </event>
  <event>
  9     66 0.56006291E-06 0.27926445E+03 0.75467711E-02 0.99931645E-01
        1 -1    0    0  501    0 0.00000000E+00 0.00000000E+00 0.24452715E+04 0.24452715E+04 0.32000000E+00 0.0000E+00 0.9000E+01
       21 -1    0    0  502  501 0.00000000E+00 0.00000000E+00 -.89708634E+02 0.89711770E+02 0.75000000E+00 0.0000E+00 0.9000E+01
       25  2    1    2    0    0 0.53706360E+02 0.20073433E+03 0.16631003E+04 0.17026590E+04 0.29994414E+03 0.0000E+00 0.0000E+00
       23  2    1    2    0    0 0.20225109E+02 -.21213516E+03 0.13208954E+03 0.26698024E+03 0.91762861E+02 0.0000E+00 0.0000E+00
       23  1    3    3    0    0 -.34266563E+02 -.13772457E+02 0.26798039E+03 0.28546912E+03 0.91188000E+02 0.0000E+00 0.9000E+01
      -13  1    4    4    0    0 -.16137251E+02 -.11861146E+03 0.11344109E+03 0.16491811E+03 0.10565837E+00 0.0000E+00 0.9000E+01
       13  1    4    4    0    0 0.36362360E+02 -.93523698E+02 0.18648445E+02 0.10206213E+03 0.10565837E+00 0.0000E+00 0.9000E+01
       23  1    3    3    0    0 0.87972923E+02 0.21450678E+03 0.13951199E+04 0.14171899E+04 0.91188000E+02 0.0000E+00 0.9000E+01
        1  1    1    2  502    0 -.73931469E+02 0.11400832E+02 0.56037298E+03 0.56534398E+03 0.32000000E+00 0.0000E+00 0.9000E+01
#aMCatNLO 2  0  0  2  1 0.74805355D+02 0.00000000D+00  -5  7  0 0.00000000D+00 0.00000000D+00 0.00000000D+00 0.00000000D+00 0.00000000D+00
  <mgrwgt>
 0.2030249557D-04    1    2    0
 0.403477516542419D+03 0.000000000000000D+00 0.000000000000000D+00 0.403477516542419D+03
 0.403477516542419D+03 0.000000000000000D+00 0.000000000000000D+00 -.403477516542419D+03
 0.103564475205779D+03 -.435803708938613D+02 -.123361927393799D+02 0.189451524696636D+02
 0.149973172710155D+03 -.298278578365444D+02 -.116500301527219D+03 -.896098832367273D+02
 0.202977325419319D+03 0.176337053214817D+02 -.906355437885680D+02 -.180759633970547D+03
 0.350440059749584D+03 0.557745234089240D+02 0.219472038055167D+03 0.251424364737610D+03
 0.000000000000000D+00 -.000000000000000D+00 0.000000000000000D+00 0.000000000000000D+00
 0.526367778677618D+03 0.000000000000000D+00 0.000000000000000D+00 0.526367778677618D+03
 0.416753791116639D+03 0.000000000000000D+00 0.000000000000000D+00 -.416753791116639D+03
 0.100190059827374D+03 -.342665633037235D+02 -.137724573503031D+02 0.189451524696636D+02
 0.149529363792533D+03 -.161373208514883D+02 -.118611493280525D+03 -.896098832367273D+02
 0.206743675789268D+03 0.363624299129344D+02 -.935236649010241D+02 -.180759633970547D+03
 0.353951773668423D+03 0.879729233289665D+02 0.214506783846730D+03 0.251424364737610D+03
 0.132706696716658D+03 -.739314690866890D+02 0.114008316851221D+02 0.109613987560979D+03
0.180008601722D-06 0.000000000000D+00 0.000000000000D+00 0.102783241590D-05 0.925372573400D-11  7 1 21 23 -13 13 23 1 2 0.37619569D+00 0.13801565D-01 0.10315976D+06 0.10315976D+06 0.10315976D+06 0.11206151D+01  1  2  1  4  7  2       -1 0.203024955725D-04 0.100000000000D+01
  </mgrwgt>
  </event>
  <event>
  7     66 0.56006291E-06 0.28110925E+03 0.75467711E-02 0.10072980E+00
        1 -1    0    0  501    0 0.00000000E+00 0.00000000E+00 0.30334372E+03 0.30334389E+03 0.32000000E+00 0.0000E+00 0.9000E+01
       -1 -1    0    0    0  501 0.00000000E+00 0.00000000E+00 -.62429999E+03 0.62430007E+03 0.32000000E+00 0.0000E+00 0.9000E+01
       25  2    1    2    0    0 -.91299213E+02 -.55166517E+02 -.33676454E+03 0.46324440E+03 0.29967669E+03 0.0000E+00 0.0000E+00
       23  1    3    3    0    0 -.15635176E+03 -.59131594E+02 -.27724665E+03 0.33633818E+03 0.91188000E+02 0.0000E+00 0.9000E+01
      -11  1    1    2    0    0 0.15037884E+03 -.32647588E+02 0.19976920E+03 0.25216541E+03 0.51099893E-03 0.0000E+00 0.9000E+01
       11  1    1    2    0    0 -.59079624E+02 0.87814105E+02 -.18396092E+03 0.21223416E+03 0.51099893E-03 0.0000E+00 0.9000E+01
       23  1    3    3    0    0 0.65052546E+02 0.39650773E+01 -.59517898E+02 0.12690621E+03 0.91188000E+02 0.0000E+00 0.9000E+01
#aMCatNLO 1  0  0  2  1 0.37126979D+02 0.00000000D+00  -5  7  0 0.00000000D+00 0.00000000D+00 0.00000000D+00 0.00000000D+00 0.00000000D+00
  <mgrwgt>
 0.9806341651D-03    4    2    0
 0.435175364586037D+03 0.000000000000000D+00 0.000000000000000D+00 0.435175364586037D+03
 0.435175364586037D+03 0.000000000000000D+00 0.000000000000000D+00 -.435175364586037D+03
 0.256239540243120D+03 -.156351886670573D+03 -.591316713977401D+02 -.171467150242451D+03
 0.342433148947292D+03 0.150378866697899D+03 -.326474352760470D+02 0.305909795394835D+03
 0.158366103735521D+03 -.590794700766387D+02 0.878140634348836D+02 -.117805472245085D+03
 0.113311936246142D+03 0.650524900493127D+02 0.396504323890347D+01 -.166371729072995D+02
 0.000000000000000D+00 -.000000000000000D+00 0.000000000000000D+00 0.000000000000000D+00
 0.477821257797625D+03 0.000000000000000D+00 0.000000000000000D+00 0.477821257797625D+03
 0.443727381527726D+03 0.000000000000000D+00 0.000000000000000D+00 -.443727381527726D+03
 0.254257773360236D+03 -.149530580094460D+03 -.676120253686598D+02 -.171467150242451D+03
 0.347850308293594D+03 0.159602490330753D+03 -.441143870144479D+02 0.305909795394835D+03
 0.154011705693594D+03 -.549054524101197D+02 0.826248600325761D+02 -.117805472245085D+03
 0.115022453820167D+03 0.681035127187923D+02 0.171964607737821D+00 -.166371729072995D+02
 0.504063981577611D+02 -.232699705449655D+02 0.289295877427938D+02 0.340938762698989D+02
0.145233497964D-03 0.000000000000D+00 0.000000000000D+00 0.913662910034D-10 0.000000000000D+00  7 1 -1 23 -11 11 23 21 0 0.46668284D-01 0.96046171D-01 0.79022412D+05 0.79022412D+05 0.79022412D+05 0.11302107D+01  1  2  2  2  7  2       -1 0.175136745164D-02 0.100000000000D+01
-.619504370805D-05 0.000000000000D+00 -.557734873041D-06 0.913662910034D-10 0.000000000000D+00  7 1 -1 23 -11 11 23 21 2 0.46668284D-01 0.96046171D-01 0.79022412D+05 0.79022412D+05 0.79022412D+05 0.11302107D+01  1  2  3  2  7  2       -1 -.954275217660D-04 0.100000000000D+01
0.893631386040D-05 0.000000000000D+00 0.000000000000D+00 0.913662910034D-10 0.000000000000D+00  7 1 -1 23 -11 11 23 21 2 0.46668284D-01 0.96046171D-01 0.79022412D+05 0.79022412D+05 0.79022412D+05 0.11302107D+01  1  2 15  2  7  2       -1 0.137653635004D-03 0.100000000000D+01
-.527763785698D-04 0.000000000000D+00 0.000000000000D+00 0.913662910034D-10 0.000000000000D+00  7 1 -1 23 -11 11 23 21 2 0.46668284D-01 0.96046171D-01 0.79022412D+05 0.79022412D+05 0.79022412D+05 0.11302107D+01  1  2  4  2  7  2       -1 -.812959399811D-03 0.100000000000D+01
  </mgrwgt>
  </event>
  <event>
  8     66 0.56006291E-06 0.26099515E+03 0.75467711E-02 0.89377655E-01
        1 -1    0    0  501    0 0.00000000E+00 0.00000000E+00 0.23416496E+03 0.23416518E+03 0.32000000E+00 0.0000E+00 0.9000E+01
       -1 -1    0    0    0  501 0.00000000E+00 0.00000000E+00 -.31895834E+03 0.31895850E+03 0.32000000E+00 0.0000E+00 0.9000E+01
       25  2    1    2    0    0 -.13534536E+02 0.17408873E+03 -.32313333E+02 0.34835484E+03 0.29969463E+03 0.0000E+00 0.0000E+00
       23  2    1    2    0    0 0.13534536E+02 -.17408873E+03 -.52480042E+02 0.20476883E+03 0.93198974E+02 0.0000E+00 0.0000E+00
       23  1    3    3    0    0 -.12083293E+03 0.67749933E+02 -.43774266E+02 0.17152868E+03 0.91188000E+02 0.0000E+00 0.9000E+01
      -13  1    4    4    0    0 0.20234989E+02 -.17119737E+03 -.69792241E+02 0.18598108E+03 0.10565837E+00 0.0000E+00 0.9000E+01
       13  1    4    4    0    0 -.67004531E+01 -.28913599E+01 0.17312200E+02 0.18787748E+02 0.10565837E+00 0.0000E+00 0.9000E+01
       23  1    3    3    0    0 0.10729840E+03 0.10633880E+03 0.11460933E+02 0.17682616E+03 0.91188000E+02 0.0000E+00 0.9000E+01
#aMCatNLO 1  0  0  1  1 0.73649996D+03 0.00000000D+00  -5  7  0 0.00000000D+00 0.00000000D+00 0.00000000D+00 0.00000000D+00 0.00000000D+00
  <mgrwgt>
 0.3107690733D-03    3    2    0
 0.273292830009882D+03 0.000000000000000D+00 0.000000000000000D+00 0.273292830009882D+03
 0.273292830009882D+03 0.000000000000000D+00 0.000000000000000D+00 -.273292830009882D+03
 0.166789607125501D+03 -.120832932429430D+03 0.677499346126619D+02 -.176881457921369D+02
 0.177378842110234D+03 0.202350227827464D+02 -.171197592434365D+03 -.417753734396978D+02
 0.216979665539992D+02 -.670048694466858D+01 -.289114541566556D+01 0.204339547192479D+02
 0.180719244230030D+03 0.107298396591352D+03 0.106338803237369D+03 0.390295645125868D+02
 0.000000000000000D+00 -.000000000000000D+00 -.000000000000000D+00 -.000000000000000D+00
 0.574545927328376D+03 0.000000000000000D+00 0.000000000000000D+00 0.574545927328376D+03
 0.162797535432443D+04 0.000000000000000D+00 0.000000000000000D+00 -.162797535432443D+04
 0.312186616885977D+03 -.411409616577176D+02 0.295194483673097D+03 -.176881457921369D+02
 0.889506193424385D+02 0.645468666566998D+02 -.447295524254312D+02 -.417753734396978D+02
 0.297468512108488D+02 0.185889180556788D+01 0.215377151236453D+02 0.204339547192479D+02
 0.486278973791122D+03 0.218273430070367D+03 0.423066651754332D+03 0.390295645125868D+02
 0.128535822042242D+04 -.243538226874917D+03 -.695069298125643D+03 -.105342942699605D+04
0.494690869669D-05 0.000000000000D+00 0.000000000000D+00 0.115148054237D-06 0.000000000000D+00  7 1 -1 23 -13 13 23 21 0 0.36025408D-01 0.49070542D-01 0.68118471D+05 0.68118471D+05 0.68118471D+05 0.11356669D+01  1  2  2  1  7  1        1 0.307236690493D-03 0.100000000000D+01
-.274119905015D-06 0.000000000000D+00 -.189974319463D-07 0.115148054237D-06 0.000000000000D+00  7 1 -1 23 -13 13 23 21 2 0.36025408D-01 0.49070542D-01 0.68118471D+05 0.68118471D+05 0.68118471D+05 0.11356669D+01  1  2  3  1  7  1        1 -.219574405635D-04 0.100000000000D+01
0.318218689797D-06 0.000000000000D+00 0.000000000000D+00 0.115148054237D-06 0.000000000000D+00  7 1 -1 23 -13 13 23 21 2 0.36025408D-01 0.49070542D-01 0.68118471D+05 0.68118471D+05 0.68118471D+05 0.11356669D+01  1  2 15  1  7  1        1 0.254898233932D-04 0.100000000000D+01
  </mgrwgt>
  </event>
  <event>
  8     66 0.56006291E-06 0.24814883E+03 0.75467711E-02 0.97210595E-01
        1 -1    0    0  501    0 0.00000000E+00 0.00000000E+00 0.23836332E+03 0.23836354E+03 0.32000000E+00 0.0000E+00 0.9000E+01
       -1 -1    0    0    0  501 0.00000000E+00 0.00000000E+00 -.35977263E+03 0.35977277E+03 0.32000000E+00 0.0000E+00 0.9000E+01
       25  2    1    2    0    0 0.17990128E+03 -.35911243E+02 0.16913401E+02 0.35030925E+03 0.29795372E+03 0.0000E+00 0.0000E+00
       23  2    1    2    0    0 -.17990128E+03 0.35911243E+02 -.13832271E+03 0.24782706E+03 0.92903122E+02 0.0000E+00 0.0000E+00
       23  1    3    3    0    0 0.84828144E+01 -.33897693E+02 -.86375458E+02 0.13037248E+03 0.91188000E+02 0.0000E+00 0.9000E+01
      -11  1    4    4    0    0 0.10303609E+02 0.60116018E+01 -.15052709E+02 0.19206451E+02 0.51099893E-03 0.0000E+00 0.9000E+01
       11  1    4    4    0    0 -.19020489E+03 0.29899641E+02 -.12327000E+03 0.22862060E+03 0.51099893E-03 0.0000E+00 0.9000E+01
       23  1    3    3    0    0 0.17141846E+03 -.20135503E+01 0.10328886E+03 0.21993677E+03 0.91188000E+02 0.0000E+00 0.9000E+01
#aMCatNLO 1  0  0  1  1 0.25957129D+03 0.00000000D+00  -5  7  0 0.00000000D+00 0.00000000D+00 0.00000000D+00 0.00000000D+00 0.00000000D+00
  <mgrwgt>
 0.2500977178D-03    3    2    0
 0.292842457674293D+03 0.000000000000000D+00 0.000000000000000D+00 0.292842457674293D+03
 0.292842457674293D+03 0.000000000000000D+00 0.000000000000000D+00 -.292842457674293D+03
 0.115238971572538D+03 0.848281444146301D+01 -.338976925635710D+02 -.611862527297889D+02
 0.164944263880827D+02 0.103036087101024D+02 0.601160181863351D+01 -.113913297290168D+02
 0.207927769826404D+03 -.190204888029466D+03 0.298996410805830D+02 -.784988502968843D+02
 0.246023747561561D+03 0.171418464877900D+03 -.201355033564552D+01 0.151076432755690D+03
 0.000000000000000D+00 0.000000000000000D+00 -.000000000000000D+00 -.000000000000000D+00
 0.436807284125353D+03 0.000000000000000D+00 0.000000000000000D+00 0.436807284125353D+03
 0.464908581531492D+03 0.000000000000000D+00 0.000000000000000D+00 -.464908581531492D+03
 0.114580574374137D+03 -.319733431285717D+02 -.688509157354298D+01 -.611862527297889D+02
 0.157235055360185D+02 0.463214275565953D+01 0.979844308230725D+01 -.113913297290168D+02
 0.304898032833646D+03 -.280479896592960D+03 0.901763191480831D+02 -.784988502968843D+02
 0.205425763248298D+03 0.919477981467225D+02 0.510490621258708D+02 0.151076432755690D+03
 0.261087989664745D+03 0.215873298819150D+03 -.144138732782718D+03 -.281012974061381D+02
0.505502848235D-05 0.000000000000D+00 0.000000000000D+00 0.120310057316D-07 0.000000000000D+00  7 1 -1 23 -11 11 23 21 0 0.36671308D-01 0.55349662D-01 0.61577841D+05 0.61577841D+05 0.61577841D+05 0.11394230D+01  1  2  2  1  7  1        1 0.247148638226D-03 0.100000000000D+01
-.271470401326D-06 0.000000000000D+00 -.194126403918D-07 0.120310057316D-07 0.000000000000D+00  7 1 -1 23 -11 11 23 21 2 0.36671308D-01 0.55349662D-01 0.61577841D+05 0.61577841D+05 0.61577841D+05 0.11394230D+01  1  2  3  1  7  1        1 -.172316591243D-04 0.100000000000D+01
0.317930687332D-06 0.000000000000D+00 0.000000000000D+00 0.120310057316D-07 0.000000000000D+00  7 1 -1 23 -11 11 23 21 2 0.36671308D-01 0.55349662D-01 0.61577841D+05 0.61577841D+05 0.61577841D+05 0.11394230D+01  1  2 15  1  7  1        1 0.201807386828D-04 0.100000000000D+01
  </mgrwgt>
  </event>
  <event>
  8     66 0.56006291E-06 0.10042578E+03 0.75467711E-02 0.10135686E+00
        1 -1    0    0  501    0 0.00000000E+00 0.00000000E+00 0.10348230E+04 0.10348230E+04 0.32000000E+00 0.0000E+00 0.9000E+01
       -1 -1    0    0    0  501 0.00000000E+00 0.00000000E+00 -.78433148E+02 0.78433800E+02 0.32000000E+00 0.0000E+00 0.9000E+01
       25  2    1    2    0    0 0.72951002E+02 -.35665384E+02 0.27143768E+03 0.41750740E+03 0.30665966E+03 0.0000E+00 0.0000E+00
       23  2    1    2    0    0 -.72951002E+02 0.35665384E+02 0.68495214E+03 0.69574942E+03 0.91180835E+02 0.0000E+00 0.0000E+00
       23  1    3    3    0    0 -.43812636E+02 -.11164437E+03 0.12465261E+03 0.19554420E+03 0.91188000E+02 0.0000E+00 0.9000E+01
      -13  1    4    4    0    0 -.55953069E+02 0.22021569E+02 0.65951713E+03 0.66225263E+03 0.10565837E+00 0.0000E+00 0.9000E+01
       13  1    4    4    0    0 -.16997934E+02 0.13643815E+02 0.25435015E+02 0.33496785E+02 0.10565837E+00 0.0000E+00 0.9000E+01
       23  1    3    3    0    0 0.11676364E+03 0.75978982E+02 0.14678507E+03 0.22196320E+03 0.91188000E+02 0.0000E+00 0.9000E+01
#aMCatNLO 1  0  0  1  2 0.16625113D+03 0.00000000D+00  -5  7  0 0.00000000D+00 0.00000000D+00 0.00000000D+00 0.00000000D+00 0.00000000D+00
  <mgrwgt>
 0.3557423925D-03    8    2    0
 0.284894390091522D+03 0.000000000000000D+00 0.000000000000000D+00 0.284894390091522D+03
 0.284894390091522D+03 0.000000000000000D+00 0.000000000000000D+00 -.284894390091522D+03
 0.172826206303865D+03 -.438126360589306D+02 -.111644366148513D+03 -.846736952674827D+02
 0.186914729774037D+03 -.559531216889285D+02 0.220215806514231D+02 0.176978570356352D+03
 0.227533589271970D+02 -.169978811378018D+02 0.136438034889895D+02 -.652947208041024D+01
 0.187294485177946D+03 0.116763638885661D+03 0.759789820081006D+02 -.857754030084586D+02
 0.000000000000000D+00 -.000000000000000D+00 -.000000000000000D+00 0.000000000000000D+00
 0.511930862338565D+03 0.000000000000000D+00 0.000000000000000D+00 0.511930862338565D+03
 0.328889189558035D+03 0.000000000000000D+00 0.000000000000000D+00 -.328889189558035D+03
 0.158104773050339D+03 0.132246278071077D+01 -.975217121426935D+02 -.846736952674827D+02
 0.181046452952601D+03 -.576753802454085D+01 0.377245181079325D+02 0.176978570356352D+03
 0.201576182740375D+02 -.111453278317835D+02 0.154750520630797D+02 -.652947208041024D+01
 0.234238703422524D+03 0.174255814954518D+03 0.939681330576386D+02 -.857754030084586D+02
 0.247272504197099D+03 -.158665411878905D+03 -.496459910859573D+02 0.183041672780530D+03
0.268696300191D-05 0.000000000000D+00 0.000000000000D+00 0.548638195478D-08 0.000000000000D+00  7 1 -1 23 -13 13 23 21 0 0.15920359D+00 0.12066692D-01 0.39817903D+05 0.39817903D+05 0.39817903D+05 0.11560968D+01  1  2  2  1  7  1        1 0.201600942137D-03 0.100000000000D+01
-.126262778229D-06 0.000000000000D+00 -.103186454209D-07 0.548638195478D-08 0.000000000000D+00  7 1 -1 23 -13 13 23 21 2 0.15920359D+00 0.12066692D-01 0.39817903D+05 0.39817903D+05 0.39817903D+05 0.11560968D+01  1  2  3  1  7  1        1 -.126617751918D-04 0.100000000000D+01
0.172682264847D-06 0.000000000000D+00 0.000000000000D+00 0.548638195478D-08 0.000000000000D+00  7 1 -1 23 -13 13 23 21 2 0.15920359D+00 0.12066692D-01 0.39817903D+05 0.39817903D+05 0.39817903D+05 0.11560968D+01  1  2 15  1  7  1        1 0.173167741734D-04 0.100000000000D+01
0.107980783099D-06 0.000000000000D+00 0.000000000000D+00 0.548638195478D-08 0.000000000000D+00  7 1 -1 23 -13 13 23 21 2 0.28989878D+00 0.12066692D-01 0.82648512D+05 0.82648512D+05 0.82648512D+05 0.11285778D+01  1  2 12  1  7  1        1 0.274797427387D-05 0.100000000000D+01
-.157198160915D-05 0.000000000000D+00 -.819482125370D-06 0.548638195478D-08 0.000000000000D+00  7 1 -1 23 -13 13 23 21 2 0.30292503D+00 0.12066692D-01 0.39817903D+05 0.39817903D+05 0.39817903D+05 0.11560968D+01  1  2  5  1  7  1        1 -.378132641011D-04 0.100000000000D+01
0.184795148031D-05 0.000000000000D+00 0.674941138327D-06 0.548638195478D-08 0.000000000000D+00  7 1 -1 23 -13 13 23 21 2 0.15920359D+00 0.12066692D-01 0.39817903D+05 0.39817903D+05 0.39817903D+05 0.11560968D+01  1  2  6  1  7  1        1 0.185314678936D-03 0.100000000000D+01
0.708055661187D-08 0.000000000000D+00 0.000000000000D+00 0.548638195478D-08 0.000000000000D+00  7 21 -1 23 -13 13 23 -1 2 0.28989878D+00 0.12066692D-01 0.82648512D+05 0.82648512D+05 0.82648512D+05 0.11285778D+01  1  2 12  3  7  1        1 0.106356778656D-06 0.100000000000D+01
-.629903131516D-07 0.000000000000D+00 -.572715362089D-07 0.548638195478D-08 0.000000000000D+00  7 21 -1 23 -13 13 23 -1 2 0.30292503D+00 0.12066692D-01 0.39817903D+05 0.39817903D+05 0.39817903D+05 0.11560968D+01  1  2  5  3  7  1        1 -.869294501648D-06 0.100000000000D+01
  </mgrwgt>
  </event>
  <event>
  8     66 0.56006291E-06 0.20929814E+03 0.75467711E-02 0.99743421E-01
        1 -1    0    0  501    0 0.00000000E+00 0.00000000E+00 0.77581740E+03 0.77581747E+03 0.32000000E+00 0.0000E+00 0.9000E+01
       -1 -1    0    0    0  501 0.00000000E+00 0.00000000E+00 -.10154866E+03 0.10154917E+03 0.32000000E+00 0.0000E+00 0.9000E+01
       25  2    1    2    0    0 -.16471920E+03 0.79755900E+02 0.44476263E+03 0.56984537E+03 0.30564117E+03 0.0000E+00 0.0000E+00
       23  2    1    2    0    0 0.16471920E+03 -.79755900E+02 0.22950610E+03 0.30752127E+03 0.91667120E+02 0.0000E+00 0.0000E+00
       23  1    3    3    0    0 0.14264015E+02 -.47249634E+02 0.21780427E+03 0.24122591E+03 0.91188000E+02 0.0000E+00 0.9000E+01
      -13  1    4    4    0    0 0.78725657E+01 0.14988274E+02 0.48497733E+01 0.17611278E+02 0.10565837E+00 0.0000E+00 0.9000E+01
       13  1    4    4    0    0 0.15684663E+03 -.94744173E+02 0.22465633E+03 0.28990999E+03 0.10565837E+00 0.0000E+00 0.9000E+01
       23  1    3    3    0    0 -.17898321E+03 0.12700553E+03 0.22695836E+03 0.32861946E+03 0.91188000E+02 0.0000E+00 0.9000E+01
#aMCatNLO 1  0  0  1  2 0.10134971D+03 0.00000000D+00  -5  7  0 0.00000000D+00 0.00000000D+00 0.00000000D+00 0.00000000D+00 0.00000000D+00
  <mgrwgt>
 0.2647668945D-03    9    2    0
 0.280683935098623D+03 0.000000000000000D+00 0.000000000000000D+00 0.280683935098623D+03
 0.280683935098623D+03 0.000000000000000D+00 0.000000000000000D+00 -.280683935098623D+03
 0.115405453463134D+03 0.142638901844261D+02 -.472495288373569D+02 0.506674531280789D+02
 0.216994548323829D+02 0.787238060081964D+01 0.149884129022634D+02 -.135734830596178D+02
 0.183264495823093D+03 0.156846937434044D+03 -.947443703908637D+02 0.290136624583034D+01
 0.240998466078637D+03 -.178983208219289D+03 0.127005486325957D+03 -.399953363142915D+02
 0.000000000000000D+00 0.000000000000000D+00 -.000000000000000D+00 0.000000000000000D+00
 0.363840388469502D+03 0.000000000000000D+00 0.000000000000000D+00 0.363840388469502D+03
 0.317884923184850D+03 0.000000000000000D+00 0.000000000000000D+00 -.317884923184850D+03
 0.113072539332007D+03 -.579795381917520D+01 -.432358732074760D+02 0.506674531280789D+02
 0.211874554570758D+02 0.410663277759271D+01 0.157418040137033D+02 -.135734830596178D+02
 0.155104649563286D+03 0.127135940207016D+03 -.888002651895556D+02 0.290136624583034D+01
 0.281078735227494D+03 -.224824959725884D+03 0.136176777060000D+03 -.399953363142915D+02
 0.111281932074489D+03 0.993803405604506D+02 -.198824426766720D+02 0.459554652846521D+02
0.235881016679D-05 0.000000000000D+00 0.000000000000D+00 0.370136304552D-08 0.000000000000D+00  7 1 -1 23 -13 13 23 21 0 0.11935657D+00 0.15622915D-01 0.73309965D+05 0.73309965D+05 0.73309965D+05 0.11329578D+01  1  2  2  1  7  1        1 0.189225500701D-03 0.100000000000D+01
-.130838477206D-06 0.000000000000D+00 -.905845212946D-08 0.370136304552D-08 0.000000000000D+00  7 1 -1 23 -13 13 23 21 2 0.11935657D+00 0.15622915D-01 0.73309965D+05 0.73309965D+05 0.73309965D+05 0.11329578D+01  1  2  3  1  7  1        1 -.134725451510D-04 0.100000000000D+01
0.155893884536D-06 0.000000000000D+00 0.000000000000D+00 0.370136304552D-08 0.000000000000D+00  7 1 -1 23 -13 13 23 21 2 0.11935657D+00 0.15622915D-01 0.73309965D+05 0.73309965D+05 0.73309965D+05 0.11329578D+01  1  2 15  1  7  1        1 0.160525209635D-04 0.100000000000D+01
0.154111112802D-05 0.000000000000D+00 0.000000000000D+00 0.370136304552D-08 0.000000000000D+00  7 1 -1 23 -13 13 23 21 2 0.16078103D+00 0.15622915D-01 0.10627590D+06 0.10627590D+06 0.10627590D+06 0.11195592D+01  1  2 12  1  7  1        1 0.943902816781D-04 0.100000000000D+01
-.175602099810D-05 0.000000000000D+00 0.000000000000D+00 0.370136304552D-08 0.000000000000D+00  7 1 -1 23 -13 13 23 21 2 0.11935657D+00 0.15622915D-01 0.73309965D+05 0.73309965D+05 0.73309965D+05 0.11329578D+01  1  2  4  1  7  1        1 -.180818920307D-03 0.100000000000D+01
-.309728519457D-05 0.000000000000D+00 -.107847246771D-05 0.370136304552D-08 0.000000000000D+00  7 1 -1 23 -13 13 23 21 2 0.16788467D+00 0.15622915D-01 0.73309965D+05 0.73309965D+05 0.73309965D+05 0.11329578D+01  1  2  5  1  7  1        1 -.180706041400D-03 0.100000000000D+01
0.332943000728D-05 0.000000000000D+00 0.101861616485D-05 0.370136304552D-08 0.000000000000D+00  7 1 -1 23 -13 13 23 21 2 0.11935657D+00 0.15622915D-01 0.73309965D+05 0.73309965D+05 0.73309965D+05 0.11329578D+01  1  2  6  1  7  1        1 0.342834134562D-03 0.100000000000D+01
0.592743999851D-07 0.000000000000D+00 0.000000000000D+00 0.370136304552D-08 0.000000000000D+00  7 21 -1 23 -13 13 23 -1 2 0.16078103D+00 0.15622915D-01 0.10627590D+06 0.10627590D+06 0.10627590D+06 0.11195592D+01  1  2 12  3  7  1        1 0.475117930686D-05 0.100000000000D+01
-.101976306268D-06 0.000000000000D+00 -.457372609756D-07 0.370136304552D-08 0.000000000000D+00  7 21 -1 23 -13 13 23 -1 2 0.16788467D+00 0.15622915D-01 0.73309965D+05 0.73309965D+05 0.73309965D+05 0.11329578D+01  1  2  5  3  7  1        1 -.748921584226D-05 0.100000000000D+01
  </mgrwgt>
  </event>
  <event>
  8     66 0.56006291E-06 0.39441700E+03 0.75467711E-02 0.93592078E-01
        1 -1    0    0  501    0 0.00000000E+00 0.00000000E+00 0.11719958E+04 0.11719959E+04 0.32000000E+00 0.0000E+00 0.9000E+01
       -1 -1    0    0    0  501 0.00000000E+00 0.00000000E+00 -.17687905E+03 0.17687934E+03 0.32000000E+00 0.0000E+00 0.9000E+01
       25  2    1    2    0    0 -.18250128E+03 0.27929244E+03 0.87399999E+03 0.98238436E+03 0.29982005E+03 0.0000E+00 0.0000E+00
       23  2    1    2    0    0 0.18250128E+03 -.27929244E+03 0.12111679E+03 0.36649086E+03 0.91297807E+02 0.0000E+00 0.0000E+00
       23  1    3    3    0    0 -.19627095E+03 0.93161424E+02 0.53837836E+03 0.58768005E+03 0.91188000E+02 0.0000E+00 0.9000E+01
      -13  1    4    4    0    0 0.19048951E+03 -.24533535E+03 0.11415670E+03 0.33091910E+03 0.10565837E+00 0.0000E+00 0.9000E+01
       13  1    4    4    0    0 -.79882371E+01 -.33957089E+02 0.69600942E+01 0.35571757E+02 0.10565837E+00 0.0000E+00 0.9000E+01
       23  1    3    3    0    0 0.13769670E+02 0.18613102E+03 0.33562164E+03 0.39470431E+03 0.91188000E+02 0.0000E+00 0.9000E+01
#aMCatNLO 1  0  0  1  1 0.27370833D+03 0.00000000D+00  -5  7  0 0.00000000D+00 0.00000000D+00 0.00000000D+00 0.00000000D+00 0.00000000D+00
  <mgrwgt>
 0.2389705784D-03    4    2    0
 0.455304005473951D+03 0.000000000000000D+00 0.000000000000000D+00 0.455304005473951D+03
 0.455304005473951D+03 0.000000000000000D+00 0.000000000000000D+00 -.455304005473951D+03
 0.282182582277439D+03 -.196270947831819D+03 0.931614239529051D+02 0.155275312013951D+03
 0.365436850502344D+03 0.190489780480982D+03 -.245335634186991D+03 -.192530937346306D+03
 0.450856613864455D+02 -.798850291834263D+01 -.339568058983941D+02 -.285628432925653D+02
 0.217902916781674D+03 0.137696702691796D+02 0.186131016132480D+03 0.658184686249205D+02
 0.000000000000000D+00 -.000000000000000D+00 -.000000000000000D+00 -.000000000000000D+00
 0.573913359278118D+03 0.000000000000000D+00 0.000000000000000D+00 0.573913359278118D+03
 0.665596007635711D+03 0.000000000000000D+00 0.000000000000000D+00 -.665596007635711D+03
 0.316190588131291D+03 -.186867116845580D+03 0.180641896578845D+03 0.155275312013951D+03
 0.314387651781685D+03 0.201173673135154D+03 -.145947206189996D+03 -.192530937346306D+03
 0.366734748113831D+02 -.670360390146299D+01 -.220038504020954D+02 -.285628432925653D+02
 0.283602217960615D+03 0.216511558689207D+02 0.259449654703162D+03 0.658184686249205D+02
 0.288655434228855D+03 -.292541082570324D+02 -.272140494689916D+03 -.916826483575935D+02
0.196259659506D-04 0.000000000000D+00 0.000000000000D+00 0.196256142331D-05 0.000000000000D+00  7 1 -1 23 -13 13 23 21 0 0.18030708D+00 0.27212188D-01 0.15556477D+06 0.15556477D+06 0.15556477D+06 0.11063056D+01  1  2  2  1  7  1        1 0.314453206589D-03 0.100000000000D+01
-.106301107487D-05 0.000000000000D+00 -.753688768859D-07 0.196256142331D-05 0.000000000000D+00  7 1 -1 23 -13 13 23 21 2 0.18030708D+00 0.27212188D-01 0.15556477D+06 0.15556477D+06 0.15556477D+06 0.11063056D+01  1  2  3  1  7  1        1 -.208455340960D-04 0.100000000000D+01
0.125244010747D-05 0.000000000000D+00 0.000000000000D+00 0.196256142331D-05 0.000000000000D+00  7 1 -1 23 -13 13 23 21 2 0.18030708D+00 0.27212188D-01 0.15556477D+06 0.15556477D+06 0.15556477D+06 0.11063056D+01  1  2 15  1  7  1        1 0.245602172739D-04 0.100000000000D+01
-.403864053811D-05 0.000000000000D+00 0.000000000000D+00 0.196256142331D-05 0.000000000000D+00  7 1 -1 23 -13 13 23 21 2 0.18030708D+00 0.27212188D-01 0.15556477D+06 0.15556477D+06 0.15556477D+06 0.11063056D+01  1  2  4  1  7  1        1 -.791973113250D-04 0.100000000000D+01
  </mgrwgt>
  </event>
  <event>
  8     66 0.56006291E-06 0.21655385E+03 0.75467711E-02 0.10409683E+00
        1 -1    0    0  501    0 0.00000000E+00 0.00000000E+00 0.25198349E+04 0.25198349E+04 0.32000000E+00 0.0000E+00 0.9000E+01
       -1 -1    0    0    0  501 0.00000000E+00 0.00000000E+00 -.59297552E+02 0.59298415E+02 0.32000000E+00 0.0000E+00 0.9000E+01
       25  2    1    2    0    0 0.10498696E+03 0.50493833E+02 0.23961187E+04 0.24171503E+04 0.29607292E+03 0.0000E+00 0.0000E+00
       23  2    1    2    0    0 -.10498696E+03 -.50493833E+02 0.64418651E+02 0.16198297E+03 0.92286686E+02 0.0000E+00 0.0000E+00
       23  1    3    3    0    0 -.66705388E+02 0.50379018E+02 0.95434711E+03 0.96233118E+03 0.91188000E+02 0.0000E+00 0.9000E+01
      -11  1    4    4    0    0 -.40543182E+02 -.70343589E+02 0.35340747E+02 0.88549074E+02 0.51099893E-03 0.0000E+00 0.9000E+01
       11  1    4    4    0    0 -.64443775E+02 0.19849756E+02 0.29077904E+02 0.73433898E+02 0.51099893E-03 0.0000E+00 0.9000E+01
       23  1    3    3    0    0 0.17169234E+03 0.11481548E+00 0.14417716E+04 0.14548191E+04 0.91188000E+02 0.0000E+00 0.9000E+01
#aMCatNLO 1  0  0  1  1 0.17502729D+01 0.00000000D+00  -5  7  0 0.00000000D+00 0.00000000D+00 0.00000000D+00 0.00000000D+00 0.00000000D+00
  <mgrwgt>
 0.1135759400D-02   10    2    0
 0.386550355623501D+03 0.000000000000000D+00 0.000000000000000D+00 0.386550355623501D+03
 0.386550355623501D+03 0.000000000000000D+00 0.000000000000000D+00 -.386550355623501D+03
 0.173035325971002D+03 -.667053876095032D+02 0.503790179860675D+02 0.120988918916223D+03
 0.182929129049258D+03 -.405431820361519D+02 -.703435892544945D+02 -.163924055879234D+03
 0.152436212049874D+03 -.644437745928581D+02 0.198497557926555D+02 -.136710591598862D+03
 0.264700044176868D+03 0.171692344238513D+03 0.114815475771540D+00 0.179645728561873D+03
 0.000000000000000D+00 0.000000000000000D+00 0.000000000000000D+00 0.000000000000000D+00
 0.387859435955165D+03 0.000000000000000D+00 0.000000000000000D+00 0.387859435955165D+03
 0.387136828925023D+03 0.000000000000000D+00 0.000000000000000D+00 -.387136828925023D+03
 0.173014499037215D+03 -.669048403490001D+02 0.500418761684324D+02 0.120988918916223D+03
 0.183113399449417D+03 -.407541579702669D+02 -.707002091238640D+02 -.163924055879234D+03
 0.152472212103587D+03 -.646195146629236D+02 0.195526963147930D+02 -.136710591598862D+03
 0.264502581932561D+03 0.171387327718063D+03 -.400764427381322D+00 0.179645728561873D+03
 0.189357235740829D+01 0.891185264127793D+00 0.150640106802004D+01 0.722607030141813D+00
0.187691527054D-04 0.000000000000D+00 0.000000000000D+00 0.115265095396D-07 0.000000000000D+00  7 1 -1 23 -11 11 23 21 0 0.38766697D+00 0.91227682D-02 0.54459917D+05 0.54459917D+05 0.54459917D+05 0.11440457D+01  1  2  2  1  7  1        1 0.221582183602D-03 0.100000000000D+01
-.719853267271D-06 0.000000000000D+00 -.720784884202D-07 0.115265095396D-07 0.000000000000D+00  7 1 -1 23 -11 11 23 21 2 0.38766697D+00 0.91227682D-02 0.54459917D+05 0.54459917D+05 0.54459917D+05 0.11440457D+01  1  2  3  1  7  1        1 -.111229735553D-04 0.100000000000D+01
0.114014238872D-05 0.000000000000D+00 0.000000000000D+00 0.115265095396D-07 0.000000000000D+00  7 1 -1 23 -11 11 23 21 2 0.38766697D+00 0.91227682D-02 0.54459917D+05 0.54459917D+05 0.54459917D+05 0.11440457D+01  1  2 15  1  7  1        1 0.176171647969D-04 0.100000000000D+01
-.742823159859D-03 0.000000000000D+00 0.000000000000D+00 0.115265095396D-07 0.000000000000D+00  7 1 -1 23 -11 11 23 21 2 0.38766697D+00 0.91227682D-02 0.54459917D+05 0.54459917D+05 0.54459917D+05 0.11440457D+01  1  2  4  1  7  1        1 -.114778979815D-01 0.100000000000D+01
-.453616562883D-02 0.000000000000D+00 -.413125473740D-03 0.115265095396D-07 0.000000000000D+00  7 1 -1 23 -11 11 23 21 2 0.38920169D+00 0.91227682D-02 0.54459917D+05 0.54459917D+05 0.54459917D+05 0.11440457D+01  1  2  5  1  7  1        1 -.690054430148D-01 0.100000000000D+01
0.453776570896D-02 0.000000000000D+00 0.413122249171D-03 0.115265095396D-07 0.000000000000D+00  7 1 -1 23 -11 11 23 21 2 0.38766697D+00 0.91227682D-02 0.54459917D+05 0.54459917D+05 0.54459917D+05 0.11440457D+01  1  2  6  1  7  1        1 0.701163004683D-01 0.100000000000D+01
0.742828763629D-03 0.000000000000D+00 0.000000000000D+00 0.115265095396D-07 0.262503810725D-07  7 1 -1 23 -11 11 23 21 2 0.38897983D+00 0.91366093D-02 0.54915431D+05 0.54915431D+05 0.54915431D+05 0.11437304D+01  1  2 11  1  7  1        1 0.112898460890D-01 0.100000000000D+01
0.320408065093D-09 0.000000000000D+00 0.000000000000D+00 0.115265095396D-07 0.000000000000D+00  7 21 -1 23 -11 11 23 -1 2 0.38927319D+00 0.91227682D-02 0.54915431D+05 0.54915431D+05 0.54915431D+05 0.11437304D+01  1  2 12  3  7  1        1 0.177096520986D-08 0.100000000000D+01
-.333824530669D-05 0.000000000000D+00 -.304245585229D-06 0.115265095396D-07 0.000000000000D+00  7 21 -1 23 -11 11 23 -1 2 0.38920169D+00 0.91227682D-02 0.54459917D+05 0.54459917D+05 0.54459917D+05 0.11440457D+01  1  2  5  3  7  1        1 -.184965955758D-04 0.100000000000D+01
0.608784847156D-06 0.000000000000D+00 0.000000000000D+00 0.115265095396D-07 0.165452417926D-10  7 21 -1 23 -11 11 23 -1 2 0.38897983D+00 0.91366093D-02 0.54915431D+05 0.54915431D+05 0.54915431D+05 0.11437304D+01  1  2 11  3  7  1        1 0.337228851294D-05 0.100000000000D+01
  </mgrwgt>
  </event>
  <event>
  8     66 0.56006291E-06 0.29018229E+03 0.75467711E-02 0.91650502E-01
        1 -1    0    0  501    0 0.00000000E+00 0.00000000E+00 0.25196428E+04 0.25196428E+04 0.32000000E+00 0.0000E+00 0.9000E+01
       -1 -1    0    0    0  501 0.00000000E+00 0.00000000E+00 -.40869510E+03 0.40869522E+03 0.32000000E+00 0.0000E+00 0.9000E+01
       25  2    1    2    0    0 -.46429857E+03 -.33841762E+03 -.87725133E+02 0.65405918E+03 0.29999678E+03 0.0000E+00 0.0000E+00
       23  2    1    2    0    0 0.46429857E+03 0.33841762E+03 0.21986728E+04 0.22742788E+04 0.89902402E+02 0.0000E+00 0.0000E+00
       23  1    3    3    0    0 -.30788042E+03 -.20052050E+03 0.59191594E+02 0.38316800E+03 0.91188000E+02 0.0000E+00 0.9000E+01
      -13  1    4    4    0    0 0.46439859E+03 0.33178427E+03 0.21251294E+04 0.22004368E+04 0.10565837E+00 0.0000E+00 0.9000E+01
       13  1    4    4    0    0 -.10001691E+00 0.66333514E+01 0.73543381E+02 0.73842070E+02 0.10565837E+00 0.0000E+00 0.9000E+01
       23  1    3    3    0    0 -.15641815E+03 -.13789712E+03 -.14691673E+03 0.27089118E+03 0.91188000E+02 0.0000E+00 0.9000E+01
#aMCatNLO 1  0  0  2  1 0.12286609D+03 0.00000000D+00  -5  7  0 0.00000000D+00 0.00000000D+00 0.00000000D+00 0.00000000D+00 0.00000000D+00
  <mgrwgt>
 0.2281519428D-03    9    2    0
 0.101477379871034D+04 0.000000000000000D+00 0.000000000000000D+00 0.101477379871034D+04
 0.101477379871034D+04 0.000000000000000D+00 0.000000000000000D+00 -.101477379871034D+04
 0.491289328401752D+03 -.307880418606446D+03 -.200520499090283D+03 -.313131170822624D+03
 0.964544129020866D+03 0.464399226619841D+03 0.331784720172618D+03 0.777558766012892D+03
 0.300489101970033D+02 -.100658487503267D+00 0.663290226718911D+01 0.293075328100197D+02
 0.543665229801059D+03 -.156418149525892D+03 -.137897123349524D+03 -.493735128000288D+03
 0.000000000000000D+00 -.000000000000000D+00 -.000000000000000D+00 -.000000000000000D+00
 0.105999865590571D+04 0.000000000000000D+00 0.000000000000000D+00 0.105999865590571D+04
 0.110365672685143D+04 0.000000000000000D+00 0.000000000000000D+00 -.110365672685143D+04
 0.473253045890521D+03 -.278720149103025D+03 -.199792748727015D+03 -.313131170822624D+03
 0.994916484040622D+03 0.523638095829851D+03 0.333263139587848D+03 0.777558766012892D+03
 0.301078498242355D+02 0.171801467961300D+01 0.667829073857755D+01 0.293075328100197D+02
 0.534985890470057D+03 -.123808117861547D+03 -.137083277565721D+03 -.493735128000288D+03
 0.130392112531704D+03 -.122827843544892D+03 -.306540403368951D+01 -.436580709457287D+02
0.345533177667D-03 0.000000000000D+00 0.000000000000D+00 0.663917534645D-05 0.000000000000D+00  7 1 -1 23 -13 13 23 21 0 0.38763736D+00 0.62876180D-01 0.35018932D+06 0.35018932D+06 0.35018932D+06 0.10796162D+01  1  2  2  2  7  2       -1 0.149064166498D-03 0.100000000000D+01
-.124078487901D-04 0.000000000000D+00 -.132693838322D-05 0.663917534645D-05 0.000000000000D+00  7 1 -1 23 -13 13 23 21 2 0.38763736D+00 0.62876180D-01 0.35018932D+06 0.35018932D+06 0.35018932D+06 0.10796162D+01  1  2  3  2  7  2       -1 -.623905443138D-05 0.100000000000D+01
0.215499020475D-04 0.000000000000D+00 0.000000000000D+00 0.663917534645D-05 0.000000000000D+00  7 1 -1 23 -13 13 23 21 2 0.38763736D+00 0.62876180D-01 0.35018932D+06 0.35018932D+06 0.35018932D+06 0.10796162D+01  1  2 15  2  7  2       -1 0.108359647300D-04 0.100000000000D+01
0.577291326052D-03 0.000000000000D+00 0.000000000000D+00 0.663917534646D-05 0.000000000000D+00  7 1 -1 23 -13 13 23 21 2 0.38763736D+00 0.69689666D-01 0.42987894D+06 0.42987894D+06 0.42987894D+06 0.10731795D+01  1  2 12  2  7  2       -1 0.231303388948D-03 0.100000000000D+01
-.550005757371D-03 0.000000000000D+00 0.000000000000D+00 0.663917534645D-05 0.000000000000D+00  7 1 -1 23 -13 13 23 21 2 0.38763736D+00 0.62876180D-01 0.35018932D+06 0.35018932D+06 0.35018932D+06 0.10796162D+01  1  2  4  2  7  2       -1 -.276560096424D-03 0.100000000000D+01
-.128351795692D-02 0.000000000000D+00 -.342799120187D-03 0.663917534645D-05 0.000000000000D+00  7 1 -1 23 -13 13 23 21 2 0.38763736D+00 0.71690051D-01 0.35018932D+06 0.35018932D+06 0.35018932D+06 0.10796162D+01  1  2  5  2  7  2       -1 -.499925913716D-03 0.100000000000D+01
0.132004173786D-02 0.000000000000D+00 0.339870441194D-03 0.663917534645D-05 0.000000000000D+00  7 1 -1 23 -13 13 23 21 2 0.38763736D+00 0.62876180D-01 0.35018932D+06 0.35018932D+06 0.35018932D+06 0.10796162D+01  1  2  6  2  7  2       -1 0.663758270555D-03 0.100000000000D+01
0.960927465705D-05 0.000000000000D+00 0.000000000000D+00 0.663917534646D-05 0.000000000000D+00  7 1 21 23 -13 13 23 1 2 0.38763736D+00 0.69689666D-01 0.42987894D+06 0.42987894D+06 0.42987894D+06 0.10731795D+01  1  2 12  4  7  2       -1 0.303410740600D-04 0.100000000000D+01
-.243673118625D-04 0.000000000000D+00 -.700649530285D-05 0.663917534645D-05 0.000000000000D+00  7 1 21 23 -13 13 23 1 2 0.38763736D+00 0.71690051D-01 0.35018932D+06 0.35018932D+06 0.35018932D+06 0.10796162D+01  1  2  5  4  7  2       -1 -.744258574650D-04 0.100000000000D+01
  </mgrwgt>
  </event>
  <event>
  8     66 0.56006291E-06 0.80447360E+02 0.75467711E-02 0.10209714E+00
        1 -1    0    0  501    0 0.00000000E+00 0.00000000E+00 0.42879800E+04 0.42879800E+04 0.32000000E+00 0.0000E+00 0.9000E+01
       -1 -1    0    0    0  501 0.00000000E+00 0.00000000E+00 -.40856940E+02 0.40858193E+02 0.32000000E+00 0.0000E+00 0.9000E+01
       25  2    1    2    0    0 -.95561043E+02 -.16011506E+03 0.39536757E+04 0.39693285E+04 0.29874470E+03 0.0000E+00 0.0000E+00
       23  2    1    2    0    0 0.95561043E+02 0.16011506E+03 0.29344735E+03 0.35950970E+03 0.91472043E+02 0.0000E+00 0.0000E+00
       23  1    3    3    0    0 -.63652828E+02 -.55953242E+01 0.27187481E+04 0.27210273E+04 0.91188000E+02 0.0000E+00 0.9000E+01
      -11  1    4    4    0    0 0.10447587E+03 0.14205172E+03 0.21270239E+03 0.27629007E+03 0.51099893E-03 0.0000E+00 0.9000E+01
       11  1    4    4    0    0 -.89148224E+01 0.18063339E+02 0.80744965E+02 0.83219635E+02 0.51099893E-03 0.0000E+00 0.9000E+01
       23  1    3    3    0    0 -.31908215E+02 -.15451973E+03 0.12349276E+04 0.12483012E+04 0.91188000E+02 0.0000E+00 0.9000E+01
#aMCatNLO 1  0  0  2  1 0.58577968D+02 0.00000000D+00  -5  7  0 0.00000000D+00 0.00000000D+00 0.00000000D+00 0.00000000D+00 0.00000000D+00
  <mgrwgt>
 0.9315316083D-04    6    2    0
 0.418564784408266D+03 0.000000000000000D+00 0.000000000000000D+00 0.418564784408266D+03
 0.418564784408266D+03 0.000000000000000D+00 0.000000000000000D+00 -.418564784408266D+03
 0.277172273834849D+03 -.636528284282246D+02 -.559532421925390D+01 0.253823221590833D+03
 0.349577659038102D+03 0.104475865488136D+03 0.142051716374842D+03 -.301845396029202D+03
 0.206784392594334D+02 -.891482243913115D+01 0.180633394689304D+02 -.467328132205017D+01
 0.189701196684147D+03 -.319082146207805D+02 -.154519731624518D+03 0.526954557604201D+02
 0.000000000000000D+00 0.000000000000000D+00 0.000000000000000D+00 0.000000000000000D+00
 0.454901445912903D+03 0.000000000000000D+00 0.000000000000000D+00 0.454901445912903D+03
 0.443880763272090D+03 0.000000000000000D+00 0.000000000000000D+00 -.443880763272090D+03
 0.280662529661352D+03 -.745403919879261D+02 -.217647962417956D+02 0.253823221590833D+03
 0.338104125056459D+03 0.910540081815414D+02 0.122118482918202D+03 -.301845396029202D+03
 0.200289665158506D+02 -.970933089387654D+01 0.168833893212014D+02 -.467328132205017D+01
 0.200380935485462D+03 -.395216585666984D+02 -.165826702941256D+03 0.526954557604201D+02
 0.596056524658696D+02 0.327173732669596D+02 0.485896269436486D+02 0.110206826408132D+02
0.938617538869D-04 0.000000000000D+00 0.000000000000D+00 0.436606500038D-06 0.000000000000D+00  7 1 -1 23 -11 11 23 21 0 0.65968933D+00 0.62857803D-02 0.60039904D+05 0.60039904D+05 0.60039904D+05 0.11403702D+01  1  2  2  2  7  2       -1 0.727871197280D-04 0.100000000000D+01
-.339679070961D-05 0.000000000000D+00 -.360453849293D-06 0.436606500038D-06 0.000000000000D+00  7 1 -1 23 -11 11 23 21 2 0.65968933D+00 0.62857803D-02 0.60039904D+05 0.60039904D+05 0.60039904D+05 0.11403702D+01  1  2  3  2  7  2       -1 -.342551876845D-05 0.100000000000D+01
0.566206744316D-05 0.000000000000D+00 0.000000000000D+00 0.436606500038D-06 0.000000000000D+00  7 1 -1 23 -11 11 23 21 2 0.65968933D+00 0.62857803D-02 0.60039904D+05 0.60039904D+05 0.60039904D+05 0.11403702D+01  1  2 15  2  7  2       -1 0.570995388085D-05 0.100000000000D+01
0.516677021713D-04 0.000000000000D+00 0.000000000000D+00 0.436606500038D-06 0.000000000000D+00  7 1 -1 23 -11 11 23 21 2 0.65968933D+00 0.69199161D-02 0.73843020D+05 0.73843020D+05 0.73843020D+05 0.11326917D+01  1  2 12  2  7  2       -1 0.438419437586D-04 0.100000000000D+01
-.357805289001D-04 0.000000000000D+00 0.000000000000D+00 0.436606500038D-06 0.000000000000D+00  7 1 -1 23 -11 11 23 21 2 0.65968933D+00 0.62857803D-02 0.60039904D+05 0.60039904D+05 0.60039904D+05 0.11403702D+01  1  2  4  2  7  2       -1 -.360831395780D-04 0.100000000000D+01
0.810877157571D-06 0.000000000000D+00 0.000000000000D+00 0.436606500038D-06 0.000000000000D+00  7 1 21 23 -11 11 23 1 2 0.65968933D+00 0.69199161D-02 0.73843020D+05 0.73843020D+05 0.73843020D+05 0.11326917D+01  1  2 12  4  7  2       -1 0.103228018130D-04 0.100000000000D+01
  </mgrwgt>
  </event>
  <event>
  8     66 0.56006291E-06 0.43495821E+03 0.75467711E-02 0.83831835E-01
        1 -1    0    0  501    0 0.00000000E+00 0.00000000E+00 0.13241300E+04 0.13241301E+04 0.32000000E+00 0.0000E+00 0.9000E+01
       -1 -1    0    0    0  501 0.00000000E+00 0.00000000E+00 -.37915666E+03 0.37915679E+03 0.32000000E+00 0.0000E+00 0.9000E+01
       25  2    1    2    0    0 0.34837598E+03 0.17282490E+03 -.16949116E+03 0.51944749E+03 0.29977353E+03 0.0000E+00 0.0000E+00
       23  2    1    2    0    0 -.34837598E+03 -.17282490E+03 0.11144645E+04 0.11838394E+04 0.90610067E+02 0.0000E+00 0.0000E+00
       23  1    3    3    0    0 0.23922583E+03 0.20580734E+03 -.17722097E+03 0.37324011E+03 0.91188000E+02 0.0000E+00 0.9000E+01
      -13  1    4    4    0    0 -.16485405E+03 -.42203945E+02 0.39963268E+03 0.43435506E+03 0.10565837E+00 0.0000E+00 0.9000E+01
       13  1    4    4    0    0 -.18352192E+03 -.13062096E+03 0.71483185E+03 0.74948430E+03 0.10565837E+00 0.0000E+00 0.9000E+01
       23  1    3    3    0    0 0.10915015E+03 -.32982435E+02 0.77298011E+01 0.14620738E+03 0.91188000E+02 0.0000E+00 0.9000E+01
#aMCatNLO 1  0  0  1  2 0.14088562D+04 0.00000000D+00  -5  7  0 0.00000000D+00 0.00000000D+00 0.00000000D+00 0.00000000D+00 0.00000000D+00
  <mgrwgt>
 0.2654816154D-03    3    2    0
 0.708556884331253D+03 0.000000000000000D+00 0.000000000000000D+00 0.708556884331253D+03
 0.708556884331253D+03 0.000000000000000D+00 0.000000000000000D+00 -.708556884331253D+03
 0.566788695044339D+03 0.239225830915508D+03 0.205807339202059D+03 -.461896649088753D+03
 0.255581953728479D+03 -.164854028968243D+03 -.422038243330844D+02 0.190693789663603D+03
 0.424164970005257D+03 -.183521949537836D+03 -.130621080286147D+03 0.359407497420786D+03
 0.170578149884430D+03 0.109150147590572D+03 -.329824345828277D+02 -.882046379956356D+02
 0.000000000000000D+00 -.000000000000000D+00 -.000000000000000D+00 -.000000000000000D+00
 0.118375407131369D+04 0.000000000000000D+00 0.000000000000000D+00 0.118375407131369D+04
 0.368694258901778D+04 0.000000000000000D+00 0.000000000000000D+00 -.368694258901778D+04
 0.110776689975632D+04 0.672561930623931D+03 0.743736638796095D+03 -.461896649088753D+03
 0.224905383895318D+03 -.405150643547884D+02 0.112146510641934D+03 0.190693789663603D+03
 0.382527600811591D+03 0.252313539576787D+02 0.128518461544877D+03 0.359407497420786D+03
 0.283071204113113D+03 0.226544065300388D+03 0.112746545699989D+03 -.882046379956356D+02
 0.287242557175514D+04 -.883822285527210D+03 -.109714815668290D+04 -.250318851770409D+04
0.788842751794D-04 0.000000000000D+00 0.000000000000D+00 0.347400744782D-05 0.000000000000D+00  7 1 -1 23 -13 13 23 21 0 0.20371232D+00 0.58331807D-01 0.18918864D+06 0.18918864D+06 0.18918864D+06 0.10996838D+01  1  2  2  1  7  1        1 0.258957298777D-03 0.100000000000D+01
-.311362757794D-05 0.000000000000D+00 -.302936387395D-06 0.347400744782D-05 0.000000000000D+00  7 1 -1 23 -13 13 23 21 2 0.20371232D+00 0.58331807D-01 0.18918864D+06 0.18918864D+06 0.18918864D+06 0.10996838D+01  1  2  3  1  7  1        1 -.123606145160D-04 0.100000000000D+01
0.475709702487D-05 0.000000000000D+00 0.000000000000D+00 0.347400744782D-05 0.000000000000D+00  7 1 -1 23 -13 13 23 21 2 0.20371232D+00 0.58331807D-01 0.18918864D+06 0.18918864D+06 0.18918864D+06 0.10996838D+01  1  2 15  1  7  1        1 0.188849311833D-04 0.100000000000D+01
  </mgrwgt>
  </event>
  <event>
  8     66 0.56006291E-06 0.28206266E+03 0.75467711E-02 0.86778988E-01
        3 -1    0    0  501    0 0.00000000E+00 0.00000000E+00 0.75013314E+03 0.75013331E+03 0.50000000E+00 0.0000E+00 0.9000E+01
       -3 -1    0    0    0  501 0.00000000E+00 0.00000000E+00 -.22873571E+03 0.22873625E+03 0.50000000E+00 0.0000E+00 0.9000E+01
       25  2    1    2    0    0 0.18886511E+03 -.10266020E+03 -.35875483E+02 0.37474798E+03 0.30486038E+03 0.0000E+00 0.0000E+00
       23  2    1    2    0    0 -.18886511E+03 0.10266020E+03 0.55727292E+03 0.60412158E+03 0.90557328E+02 0.0000E+00 0.0000E+00
       23  1    3    3    0    0 0.17983995E+03 -.28947263E+01 0.58123145E+02 0.20986743E+03 0.91188000E+02 0.0000E+00 0.9000E+01
      -13  1    4    4    0    0 -.44276031E+02 -.79188966E+01 0.17553460E+03 0.18120564E+03 0.10565837E+00 0.0000E+00 0.9000E+01
       13  1    4    4    0    0 -.14458908E+03 0.11057910E+03 0.38173832E+03 0.42291594E+03 0.10565837E+00 0.0000E+00 0.9000E+01
       23  1    3    3    0    0 0.90251670E+01 -.99765477E+02 -.93998628E+02 0.16488056E+03 0.91188000E+02 0.0000E+00 0.9000E+01
#aMCatNLO 1  0  0  1  1 0.10048362D+04 0.00000000D+00  -5  7  0 0.00000000D+00 0.00000000D+00 0.00000000D+00 0.00000000D+00 0.00000000D+00
  <mgrwgt>
 0.2073178242D-04    5    2    0
 0.414225281811935D+03 0.000000000000000D+00 0.000000000000000D+00 0.414225281811935D+03
 0.414225281811935D+03 0.000000000000000D+00 0.000000000000000D+00 -.414225281811935D+03
 0.211391703732705D+03 0.179839939502739D+03 -.289473222571390D+01 -.634067642133561D+02
 0.103631070385200D+03 -.442758954231825D+02 -.791905722007532D+01 0.933613001537728D+02
 0.259451021147259D+03 -.144589223086345D+03 0.110579263154783D+03 0.184881084759333D+03
 0.253976768358705D+03 0.902517900678819D+01 -.997654737089941D+02 -.214835620699750D+03
 0.000000000000000D+00 -.000000000000000D+00 -.000000000000000D+00 0.000000000000000D+00
 0.302170627327338D+04 0.000000000000000D+00 0.000000000000000D+00 0.302170627327338D+04
 0.757641216353322D+03 0.000000000000000D+00 0.000000000000000D+00 -.757641216353322D+03
 0.458610981122585D+03 0.366893248018539D+03 0.251749294880083D+03 -.634067642133561D+02
 0.123373369423704D+03 0.190998677996207D+02 0.783572011150981D+02 0.933613001537728D+02
 0.412124788437773D+03 0.429032749910159D+02 0.365821178635322D+03 0.184881084759333D+03
 0.308206568789377D+03 0.165977166786829D+03 0.113900280442548D+03 -.214835620699750D+03
 0.247703178185327D+04 -.594873557596005D+03 -.809827955073051D+03 0.226406505692006D+04
0.953436626865D-05 0.000000000000D+00 0.000000000000D+00 0.154425665774D-07 0.000000000000D+00  7 3 -3 23 -13 13 23 21 0 0.11540515D+00 0.35190164D-01 0.79559346D+05 0.79559346D+05 0.79559346D+05 0.11299637D+01  1  2  2  1  7  1        3 0.202758477186D-04 0.100000000000D+01
-.434583178288D-06 0.000000000000D+00 -.366144769279D-07 0.154425665774D-07 0.000000000000D+00  7 3 -3 23 -13 13 23 21 2 0.11540515D+00 0.35190164D-01 0.79559346D+05 0.79559346D+05 0.79559346D+05 0.11299637D+01  1  2  3  1  7  1        3 -.118001930445D-05 0.100000000000D+01
0.602321510132D-06 0.000000000000D+00 0.000000000000D+00 0.154425665774D-07 0.000000000000D+00  7 3 -3 23 -13 13 23 21 2 0.11540515D+00 0.35190164D-01 0.79559346D+05 0.79559346D+05 0.79559346D+05 0.11299637D+01  1  2 15  1  7  1        3 0.163547749878D-05 0.100000000000D+01
0.344482583864D-05 0.000000000000D+00 -.529927323732D-05 0.154425665774D-07 0.000000000000D+00  7 3 -3 23 -13 13 23 21 2 0.87255571D+00 0.35190164D-01 0.79559346D+05 0.79559346D+05 0.79559346D+05 0.11299637D+01  1  2  5  1  7  1        3 0.474322303218D-09 0.100000000000D+01
0.271529311132D-06 0.000000000000D+00 -.130574236274D-05 0.154425665774D-07 0.000000000000D+00  7 21 -3 23 -13 13 23 -3 2 0.87255571D+00 0.35190164D-01 0.79559346D+05 0.79559346D+05 0.79559346D+05 0.11299637D+01  1  2  5  3  7  1        3 0.218313481710D-11 0.100000000000D+01
  </mgrwgt>
  </event>
  <event>
  8     66 0.56006291E-06 0.32273749E+03 0.75467711E-02 0.97019133E-01
        1 -1    0    0  501    0 0.00000000E+00 0.00000000E+00 0.10896223E+04 0.10896223E+04 0.32000000E+00 0.0000E+00 0.9000E+01
       -1 -1    0    0    0  501 0.00000000E+00 0.00000000E+00 -.28620124E+03 0.28620142E+03 0.32000000E+00 0.0000E+00 0.9000E+01
       25  2    1    2    0    0 0.27577078E+03 0.92490587E+02 -.95430128E+02 0.42762300E+03 0.29858079E+03 0.0000E+00 0.0000E+00
       23  2    1    2    0    0 -.27577078E+03 -.92490587E+02 0.89885116E+03 0.94820073E+03 0.80914754E+02 0.0000E+00 0.0000E+00
       23  1    3    3    0    0 0.19646865E+03 0.68365760E+02 -.16989228E+03 0.28364140E+03 0.91188000E+02 0.0000E+00 0.9000E+01
      -13  1    4    4    0    0 -.38771359E+02 -.32614415E+02 0.90727500E+02 0.10391539E+03 0.10565837E+00 0.0000E+00 0.9000E+01
       13  1    4    4    0    0 -.23699942E+03 -.59876172E+02 0.80812366E+03 0.84428534E+03 0.10565837E+00 0.0000E+00 0.9000E+01
       23  1    3    3    0    0 0.79302129E+02 0.24124827E+02 0.74462156E+02 0.14398159E+03 0.91188000E+02 0.0000E+00 0.9000E+01
#aMCatNLO 1  0  0  2  1 0.16029799D+03 0.00000000D+00  -5  7  0 0.00000000D+00 0.00000000D+00 0.00000000D+00 0.00000000D+00 0.00000000D+00
  <mgrwgt>
 0.2194664588D-03    4    2    0
 0.558436565135183D+03 0.000000000000000D+00 0.000000000000000D+00 0.558436565135183D+03
 0.558436565135183D+03 0.000000000000000D+00 0.000000000000000D+00 -.558436565135183D+03
 0.471616332824341D+03 0.196468648075882D+03 0.683657602092149D+02 -.413319376749906D+03
 0.627431401993834D+02 -.387710205741019D+02 -.326143689298378D+02 0.370109787094380D+02
 0.458713714146758D+03 -.236999756839352D+03 -.598762182195185D+02 0.388154898585771D+03
 0.123799943099885D+03 0.793021293375722D+02 0.241248269401414D+02 -.118465005453023D+02
 0.000000000000000D+00 -.000000000000000D+00 0.000000000000000D+00 0.000000000000000D+00
 0.659586774768131D+03 0.000000000000000D+00 0.000000000000000D+00 0.659586774768131D+03
 0.631475300309778D+03 0.000000000000000D+00 0.000000000000000D+00 -.631475300309778D+03
 0.504297767234048D+03 0.266105035026373D+03 0.660014380898482D+02 -.413319376749906D+03
 0.579835464631834D+02 -.301565633517068D+02 -.329068503845653D+02 0.370109787094380D+02
 0.429710244143882D+03 -.173606232212633D+03 -.620285802110464D+02 0.388154898585771D+03
 0.136326232630878D+03 0.978634422933488D+02 0.234946259100818D+02 -.118465005453023D+02
 0.162744284605917D+03 -.160205681755382D+03 0.543936659568170D+01 0.281114744583530D+02
0.495639550902D-04 0.000000000000D+00 0.000000000000D+00 0.761129978428D-08 0.000000000000D+00  7 1 -1 23 -13 13 23 21 0 0.16763421D+00 0.44030977D-01 0.10415948D+06 0.10415948D+06 0.10415948D+06 0.11202725D+01  1  2  2  2  7  2       -1 0.405771449501D-03 0.100000000000D+01
-.174705195583D-05 0.000000000000D+00 -.190338638035D-06 0.761129978428D-08 0.000000000000D+00  7 1 -1 23 -13 13 23 21 2 0.16763421D+00 0.44030977D-01 0.10415948D+06 0.10415948D+06 0.10415948D+06 0.11202725D+01  1  2  3  2  7  2       -1 -.179501768964D-04 0.100000000000D+01
0.304775901515D-05 0.000000000000D+00 0.000000000000D+00 0.761129978428D-08 0.000000000000D+00  7 1 -1 23 -13 13 23 21 2 0.16763421D+00 0.44030977D-01 0.10415948D+06 0.10415948D+06 0.10415948D+06 0.11202725D+01  1  2 15  2  7  2       -1 0.313143597574D-04 0.100000000000D+01
-.194333695030D-04 0.000000000000D+00 0.000000000000D+00 0.761129978428D-08 0.000000000000D+00  7 1 -1 23 -13 13 23 21 2 0.16763421D+00 0.44030977D-01 0.10415948D+06 0.10415948D+06 0.10415948D+06 0.11202725D+01  1  2  4  2  7  2       -1 -.199669173609D-03 0.100000000000D+01
  </mgrwgt>
  </event>
  <event>
  8     66 0.56006291E-06 0.14972791E+03 0.75467711E-02 0.96201156E-01
        1 -1    0    0  501    0 0.00000000E+00 0.00000000E+00 0.11918345E+04 0.11918345E+04 0.32000000E+00 0.0000E+00 0.9000E+01
       -1 -1    0    0    0  501 0.00000000E+00 0.00000000E+00 -.18485556E+03 0.18485584E+03 0.32000000E+00 0.0000E+00 0.9000E+01
       25  2    1    2    0    0 -.35936137E+03 -.14780064E+03 0.76913049E+03 0.91231362E+03 0.29961443E+03 0.0000E+00 0.0000E+00
       23  2    1    2    0    0 0.35936137E+03 0.14780064E+03 0.23784842E+03 0.46437673E+03 0.89934750E+02 0.0000E+00 0.0000E+00
       23  1    3    3    0    0 -.21093043E+03 -.16558926E+03 0.62253477E+03 0.68394169E+03 0.91188000E+02 0.0000E+00 0.9000E+01
      -13  1    4    4    0    0 0.75938065E+02 -.56410717E+01 0.37425667E+02 0.84847529E+02 0.10565837E+00 0.0000E+00 0.9000E+01
       13  1    4    4    0    0 0.28342330E+03 0.15344171E+03 0.20042275E+03 0.37952921E+03 0.10565837E+00 0.0000E+00 0.9000E+01
       23  1    3    3    0    0 -.14843094E+03 0.17788627E+02 0.14659572E+03 0.22837193E+03 0.91188000E+02 0.0000E+00 0.9000E+01
#aMCatNLO 1  0  0  1  2 0.15813440D+02 0.00000000D+00  -5  7  0 0.00000000D+00 0.00000000D+00 0.00000000D+00 0.00000000D+00 0.00000000D+00
  <mgrwgt>
 0.1987985270D-03    9    2    0
 0.469379858655575D+03 0.000000000000000D+00 0.000000000000000D+00 0.469379858655575D+03
 0.469379858655575D+03 0.000000000000000D+00 0.000000000000000D+00 -.469379858655575D+03
 0.335225876218587D+03 -.210930426645200D+03 -.165589264914021D+03 0.179303338516123D+03
 0.842831047730121D+02 0.759377786017060D+02 -.564129118701483D+01 -.361285394800306D+02
 0.341592252098621D+03 0.283423590269476D+03 0.153441929373861D+03 -.113189705727132D+03
 0.177658484220931D+03 -.148430942225982D+03 0.177886267271750D+02 -.299850933089603D+02
 0.000000000000000D+00 -.000000000000000D+00 -.000000000000000D+00 0.000000000000000D+00
 0.494927998494192D+03 0.000000000000000D+00 0.000000000000000D+00 0.494927998494192D+03
 0.471899840025107D+03 0.000000000000000D+00 0.000000000000000D+00 -.471899840025107D+03
 0.330771653241450D+03 -.206247535986388D+03 -.162502005958691D+03 0.179303338516123D+03
 0.853107297707506D+02 0.771302595771550D+02 -.485513198776289D+01 -.361285394800306D+02
 0.347049394882086D+03 0.288265700627648D+03 0.156634156067823D+03 -.113189705727132D+03
 0.175761118942430D+03 -.145945909947204D+03 0.194269178417683D+02 -.299850933089603D+02
 0.279349416825810D+02 -.132025142712113D+02 -.870393596313716D+01 0.230281584690845D+02
0.525737608392D-05 0.000000000000D+00 0.000000000000D+00 0.310015702502D-06 0.000000000000D+00  7 1 -1 23 -13 13 23 21 0 0.18335917D+00 0.28439342D-01 0.18352394D+06 0.18352394D+06 0.18352394D+06 0.11007045D+01  1  2  2  1  7  1        1 0.754224248754D-04 0.100000000000D+01
-.289112225900D-06 0.000000000000D+00 -.201897084612D-07 0.310015702502D-06 0.000000000000D+00  7 1 -1 23 -13 13 23 21 2 0.18335917D+00 0.28439342D-01 0.18352394D+06 0.18352394D+06 0.18352394D+06 0.11007045D+01  1  2  3  1  7  1        1 -.502503885918D-05 0.100000000000D+01
0.331095424820D-06 0.000000000000D+00 0.000000000000D+00 0.310015702502D-06 0.000000000000D+00  7 1 -1 23 -13 13 23 21 2 0.18335917D+00 0.28439342D-01 0.18352394D+06 0.18352394D+06 0.18352394D+06 0.11007045D+01  1  2 15  1  7  1        1 0.575474582798D-05 0.100000000000D+01
0.406884344239D-04 0.000000000000D+00 0.000000000000D+00 0.310015702502D-06 0.000000000000D+00  7 1 -1 23 -13 13 23 21 2 0.19381588D+00 0.28439342D-01 0.19023129D+06 0.19023129D+06 0.19023129D+06 0.10994996D+01  1  2 12  1  7  1        1 0.631622705907D-03 0.100000000000D+01
-.414635525562D-04 0.000000000000D+00 0.000000000000D+00 0.310015702502D-06 0.000000000000D+00  7 1 -1 23 -13 13 23 21 2 0.18335917D+00 0.28439342D-01 0.18352394D+06 0.18352394D+06 0.18352394D+06 0.11007045D+01  1  2  4  1  7  1        1 -.720675032631D-03 0.100000000000D+01
-.117184758520D-03 0.000000000000D+00 -.113107463618D-04 0.310015702502D-06 0.000000000000D+00  7 1 -1 23 -13 13 23 21 2 0.19380238D+00 0.28439342D-01 0.18352394D+06 0.18352394D+06 0.18352394D+06 0.11007045D+01  1  2  5  1  7  1        1 -.182538499240D-02 0.100000000000D+01
0.117648079207D-03 0.000000000000D+00 0.112934162678D-04 0.310015702502D-06 0.000000000000D+00  7 1 -1 23 -13 13 23 21 2 0.18335917D+00 0.28439342D-01 0.18352394D+06 0.18352394D+06 0.18352394D+06 0.11007045D+01  1  2  6  1  7  1        1 0.204483282533D-02 0.100000000000D+01
0.617832250023D-06 0.000000000000D+00 0.000000000000D+00 0.310015702502D-06 0.000000000000D+00  7 21 -1 23 -13 13 23 -1 2 0.19381588D+00 0.28439342D-01 0.19023129D+06 0.19023129D+06 0.19023129D+06 0.10994996D+01  1  2 12  3  7  1        1 0.961815500906D-05 0.100000000000D+01
-.110996755081D-05 0.000000000000D+00 -.108305678978D-06 0.310015702502D-06 0.000000000000D+00  7 21 -1 23 -13 13 23 -1 2 0.19380238D+00 0.28439342D-01 0.18352394D+06 0.18352394D+06 0.18352394D+06 0.11007045D+01  1  2  5  3  7  1        1 -.173672660322D-04 0.100000000000D+01
  </mgrwgt>
  </event>
  <event>
  8     66 0.56006291E-06 0.11431845E+03 0.75467711E-02 0.10596582E+00
        1 -1    0    0  501    0 0.00000000E+00 0.00000000E+00 0.54924629E+03 0.54924639E+03 0.32000000E+00 0.0000E+00 0.9000E+01
       -1 -1    0    0    0  501 0.00000000E+00 0.00000000E+00 -.81874081E+02 0.81874706E+02 0.32000000E+00 0.0000E+00 0.9000E+01
       25  2    1    2    0    0 -.59455210E+02 0.39026838E+02 0.34770633E+03 0.46495509E+03 0.30037564E+03 0.0000E+00 0.0000E+00
       23  2    1    2    0    0 0.59455210E+02 -.39026838E+02 0.11966589E+03 0.16616601E+03 0.90736989E+02 0.0000E+00 0.0000E+00
       23  1    3    3    0    0 0.76845585E+02 0.49002826E+01 0.23346159E+03 0.26219996E+03 0.91188000E+02 0.0000E+00 0.9000E+01
      -11  1    4    4    0    0 0.44819108E+02 -.64278128E+02 0.11071088E+03 0.13563675E+03 0.51099893E-03 0.0000E+00 0.9000E+01
       11  1    4    4    0    0 0.14636101E+02 0.25251290E+02 0.89550086E+01 0.30529253E+02 0.51099893E-03 0.0000E+00 0.9000E+01
       23  1    3    3    0    0 -.13630079E+03 0.34126555E+02 0.11424474E+03 0.20275512E+03 0.91188000E+02 0.0000E+00 0.9000E+01
#aMCatNLO 1  0  0  1  2 0.15736138D+02 0.00000000D+00  -5  7  0 0.00000000D+00 0.00000000D+00 0.00000000D+00 0.00000000D+00 0.00000000D+00
  <mgrwgt>
 0.2347402952D-03    9    2    0
 0.212059572261226D+03 0.000000000000000D+00 0.000000000000000D+00 0.212059572261226D+03
 0.212059572261226D+03 0.000000000000000D+00 0.000000000000000D+00 -.212059572261226D+03
 0.132902439244669D+03 0.768455850359519D+02 0.490028277419349D+01 0.584683701021178D+02
 0.798361218390309D+02 0.448191085759153D+02 -.642781280833938D+02 0.152766523444023D+02
 0.355615481090703D+02 0.146361015186531D+02 0.252512898720674D+02 -.203170026344004D+02
 0.175819035329682D+03 -.136300795130520D+03 0.341265554371329D+02 -.534280198121196D+02
 0.000000000000000D+00 -.000000000000000D+00 0.000000000000000D+00 0.000000000000000D+00
 0.222253442964771D+03 0.000000000000000D+00 0.000000000000000D+00 0.222253442964771D+03
 0.218366591710219D+03 0.000000000000000D+00 0.000000000000000D+00 -.218366591710219D+03
 0.132971369315840D+03 0.771205737477650D+02 -.227188672227889D-01 0.584683701021178D+02
 0.823650052633215D+02 0.449868704146538D+02 -.672814943017053D+02 0.152766523444023D+02
 0.346808604761654D+02 0.147087520349115D+02 0.239506597173545D+02 -.203170026344004D+02
 0.174393738869913D+03 -.135938576075702D+03 0.276419074322612D+02 -.534280198121196D+02
 0.162090607497495D+02 -.877620121627877D+00 0.157116460193124D+02 0.388685125455146D+01
0.546638024979D-06 0.000000000000D+00 0.000000000000D+00 0.706775536612D-07 0.000000000000D+00  7 1 -1 23 -11 11 23 21 0 0.84499485D-01 0.12596068D-01 0.38888269D+05 0.38888269D+05 0.38888269D+05 0.11570219D+01  1  2  2  1  7  1        1 0.101302419023D-03 0.100000000000D+01
-.301739294615D-07 0.000000000000D+00 -.209923394902D-08 0.706775536612D-07 0.000000000000D+00  7 1 -1 23 -11 11 23 21 2 0.84499485D-01 0.12596068D-01 0.38888269D+05 0.38888269D+05 0.38888269D+05 0.11570219D+01  1  2  3  1  7  1        1 -.748574423721D-05 0.100000000000D+01
0.359505693228D-07 0.000000000000D+00 0.000000000000D+00 0.706775536612D-07 0.000000000000D+00  7 1 -1 23 -11 11 23 21 2 0.84499485D-01 0.12596068D-01 0.38888269D+05 0.38888269D+05 0.38888269D+05 0.11570219D+01  1  2 15  1  7  1        1 0.891885054203D-05 0.100000000000D+01
0.146221547789D-05 0.000000000000D+00 0.000000000000D+00 0.706775536612D-07 0.000000000000D+00  7 1 -1 23 -11 11 23 21 2 0.89768886D-01 0.12596068D-01 0.42068809D+05 0.42068809D+05 0.42068809D+05 0.11539522D+01  1  2 12  1  7  1        1 0.331800689480D-03 0.100000000000D+01
-.130566194175D-05 0.000000000000D+00 0.000000000000D+00 0.706775536612D-07 0.000000000000D+00  7 1 -1 23 -11 11 23 21 2 0.84499485D-01 0.12596068D-01 0.38888269D+05 0.38888269D+05 0.38888269D+05 0.11570219D+01  1  2  4  1  7  1        1 -.323917087718D-03 0.100000000000D+01
-.603142603733D-05 0.000000000000D+00 -.104591100545D-05 0.706775536612D-07 0.000000000000D+00  7 1 -1 23 -11 11 23 21 2 0.90663621D-01 0.12596068D-01 0.38888269D+05 0.38888269D+05 0.38888269D+05 0.11570219D+01  1  2  5  1  7  1        1 -.135608803352D-02 0.100000000000D+01
0.609254803390D-05 0.000000000000D+00 0.104332370824D-05 0.706775536612D-07 0.000000000000D+00  7 1 -1 23 -11 11 23 21 2 0.84499485D-01 0.12596068D-01 0.38888269D+05 0.38888269D+05 0.38888269D+05 0.11570219D+01  1  2  6  1  7  1        1 0.151147885439D-02 0.100000000000D+01
0.171685750336D-07 0.000000000000D+00 0.000000000000D+00 0.706775536612D-07 0.000000000000D+00  7 21 -1 23 -11 11 23 -1 2 0.89768886D-01 0.12596068D-01 0.42068809D+05 0.42068809D+05 0.42068809D+05 0.11539522D+01  1  2 12  3  7  1        1 0.103699040255D-04 0.100000000000D+01
-.700861767522D-07 0.000000000000D+00 -.124619342646D-07 0.706775536612D-07 0.000000000000D+00  7 21 -1 23 -11 11 23 -1 2 0.90663621D-01 0.12596068D-01 0.38888269D+05 0.38888269D+05 0.38888269D+05 0.11570219D+01  1  2  5  3  7  1        1 -.416395567871D-04 0.100000000000D+01
  </mgrwgt>
  </event>
  <event>
  8     66 0.56006291E-06 0.17034667E+03 0.75467711E-02 0.99250172E-01
        1 -1    0    0  501    0 0.00000000E+00 0.00000000E+00 0.25112332E+03 0.25112352E+03 0.32000000E+00 0.0000E+00 0.9000E+01
       -1 -1    0    0    0  501 0.00000000E+00 0.00000000E+00 -.22392493E+03 0.22392516E+03 0.32000000E+00 0.0000E+00 0.9000E+01
       25  2    1    2    0    0 -.10955205E+03 0.71569126E+01 0.77958406E+02 0.32654170E+03 0.29748798E+03 0.0000E+00 0.0000E+00
       23  2    1    2    0    0 0.10955205E+03 -.71569126E+01 -.50760021E+02 0.14850699E+03 0.86167708E+02 0.0000E+00 0.0000E+00
       23  1    3    3    0    0 -.86092384E+02 0.15655764E+02 -.74827094E+02 0.14687187E+03 0.91188000E+02 0.0000E+00 0.9000E+01
      -13  1    4    4    0    0 0.49508804E+02 0.20599544E+02 0.14537064E+02 0.55558980E+02 0.10565837E+00 0.0000E+00 0.9000E+01
       13  1    4    4    0    0 0.60043241E+02 -.27756456E+02 -.65297086E+02 0.92948008E+02 0.10565837E+00 0.0000E+00 0.9000E+01
       23  1    3    3    0    0 -.23459661E+02 -.84988514E+01 0.15278550E+03 0.17966983E+03 0.91188000E+02 0.0000E+00 0.9000E+01
#aMCatNLO 1  0  0  2  2 0.25830959D+03 0.00000000D+00  -5  7  0 0.00000000D+00 0.00000000D+00 0.00000000D+00 0.00000000D+00 0.00000000D+00
  <mgrwgt>
 0.4243754897D-03    3    2    0
 0.237134720732286D+03 0.000000000000000D+00 0.000000000000000D+00 0.237134720732286D+03
 0.237134720732286D+03 0.000000000000000D+00 0.000000000000000D+00 -.237134720732286D+03
 0.151404366863383D+03 -.860923870539995D+02 0.156557635060004D+02 -.833728308364932D+02
 0.548165328619075D+02 0.495087912148442D+02 0.205996142284465D+02 0.113748741129184D+02
 0.968454487419871D+02 0.600432644821659D+02 -.277565274699034D+02 -.707348748155676D+02
 0.171203092997294D+03 -.234596686430105D+02 -.849885026454349D+01 0.142732831539142D+03
 0.000000000000000D+00 -.000000000000000D+00 -.000000000000000D+00 0.000000000000000D+00
 0.510687561072847D+03 0.000000000000000D+00 0.000000000000000D+00 0.510687561072847D+03
 0.339338457901166D+03 0.000000000000000D+00 0.000000000000000D+00 -.339338457901166D+03
 0.126888557679056D+03 -.157410345640136D+02 0.242207686714338D+02 -.833728308364932D+02
 0.905427690756837D+02 0.862550487962161D+02 0.250733290165111D+02 0.113748741129184D+02
 0.140913738801522D+03 0.120147848305515D+03 -.204390267724364D+02 -.707348748155676D+02
 0.181706180163463D+03 0.657544021564466D+02 0.236261792592894D+01 0.142732831539142D+03
 0.309974773254289D+03 -.256416264694164D+03 -.312176888414375D+02 0.171349103171681D+03
0.398394646573D-05 0.000000000000D+00 0.000000000000D+00 0.848300167849D-08 0.000000000000D+00  7 1 -1 23 -13 13 23 21 0 0.38634390D-01 0.34450023D-01 0.29017987D+05 0.29017987D+05 0.29017987D+05 0.11686794D+01  1  2  2  2  7  2       -1 0.415991135014D-03 0.100000000000D+01
-.191883790715D-06 0.000000000000D+00 -.152994034256D-07 0.848300167849D-08 0.000000000000D+00  7 1 -1 23 -13 13 23 21 2 0.38634390D-01 0.34450023D-01 0.29017987D+05 0.29017987D+05 0.29017987D+05 0.11686794D+01  1  2  3  2  7  2       -1 -.273652625099D-04 0.100000000000D+01
0.250674447641D-06 0.000000000000D+00 0.000000000000D+00 0.848300167849D-08 0.000000000000D+00  7 1 -1 23 -13 13 23 21 2 0.38634390D-01 0.34450023D-01 0.29017987D+05 0.29017987D+05 0.29017987D+05 0.11686794D+01  1  2 15  2  7  2       -1 0.357496171962D-04 0.100000000000D+01
  </mgrwgt>
  </event>
  <event>
  8     66 0.56006291E-06 0.20300729E+03 0.75467711E-02 0.98990794E-01
        1 -1    0    0  501    0 0.00000000E+00 0.00000000E+00 0.11897529E+03 0.11897572E+03 0.32000000E+00 0.0000E+00 0.9000E+01
       -1 -1    0    0    0  501 0.00000000E+00 0.00000000E+00 -.18206142E+04 0.18206143E+04 0.32000000E+00 0.0000E+00 0.9000E+01
       25  2    1    2    0    0 -.76068760E+02 0.27689461E+03 -.32895826E+03 0.53405401E+03 0.30747856E+03 0.0000E+00 0.0000E+00
       23  2    1    2    0    0 0.76068760E+02 -.27689461E+03 -.13726807E+04 0.14055360E+04 0.93925651E+02 0.0000E+00 0.0000E+00
       23  1    3    3    0    0 -.21770077E+02 0.21524675E+03 -.33737971E+03 0.41102971E+03 0.91188000E+02 0.0000E+00 0.9000E+01
      -11  1    4    4    0    0 -.17195584E+02 -.34383063E+02 -.11369287E+03 0.12001646E+03 0.51099893E-03 0.0000E+00 0.9000E+01
       11  1    4    4    0    0 0.93264344E+02 -.24251155E+03 -.12589878E+04 0.12855195E+04 0.51099893E-03 0.0000E+00 0.9000E+01
       23  1    3    3    0    0 -.54298683E+02 0.61647866E+02 0.84214526E+01 0.12302430E+03 0.91188000E+02 0.0000E+00 0.9000E+01
#aMCatNLO 1  0  0  2  1 0.36981652D+02 0.00000000D+00  -5  7  0 0.00000000D+00 0.00000000D+00 0.00000000D+00 0.00000000D+00 0.00000000D+00
  <mgrwgt>
 0.2891330110D-03    9    2    0
 0.465412236420934D+03 0.000000000000000D+00 0.000000000000000D+00 0.465412236420934D+03
 0.465412236420934D+03 0.000000000000000D+00 0.000000000000000D+00 -.465412236420934D+03
 0.239712911423473D+03 -.217700771558332D+02 0.215246747448112D+03 0.483934914296887D+02
 0.422405275407667D+02 -.171955836473220D+02 -.343830631014061D+02 -.175036865178438D+02
 0.377125951305240D+03 0.932643438524857D+02 -.242511550403171D+03 -.273338422536419D+03
 0.271745082572389D+03 -.542986830493305D+02 0.616478660564650D+02 0.242448617624574D+03
 0.000000000000000D+00 0.000000000000000D+00 -.000000000000000D+00 -.000000000000000D+00
 0.479026886989551D+03 0.000000000000000D+00 0.000000000000000D+00 0.479026886989551D+03
 0.491588906865292D+03 0.000000000000000D+00 0.000000000000000D+00 -.491588906865292D+03
 0.248491457398582D+03 -.231037266266261D+02 0.224848928970716D+03 0.483934914296887D+02
 0.410147863243174D+02 -.174230158711359D+02 -.327455672338809D+02 -.175036865178438D+02
 0.367370351552280D+03 0.912305703680146D+02 -.227868525679337D+03 -.273338422536419D+03
 0.274682228322995D+03 -.557913827065679D+02 0.723951976315296D+02 0.242448617624574D+03
 0.390569702566693D+02 0.508755483631524D+01 -.366300336890282D+02 -.125620198757402D+02
0.801478871738D-04 0.000000000000D+00 0.000000000000D+00 0.194507438725D-08 0.000000000000D+00  7 1 -1 23 -11 11 23 21 0 0.18303926D-01 0.28009453D+00 0.10751292D+06 0.10751292D+06 0.10751292D+06 0.11191494D+01  1  2  2  2  7  2       -1 0.949267542952D-04 0.100000000000D+01
-.378856023490D-05 0.000000000000D+00 -.307788990171D-06 0.194507438725D-08 0.000000000000D+00  7 1 -1 23 -11 11 23 21 2 0.18303926D-01 0.28009453D+00 0.10751292D+06 0.10751292D+06 0.10751292D+06 0.11191494D+01  1  2  3  2  7  2       -1 -.562013717381D-05 0.100000000000D+01
0.519164083826D-05 0.000000000000D+00 0.000000000000D+00 0.194507438725D-08 0.000000000000D+00  7 1 -1 23 -11 11 23 21 2 0.18303926D-01 0.28009453D+00 0.10751292D+06 0.10751292D+06 0.10751292D+06 0.11191494D+01  1  2 15  2  7  2       -1 0.770153616653D-05 0.100000000000D+01
0.182934071116D-03 0.000000000000D+00 0.000000000000D+00 0.194507438725D-08 0.000000000000D+00  7 1 -1 23 -11 11 23 21 2 0.18303926D-01 0.29976715D+00 0.11984363D+06 0.11984363D+06 0.11984363D+06 0.11153273D+01  1  2 12  2  7  2       -1 0.180666281787D-03 0.100000000000D+01
-.169714232672D-03 0.000000000000D+00 0.000000000000D+00 0.194507438725D-08 0.000000000000D+00  7 1 -1 23 -11 11 23 21 2 0.18303926D-01 0.28009453D+00 0.10751292D+06 0.10751292D+06 0.10751292D+06 0.11191494D+01  1  2  4  2  7  2       -1 -.251762466167D-03 0.100000000000D+01
-.610843091454D-03 0.000000000000D+00 -.112787444856D-03 0.194507438725D-08 0.000000000000D+00  7 1 -1 23 -11 11 23 21 2 0.18303926D-01 0.29994153D+00 0.10751292D+06 0.10751292D+06 0.10751292D+06 0.11191494D+01  1  2  5  2  7  2       -1 -.609187395065D-03 0.100000000000D+01
0.617381012922D-03 0.000000000000D+00 0.112523652497D-03 0.194507438725D-08 0.000000000000D+00  7 1 -1 23 -11 11 23 21 2 0.18303926D-01 0.28009453D+00 0.10751292D+06 0.10751292D+06 0.10751292D+06 0.11191494D+01  1  2  6  2  7  2       -1 0.915853455137D-03 0.100000000000D+01
0.223801077545D-05 0.000000000000D+00 0.000000000000D+00 0.194507438725D-08 0.000000000000D+00  7 1 21 23 -11 11 23 1 2 0.18303926D-01 0.29976715D+00 0.11984363D+06 0.11984363D+06 0.11984363D+06 0.11153273D+01  1  2 12  4  7  2       -1 0.203694820800D-04 0.100000000000D+01
-.691433949634D-05 0.000000000000D+00 -.131022661485D-05 0.194507438725D-08 0.000000000000D+00  7 1 21 23 -11 11 23 1 2 0.18303926D-01 0.29994153D+00 0.10751292D+06 0.10751292D+06 0.10751292D+06 0.11191494D+01  1  2  5  4  7  2       -1 -.638145001043D-04 0.100000000000D+01
  </mgrwgt>
  </event>
  <event>
  8     66 0.56006291E-06 0.21367087E+03 0.75467711E-02 0.94790589E-01
        1 -1    0    0  501    0 0.00000000E+00 0.00000000E+00 0.23965837E+04 0.23965837E+04 0.32000000E+00 0.0000E+00 0.9000E+01
       -1 -1    0    0    0  501 0.00000000E+00 0.00000000E+00 -.12900486E+03 0.12900525E+03 0.32000000E+00 0.0000E+00 0.9000E+01
       25  2    1    2    0    0 0.39157723E+03 -.24772681E+03 0.71716880E+03 0.90487386E+03 0.29960692E+03 0.0000E+00 0.0000E+00
       23  2    1    2    0    0 -.39157723E+03 0.24772681E+03 0.15504100E+04 0.16207151E+04 0.90801392E+02 0.0000E+00 0.0000E+00
       23  1    3    3    0    0 0.23137163E+03 -.14876282E+03 0.21492290E+03 0.36079123E+03 0.91188000E+02 0.0000E+00 0.9000E+01
      -13  1    4    4    0    0 -.29102456E+03 0.16678913E+03 0.12392523E+04 0.12838458E+04 0.10565837E+00 0.0000E+00 0.9000E+01
       13  1    4    4    0    0 -.10055268E+03 0.80937677E+02 0.31115774E+03 0.33686926E+03 0.10565837E+00 0.0000E+00 0.9000E+01
       23  1    3    3    0    0 0.16020560E+03 -.98963981E+02 0.50224590E+03 0.54408262E+03 0.91188000E+02 0.0000E+00 0.9000E+01
#aMCatNLO 1  0  0  1  2 0.22385577D+02 0.00000000D+00  -5  7  0 0.00000000D+00 0.00000000D+00 0.00000000D+00 0.00000000D+00 0.00000000D+00
  <mgrwgt>
 0.3929234397D-03    9    2    0
 0.556031888535354D+03 0.000000000000000D+00 0.000000000000000D+00 0.556031888535354D+03
 0.556031888535354D+03 0.000000000000000D+00 0.000000000000000D+00 -.556031888535354D+03
 0.381143367573648D+03 0.231371629626474D+03 -.148762824331114D+03 -.247571820695330D+03
 0.388795168328498D+03 -.291024816133867D+03 0.166789245189314D+03 0.196589895465186D+03
 0.130584409761758D+03 -.100552417747757D+03 0.809375603990051D+02 0.197638729646958D+02
 0.211540831406805D+03 0.160205604255150D+03 -.989639812572049D+02 0.312180522654482D+02
 0.000000000000000D+00 0.000000000000000D+00 0.000000000000000D+00 0.000000000000000D+00
 0.574391479192635D+03 0.000000000000000D+00 0.000000000000000D+00 0.574391479192635D+03
 0.563010255409851D+03 0.000000000000000D+00 0.000000000000000D+00 -.563010255409851D+03
 0.376601215821853D+03 0.223746398812302D+03 -.148858882941609D+03 -.247571820695330D+03
 0.394689434816119D+03 -.298909070365757D+03 0.166689923539287D+03 0.196589895465186D+03
 0.132614276550603D+03 -.103201002478149D+03 0.809041949343815D+02 0.197638729646958D+02
 0.208384135206350D+03 0.155979873230178D+03 -.990172147737335D+02 0.312180522654482D+02
 0.251126722075625D+02 0.223838008014264D+02 0.281979241673273D+00 0.113812237827839D+02
0.264938471585D-04 0.000000000000D+00 0.000000000000D+00 0.160273059030D-05 0.000000000000D+00  7 1 -1 23 -13 13 23 21 0 0.36870521D+00 0.19846933D-01 0.23209576D+06 0.23209576D+06 0.23209576D+06 0.10928953D+01  1  2  2  1  7  1        1 0.105609017668D-03 0.100000000000D+01
-.143509388116D-05 0.000000000000D+00 -.101743349079D-06 0.160273059030D-05 0.000000000000D+00  7 1 -1 23 -13 13 23 21 2 0.36870521D+00 0.19846933D-01 0.23209576D+06 0.23209576D+06 0.23209576D+06 0.10928953D+01  1  2  3  1  7  1        1 -.683271676186D-05 0.100000000000D+01
0.168021488665D-05 0.000000000000D+00 0.000000000000D+00 0.160273059030D-05 0.000000000000D+00  7 1 -1 23 -13 13 23 21 2 0.36870521D+00 0.19846933D-01 0.23209576D+06 0.23209576D+06 0.23209576D+06 0.10928953D+01  1  2 15  1  7  1        1 0.799977797289D-05 0.100000000000D+01
0.515358530574D-04 0.000000000000D+00 0.000000000000D+00 0.160273059030D-05 0.000000000000D+00  7 1 -1 23 -13 13 23 21 2 0.38313948D+00 0.19846933D-01 0.24284540D+06 0.24284540D+06 0.24284540D+06 0.10914090D+01  1  2 12  1  7  1        1 0.210486105055D-03 0.100000000000D+01
-.499435590559D-04 0.000000000000D+00 0.000000000000D+00 0.160273059030D-05 0.000000000000D+00  7 1 -1 23 -13 13 23 21 2 0.36870521D+00 0.19846933D-01 0.23209576D+06 0.23209576D+06 0.23209576D+06 0.10928953D+01  1  2  4  1  7  1        1 -.237789455859D-03 0.100000000000D+01
-.482301580788D-03 0.000000000000D+00 -.650980560471D-04 0.160273059030D-05 0.000000000000D+00  7 1 -1 23 -13 13 23 21 2 0.38264993D+00 0.19846933D-01 0.23209576D+06 0.23209576D+06 0.23209576D+06 0.10928953D+01  1  2  5  1  7  1        1 -.198978856766D-02 0.100000000000D+01
0.484429213808D-03 0.000000000000D+00 0.650532251396D-04 0.160273059030D-05 0.000000000000D+00  7 1 -1 23 -13 13 23 21 2 0.36870521D+00 0.19846933D-01 0.23209576D+06 0.23209576D+06 0.23209576D+06 0.10928953D+01  1  2  6  1  7  1        1 0.230644674370D-02 0.100000000000D+01
0.920271895834D-06 0.000000000000D+00 0.000000000000D+00 0.160273059030D-05 0.000000000000D+00  7 21 -1 23 -13 13 23 -1 2 0.38313948D+00 0.19846933D-01 0.24284540D+06 0.24284540D+06 0.24284540D+06 0.10914090D+01  1  2 12  3  7  1        1 0.129875627825D-05 0.100000000000D+01
-.314570327031D-05 0.000000000000D+00 -.428920379634D-06 0.160273059030D-05 0.000000000000D+00  7 21 -1 23 -13 13 23 -1 2 0.38264993D+00 0.19846933D-01 0.23209576D+06 0.23209576D+06 0.23209576D+06 0.10928953D+01  1  2  5  3  7  1        1 -.450622070803D-05 0.100000000000D+01
  </mgrwgt>
  </event>
  <event>
  8     66 0.56006291E-06 0.17128552E+03 0.75467711E-02 0.10132780E+00
        1 -1    0    0  501    0 0.00000000E+00 0.00000000E+00 0.21002261E+04 0.21002261E+04 0.32000000E+00 0.0000E+00 0.9000E+01
       -1 -1    0    0    0  501 0.00000000E+00 0.00000000E+00 -.21019372E+02 0.21021808E+02 0.32000000E+00 0.0000E+00 0.9000E+01
       25  2    1    2    0    0 -.43878581E+02 -.38897475E+02 0.16634436E+04 0.16914453E+04 0.30083971E+03 0.0000E+00 0.0000E+00
       23  2    1    2    0    0 0.43878581E+02 0.38897475E+02 0.41576315E+03 0.42980257E+03 0.91830874E+02 0.0000E+00 0.0000E+00
       23  1    3    3    0    0 -.43695251E+02 -.96979831E+02 0.40860603E+03 0.43195891E+03 0.91188000E+02 0.0000E+00 0.9000E+01
      -11  1    4    4    0    0 0.40179946E+02 0.60393589E+02 0.19657352E+03 0.20953034E+03 0.51099893E-03 0.0000E+00 0.9000E+01
       11  1    4    4    0    0 0.36986348E+01 -.21496114E+02 0.21918963E+03 0.22027223E+03 0.51099893E-03 0.0000E+00 0.9000E+01
       23  1    3    3    0    0 -.18332966E+00 0.58082356E+02 0.12548375E+04 0.12594864E+04 0.91188000E+02 0.0000E+00 0.9000E+01
#aMCatNLO 1  0  0  2  1 0.19227541D+03 0.00000000D+00  -5  7  0 0.00000000D+00 0.00000000D+00 0.00000000D+00 0.00000000D+00 0.00000000D+00
  <mgrwgt>
 0.9398675462D-03    5    2    0
 0.210114356241120D+03 0.000000000000000D+00 0.000000000000000D+00 0.210114356241120D+03
 0.210114356241120D+03 0.000000000000000D+00 0.000000000000000D+00 -.210114356241120D+03
 0.158760075004702D+03 -.436952515978596D+02 -.969798315648583D+02 -.746669091964435D+02
 0.850698883938872D+02 0.401799465954484D+02 0.603935888296718D+02 -.444417847437284D+02
 0.273933334080513D+02 0.369863519518993D+01 -.214961129081702D+02 0.165720228921142D+02
 0.149005415675601D+03 -.183330192778730D+00 0.580823556433567D+02 0.102536671048058D+03
 0.000000000000000D+00 0.000000000000000D+00 0.000000000000000D+00 -.000000000000000D+00
 0.303238567617982D+03 0.000000000000000D+00 0.000000000000000D+00 0.303238567617982D+03
 0.359120568221342D+03 0.000000000000000D+00 0.000000000000000D+00 -.359120568221342D+03
 0.218882495153166D+03 -.105553479328054D+03 -.151253466119847D+03 -.746669091964435D+02
 0.615079927582909D+02 0.161703442120876D+02 0.393278642950349D+02 -.444417847437284D+02
 0.353392409217505D+02 -.657702273016534D+01 -.305118465222224D+02 0.165720228921142D+02
 0.146397963311564D+03 -.485706968024758D+02 0.156278859823857D+02 0.102536671048058D+03
 0.200231443694552D+03 0.144530854648607D+03 0.126809562364649D+03 -.558820006033596D+02
0.757930724406D-05 0.000000000000D+00 0.000000000000D+00 0.483907614816D-07 0.000000000000D+00  7 1 -1 23 -11 11 23 21 0 0.32311189D+00 0.32339388D-02 0.29338728D+05 0.29338728D+05 0.29338728D+05 0.11682351D+01  1  2  2  2  7  2       -1 0.794409137696D-03 0.100000000000D+01
-.399699864058D-06 0.000000000000D+00 -.291065354946D-07 0.483907614816D-07 0.000000000000D+00  7 1 -1 23 -11 11 23 21 2 0.32311189D+00 0.32339388D-02 0.29338728D+05 0.29338728D+05 0.29338728D+05 0.11682351D+01  1  2  3  2  7  2       -1 -.571754018044D-04 0.100000000000D+01
0.487582240575D-06 0.000000000000D+00 0.000000000000D+00 0.483907614816D-07 0.000000000000D+00  7 1 -1 23 -11 11 23 21 2 0.32311189D+00 0.32339388D-02 0.29338728D+05 0.29338728D+05 0.29338728D+05 0.11682351D+01  1  2 15  2  7  2       -1 0.697466099552D-04 0.100000000000D+01
0.820667084890D-06 0.000000000000D+00 -.238966102387D-05 0.483907614816D-07 0.000000000000D+00  7 1 -1 23 -11 11 23 21 2 0.32311189D+00 0.89798645D-02 0.29338728D+05 0.29338728D+05 0.29338728D+05 0.11682351D+01  1  2  5  2  7  2       -1 0.262051022673D-04 0.100000000000D+01
0.228726391406D-06 0.000000000000D+00 -.273644517162D-06 0.483907614816D-07 0.000000000000D+00  7 1 21 23 -11 11 23 1 2 0.32311189D+00 0.89798645D-02 0.29338728D+05 0.29338728D+05 0.29338728D+05 0.11682351D+01  1  2  5  4  7  2       -1 0.106682098078D-03 0.100000000000D+01
  </mgrwgt>
  </event>
  <event>
  8     66 0.56006291E-06 0.50429431E+03 0.75467711E-02 0.88193361E-01
        1 -1    0    0  501    0 0.00000000E+00 0.00000000E+00 0.54011850E+03 0.54011859E+03 0.32000000E+00 0.0000E+00 0.9000E+01
       -1 -1    0    0    0  501 0.00000000E+00 0.00000000E+00 -.50702342E+03 0.50702352E+03 0.32000000E+00 0.0000E+00 0.9000E+01
       25  2    1    2    0    0 -.12729455E+03 0.45807983E+03 0.32651959E+01 0.56238761E+03 0.30037998E+03 0.0000E+00 0.0000E+00
       23  2    1    2    0    0 0.12729455E+03 -.45807983E+03 0.29829882E+02 0.48475450E+03 0.89755616E+02 0.0000E+00 0.0000E+00
       23  1    3    3    0    0 -.12622368E+03 0.38250256E+03 -.75933541E+02 0.41990687E+03 0.91188000E+02 0.0000E+00 0.9000E+01
      -13  1    4    4    0    0 0.12579591E+02 -.10886620E+03 0.41008165E+02 0.11701187E+03 0.10565837E+00 0.0000E+00 0.9000E+01
       13  1    4    4    0    0 0.11471496E+03 -.34921363E+03 -.11178283E+02 0.36774263E+03 0.10565837E+00 0.0000E+00 0.9000E+01
       23  1    3    3    0    0 -.10708714E+01 0.75577264E+02 0.79198737E+02 0.14248074E+03 0.91188000E+02 0.0000E+00 0.9000E+01
#aMCatNLO 1  0  0  1  1 0.64252345D+03 0.00000000D+00  -5  7  0 0.00000000D+00 0.00000000D+00 0.00000000D+00 0.00000000D+00 0.00000000D+00
  <mgrwgt>
 0.2516296110D-03    3    2    0
 0.523309496675135D+03 0.000000000000000D+00 0.000000000000000D+00 0.523309496675135D+03
 0.523309496675135D+03 0.000000000000000D+00 0.000000000000000D+00 -.523309496675135D+03
 0.422517840248925D+03 -.126223676362822D+03 0.382502564632700D+03 -.892493448686145D+02
 0.115773283664160D+03 0.125794490726500D+02 -.108865868589556D+03 0.373287198769577D+02
 0.368280254758176D+03 0.114715098739206D+03 -.349213960382332D+03 -.228123221108367D+02
 0.140047614679008D+03 -.107087144903443D+01 0.755772643391874D+02 0.747329471024936D+02
 0.000000000000000D+00 0.000000000000000D+00 -.000000000000000D+00 -.000000000000000D+00
 0.848116951311011D+03 0.000000000000000D+00 0.000000000000000D+00 0.848116951311011D+03
 0.105499898246146D+04 0.000000000000000D+00 0.000000000000000D+00 -.105499898246146D+04
 0.737312875335399D+03 -.159821402924110D+03 0.708383157902026D+03 -.892493448686145D+02
 0.685761067411332D+02 0.723925560531556D+01 -.570687503490292D+02 0.373287198769577D+02
 0.211665932733795D+03 0.979153423904528D+02 -.186265001448310D+03 -.228123221108367D+02
 0.210552452916154D+03 -.112269787543121D+02 0.174086259223510D+03 0.747329471024936D+02
 0.675008566045994D+03 0.658937836826538D+02 -.639135665328196D+03 -.206882031150452D+03
0.302550903549D-04 0.000000000000D+00 0.000000000000D+00 0.616682864569D-06 0.000000000000D+00  7 1 -1 23 -13 13 23 21 0 0.83095168D-01 0.78003618D-01 0.25431275D+06 0.25431275D+06 0.25431275D+06 0.10899007D+01  1  2  2  1  7  1        1 0.249192314720D-03 0.100000000000D+01
-.167803862027D-05 0.000000000000D+00 -.116187513311D-06 0.616682864569D-06 0.000000000000D+00  7 1 -1 23 -13 13 23 21 2 0.83095168D-01 0.78003618D-01 0.25431275D+06 0.25431275D+06 0.25431275D+06 0.10899007D+01  1  2  3  1  7  1        1 -.164176892417D-04 0.100000000000D+01
0.192715268679D-05 0.000000000000D+00 0.000000000000D+00 0.616682864569D-06 0.000000000000D+00  7 1 -1 23 -13 13 23 21 2 0.83095168D-01 0.78003618D-01 0.25431275D+06 0.25431275D+06 0.25431275D+06 0.10899007D+01  1  2 15  1  7  1        1 0.188549855473D-04 0.100000000000D+01
  </mgrwgt>
  </event>
  <event>
  8     66 0.56006291E-06 0.13105492E+03 0.75467711E-02 0.99766410E-01
        1 -1    0    0  501    0 0.00000000E+00 0.00000000E+00 0.11769471E+04 0.11769472E+04 0.32000000E+00 0.0000E+00 0.9000E+01
       -1 -1    0    0    0  501 0.00000000E+00 0.00000000E+00 -.12928588E+03 0.12928627E+03 0.32000000E+00 0.0000E+00 0.9000E+01
       25  2    1    2    0    0 -.18023749E+03 -.20393346E+03 0.89330252E+03 0.98072235E+03 0.29958724E+03 0.0000E+00 0.0000E+00
       23  2    1    2    0    0 0.18023749E+03 0.20393346E+03 0.15435872E+03 0.32551109E+03 0.89757721E+02 0.0000E+00 0.0000E+00
       23  1    3    3    0    0 -.21037907E+02 -.35079734E+02 0.53465903E+03 0.54391977E+03 0.91188000E+02 0.0000E+00 0.9000E+01
      -13  1    4    4    0    0 0.73209008E+02 0.13085795E+03 0.46751513E+02 0.15706393E+03 0.10565837E+00 0.0000E+00 0.9000E+01
       13  1    4    4    0    0 0.10702848E+03 0.73075513E+02 0.10760721E+03 0.16844717E+03 0.10565837E+00 0.0000E+00 0.9000E+01
       23  1    3    3    0    0 -.15919958E+03 -.16885373E+03 0.35864349E+03 0.43680258E+03 0.91188000E+02 0.0000E+00 0.9000E+01
#aMCatNLO 1  0  0  1  2 0.21340317D+02 0.00000000D+00  -5  7  0 0.00000000D+00 0.00000000D+00 0.00000000D+00 0.00000000D+00 0.00000000D+00
  <mgrwgt>
 0.1747158321D-03    9    2    0
 0.390080671036390D+03 0.000000000000000D+00 0.000000000000000D+00 0.390080671036390D+03
 0.390080671036390D+03 0.000000000000000D+00 0.000000000000000D+00 -.390080671036390D+03
 0.192709680424655D+03 -.210379069602939D+02 -.350797344679285D+02 0.164768286650564D+03
 0.200192528046755D+03 0.732089615723915D+02 0.130858028845515D+03 -.132641141875021D+03
 0.137529700478175D+03 0.107028527235776D+03 0.730754326645109D+02 -.460357905574769D+02
 0.249729433123195D+03 -.159199581847873D+03 -.168853727042097D+03 0.139086457819338D+02
 0.000000000000000D+00 -.000000000000000D+00 0.000000000000000D+00 0.000000000000000D+00
 0.403179755054239D+03 0.000000000000000D+00 0.000000000000000D+00 0.403179755054239D+03
 0.399016103384297D+03 0.000000000000000D+00 0.000000000000000D+00 -.399016103384297D+03
 0.192279938771714D+03 -.157882904286394D+02 -.354748517915522D+02 0.164768286650564D+03
 0.201995647004300D+03 0.786930930588226D+02 0.130445260533343D+03 -.132641141875021D+03
 0.140350490100372D+03 0.110817627953155D+03 0.727902424367364D+02 -.460357905574769D+02
 0.245827080166337D+03 -.152442304417993D+03 -.169362319880636D+03 0.139086457819338D+02
 0.217427023958134D+02 -.212801261653446D+02 0.160166870210909D+01 0.416365166994196D+01
0.227184449879D-05 0.000000000000D+00 0.000000000000D+00 0.279894626404D-06 0.000000000000D+00  7 1 -1 23 -13 13 23 21 0 0.18106882D+00 0.19890169D-01 0.98855075D+05 0.98855075D+05 0.98855075D+05 0.11221327D+01  1  2  2  1  7  1        1 0.608556126003D-04 0.100000000000D+01
-.119077163221D-06 0.000000000000D+00 -.872448106573D-08 0.279894626404D-06 0.000000000000D+00  7 1 -1 23 -13 13 23 21 2 0.18106882D+00 0.19890169D-01 0.98855075D+05 0.98855075D+05 0.98855075D+05 0.11221327D+01  1  2  3  1  7  1        1 -.401641821454D-05 0.100000000000D+01
0.144332158877D-06 0.000000000000D+00 0.000000000000D+00 0.279894626404D-06 0.000000000000D+00  7 1 -1 23 -13 13 23 21 2 0.18106882D+00 0.19890169D-01 0.98855075D+05 0.98855075D+05 0.98855075D+05 0.11221327D+01  1  2 15  1  7  1        1 0.486825765896D-05 0.100000000000D+01
0.503177011515D-05 0.000000000000D+00 0.000000000000D+00 0.279894626404D-06 0.000000000000D+00  7 1 -1 23 -13 13 23 21 2 0.18916445D+00 0.19890169D-01 0.10588968D+06 0.10588968D+06 0.10588968D+06 0.11196882D+01  1  2 12  1  7  1        1 0.155022781980D-03 0.100000000000D+01
-.436658053297D-05 0.000000000000D+00 0.000000000000D+00 0.279894626404D-06 0.000000000000D+00  7 1 -1 23 -13 13 23 21 2 0.18106882D+00 0.19890169D-01 0.98855075D+05 0.98855075D+05 0.98855075D+05 0.11221327D+01  1  2  4  1  7  1        1 -.147282762819D-03 0.100000000000D+01
-.351607212133D-04 0.000000000000D+00 -.567775724550D-05 0.279894626404D-06 0.000000000000D+00  7 1 -1 23 -13 13 23 21 2 0.18989888D+00 0.19890169D-01 0.98855075D+05 0.98855075D+05 0.98855075D+05 0.11221327D+01  1  2  5  1  7  1        1 -.108145104891D-02 0.100000000000D+01
0.353973619531D-04 0.000000000000D+00 0.567132717738D-05 0.279894626404D-06 0.000000000000D+00  7 1 -1 23 -13 13 23 21 2 0.18106882D+00 0.19890169D-01 0.98855075D+05 0.98855075D+05 0.98855075D+05 0.11221327D+01  1  2  6  1  7  1        1 0.119393681752D-02 0.100000000000D+01
0.664145271851D-07 0.000000000000D+00 0.000000000000D+00 0.279894626404D-06 0.000000000000D+00  7 21 -1 23 -13 13 23 -1 2 0.18916445D+00 0.19890169D-01 0.10588968D+06 0.10588968D+06 0.10588968D+06 0.11196882D+01  1  2 12  3  7  1        1 0.217260150613D-05 0.100000000000D+01
-.288113527996D-06 0.000000000000D+00 -.472584980728D-07 0.279894626404D-06 0.000000000000D+00  7 21 -1 23 -13 13 23 -1 2 0.18989888D+00 0.19890169D-01 0.98855075D+05 0.98855075D+05 0.98855075D+05 0.11221327D+01  1  2  5  3  7  1        1 -.939000917743D-05 0.100000000000D+01
  </mgrwgt>
  </event>
  <event>
  8     66 0.56006291E-06 0.61091436E+02 0.75467711E-02 0.10299838E+00
        1 -1    0    0  501    0 0.00000000E+00 0.00000000E+00 0.61887391E+03 0.61887399E+03 0.32000000E+00 0.0000E+00 0.9000E+01
       -1 -1    0    0    0  501 0.00000000E+00 0.00000000E+00 -.14625077E+03 0.14625112E+03 0.32000000E+00 0.0000E+00 0.9000E+01
       25  2    1    2    0    0 -.61312963E+02 0.15917589E+03 0.45524939E+03 0.57096912E+03 0.29942860E+03 0.0000E+00 0.0000E+00
       23  2    1    2    0    0 0.61312963E+02 -.15917589E+03 0.17373748E+02 0.19415599E+03 0.91095878E+02 0.0000E+00 0.0000E+00
       23  1    3    3    0    0 0.17245171E+02 0.12429467E+03 0.78349180E+02 0.17378264E+03 0.91188000E+02 0.0000E+00 0.9000E+01
      -11  1    4    4    0    0 0.34959616E+02 -.15479286E+03 -.57895983E+01 0.15879711E+03 0.51099893E-03 0.0000E+00 0.9000E+01
       11  1    4    4    0    0 0.26353348E+02 -.43830345E+01 0.23163346E+02 0.35358882E+02 0.51099893E-03 0.0000E+00 0.9000E+01
       23  1    3    3    0    0 -.78558135E+02 0.34881218E+02 0.37690021E+03 0.39718648E+03 0.91188000E+02 0.0000E+00 0.9000E+01
#aMCatNLO 1  0  0  2  1 0.43478662D+02 0.00000000D+00  -5  7  0 0.00000000D+00 0.00000000D+00 0.00000000D+00 0.00000000D+00 0.00000000D+00
  <mgrwgt>
 0.1903049950D-03    6    2    0
 0.300850383968484D+03 0.000000000000000D+00 0.000000000000000D+00 0.300850383968484D+03
 0.300850383968484D+03 0.000000000000000D+00 0.000000000000000D+00 -.300850383968484D+03
 0.159441096303372D+03 0.172451713370240D+02 0.124294673499039D+03 -.368734328717155D+02
 0.206474652454086D+03 0.349596156980251D+02 -.154792857007329D+03 -.132093825729254D+03
 0.267681815153804D+02 0.263533477691821D+02 -.438303448062999D+01 0.168095560277582D+01
 0.209016837664131D+03 -.785581348042312D+02 0.348812179889199D+02 0.167286302998194D+03
 0.000000000000000D+00 -.000000000000000D+00 -.000000000000000D+00 0.000000000000000D+00
 0.326600128749711D+03 0.000000000000000D+00 0.000000000000000D+00 0.326600128749711D+03
 0.320564992702689D+03 0.000000000000000D+00 0.000000000000000D+00 -.320564992702689D+03
 0.165595857579095D+03 0.272593186492873D+02 0.130399448612284D+03 -.368734328717155D+02
 0.203347813761825D+03 0.475859417189280D+02 -.147095658388159D+03 -.132093825729254D+03
 0.282990889489279D+02 0.280499295022032D+02 -.334877268894959D+01 0.168095560277582D+01
 0.206026838001354D+03 -.657709471952791D+02 0.426764802563248D+02 0.167286302998194D+03
 0.438955231611992D+02 -.371242426751394D+02 -.226314977915001D+02 0.603513604702216D+01
0.211383485703D-05 0.000000000000D+00 0.000000000000D+00 0.408445960826D-06 0.000000000000D+00  7 1 -1 23 -11 11 23 21 0 0.95211404D-01 0.22500152D-01 0.54251383D+05 0.54251383D+05 0.54251383D+05 0.11441910D+01  1  2  2  2  7  2       -1 0.133246371932D-03 0.100000000000D+01
-.108083526738D-06 0.000000000000D+00 -.811768243651D-08 0.408445960826D-06 0.000000000000D+00  7 1 -1 23 -11 11 23 21 2 0.95211404D-01 0.22500152D-01 0.54251383D+05 0.54251383D+05 0.54251383D+05 0.11441910D+01  1  2  3  2  7  2       -1 -.891950830258D-05 0.100000000000D+01
0.131973008595D-06 0.000000000000D+00 0.000000000000D+00 0.408445960826D-06 0.000000000000D+00  7 1 -1 23 -11 11 23 21 2 0.95211404D-01 0.22500152D-01 0.54251383D+05 0.54251383D+05 0.54251383D+05 0.11441910D+01  1  2 15  2  7  2       -1 0.108909690626D-04 0.100000000000D+01
0.230828343428D-05 0.000000000000D+00 0.000000000000D+00 0.408445960826D-06 0.000000000000D+00  7 1 -1 23 -11 11 23 21 2 0.95211404D-01 0.24868709D-01 0.64522837D+05 0.64522837D+05 0.64522837D+05 0.11376800D+01  1  2 12  2  7  2       -1 0.159977689912D-03 0.100000000000D+01
-.163628643924D-05 0.000000000000D+00 0.000000000000D+00 0.408445960826D-06 0.000000000000D+00  7 1 -1 23 -11 11 23 21 2 0.95211404D-01 0.22500152D-01 0.54251383D+05 0.54251383D+05 0.54251383D+05 0.11441910D+01  1  2  4  2  7  2       -1 -.135033255490D-03 0.100000000000D+01
0.375204102429D-07 0.000000000000D+00 0.000000000000D+00 0.408445960826D-06 0.000000000000D+00  7 1 21 23 -11 11 23 1 2 0.95211404D-01 0.24868709D-01 0.64522837D+05 0.64522837D+05 0.64522837D+05 0.11376800D+01  1  2 12  4  7  2       -1 0.301427278552D-04 0.100000000000D+01
  </mgrwgt>
  </event>
  <event>
  8     66 0.56006291E-06 0.21576838E+03 0.75467711E-02 0.96433951E-01
        1 -1    0    0  501    0 0.00000000E+00 0.00000000E+00 0.35565511E+03 0.35565525E+03 0.32000000E+00 0.0000E+00 0.9000E+01
       -1 -1    0    0    0  501 0.00000000E+00 0.00000000E+00 -.25983045E+03 0.25983065E+03 0.32000000E+00 0.0000E+00 0.9000E+01
       25  2    1    2    0    0 -.59686375E+02 -.97582998E+02 -.13172548E+03 0.34701194E+03 0.29996797E+03 0.0000E+00 0.0000E+00
       23  2    1    2    0    0 0.59686375E+02 0.97582998E+02 0.22755014E+03 0.26847396E+03 0.84937004E+02 0.0000E+00 0.0000E+00
       23  1    3    3    0    0 -.11494670E+02 0.70588786E+02 -.12639961E+02 0.11657583E+03 0.91188000E+02 0.0000E+00 0.9000E+01
      -11  1    4    4    0    0 0.10988352E+02 0.46545836E+02 0.24946287E+02 0.53940485E+02 0.51099893E-03 0.0000E+00 0.9000E+01
       11  1    4    4    0    0 0.48698022E+02 0.51037162E+02 0.20260386E+03 0.21453347E+03 0.51099893E-03 0.0000E+00 0.9000E+01
       23  1    3    3    0    0 -.48191704E+02 -.16817178E+03 -.11908552E+03 0.23043611E+03 0.91188000E+02 0.0000E+00 0.9000E+01
#aMCatNLO 1  0  0  1  1 0.31770401D+03 0.00000000D+00  -5  7  0 0.00000000D+00 0.00000000D+00 0.00000000D+00 0.00000000D+00 0.00000000D+00
  <mgrwgt>
 0.4315775253D-03    3    2    0
 0.303990349938370D+03 0.000000000000000D+00 0.000000000000000D+00 0.303990349938370D+03
 0.303990349938370D+03 0.000000000000000D+00 0.000000000000000D+00 -.303990349938370D+03
 0.120007098393117D+03 -.114946701840532D+02 0.705887856988040D+02 -.311696681352797D+02
 0.506745344950312D+02 0.109883523652851D+02 0.465458358153016D+02 0.167526035839036D+02
 0.185249110277375D+03 0.486980222914931D+02 0.510371620775687D+02 0.171291983380788D+03
 0.252049956711216D+03 -.481917044727250D+02 -.168171783591674D+03 -.156874918829412D+03
 0.000000000000000D+00 -.000000000000000D+00 0.000000000000000D+00 -.000000000000000D+00
 0.458113845117620D+03 0.000000000000000D+00 0.000000000000000D+00 0.458113845117620D+03
 0.562187956952985D+03 0.000000000000000D+00 0.000000000000000D+00 -.562187956952985D+03
 0.989770407868449D+02 0.878827214903869D+01 0.207947426021990D+02 -.311696681352797D+02
 0.368165697471632D+02 0.190920306894243D+02 0.266515373902218D+02 0.167526035839036D+02
 0.193917422119116D+03 0.838175197127938D+02 -.351801992603011D+02 0.171291983380788D+03
 0.356274660568236D+03 0.815307546560381D+01 -.306496606215680D+03 -.156874918829412D+03
 0.334316108849245D+03 -.119850898016861D+03 0.294230525483560D+03 -.104074111835366D+03
0.817061630659D-05 0.000000000000D+00 0.000000000000D+00 0.364889714530D-07 0.000000000000D+00  7 1 -1 23 -11 11 23 21 0 0.54716197D-01 0.39973942D-01 0.46555995D+05 0.46555995D+05 0.46555995D+05 0.11500317D+01  1  2  2  1  7  1        1 0.422721349044D-03 0.100000000000D+01
-.389071456650D-06 0.000000000000D+00 -.313773179900D-07 0.364889714530D-07 0.000000000000D+00  7 1 -1 23 -11 11 23 21 2 0.54716197D-01 0.39973942D-01 0.46555995D+05 0.46555995D+05 0.46555995D+05 0.11500317D+01  1  2  3  1  7  1        1 -.266224688816D-04 0.100000000000D+01
0.518499174218D-06 0.000000000000D+00 0.000000000000D+00 0.364889714530D-07 0.000000000000D+00  7 1 -1 23 -11 11 23 21 2 0.54716197D-01 0.39973942D-01 0.46555995D+05 0.46555995D+05 0.46555995D+05 0.11500317D+01  1  2 15  1  7  1        1 0.354786451045D-04 0.100000000000D+01
  </mgrwgt>
  </event>
  <event>
  8     66 0.56006291E-06 0.35374896E+03 0.75467711E-02 0.91074995E-01
        1 -1    0    0  501    0 0.00000000E+00 0.00000000E+00 0.17647108E+04 0.17647108E+04 0.32000000E+00 0.0000E+00 0.9000E+01
       -1 -1    0    0    0  501 0.00000000E+00 0.00000000E+00 -.34848287E+03 0.34848302E+03 0.32000000E+00 0.0000E+00 0.9000E+01
       25  2    1    2    0    0 -.45803548E+03 -.36966259E+03 0.13638647E+04 0.15155298E+04 0.30042773E+03 0.0000E+00 0.0000E+00
       23  2    1    2    0    0 0.45803548E+03 0.36966259E+03 0.52363224E+02 0.59766401E+03 0.89517752E+02 0.0000E+00 0.0000E+00
       23  1    3    3    0    0 -.42523194E+03 -.24466633E+03 0.11000641E+04 0.12079487E+04 0.91188000E+02 0.0000E+00 0.9000E+01
      -11  1    4    4    0    0 0.55578077E+02 0.20145296E+02 0.24200180E+02 0.63878043E+02 0.51099893E-03 0.0000E+00 0.9000E+01
       11  1    4    4    0    0 0.40245741E+03 0.34951729E+03 0.28163043E+02 0.53378597E+03 0.51099893E-03 0.0000E+00 0.9000E+01
       23  1    3    3    0    0 -.32803547E+02 -.12499626E+03 0.26380056E+03 0.30758108E+03 0.91188000E+02 0.0000E+00 0.9000E+01
#aMCatNLO 1  0  0  2  1 0.12824887D+03 0.00000000D+00  -5  7  0 0.00000000D+00 0.00000000D+00 0.00000000D+00 0.00000000D+00 0.00000000D+00
  <mgrwgt>
 0.2466488240D-03    6    2    0
 0.784201294557595D+03 0.000000000000000D+00 0.000000000000000D+00 0.784201294557595D+03
 0.784201294557595D+03 0.000000000000000D+00 0.000000000000000D+00 -.784201294557595D+03
 0.634204705402444D+03 -.425231936040112D+03 -.244666332963331D+03 0.391428848063674D+03
 0.642141988668022D+02 0.555780773302462D+02 0.201452962945359D+02 -.250740442207427D+02
 0.693768256236814D+03 0.402457405629550D+03 0.349517292893471D+03 -.444049650359305D+03
 0.176215428609131D+03 -.328035469196836D+02 -.124996256224676D+03 0.776948465163740D+02
 0.000000000000000D+00 -.000000000000000D+00 -.000000000000000D+00 0.000000000000000D+00
 0.857874251342916D+03 0.000000000000000D+00 0.000000000000000D+00 0.857874251342916D+03
 0.844688053176532D+03 0.000000000000000D+00 0.000000000000000D+00 -.844688053176532D+03
 0.605262640167483D+03 -.407250374183636D+03 -.197378321680336D+03 0.391428848063674D+03
 0.675835371644343D+02 0.574901318522631D+02 0.251736279006844D+02 -.250740442207427D+02
 0.734494569141213D+03 0.423177916285707D+03 0.404008206948574D+03 -.444049650359305D+03
 0.166296585995637D+03 -.278345568133973D+02 -.111928778433445D+03 0.776948465163740D+02
 0.128924972050680D+03 -.455831171409370D+02 -.119874734735478D+03 0.131861981663839D+02
0.110763839757D-03 0.000000000000D+00 0.000000000000D+00 0.132364048639D-05 0.000000000000D+00  7 1 -1 23 -11 11 23 21 0 0.27149398D+00 0.53612763D-01 0.39019984D+06 0.39019984D+06 0.39019984D+06 0.10762051D+01  1  2  2  2  7  2       -1 0.207272804392D-03 0.100000000000D+01
-.576645686564D-05 0.000000000000D+00 -.425362309456D-06 0.132364048639D-05 0.000000000000D+00  7 1 -1 23 -11 11 23 21 2 0.27149398D+00 0.53612763D-01 0.39019984D+06 0.39019984D+06 0.39019984D+06 0.10762051D+01  1  2  3  2  7  2       -1 -.124980844332D-04 0.100000000000D+01
0.690267252942D-05 0.000000000000D+00 0.000000000000D+00 0.132364048639D-05 0.000000000000D+00  7 1 -1 23 -11 11 23 21 2 0.27149398D+00 0.53612763D-01 0.39019984D+06 0.39019984D+06 0.39019984D+06 0.10762051D+01  1  2 15  2  7  2       -1 0.149606918247D-04 0.100000000000D+01
0.101065053857D-03 0.000000000000D+00 0.000000000000D+00 0.132364048639D-05 0.000000000000D+00  7 1 -1 23 -11 11 23 21 2 0.27149398D+00 0.60062943D-01 0.47939131D+06 0.47939131D+06 0.47939131D+06 0.10698047D+01  1  2 12  2  7  2       -1 0.172902899616D-03 0.100000000000D+01
-.747519389625D-04 0.000000000000D+00 0.000000000000D+00 0.132364048639D-05 0.000000000000D+00  7 1 -1 23 -11 11 23 21 2 0.27149398D+00 0.53612763D-01 0.39019984D+06 0.39019984D+06 0.39019984D+06 0.10762051D+01  1  2  4  2  7  2       -1 -.162015613134D-03 0.100000000000D+01
0.183093836431D-05 0.000000000000D+00 0.000000000000D+00 0.132364048639D-05 0.000000000000D+00  7 1 21 23 -11 11 23 1 2 0.27149398D+00 0.60062943D-01 0.47939131D+06 0.47939131D+06 0.47939131D+06 0.10698047D+01  1  2 12  4  7  2       -1 0.260261257376D-04 0.100000000000D+01
  </mgrwgt>
  </event>
  <event>
  8     66 0.56006291E-06 0.17323385E+03 0.75467711E-02 0.10145670E+00
        1 -1    0    0  501    0 0.00000000E+00 0.00000000E+00 0.24710012E+03 0.24710033E+03 0.32000000E+00 0.0000E+00 0.9000E+01
       -1 -1    0    0    0  501 0.00000000E+00 0.00000000E+00 -.16263730E+03 0.16263762E+03 0.32000000E+00 0.0000E+00 0.9000E+01
       25  2    1    2    0    0 -.11610241E+02 -.30259735E+02 0.81452626E+02 0.31275979E+03 0.30022276E+03 0.0000E+00 0.0000E+00
       23  2    1    2    0    0 0.11610241E+02 0.30259735E+02 0.30101893E+01 0.96978160E+02 0.91352357E+02 0.0000E+00 0.0000E+00
       23  1    3    3    0    0 0.15669325E+02 0.99716306E+02 0.65181722E+02 0.15084024E+03 0.91188000E+02 0.0000E+00 0.9000E+01
      -13  1    4    4    0    0 0.25188046E+02 0.17214911E+02 0.43031052E+02 0.52749156E+02 0.10565837E+00 0.0000E+00 0.9000E+01
       13  1    4    4    0    0 -.13577805E+02 0.13044824E+02 -.40020863E+02 0.44229005E+02 0.10565837E+00 0.0000E+00 0.9000E+01
       23  1    3    3    0    0 -.27279566E+02 -.12997604E+03 0.16270905E+02 0.16191955E+03 0.91188000E+02 0.0000E+00 0.9000E+01
#aMCatNLO 1  0  0  2  2 0.18088360D+03 0.00000000D+00  -5  7  0 0.00000000D+00 0.00000000D+00 0.00000000D+00 0.00000000D+00 0.00000000D+00
  <mgrwgt>
 0.2706350493D-03    5    2    0
 0.200468960619750D+03 0.000000000000000D+00 0.000000000000000D+00 0.200468960619750D+03
 0.200468960619750D+03 0.000000000000000D+00 0.000000000000000D+00 -.200468960619750D+03
 0.140419139345433D+03 0.156691308256632D+02 0.997156540095509D+02 0.348360450557729D+02
 0.448419206567495D+02 0.251882344777661D+02 0.172152767095772D+02 0.328631243172645D+02
 0.536309893712765D+02 -.135776892026729D+02 0.130452500686177D+02 -.502170372234844D+02
 0.162045871866041D+03 -.272796761007563D+02 -.129976180787746D+03 -.174821321495530D+02
 0.000000000000000D+00 0.000000000000000D+00 0.000000000000000D+00 -.000000000000000D+00
 0.303732386357775D+03 0.000000000000000D+00 0.000000000000000D+00 0.303732386357775D+03
 0.317528963394541D+03 0.000000000000000D+00 0.000000000000000D+00 -.317528963394541D+03
 0.138889467313527D+03 -.434113482289988D+02 0.887521131942669D+02 0.348360450557729D+02
 0.366041882686578D+02 0.796042617636764D+01 0.140183192289935D+02 0.328631243172645D+02
 0.637852853557964D+02 -.384140515427689D+02 0.843637626502353D+01 -.502170372234844D+02
 0.200573414325933D+03 -.103982364925667D+03 -.144209868006089D+03 -.174821321495530D+02
 0.181408994488401D+03 0.177847338521067D+03 0.330030593178052D+02 -.137965770367658D+02
0.142241373499D-05 0.000000000000D+00 0.000000000000D+00 0.125037571810D-06 0.000000000000D+00  7 1 -1 23 -13 13 23 21 0 0.38015443D-01 0.25021164D-01 0.30009966D+05 0.30009966D+05 0.30009966D+05 0.11673225D+01  1  2  2  2  7  2       -1 0.256082336016D-03 0.100000000000D+01
-.769744573157D-07 0.000000000000D+00 -.546244327251D-08 0.125037571810D-06 0.000000000000D+00  7 1 -1 23 -13 13 23 21 2 0.38015443D-01 0.25021164D-01 0.30009966D+05 0.30009966D+05 0.30009966D+05 0.11673225D+01  1  2  3  2  7  2       -1 -.188834811915D-04 0.100000000000D+01
0.921731380401D-07 0.000000000000D+00 0.000000000000D+00 0.125037571810D-06 0.000000000000D+00  7 1 -1 23 -13 13 23 21 2 0.38015443D-01 0.25021164D-01 0.30009966D+05 0.30009966D+05 0.30009966D+05 0.11673225D+01  1  2 15  2  7  2       -1 0.226120427379D-04 0.100000000000D+01
-.353713744557D-07 0.000000000000D+00 -.432615158057D-06 0.125037571810D-06 0.000000000000D+00  7 1 -1 23 -13 13 23 21 2 0.38015443D-01 0.58114086D-01 0.30009966D+05 0.30009966D+05 0.30009966D+05 0.11673225D+01  1  2  5  2  7  2       -1 -.207101381119D-05 0.100000000000D+01
0.241025605297D-07 0.000000000000D+00 -.397190933062D-07 0.125037571810D-06 0.000000000000D+00  7 1 21 23 -13 13 23 1 2 0.38015443D-01 0.58114086D-01 0.30009966D+05 0.30009966D+05 0.30009966D+05 0.11673225D+01  1  2  5  4  7  2       -1 0.128951655780D-04 0.100000000000D+01
  </mgrwgt>
  </event>
  <event>
  8     66 0.56006291E-06 0.19286027E+03 0.75467711E-02 0.96347677E-01
        1 -1    0    0  501    0 0.00000000E+00 0.00000000E+00 0.12049255E+04 0.12049256E+04 0.32000000E+00 0.0000E+00 0.9000E+01
       -1 -1    0    0    0  501 0.00000000E+00 0.00000000E+00 -.12848467E+03 0.12848507E+03 0.32000000E+00 0.0000E+00 0.9000E+01
       25  2    1    2    0    0 -.84552227E+02 -.80072769E+02 0.89007591E+02 0.33498843E+03 0.30122113E+03 0.0000E+00 0.0000E+00
       23  2    1    2    0    0 0.84552227E+02 0.80072769E+02 0.98743326E+03 0.99842219E+03 0.90893976E+02 0.0000E+00 0.0000E+00
       23  1    3    3    0    0 -.79210116E+02 -.11900044E+03 -.38008051E+02 0.17376769E+03 0.91188000E+02 0.0000E+00 0.9000E+01
      -13  1    4    4    0    0 0.28603741E+02 0.20852273E+02 0.66201892E+03 0.66296459E+03 0.10565837E+00 0.0000E+00 0.9000E+01
       13  1    4    4    0    0 0.55948486E+02 0.59220496E+02 0.32541434E+03 0.33545761E+03 0.10565837E+00 0.0000E+00 0.9000E+01
       23  1    3    3    0    0 -.53421111E+01 0.38927674E+02 0.12701564E+03 0.16122074E+03 0.91188000E+02 0.0000E+00 0.9000E+01
#aMCatNLO 1  0  0  2  2 0.33993895D+03 0.00000000D+00  -5  7  0 0.00000000D+00 0.00000000D+00 0.00000000D+00 0.00000000D+00 0.00000000D+00
  <mgrwgt>
 0.2154919271D-03    3    2    0
 0.393465055119969D+03 0.000000000000000D+00 0.000000000000000D+00 0.393465055119969D+03
 0.393465055119969D+03 0.000000000000000D+00 0.000000000000000D+00 -.393465055119969D+03
 0.346431154051922D+03 -.792101156971603D+02 -.119000442616354D+03 -.302099231018718D+03
 0.217782905681930D+03 0.286037037879219D+02 0.208522212617638D+02 0.214886963321016D+03
 0.123280764274882D+03 0.559485229740655D+02 0.592205476074264D+02 0.925247878046533D+02
 0.994352862312034D+02 -.534211106482705D+01 0.389276737471640D+02 -.531252010695178D+01
 0.000000000000000D+00 0.000000000000000D+00 -.000000000000000D+00 0.000000000000000D+00
 0.906398823123129D+03 0.000000000000000D+00 0.000000000000000D+00 0.906398823123129D+03
 0.489072415297328D+03 0.000000000000000D+00 0.000000000000000D+00 -.489072415297328D+03
 0.387488113027944D+03 -.217595203382957D+03 -.567465283218758D+02 -.302099231018718D+03
 0.229661220686678D+03 -.557646967152853D+02 0.588061891489263D+02 0.214886963321016D+03
 0.122745795788119D+03 0.955866973745825D+01 0.800894865647964D+02 0.925247878046533D+02
 0.117319830979065D+03 -.462126498923954D+02 0.573136939744123D+02 -.531252010695178D+01
 0.538256277938650D+03 0.310013880253179D+03 -.139462841366259D+03 0.417326407825801D+03
0.774281749174D-05 0.000000000000D+00 0.000000000000D+00 0.189704689617D-06 0.000000000000D+00  7 1 -1 23 -13 13 23 21 0 0.18537319D+00 0.19766906D-01 0.37195082D+05 0.37195082D+05 0.37195082D+05 0.11587713D+01  1  2  2  2  7  2       -1 0.204514076909D-03 0.100000000000D+01
-.164256019470D-06 0.000000000000D+00 -.297344578989D-07 0.189704689617D-06 0.000000000000D+00  7 1 -1 23 -13 13 23 21 2 0.18537319D+00 0.19766906D-01 0.37195082D+05 0.37195082D+05 0.37195082D+05 0.11587713D+01  1  2  3  2  7  2       -1 -.582560353079D-05 0.100000000000D+01
0.473782399148D-06 0.000000000000D+00 0.000000000000D+00 0.189704689617D-06 0.000000000000D+00  7 1 -1 23 -13 13 23 21 2 0.18537319D+00 0.19766906D-01 0.37195082D+05 0.37195082D+05 0.37195082D+05 0.11587713D+01  1  2 15  2  7  2       -1 0.168034536951D-04 0.100000000000D+01
  </mgrwgt>
  </event>
  <event>
  8     66 0.56006291E-06 0.14796132E+03 0.75467711E-02 0.10186061E+00
        1 -1    0    0  501    0 0.00000000E+00 0.00000000E+00 0.18947838E+03 0.18947865E+03 0.32000000E+00 0.0000E+00 0.9000E+01
       -1 -1    0    0    0  501 0.00000000E+00 0.00000000E+00 -.36702202E+03 0.36702216E+03 0.32000000E+00 0.0000E+00 0.9000E+01
       25  2    1    2    0    0 -.64492722E+02 -.14050190E+03 -.16313317E+03 0.37555970E+03 0.30088630E+03 0.0000E+00 0.0000E+00
       23  2    1    2    0    0 0.64492722E+02 0.14050190E+03 -.14410466E+02 0.18094111E+03 0.92908176E+02 0.0000E+00 0.0000E+00
       23  1    3    3    0    0 0.18450567E+02 -.18506765E+03 -.96290864E+02 0.22842425E+03 0.91188000E+02 0.0000E+00 0.9000E+01
      -11  1    4    4    0    0 0.48299882E+02 0.19583503E+02 -.26275376E+02 0.58367693E+02 0.51099893E-03 0.0000E+00 0.9000E+01
       11  1    4    4    0    0 0.16192841E+02 0.12091840E+03 0.11864910E+02 0.12257342E+03 0.51099893E-03 0.0000E+00 0.9000E+01
       23  1    3    3    0    0 -.82943289E+02 0.44565747E+02 -.66842307E+02 0.14713545E+03 0.91188000E+02 0.0000E+00 0.9000E+01
#aMCatNLO 1  0  0  2  1 0.39603457D+02 0.00000000D+00  -5  7  0 0.00000000D+00 0.00000000D+00 0.00000000D+00 0.00000000D+00 0.00000000D+00
  <mgrwgt>
 0.1222448015D-03    6    2    0
 0.263709788958974D+03 0.000000000000000D+00 0.000000000000000D+00 0.263709788958974D+03
 0.263709788958974D+03 0.000000000000000D+00 0.000000000000000D+00 -.263709788958974D+03
 0.208605171985911D+03 0.184505667602657D+02 -.185067646486525D+03 -.247064616130095D+02
 0.527410122979767D+02 0.482998815453231D+02 0.195835027085837D+02 -.807602888714399D+01
 0.133326007106896D+03 0.161928408809680D+02 0.120918397239506D+03 0.537806404229327D+02
 0.132747386527164D+03 -.829432891865569D+02 0.445657465384348D+02 -.209981499227792D+02
 0.000000000000000D+00 -.000000000000000D+00 0.000000000000000D+00 0.000000000000000D+00
 0.284506214133820D+03 0.000000000000000D+00 0.000000000000000D+00 0.284506214133820D+03
 0.284004798258043D+03 0.000000000000000D+00 0.000000000000000D+00 -.284004798258043D+03
 0.214599584348317D+03 0.336170021716635D+02 -.189729328723910D+03 -.247064616130095D+02
 0.559241798693072D+02 0.521941279917659D+02 0.183865346013816D+02 -.807602888714399D+01
 0.132195963713905D+03 0.257083809605327D+02 0.117993621379867D+03 0.537806404229327D+02
 0.126184653739068D+03 -.736639131732640D+02 0.417135600383242D+02 -.209981499227792D+02
 0.396066307212658D+02 -.378555979506981D+02 0.116356127043375D+02 0.501415875777741D+00
0.155449203880D-05 0.000000000000D+00 0.000000000000D+00 0.301849035024D-07 0.000000000000D+00  7 1 -1 23 -11 11 23 21 0 0.29150552D-01 0.56464958D-01 0.65620475D+05 0.65620475D+05 0.65620475D+05 0.11370526D+01  1  2  2  2  7  2       -1 0.985139680996D-04 0.100000000000D+01
-.862721934362D-07 0.000000000000D+00 -.596965873614D-08 0.301849035024D-07 0.000000000000D+00  7 1 -1 23 -11 11 23 21 2 0.29150552D-01 0.56464958D-01 0.65620475D+05 0.65620475D+05 0.65620475D+05 0.11370526D+01  1  2  3  2  7  2       -1 -.706872827274D-05 0.100000000000D+01
0.100211377275D-06 0.000000000000D+00 0.000000000000D+00 0.301849035024D-07 0.000000000000D+00  7 1 -1 23 -11 11 23 21 2 0.29150552D-01 0.56464958D-01 0.65620475D+05 0.65620475D+05 0.65620475D+05 0.11370526D+01  1  2 15  2  7  2       -1 0.821083790245D-05 0.100000000000D+01
0.180999931287D-05 0.000000000000D+00 0.000000000000D+00 0.301849035024D-07 0.000000000000D+00  7 1 -1 23 -11 11 23 21 2 0.29150552D-01 0.62869937D-01 0.76535537D+05 0.76535537D+05 0.76535537D+05 0.11313789D+01  1  2 12  2  7  2       -1 0.120215231646D-03 0.100000000000D+01
-.141004559041D-05 0.000000000000D+00 0.000000000000D+00 0.301849035024D-07 0.000000000000D+00  7 1 -1 23 -11 11 23 21 2 0.29150552D-01 0.56464958D-01 0.65620475D+05 0.65620475D+05 0.65620475D+05 0.11370526D+01  1  2  4  2  7  2       -1 -.115532348649D-03 0.100000000000D+01
0.312709175716D-07 0.000000000000D+00 0.000000000000D+00 0.301849035024D-07 0.000000000000D+00  7 1 21 23 -11 11 23 1 2 0.29150552D-01 0.62869937D-01 0.76535537D+05 0.76535537D+05 0.76535537D+05 0.11313789D+01  1  2 12  4  7  2       -1 0.179058407350D-04 0.100000000000D+01
  </mgrwgt>
  </event>
  <event>
  8     66 0.56006291E-06 0.18533929E+03 0.75467711E-02 0.10573825E+00
        1 -1    0    0  501    0 0.00000000E+00 0.00000000E+00 0.24859236E+04 0.24859236E+04 0.32000000E+00 0.0000E+00 0.9000E+01
       -1 -1    0    0    0  501 0.00000000E+00 0.00000000E+00 -.44259020E+02 0.44260177E+02 0.32000000E+00 0.0000E+00 0.9000E+01
       25  2    1    2    0    0 0.64854572E+02 -.10598808E+03 0.22965949E+04 0.23191745E+04 0.29796419E+03 0.0000E+00 0.0000E+00
       23  2    1    2    0    0 -.64854572E+02 0.10598808E+03 0.14506971E+03 0.21100932E+03 0.89666739E+02 0.0000E+00 0.0000E+00
       23  1    3    3    0    0 0.76752564E+02 -.76183736E+02 0.20412107E+04 0.20461064E+04 0.91188000E+02 0.0000E+00 0.9000E+01
      -13  1    4    4    0    0 0.73439303E+01 0.11321428E+02 0.67676511E+02 0.69008907E+02 0.10565837E+00 0.0000E+00 0.9000E+01
       13  1    4    4    0    0 -.72198502E+02 0.94666654E+02 0.77393195E+02 0.14200041E+03 0.10565837E+00 0.0000E+00 0.9000E+01
       23  1    3    3    0    0 -.11897992E+02 -.29804346E+02 0.25538413E+03 0.27306807E+03 0.91188000E+02 0.0000E+00 0.9000E+01
#aMCatNLO 1  0  0  1  1 0.43565819D+02 0.00000000D+00  -5  7  0 0.00000000D+00 0.00000000D+00 0.00000000D+00 0.00000000D+00 0.00000000D+00
  <mgrwgt>
 0.1080545636D-03    4    2    0
 0.331701722140481D+03 0.000000000000000D+00 0.000000000000000D+00 0.331701722140481D+03
 0.331701722140481D+03 0.000000000000000D+00 0.000000000000000D+00 -.331701722140481D+03
 0.291034562712942D+03 0.767525637161269D+02 -.761837363140049D+02 0.254344151955089D+03
 0.141115590871489D+02 0.734404052194795D+01 0.113213123883018D+02 0.412662749573606D+01
 0.256735387771208D+03 -.721986123029663D+02 0.946667699846003D+02 -.227461254670420D+03
 0.101521934709663D+03 -.118979919351085D+02 -.298043460588972D+02 -.310095247804059D+02
 0.000000000000000D+00 0.000000000000000D+00 -.000000000000000D+00 -.000000000000000D+00
 0.342771059203398D+03 0.000000000000000D+00 0.000000000000000D+00 0.342771059203398D+03
 0.378239607993823D+03 0.000000000000000D+00 0.000000000000000D+00 -.378239607993823D+03
 0.284649155612733D+03 0.614150449809422D+02 -.651700472861365D+02 0.254344151955089D+03
 0.141838634477460D+02 0.659018634918950D+01 0.118626460664851D+02 0.412662749573606D+01
 0.264765733939074D+03 -.860925838884652D+02 0.104643865044552D+03 -.227461254670420D+03
 0.101233639750948D+03 -.172998598757152D+02 -.259253292052146D+02 -.310095247804059D+02
 0.561782744467203D+02 0.353872124340487D+02 -.254111346196859D+02 -.354685487904247D+02
0.891903187545D-05 0.000000000000D+00 0.000000000000D+00 0.281751193759D-07 0.000000000000D+00  7 1 -1 23 -13 13 23 21 0 0.38244987D+00 0.68091706D-02 0.34350652D+05 0.34350652D+05 0.34350652D+05 0.11619181D+01  1  2  2  1  7  1        1 0.175184031958D-03 0.100000000000D+01
-.291401153346D-06 0.000000000000D+00 -.342514308368D-07 0.281751193759D-07 0.000000000000D+00  7 1 -1 23 -13 13 23 21 2 0.38244987D+00 0.68091706D-02 0.34350652D+05 0.34350652D+05 0.34350652D+05 0.11619181D+01  1  2  3  1  7  1        1 -.772714573186D-05 0.100000000000D+01
0.532355693588D-06 0.000000000000D+00 0.000000000000D+00 0.281751193759D-07 0.000000000000D+00  7 1 -1 23 -13 13 23 21 2 0.38244987D+00 0.68091706D-02 0.34350652D+05 0.34350652D+05 0.34350652D+05 0.11619181D+01  1  2 15  1  7  1        1 0.141165880035D-04 0.100000000000D+01
-.277249790509D-05 0.000000000000D+00 0.000000000000D+00 0.281751193759D-07 0.000000000000D+00  7 1 -1 23 -13 13 23 21 2 0.38244987D+00 0.68091706D-02 0.34350652D+05 0.34350652D+05 0.34350652D+05 0.11619181D+01  1  2  4  1  7  1        1 -.735189106423D-04 0.100000000000D+01
  </mgrwgt>
  </event>
  <event>
  8     66 0.56006291E-06 0.16920930E+03 0.75467711E-02 0.10101784E+00
        1 -1    0    0  501    0 0.00000000E+00 0.00000000E+00 0.11604408E+04 0.11604409E+04 0.32000000E+00 0.0000E+00 0.9000E+01
       -1 -1    0    0    0  501 0.00000000E+00 0.00000000E+00 -.97800199E+02 0.97800722E+02 0.32000000E+00 0.0000E+00 0.9000E+01
       25  2    1    2    0    0 0.23709374E+03 -.86761959E+01 0.83025327E+03 0.91417457E+03 0.30017652E+03 0.0000E+00 0.0000E+00
       23  2    1    2    0    0 -.23709374E+03 0.86761959E+01 0.23238737E+03 0.34406703E+03 0.89941743E+02 0.0000E+00 0.0000E+00
       23  1    3    3    0    0 0.14602721E+03 0.60174892E+02 0.68222738E+03 0.70618298E+03 0.91188000E+02 0.0000E+00 0.9000E+01
      -13  1    4    4    0    0 -.20372161E+03 0.72219292E+01 0.14400792E+03 0.24958555E+03 0.10565837E+00 0.0000E+00 0.9000E+01
       13  1    4    4    0    0 -.33372124E+02 0.14542667E+01 0.88379447E+02 0.94481487E+02 0.10565837E+00 0.0000E+00 0.9000E+01
       23  1    3    3    0    0 0.91066526E+02 -.68851088E+02 0.14802590E+03 0.20799159E+03 0.91188000E+02 0.0000E+00 0.9000E+01
#aMCatNLO 1  0  0  2  1 0.24736938D+02 0.00000000D+00  -5  7  0 0.00000000D+00 0.00000000D+00 0.00000000D+00 0.00000000D+00 0.00000000D+00
  <mgrwgt>
 0.1253682943D-03    9    2    0
 0.336885295109290D+03 0.000000000000000D+00 0.000000000000000D+00 0.336885295109290D+03
 0.336885295109290D+03 0.000000000000000D+00 0.000000000000000D+00 -.336885295109290D+03
 0.242792248423534D+03 0.146027209908384D+03 0.601748921790625D+02 0.160274330034994D+03
 0.238969222415778D+03 -.203721847424495D+03 0.722193714702712D+01 -.124705820905830D+03
 0.370523114002323D+02 -.333718886509838D+02 0.145425875216833D+01 0.160335884769400D+02
 0.154956807979036D+03 0.910665261670941D+02 -.688510880782580D+02 -.516020976061037D+02
 0.000000000000000D+00 0.000000000000000D+00 0.000000000000000D+00 -.000000000000000D+00
 0.343452184305840D+03 0.000000000000000D+00 0.000000000000000D+00 0.343452184305840D+03
 0.361241769283588D+03 0.000000000000000D+00 0.000000000000000D+00 -.361241769283588D+03
 0.238633559601119D+03 0.142182472836681D+03 0.522207619034911D+02 0.160274330034994D+03
 0.242146503972211D+03 -.207564108138795D+03 -.727069951321669D+00 -.124705820905830D+03
 0.375624093328947D+02 -.339677727480050D+02 0.221472309700987D+00 0.160335884769400D+02
 0.155882062649354D+03 0.885841213825752D+02 -.739867763410756D+02 -.516020976061037D+02
 0.304694180338498D+02 0.107652866675432D+02 0.222716120792053D+02 -.177895849777476D+02
0.303881662858D-05 0.000000000000D+00 0.000000000000D+00 0.558238900212D-06 0.000000000000D+00  7 1 -1 23 -13 13 23 21 0 0.17852940D+00 0.15046228D-01 0.80015329D+05 0.80015329D+05 0.80015329D+05 0.11297555D+01  1  2  2  2  7  2       -1 0.130618159798D-03 0.100000000000D+01
-.162554461177D-06 0.000000000000D+00 -.116698559926D-07 0.558238900212D-06 0.000000000000D+00  7 1 -1 23 -13 13 23 21 2 0.17852940D+00 0.15046228D-01 0.80015329D+05 0.80015329D+05 0.80015329D+05 0.11297555D+01  1  2  3  2  7  2       -1 -.891798773750D-05 0.100000000000D+01
0.196874277384D-06 0.000000000000D+00 0.000000000000D+00 0.558238900212D-06 0.000000000000D+00  7 1 -1 23 -13 13 23 21 2 0.17852940D+00 0.15046228D-01 0.80015329D+05 0.80015329D+05 0.80015329D+05 0.11297555D+01  1  2 15  2  7  2       -1 0.108008256361D-04 0.100000000000D+01
0.113753945480D-04 0.000000000000D+00 0.000000000000D+00 0.558238900212D-06 0.000000000000D+00  7 1 -1 23 -13 13 23 21 2 0.17852940D+00 0.16273605D-01 0.87073318D+05 0.87073318D+05 0.87073318D+05 0.11266888D+01  1  2 12  2  7  2       -1 0.547946278937D-03 0.100000000000D+01
-.113892092582D-04 0.000000000000D+00 0.000000000000D+00 0.558238900212D-06 0.000000000000D+00  7 1 -1 23 -13 13 23 21 2 0.17852940D+00 0.15046228D-01 0.80015329D+05 0.80015329D+05 0.80015329D+05 0.11297555D+01  1  2  4  2  7  2       -1 -.624829535708D-03 0.100000000000D+01
-.279596547141D-04 0.000000000000D+00 -.457571053424D-05 0.558238900212D-06 0.000000000000D+00  7 1 -1 23 -13 13 23 21 2 0.17852940D+00 0.16439323D-01 0.80015329D+05 0.80015329D+05 0.80015329D+05 0.11297555D+01  1  2  5  2  7  2       -1 -.133463352433D-02 0.100000000000D+01
0.282717984563D-04 0.000000000000D+00 0.455783011111D-05 0.558238900212D-06 0.000000000000D+00  7 1 -1 23 -13 13 23 21 2 0.17852940D+00 0.15046228D-01 0.80015329D+05 0.80015329D+05 0.80015329D+05 0.11297555D+01  1  2  6  2  7  2       -1 0.155103434335D-02 0.100000000000D+01
0.153727508947D-06 0.000000000000D+00 0.000000000000D+00 0.558238900212D-06 0.000000000000D+00  7 1 21 23 -13 13 23 1 2 0.17852940D+00 0.16273605D-01 0.87073318D+05 0.87073318D+05 0.87073318D+05 0.11266888D+01  1  2 12  4  7  2       -1 0.943111475612D-04 0.100000000000D+01
-.396476155061D-06 0.000000000000D+00 -.668508483291D-07 0.558238900212D-06 0.000000000000D+00  7 1 21 23 -13 13 23 1 2 0.17852940D+00 0.16439323D-01 0.80015329D+05 0.80015329D+05 0.80015329D+05 0.11297555D+01  1  2  5  4  7  2       -1 -.240961413194D-03 0.100000000000D+01
  </mgrwgt>
  </event>
  <event>
  8     66 0.56006291E-06 0.32144141E+03 0.75467711E-02 0.92239672E-01
        1 -1    0    0  501    0 0.00000000E+00 0.00000000E+00 0.11849219E+04 0.11849219E+04 0.32000000E+00 0.0000E+00 0.9000E+01
       -1 -1    0    0    0  501 0.00000000E+00 0.00000000E+00 -.17515809E+03 0.17515838E+03 0.32000000E+00 0.0000E+00 0.9000E+01
       25  2    1    2    0    0 -.12061628E+03 0.24372234E+03 0.99395692E+03 0.10733556E+04 0.30032152E+03 0.0000E+00 0.0000E+00
       23  2    1    2    0    0 0.12061628E+03 -.24372234E+03 0.15806882E+02 0.28672471E+03 0.89511650E+02 0.0000E+00 0.0000E+00
       23  1    3    3    0    0 -.99765639E+02 0.51961871E+02 0.17540513E+03 0.22745423E+03 0.91188000E+02 0.0000E+00 0.9000E+01
      -13  1    4    4    0    0 0.12891692E+03 -.24447549E+03 0.20528596E+02 0.27714486E+03 0.10565837E+00 0.0000E+00 0.9000E+01
       13  1    4    4    0    0 -.83006381E+01 0.75315033E+00 -.47217142E+01 0.95798526E+01 0.10565837E+00 0.0000E+00 0.9000E+01
       23  1    3    3    0    0 -.20850643E+02 0.19176047E+03 0.81855179E+03 0.84590136E+03 0.91188000E+02 0.0000E+00 0.9000E+01
#aMCatNLO 1  0  0  1  1 0.48427019D+03 0.00000000D+00  -5  7  0 0.00000000D+00 0.00000000D+00 0.00000000D+00 0.00000000D+00 0.00000000D+00
  <mgrwgt>
 0.3185046735D-03    3    2    0
 0.455575325862321D+03 0.000000000000000D+00 0.000000000000000D+00 0.455575325862321D+03
 0.455575325862321D+03 0.000000000000000D+00 0.000000000000000D+00 -.455575325862321D+03
 0.145133273997484D+03 -.997656391301384D+02 0.519618706665103D+02 0.975690130218082D+01
 0.390946000191380D+03 0.128917111164375D+03 -.244475833074471D+03 -.276497234266844D+03
 0.195321304762376D+02 -.830082922696318D+01 0.753491981672699D+00 -.176644446535723D+02
 0.355539247059542D+03 -.208506428072733D+02 0.191760470426288D+03 0.284404777618235D+03
 0.000000000000000D+00 0.000000000000000D+00 0.000000000000000D+00 -.000000000000000D+00
 0.579538110787299D+03 0.000000000000000D+00 0.000000000000000D+00 0.579538110787299D+03
 0.143757610940845D+04 0.000000000000000D+00 0.000000000000000D+00 -.143757610940845D+04
 0.150602984150712D+03 -.117859609817371D+03 -.194916069572582D+02 0.975690130218082D+01
 0.551875510542663D+03 0.712326564906911D+02 -.472272979566681D+03 -.276497234266844D+03
 0.228143120571134D+02 -.108917029152449D+02 -.947792368223529D+01 -.176644446535723D+02
 0.306556564667950D+03 -.613595147479390D+02 0.317900678645766D+02 0.284404777618235D+03
 0.985264848777315D+03 0.118878170989864D+03 0.469452442341598D+03 -.858037998621156D+03
0.193964457374D-04 0.000000000000D+00 0.000000000000D+00 0.806466487849D-06 0.000000000000D+00  7 1 -1 23 -13 13 23 21 0 0.18229570D+00 0.26947424D-01 0.10332458D+06 0.10332458D+06 0.10332458D+06 0.11205583D+01  1  2  2  1  7  1        1 0.312813406812D-03 0.100000000000D+01
-.918231415996D-06 0.000000000000D+00 -.744874588332D-07 0.806466487849D-06 0.000000000000D+00  7 1 -1 23 -13 13 23 21 2 0.18229570D+00 0.26947424D-01 0.10332458D+06 0.10332458D+06 0.10332458D+06 0.11205583D+01  1  2  3  1  7  1        1 -.185944906908D-04 0.100000000000D+01
0.119927701844D-05 0.000000000000D+00 0.000000000000D+00 0.806466487849D-06 0.000000000000D+00  7 1 -1 23 -13 13 23 21 2 0.18229570D+00 0.26947424D-01 0.10332458D+06 0.10332458D+06 0.10332458D+06 0.11205583D+01  1  2 15  1  7  1        1 0.242857573447D-04 0.100000000000D+01
  </mgrwgt>
  </event>
  <event>
  8     66 0.56006291E-06 0.23747170E+03 0.75467711E-02 0.96521026E-01
        1 -1    0    0  501    0 0.00000000E+00 0.00000000E+00 0.65471513E+03 0.65471521E+03 0.32000000E+00 0.0000E+00 0.9000E+01
       -1 -1    0    0    0  501 0.00000000E+00 0.00000000E+00 -.24219066E+03 0.24219087E+03 0.32000000E+00 0.0000E+00 0.9000E+01
       25  2    1    2    0    0 0.26278097E+02 -.31879341E+03 0.12231570E+03 0.45576938E+03 0.30074046E+03 0.0000E+00 0.0000E+00
       23  2    1    2    0    0 -.26278097E+02 0.31879341E+03 0.29020877E+03 0.44113670E+03 0.89781288E+02 0.0000E+00 0.0000E+00
       23  1    3    3    0    0 0.83355691E+02 -.27650551E+02 0.15626662E+02 0.12756241E+03 0.91188000E+02 0.0000E+00 0.9000E+01
      -13  1    4    4    0    0 -.42161371E+02 0.63581902E+02 0.59751139E+02 0.96904330E+02 0.10565837E+00 0.0000E+00 0.9000E+01
       13  1    4    4    0    0 0.15883274E+02 0.25521150E+03 0.23045763E+03 0.34423237E+03 0.10565837E+00 0.0000E+00 0.9000E+01
       23  1    3    3    0    0 -.57077594E+02 -.29114286E+03 0.10668903E+03 0.32820697E+03 0.91188000E+02 0.0000E+00 0.9000E+01
#aMCatNLO 1  0  0  1  2 0.75792265D+02 0.00000000D+00  -5  7  0 0.00000000D+00 0.00000000D+00 0.00000000D+00 0.00000000D+00 0.00000000D+00
  <mgrwgt>
 0.1533026861D-03    9    2    0
 0.398203488386079D+03 0.000000000000000D+00 0.000000000000000D+00 0.398203488386079D+03
 0.398203488386079D+03 0.000000000000000D+00 0.000000000000000D+00 -.398203488386079D+03
 0.135565260186271D+03 0.833556911792664D+02 -.276505514301733D+02 -.484764291074068D+02
 0.781824718811339D+02 -.421614514369510D+02 0.635816363948388D+02 0.170963866219860D+02
 0.268298627434804D+03 0.158833542325663D+02 0.255211770298017D+03 0.812331511334794D+02
 0.314360617269949D+03 -.570775939748817D+02 -.291142855262682D+03 -.498531086480586D+02
 0.000000000000000D+00 0.000000000000000D+00 -.000000000000000D+00 0.000000000000000D+00
 0.469321234475278D+03 0.000000000000000D+00 0.000000000000000D+00 0.469321234475278D+03
 0.420720305690425D+03 0.000000000000000D+00 0.000000000000000D+00 -.420720305690425D+03
 0.130737049077972D+03 0.785656402211056D+02 -.159499421710017D+02 -.484764291074068D+02
 0.856557198327844D+02 -.451084528706632D+02 0.707802471326512D+02 0.170963866219860D+02
 0.291415484828693D+03 0.581562659193384D+01 0.279804107264727D+03 0.812331511334794D+02
 0.292197083836159D+03 -.679879097937360D+02 -.264492336634465D+03 -.498531086480586D+02
 0.900362025900947D+02 0.287150958513598D+02 -.701420755919114D+02 0.486009287848533D+02
0.390515363674D-05 0.000000000000D+00 0.000000000000D+00 0.107330308034D-06 0.000000000000D+00  7 1 -1 23 -13 13 23 21 0 0.10072543D+00 0.37260124D-01 0.14783254D+06 0.14783254D+06 0.14783254D+06 0.11080511D+01  1  2  2  1  7  1        1 0.968469285035D-04 0.100000000000D+01
-.216629006109D-06 0.000000000000D+00 -.149968182157D-07 0.107330308034D-06 0.000000000000D+00  7 1 -1 23 -13 13 23 21 2 0.10072543D+00 0.37260124D-01 0.14783254D+06 0.14783254D+06 0.14783254D+06 0.11080511D+01  1  2  3  1  7  1        1 -.659604931017D-05 0.100000000000D+01
0.255027848787D-06 0.000000000000D+00 0.000000000000D+00 0.107330308034D-06 0.000000000000D+00  7 1 -1 23 -13 13 23 21 2 0.10072543D+00 0.37260124D-01 0.14783254D+06 0.14783254D+06 0.14783254D+06 0.11080511D+01  1  2 15  1  7  1        1 0.776524019696D-05 0.100000000000D+01
0.607497716682D-05 0.000000000000D+00 0.000000000000D+00 0.107330308034D-06 0.000000000000D+00  7 1 -1 23 -13 13 23 21 2 0.12119215D+00 0.37260124D-01 0.18016602D+06 0.18016602D+06 0.18016602D+06 0.11013260D+01  1  2 12  1  7  1        1 0.137195538094D-03 0.100000000000D+01
-.610641873667D-05 0.000000000000D+00 0.000000000000D+00 0.107330308034D-06 0.000000000000D+00  7 1 -1 23 -13 13 23 21 2 0.10072543D+00 0.37260124D-01 0.14783254D+06 0.14783254D+06 0.14783254D+06 0.11080511D+01  1  2  4  1  7  1        1 -.185931883357D-03 0.100000000000D+01
-.123160038538D-04 0.000000000000D+00 -.278648808617D-05 0.107330308034D-06 0.000000000000D+00  7 1 -1 23 -13 13 23 21 2 0.12317632D+00 0.37260124D-01 0.14783254D+06 0.14783254D+06 0.14783254D+06 0.11080511D+01  1  2  5  1  7  1        1 -.275725090744D-03 0.100000000000D+01
0.126747120710D-04 0.000000000000D+00 0.273101342185D-05 0.107330308034D-06 0.000000000000D+00  7 1 -1 23 -13 13 23 21 2 0.10072543D+00 0.37260124D-01 0.14783254D+06 0.14783254D+06 0.14783254D+06 0.11080511D+01  1  2  6  1  7  1        1 0.385927200211D-03 0.100000000000D+01
0.163669180879D-06 0.000000000000D+00 0.000000000000D+00 0.107330308034D-06 0.000000000000D+00  7 21 -1 23 -13 13 23 -1 2 0.12119215D+00 0.37260124D-01 0.18016602D+06 0.18016602D+06 0.18016602D+06 0.11013260D+01  1  2 12  3  7  1        1 0.667427861902D-05 0.100000000000D+01
-.321661971783D-06 0.000000000000D+00 -.801125666180D-07 0.107330308034D-06 0.000000000000D+00  7 21 -1 23 -13 13 23 -1 2 0.12317632D+00 0.37260124D-01 0.14783254D+06 0.14783254D+06 0.14783254D+06 0.11080511D+01  1  2  5  3  7  1        1 -.128534760983D-04 0.100000000000D+01
  </mgrwgt>
  </event>
  <event>
  8     66 0.56006291E-06 0.34404836E+03 0.75467711E-02 0.92529237E-01
        1 -1    0    0  501    0 0.00000000E+00 0.00000000E+00 0.75479981E+03 0.75479988E+03 0.32000000E+00 0.0000E+00 0.9000E+01
       -1 -1    0    0    0  501 0.00000000E+00 0.00000000E+00 -.26800169E+03 0.26800189E+03 0.32000000E+00 0.0000E+00 0.9000E+01
       25  2    1    2    0    0 -.21667836E+03 0.20794545E+03 -.22810574E+02 0.42490528E+03 0.29972212E+03 0.0000E+00 0.0000E+00
       23  2    1    2    0    0 0.21667836E+03 -.20794545E+03 0.50960869E+03 0.59789649E+03 0.87111226E+02 0.0000E+00 0.0000E+00
       23  1    3    3    0    0 -.17854504E+03 0.20362553E+03 -.96426108E+02 0.30158736E+03 0.91188000E+02 0.0000E+00 0.9000E+01
      -11  1    4    4    0    0 0.21395788E+03 -.19277661E+03 0.50576597E+03 0.58201376E+03 0.51099893E-03 0.0000E+00 0.9000E+01
       11  1    4    4    0    0 0.27204785E+01 -.15168835E+02 0.38427258E+01 0.15882730E+02 0.51099893E-03 0.0000E+00 0.9000E+01
       23  1    3    3    0    0 -.38133319E+02 0.43199199E+01 0.73615534E+02 0.12331792E+03 0.91188000E+02 0.0000E+00 0.9000E+01
#aMCatNLO 1  0  0  2  1 0.40598519D+03 0.00000000D+00  -5  7  0 0.00000000D+00 0.00000000D+00 0.00000000D+00 0.00000000D+00 0.00000000D+00
  <mgrwgt>
 0.2862320658D-03    5    2    0
 0.449764117254460D+03 0.000000000000000D+00 0.000000000000000D+00 0.449764117254460D+03
 0.449764117254460D+03 0.000000000000000D+00 0.000000000000000D+00 -.449764117254460D+03
 0.395100583790035D+03 -.178545042495293D+03 0.203625530154500D+03 -.272850749012862D+03
 0.388068726570220D+03 0.213957882646877D+03 -.192776614601889D+03 0.260108703925363D+03
 0.159797681674769D+02 0.272047845884726D+01 -.151688354474332D+02 -.422592224371775D+01
 0.100379155981188D+03 -.381333186104314D+02 0.431991989482257D+01 0.169679673312162D+02
 0.000000000000000D+00 -.000000000000000D+00 -.000000000000000D+00 -.000000000000000D+00
 0.566520350917922D+03 0.000000000000000D+00 0.000000000000000D+00 0.566520350917922D+03
 0.105737973517836D+04 0.000000000000000D+00 0.000000000000000D+00 -.105737973517836D+04
 0.466782920168987D+03 -.776764299920564D+02 0.359290807291665D+03 -.272850749012862D+03
 0.405258310934678D+03 0.306803142089535D+03 -.494933604424295D+02 0.260108703925363D+03
 0.124542062813908D+02 0.604818520510159D+01 -.100333589098703D+02 -.422592224371775D+01
 0.102406289706691D+03 -.144007765111464D+02 0.409451162901441D+02 0.169679673312162D+02
 0.636998359004536D+03 -.220774120791434D+03 -.340709204229509D+03 -.490859384260438D+03
0.177209712176D-04 0.000000000000D+00 0.000000000000D+00 0.130052447795D-06 0.000000000000D+00  7 1 -1 23 -11 11 23 21 0 0.11612307D+00 0.41231050D-01 0.11836928D+06 0.11836928D+06 0.11836928D+06 0.11157610D+01  1  2  2  2  7  2       -1 0.298911149521D-03 0.100000000000D+01
-.898562439470D-06 0.000000000000D+00 -.680531955146D-07 0.130052447795D-06 0.000000000000D+00  7 1 -1 23 -11 11 23 21 2 0.11612307D+00 0.41231050D-01 0.11836928D+06 0.11836928D+06 0.11836928D+06 0.11157610D+01  1  2  3  2  7  2       -1 -.188688414148D-04 0.100000000000D+01
0.110743862056D-05 0.000000000000D+00 0.000000000000D+00 0.130052447795D-06 0.000000000000D+00  7 1 -1 23 -11 11 23 21 2 0.11612307D+00 0.41231050D-01 0.11836928D+06 0.11836928D+06 0.11836928D+06 0.11157610D+01  1  2 15  2  7  2       -1 0.232550157786D-04 0.100000000000D+01
-.457380217175D-05 0.000000000000D+00 -.537270108992D-05 0.130052447795D-06 0.000000000000D+00  7 1 -1 23 -11 11 23 21 2 0.11612307D+00 0.11433270D+00 0.11836928D+06 0.11836928D+06 0.11836928D+06 0.11157610D+01  1  2  5  2  7  2       -1 -.128483437884D-04 0.100000000000D+01
-.219451862267D-06 0.000000000000D+00 -.614260372440D-06 0.130052447795D-06 0.000000000000D+00  7 1 21 23 -11 11 23 1 2 0.11612307D+00 0.11433270D+00 0.11836928D+06 0.11836928D+06 0.11836928D+06 0.11157610D+01  1  2  5  4  7  2       -1 -.421691430934D-05 0.100000000000D+01
  </mgrwgt>
  </event>
  <event>
  9     66 -.56006291E-06 0.17413718E+04 0.75467711E-02 0.82287969E-01
        1 -1    0    0  502    0 0.00000000E+00 0.00000000E+00 0.41032669E+04 0.41032669E+04 0.32000000E+00 0.0000E+00 0.9000E+01
       -1 -1    0    0    0  501 0.00000000E+00 0.00000000E+00 -.78787814E+03 0.78787820E+03 0.32000000E+00 0.0000E+00 0.9000E+01
       25  2    1    2    0    0 -.30236314E+03 -.17010839E+04 0.20938545E+04 0.27311696E+04 0.29991794E+03 0.0000E+00 0.0000E+00
       23  2    1    2    0    0 0.28157690E+03 0.17087809E+04 0.11397664E+04 0.20752533E+04 0.91603954E+02 0.0000E+00 0.0000E+00
       23  1    3    3    0    0 -.24321638E+03 -.77859369E+03 0.89127791E+03 0.12116327E+04 0.91188000E+02 0.0000E+00 0.9000E+01
      -11  1    4    4    0    0 0.47658924E+01 0.14360254E+03 0.74714481E+02 0.16194646E+03 0.51099893E-03 0.0000E+00 0.9000E+01
       11  1    4    4    0    0 0.27681101E+03 0.15651783E+04 0.10650520E+04 0.19133069E+04 0.51099893E-03 0.0000E+00 0.9000E+01
       23  1    3    3    0    0 -.59146764E+02 -.92249017E+03 0.12025766E+04 0.15195368E+04 0.91188000E+02 0.0000E+00 0.9000E+01
       21  1    1    2  502  501 0.20786244E+02 -.76970112E+01 0.81767863E+02 0.84722239E+02 0.75000000E+00 0.0000E+00 0.9000E+01
#aMCatNLO 2  0  0  1  2 0.22165557D+02 0.00000000D+00  -5  7  0 0.00000000D+00 0.00000000D+00 0.00000000D+00 0.00000000D+00 0.00000000D+00
  <mgrwgt>
 -.8939119798D-04    3    2    0
 0.177798379354626D+04 0.000000000000000D+00 0.000000000000000D+00 0.177798379354626D+04
 0.177798379354626D+04 0.000000000000000D+00 0.000000000000000D+00 -.177798379354626D+04
 0.827482728835956D+03 -.238380231150244D+03 -.780384487353511D+03 0.102894764067733D+03
 0.150670279560027D+03 0.564743841313512D+01 0.143276108399635D+03 -.462773847999503D+02
 0.161584554043300D+04 0.286261346073426D+03 0.156167893313474D+04 -.300283469549307D+03
 0.961969038263537D+03 -.535285533363169D+02 -.924570554180865D+03 0.243666090281525D+03
 0.000000000000000D+00 0.000000000000000D+00 -.000000000000000D+00 0.000000000000000D+00
 0.181483328473418D+04 0.000000000000000D+00 0.000000000000000D+00 0.181483328473418D+04
 0.178135469591255D+04 0.000000000000000D+00 0.000000000000000D+00 -.178135469591255D+04
 0.827203076588833D+03 -.243216378747438D+03 -.778593693276833D+03 0.102894764067733D+03
 0.150950320747727D+03 0.476589235970278D+01 0.143602539183452D+03 -.462773847999503D+02
 0.161758391061385D+04 0.276811006909874D+03 0.156517833241000D+04 -.300283469549307D+03
 0.960299361202174D+03 -.591467641596415D+02 -.922490167165842D+03 0.243666090281525D+03
 0.401513114941538D+02 0.207862436375027D+02 -.769701115078069D+01 0.334785888216290D+02
-.746602315710D-02 0.000000000000D+00 0.000000000000D+00 0.254271839470D-04 0.000000000000D+00  7 1 -1 23 -11 11 23 21 2 0.63185007D+00 0.12098242D+00 0.30711944D+07 0.30711944D+07 0.30711944D+07 0.10168880D+01  1  2 13  1  7  1        1 -.337254326264D-04 0.100000000000D+01
-.938294928567D-01 0.000000000000D+00 0.000000000000D+00 0.254271839470D-04 0.000000000000D+00  7 1 -1 23 -11 11 23 21 2 0.61845289D+00 0.12098242D+00 0.30323759D+07 0.30323759D+07 0.30323759D+07 0.10172235D+01  1  2  8  1  7  1        1 -.515654144934D-03 0.100000000000D+01
0.101458714090D+00 0.000000000000D+00 0.000000000000D+00 0.254271839470D-04 0.285494108176D-06  7 1 -1 23 -11 11 23 21 2 0.63127060D+00 0.12121179D+00 0.30711944D+07 0.30711944D+07 0.30711944D+07 0.10168880D+01  1  2  1  1  7  1        1 0.459988379580D-03 0.100000000000D+01
  </mgrwgt>
  </event>
  <event>
  8     66 0.56006291E-06 0.34118236E+03 0.75467711E-02 0.93039692E-01
        1 -1    0    0  501    0 0.00000000E+00 0.00000000E+00 0.20837630E+04 0.20837630E+04 0.32000000E+00 0.0000E+00 0.9000E+01
       -1 -1    0    0    0  501 0.00000000E+00 0.00000000E+00 -.22838939E+03 0.22838961E+03 0.32000000E+00 0.0000E+00 0.9000E+01
       25  2    1    2    0    0 0.39221748E+03 -.32048634E+03 0.27393891E+03 0.64905116E+03 0.29946426E+03 0.0000E+00 0.0000E+00
       23  2    1    2    0    0 -.39221748E+03 0.32048634E+03 0.15814347E+04 0.16631014E+04 0.91786410E+02 0.0000E+00 0.0000E+00
       23  1    3    3    0    0 0.19316552E+02 -.16211842E+02 0.73384992E+02 0.11973538E+03 0.91188000E+02 0.0000E+00 0.9000E+01
      -11  1    4    4    0    0 -.34135268E+01 0.50941466E+01 0.23716804E+01 0.65747519E+01 0.51099893E-03 0.0000E+00 0.9000E+01
       11  1    4    4    0    0 -.38880395E+03 0.31539219E+03 0.15790630E+04 0.16565267E+04 0.51099893E-03 0.0000E+00 0.9000E+01
       23  1    3    3    0    0 0.37290093E+03 -.30427450E+03 0.20055392E+03 0.52931578E+03 0.91188000E+02 0.0000E+00 0.9000E+01
#aMCatNLO 1  0  0  1  2 0.61632807D+02 0.00000000D+00  -5  7  0 0.00000000D+00 0.00000000D+00 0.00000000D+00 0.00000000D+00 0.00000000D+00
  <mgrwgt>
 0.3995316548D-03    9    2    0
 0.689862039392949D+03 0.000000000000000D+00 0.000000000000000D+00 0.689862039392949D+03
 0.689862039392949D+03 0.000000000000000D+00 0.000000000000000D+00 -.689862039392949D+03
 0.101969588602472D+03 0.193165516460460D+02 -.162118418716434D+02 -.380340987982088D+02
 0.782872228567864D+01 -.341352681982602D+01 0.509414658262275D+01 -.486686735707520D+01
 0.652587540118113D+03 -.388803950248827D+03 0.315392194014262D+03 0.418604526663518D+03
 0.617338227779633D+03 0.372900925422607D+03 -.304274498725242D+03 -.375703560508234D+03
 0.000000000000000D+00 -.000000000000000D+00 0.000000000000000D+00 0.000000000000000D+00
 0.757334636613902D+03 0.000000000000000D+00 0.000000000000000D+00 0.757334636613902D+03
 0.704769582418140D+03 0.000000000000000D+00 0.000000000000000D+00 -.704769582418140D+03
 0.103149526565573D+03 0.235261233895857D+02 -.180139483059049D+02 -.380340987982088D+02
 0.760679522892123D+01 -.309675030524746D+01 0.495853540174170D+01 -.486686735707520D+01
 0.631727226125392D+03 -.362446508401634D+03 0.304108643468677D+03 0.418604526663518D+03
 0.638616425460938D+03 0.398676344817904D+03 -.315308887011732D+03 -.375703560508234D+03
 0.810042456512177D+02 -.566592095006090D+02 0.242556564472181D+02 0.525650541957624D+02
0.771611257107D-04 0.000000000000D+00 0.000000000000D+00 0.335928985679D-05 0.000000000000D+00  7 1 -1 23 -11 11 23 21 0 0.32057894D+00 0.35136848D-01 0.29769766D+06 0.29769766D+06 0.29769766D+06 0.10847995D+01  1  2  2  1  7  1        1 0.190701180890D-03 0.100000000000D+01
-.399993508449D-05 0.000000000000D+00 -.296319039720D-06 0.335928985679D-05 0.000000000000D+00  7 1 -1 23 -11 11 23 21 2 0.32057894D+00 0.35136848D-01 0.29769766D+06 0.29769766D+06 0.29769766D+06 0.10847995D+01  1  2  3  1  7  1        1 -.116334015056D-04 0.100000000000D+01
0.468684208391D-05 0.000000000000D+00 0.000000000000D+00 0.335928985679D-05 0.000000000000D+00  7 1 -1 23 -11 11 23 21 2 0.32057894D+00 0.35136848D-01 0.29769766D+06 0.29769766D+06 0.29769766D+06 0.10847995D+01  1  2 15  1  7  1        1 0.136312001579D-04 0.100000000000D+01
0.227500718009D-03 0.000000000000D+00 0.000000000000D+00 0.335928985679D-05 0.000000000000D+00  7 1 -1 23 -11 11 23 21 2 0.35517325D+00 0.35136848D-01 0.33229241D+06 0.33229241D+06 0.33229241D+06 0.10812822D+01  1  2 12  1  7  1        1 0.460894523805D-03 0.100000000000D+01
-.229959609310D-03 0.000000000000D+00 0.000000000000D+00 0.335928985679D-05 0.000000000000D+00  7 1 -1 23 -11 11 23 21 2 0.32057894D+00 0.35136848D-01 0.29769766D+06 0.29769766D+06 0.29769766D+06 0.10847995D+01  1  2  4  1  7  1        1 -.668813970392D-03 0.100000000000D+01
-.474158940550D-03 0.000000000000D+00 -.777122446498D-04 0.335928985679D-05 0.000000000000D+00  7 1 -1 23 -11 11 23 21 2 0.35466524D+00 0.35136848D-01 0.29769766D+06 0.29769766D+06 0.29769766D+06 0.10847995D+01  1  2  5  1  7  1        1 -.978015413826D-03 0.100000000000D+01
0.479954174500D-03 0.000000000000D+00 0.773171945179D-04 0.335928985679D-05 0.000000000000D+00  7 1 -1 23 -11 11 23 21 2 0.32057894D+00 0.35136848D-01 0.29769766D+06 0.29769766D+06 0.29769766D+06 0.10847995D+01  1  2  6  1  7  1        1 0.139589755791D-02 0.100000000000D+01
0.377394000264D-05 0.000000000000D+00 0.000000000000D+00 0.335928985679D-05 0.000000000000D+00  7 21 -1 23 -11 11 23 -1 2 0.35517325D+00 0.35136848D-01 0.33229241D+06 0.33229241D+06 0.33229241D+06 0.10812822D+01  1  2 12  3  7  1        1 0.300334350077D-05 0.100000000000D+01
-.750957149210D-05 0.000000000000D+00 -.127361255226D-05 0.335928985679D-05 0.000000000000D+00  7 21 -1 23 -11 11 23 -1 2 0.35466524D+00 0.35136848D-01 0.29769766D+06 0.29769766D+06 0.29769766D+06 0.10847995D+01  1  2  5  3  7  1        1 -.613336573232D-05 0.100000000000D+01
  </mgrwgt>
  </event>
  <event>
  8     66 0.56006291E-06 0.29919855E+03 0.75467711E-02 0.99855758E-01
        1 -1    0    0  501    0 0.00000000E+00 0.00000000E+00 0.66035684E+03 0.66035692E+03 0.32000000E+00 0.0000E+00 0.9000E+01
       -1 -1    0    0    0  501 0.00000000E+00 0.00000000E+00 -.16188866E+03 0.16188898E+03 0.32000000E+00 0.0000E+00 0.9000E+01
       25  2    1    2    0    0 0.19326843E+03 0.13675784E+03 0.38665728E+03 0.54417164E+03 0.30093775E+03 0.0000E+00 0.0000E+00
       23  2    1    2    0    0 -.19326843E+03 -.13675784E+03 0.11181090E+03 0.27807426E+03 0.93638804E+02 0.0000E+00 0.0000E+00
       23  1    3    3    0    0 0.15691844E+03 -.48353834E+01 0.30159211E+03 0.35202249E+03 0.91188000E+02 0.0000E+00 0.9000E+01
      -11  1    4    4    0    0 -.61215083E+02 -.11002529E+02 0.64674218E+02 0.89727903E+02 0.51099893E-03 0.0000E+00 0.9000E+01
       11  1    4    4    0    0 -.13205334E+03 -.12575531E+03 0.47136685E+02 0.18834636E+03 0.51099893E-03 0.0000E+00 0.9000E+01
       23  1    3    3    0    0 0.36349985E+02 0.14159323E+03 0.85065164E+02 0.19214915E+03 0.91188000E+02 0.0000E+00 0.9000E+01
#aMCatNLO 1  0  0  1  2 0.47254867D+02 0.00000000D+00  -5  7  0 0.00000000D+00 0.00000000D+00 0.00000000D+00 0.00000000D+00 0.00000000D+00
  <mgrwgt>
 0.7910400144D-04    4    2    0
 0.326962458230283D+03 0.000000000000000D+00 0.000000000000000D+00 0.326962458230283D+03
 0.326962458230283D+03 0.000000000000000D+00 0.000000000000000D+00 -.326962458230283D+03
 0.212738454577885D+03 0.156918441088977D+03 -.483538337723726D+01 0.110885619563527D+03
 0.635246642868898D+02 -.612150834609048D+02 -.110025293125543D+02 0.129244295178898D+02
 0.200895976117111D+03 -.132053342209035D+03 -.125755313380506D+03 -.843013000376681D+02
 0.176765821478680D+03 0.363499845809631D+02 0.141593226070297D+03 -.395087490437491D+02
 0.000000000000000D+00 0.000000000000000D+00 -.000000000000000D+00 -.000000000000000D+00
 0.340505875326352D+03 0.000000000000000D+00 0.000000000000000D+00 0.340505875326352D+03
 0.371803947694513D+03 0.000000000000000D+00 0.000000000000000D+00 -.371803947694513D+03
 0.204226968205056D+03 0.145178678600354D+03 0.457535267458069D+01 0.110885619563527D+03
 0.666445641249188D+02 -.648800296204273D+02 -.806466400354037D+01 0.129244295178898D+02
 0.203181624600260D+03 -.143430244945319D+03 -.116635450108815D+03 -.843013000376681D+02
 0.181576936057162D+03 0.262607574337540D+02 0.149680872966155D+03 -.395087490437491D+02
 0.566797300334680D+02 0.368708385316382D+02 -.295561115283800D+02 -.312980723681609D+02
0.304076466729D-05 0.000000000000D+00 0.000000000000D+00 0.295364153393D-07 0.000000000000D+00  7 1 -1 23 -11 11 23 21 0 0.10159339D+00 0.24905979D-01 0.89519770D+05 0.89519770D+05 0.89519770D+05 0.11256891D+01  1  2  2  1  7  1        1 0.147316120416D-03 0.100000000000D+01
-.167313995091D-06 0.000000000000D+00 -.116773369741D-07 0.295364153393D-07 0.000000000000D+00  7 1 -1 23 -11 11 23 21 2 0.10159339D+00 0.24905979D-01 0.89519770D+05 0.89519770D+05 0.89519770D+05 0.11256891D+01  1  2  3  1  7  1        1 -.102715664282D-04 0.100000000000D+01
0.194852843612D-06 0.000000000000D+00 0.000000000000D+00 0.295364153393D-07 0.000000000000D+00  7 1 -1 23 -11 11 23 21 2 0.10159339D+00 0.24905979D-01 0.89519770D+05 0.89519770D+05 0.89519770D+05 0.11256891D+01  1  2 15  1  7  1        1 0.119622027182D-04 0.100000000000D+01
-.113864903981D-05 0.000000000000D+00 0.000000000000D+00 0.295364153393D-07 0.000000000000D+00  7 1 -1 23 -11 11 23 21 2 0.10159339D+00 0.24905979D-01 0.89519770D+05 0.89519770D+05 0.89519770D+05 0.11256891D+01  1  2  4  1  7  1        1 -.699027552621D-04 0.100000000000D+01
  </mgrwgt>
  </event>
  <event>
  9     66 -.56006291E-06 0.25469159E+03 0.75467711E-02 0.10172178E+00
        1 -1    0    0  502    0 0.00000000E+00 0.00000000E+00 0.53097254E+03 0.53097264E+03 0.32000000E+00 0.0000E+00 0.9000E+01
       -1 -1    0    0    0  501 0.00000000E+00 0.00000000E+00 -.23713441E+03 0.23713463E+03 0.32000000E+00 0.0000E+00 0.9000E+01
       25  2    1    2    0    0 0.23964398E+03 -.99168068E+01 0.17751248E+02 0.38445243E+03 0.29993496E+03 0.0000E+00 0.0000E+00
       23  2    1    2    0    0 -.19148888E+03 0.44940654E+01 0.25373116E+03 0.33028198E+03 0.89546091E+02 0.0000E+00 0.0000E+00
       23  1    3    3    0    0 0.53306142E+02 -.62587064E+01 -.10024871E+03 0.14575929E+03 0.91188000E+02 0.0000E+00 0.9000E+01
      -13  1    4    4    0    0 -.10029418E+03 0.26221765E+02 0.73340091E+02 0.12698537E+03 0.10565837E+00 0.0000E+00 0.9000E+01
       13  1    4    4    0    0 -.91194692E+02 -.21727700E+02 0.18039107E+03 0.20329661E+03 0.10565837E+00 0.0000E+00 0.9000E+01
       23  1    3    3    0    0 0.18633784E+03 -.36581004E+01 0.11799996E+03 0.23869314E+03 0.91188000E+02 0.0000E+00 0.9000E+01
       21  1    1    2  502  501 -.48155104E+02 0.54227414E+01 0.22355726E+02 0.53372850E+02 0.75000000E+00 0.0000E+00 0.9000E+01
#aMCatNLO 2  0  0  1  2 0.48459469D+02 0.00000000D+00  -5  7  0 0.00000000D+00 0.00000000D+00 0.00000000D+00 0.00000000D+00 0.00000000D+00
  <mgrwgt>
 -.3421429249D-04    2    2    0
 0.329694655683798D+03 0.000000000000000D+00 0.000000000000000D+00 0.329694655683798D+03
 0.329694655683798D+03 0.000000000000000D+00 0.000000000000000D+00 -.329694655683798D+03
 0.195323215364836D+03 0.389366328348094D+02 -.464055742456527D+01 -.168221018207401D+03
 0.114988377173449D+03 -.108394978790877D+03 0.271340601791626D+02 0.271403433305910D+02
 0.152571149728962D+03 -.102071252101096D+03 -.205029568477074D+02 0.111530462137628D+03
 0.196506569100349D+03 0.171529598057163D+03 -.199054590688996D+01 0.295502127391820D+02
 0.000000000000000D+00 -.000000000000000D+00 0.000000000000000D+00 0.000000000000000D+00
 0.355965407043041D+03 0.000000000000000D+00 0.000000000000000D+00 0.355965407043041D+03
 0.353713928640962D+03 0.000000000000000D+00 0.000000000000000D+00 -.353713928640962D+03
 0.198731674539695D+03 0.533061417588819D+02 -.625870636781399D+01 -.168221018207401D+03
 0.107159267987482D+03 -.100294197271898D+03 0.262218319935171D+02 0.271403433305910D+02
 0.145696978131993D+03 -.911946797380358D+02 -.217277665589126D+02 0.111530462137628D+03
 0.209579670886415D+03 0.186337839241143D+03 -.365810044545089D+01 0.295502127391820D+02
 0.485117441384179D+02 -.481551039900909D+02 0.542274137866037D+01 0.225147840207838D+01
-.296573579785D-05 0.000000000000D+00 0.000000000000D+00 0.295160468670D-06 0.000000000000D+00  7 1 -1 23 -13 13 23 21 2 0.84238911D-01 0.34004603D-01 0.78167536D+05 0.78167536D+05 0.78167536D+05 0.11306076D+01  1  2 13  1  7  1        1 -.143566273869D-03 0.100000000000D+01
0.243802160812D-05 0.000000000000D+00 0.000000000000D+00 0.295160468670D-06 0.861524493683D-09  7 1 -1 23 -13 13 23 21 2 0.81687440D-01 0.36481943D-01 0.78167536D+05 0.78167536D+05 0.78167536D+05 0.11306076D+01  1  2  1  1  7  1        1 0.109351981382D-03 0.100000000000D+01
  </mgrwgt>
  </event>
  <event>
  9     66 0.56006291E-06 0.17746714E+03 0.75467711E-02 0.10720042E+00
        3 -1    0    0  501    0 0.00000000E+00 0.00000000E+00 0.11677325E+04 0.11677326E+04 0.50000000E+00 0.0000E+00 0.9000E+01
       21 -1    0    0  502  501 0.00000000E+00 0.00000000E+00 -.49140851E+02 0.49146574E+02 0.75000000E+00 0.0000E+00 0.9000E+01
       25  2    1    2    0    0 -.11114230E+03 -.19463486E+02 0.70038142E+03 0.77013995E+03 0.29974985E+03 0.0000E+00 0.0000E+00
       23  2    1    2    0    0 0.91254072E+02 0.19101766E+02 0.30183947E+03 0.32867960E+03 0.90725022E+02 0.0000E+00 0.0000E+00
       23  1    3    3    0    0 -.36498313E+01 -.21921767E+02 0.53417703E+02 0.10799346E+03 0.91188000E+02 0.0000E+00 0.9000E+01
      -11  1    4    4    0    0 -.12082776E+02 0.13919124E+02 0.10191309E+03 0.10356647E+03 0.51099893E-03 0.0000E+00 0.9000E+01
       11  1    4    4    0    0 0.10333685E+03 0.51826418E+01 0.19992638E+03 0.22511313E+03 0.51099893E-03 0.0000E+00 0.9000E+01
       23  1    3    3    0    0 -.10749247E+03 0.24582808E+01 0.64696372E+03 0.66214649E+03 0.91188000E+02 0.0000E+00 0.9000E+01
        3  1    1    2  502    0 0.19888230E+02 0.36172073E+00 0.11637076E+03 0.11805963E+03 0.50000000E+00 0.0000E+00 0.9000E+01
#aMCatNLO 2  0  0  2  1 0.19891519D+02 0.00000000D+00  -5  7  0 0.00000000D+00 0.00000000D+00 0.00000000D+00 0.00000000D+00 0.00000000D+00
  <mgrwgt>
 0.3186033049D-05    1    2    0
 0.225034453396993D+03 0.000000000000000D+00 0.000000000000000D+00 0.225034453396993D+03
 0.225034453396993D+03 0.000000000000000D+00 0.000000000000000D+00 -.225034453396993D+03
 0.144530023429983D+03 0.273456767747550D+01 -.218056496572454D+02 -.109957774219535D+03
 0.253875843010571D+02 -.109504773198961D+02 0.139397175561141D+02 0.181741783188536D+02
 0.108973037247370D+03 0.108046757088690D+03 0.526830418892221D+01 -.131630581745730D+02
 0.171178261815575D+03 -.998308474462697D+02 0.259762791220911D+01 0.104946654075254D+03
 0.000000000000000D+00 0.000000000000000D+00 0.000000000000000D+00 0.000000000000000D+00
 0.250385269100677D+03 0.000000000000000D+00 0.000000000000000D+00 0.250385269100677D+03
 0.229190209100805D+03 0.000000000000000D+00 0.000000000000000D+00 -.229190209100805D+03
 0.144567799301897D+03 -.364983136165273D+01 -.219217670526523D+02 -.109957774219535D+03
 0.258850580671262D+02 -.120827757425397D+02 0.139191236767442D+02 0.181741783188536D+02
 0.104300671301644D+03 0.103336848009941D+03 0.518264187811174D+01 -.131630581745730D+02
 0.175754732517968D+03 -.107492470957420D+03 0.245828076907929D+01 0.104946654075254D+03
 0.290672170128479D+02 0.198882300516718D+02 0.361720728717081D+00 0.211950599998723D+02
0.147053286351D-07 0.000000000000D+00 0.000000000000D+00 0.134885077326D-06 0.876030927062D-11  7 3 21 23 -11 11 23 3 2 0.17964994D+00 0.75605093D-02 0.35462383D+05 0.35462383D+05 0.35462383D+05 0.11606551D+01  1  2  1  4  7  2       -3 0.318603304857D-05 0.100000000000D+01
  </mgrwgt>
  </event>
  <event>
  7     66 0.56006291E-06 0.16831314E+03 0.75467711E-02 0.96724720E-01
        1 -1    0    0  501    0 0.00000000E+00 0.00000000E+00 0.31388488E+03 0.31388505E+03 0.32000000E+00 0.0000E+00 0.9000E+01
       -1 -1    0    0    0  501 0.00000000E+00 0.00000000E+00 -.13134505E+04 0.13134506E+04 0.32000000E+00 0.0000E+00 0.9000E+01
       25  2    1    2    0    0 -.35240131E+03 0.15900997E+03 0.58252245E+02 0.49304103E+03 0.30037523E+03 0.0000E+00 0.0000E+00
       23  1    3    3    0    0 -.16578875E+03 0.65258663E+02 0.14716573E+03 0.24843029E+03 0.91188000E+02 0.0000E+00 0.9000E+01
      -13  1    1    2    0    0 0.28952084E+03 -.89922191E+02 -.91246774E+03 0.96151219E+03 0.10565837E+00 0.0000E+00 0.9000E+01
       13  1    1    2    0    0 0.62880470E+02 -.69087777E+02 -.14535016E+03 0.17278239E+03 0.10565837E+00 0.0000E+00 0.9000E+01
       23  1    3    3    0    0 -.18661257E+03 0.93751305E+02 -.88913489E+02 0.24461075E+03 0.91188000E+02 0.0000E+00 0.9000E+01
#aMCatNLO 1  0  0  2  1 0.97253633D+01 0.00000000D+00  -5  7  0 0.00000000D+00 0.00000000D+00 0.00000000D+00 0.00000000D+00 0.00000000D+00
  <mgrwgt>
 0.9713084490D-04    8    2    0
 0.642084440263732D+03 0.000000000000000D+00 0.000000000000000D+00 0.642084440263732D+03
 0.642084440263732D+03 0.000000000000000D+00 0.000000000000000D+00 -.642084440263732D+03
 0.429368193576200D+03 -.165788753383154D+03 0.652586653038510D+02 0.379864699814695D+03
 0.508213490257901D+03 0.289520992449173D+03 -.899222418781722D+02 -.407887897622578D+03
 0.105817529669169D+03 0.628803303909038D+02 -.690877292463618D+02 -.497021056173436D+02
 0.240769667024195D+03 -.186612569456923D+03 0.937513058206830D+02 0.777253034252266D+02
 0.000000000000000D+00 0.000000000000000D+00 -.000000000000000D+00 0.000000000000000D+00
 0.648075064985514D+03 0.000000000000000D+00 0.000000000000000D+00 0.648075064985514D+03
 0.646062135589272D+03 0.000000000000000D+00 0.000000000000000D+00 -.646062135589272D+03
 0.430424026667976D+03 -.167375617093269D+03 0.681014245549474D+02 0.379864699814695D+03
 0.506564713747004D+03 0.287648080985409D+03 -.865670473796379D+02 -.407887897622578D+03
 0.105131591808830D+03 0.624909950402548D+02 -.683902612390078D+02 -.497021056173436D+02
 0.242085374198069D+03 -.187503744236272D+03 0.953477852991590D+02 0.777253034252266D+02
 0.993149415290707D+01 0.474028530387662D+01 -.849190123546076D+01 0.201292939624288D+01
0.528450400174D-04 0.000000000000D+00 0.000000000000D+00 0.474685132170D-08 0.000000000000D+00  7 1 -1 23 -13 13 23 21 0 0.48289997D-01 0.20206933D+00 0.16999591D+06 0.16999591D+06 0.16999591D+06 0.11032885D+01  1  2  2  2  7  2       -1 0.749791475494D-04 0.100000000000D+01
-.223545767331D-05 0.000000000000D+00 -.202938868085D-06 0.474685132170D-08 0.000000000000D+00  7 1 -1 23 -13 13 23 21 2 0.48289997D-01 0.20206933D+00 0.16999591D+06 0.16999591D+06 0.16999591D+06 0.11032885D+01  1  2  3  2  7  2       -1 -.386083199521D-05 0.100000000000D+01
0.321740290717D-05 0.000000000000D+00 0.000000000000D+00 0.474685132170D-08 0.000000000000D+00  7 1 -1 23 -13 13 23 21 2 0.48289997D-01 0.20206933D+00 0.16999591D+06 0.16999591D+06 0.16999591D+06 0.11032885D+01  1  2 15  2  7  2       -1 0.555673776953D-05 0.100000000000D+01
0.162444092881D-04 0.000000000000D+00 0.000000000000D+00 0.474685132170D-08 0.000000000000D+00  7 1 -1 23 -13 13 23 21 2 0.48289997D-01 0.20425653D+00 0.17406899D+06 0.17406899D+06 0.17406899D+06 0.11024875D+01  1  2 12  2  7  2       -1 0.268664857353D-04 0.100000000000D+01
-.100725377222D-04 0.000000000000D+00 0.000000000000D+00 0.474685132170D-08 0.000000000000D+00  7 1 -1 23 -13 13 23 21 2 0.48289997D-01 0.20206933D+00 0.16999591D+06 0.16999591D+06 0.16999591D+06 0.11032885D+01  1  2  4  2  7  2       -1 -.173961584579D-04 0.100000000000D+01
0.248741199678D-09 0.000000000000D+00 0.000000000000D+00 0.474685132170D-08 0.325356484761D-09  7 1 -1 23 -13 13 23 21 2 0.48740541D-01 0.20332114D+00 0.17406899D+06 0.17406899D+06 0.17406899D+06 0.11024875D+01  1  2 11  2  7  2       -1 0.413467701944D-09 0.100000000000D+01
0.101453664419D-05 0.000000000000D+00 0.000000000000D+00 0.474685132170D-08 0.000000000000D+00  7 1 21 23 -13 13 23 1 2 0.48289997D-01 0.20425653D+00 0.17406899D+06 0.17406899D+06 0.17406899D+06 0.11024875D+01  1  2 12  4  7  2       -1 0.109850419882D-04 0.100000000000D+01
0.813961436324D-12 0.000000000000D+00 0.000000000000D+00 0.474685132170D-08 0.374362254624D-12  7 1 21 23 -13 13 23 1 2 0.48740541D-01 0.20332114D+00 0.17406899D+06 0.17406899D+06 0.17406899D+06 0.11024875D+01  1  2 11  4  7  2       -1 0.884391408309D-11 0.100000000000D+01
  </mgrwgt>
  </event>
  <event>
  9     66 -.56006291E-06 0.52205101E+03 0.75467711E-02 0.94036049E-01
        1 -1    0    0  502    0 0.00000000E+00 0.00000000E+00 0.12056129E+04 0.12056130E+04 0.32000000E+00 0.0000E+00 0.9000E+01
       -1 -1    0    0    0  501 0.00000000E+00 0.00000000E+00 -.30233489E+03 0.30233506E+03 0.32000000E+00 0.0000E+00 0.9000E+01
       25  2    1    2    0    0 0.38445661E+03 0.29650306E+03 0.78659988E+03 0.97189776E+03 0.30020817E+03 0.0000E+00 0.0000E+00
       23  2    1    2    0    0 -.37487509E+03 -.29775811E+03 0.74650620E+02 0.49291956E+03 0.90585578E+02 0.0000E+00 0.0000E+00
       23  1    3    3    0    0 0.10546221E+03 -.11285946E+02 0.25762577E+03 0.29314832E+03 0.91188000E+02 0.0000E+00 0.9000E+01
      -11  1    4    4    0    0 -.20526022E+03 -.15591229E+03 -.52568441E+01 0.25781396E+03 0.51099893E-03 0.0000E+00 0.9000E+01
       11  1    4    4    0    0 -.16961487E+03 -.14184582E+03 0.79907464E+02 0.23510560E+03 0.51099893E-03 0.0000E+00 0.9000E+01
       23  1    3    3    0    0 0.27899440E+03 0.30778900E+03 0.52897411E+03 0.67874944E+03 0.91188000E+02 0.0000E+00 0.9000E+01
       21  1    1    2  502  501 -.95815184E+01 0.12550527E+01 0.42027523E+02 0.43130684E+02 0.75000000E+00 0.0000E+00 0.9000E+01
#aMCatNLO 2  0  0  1  2 0.96633665D+01 0.00000000D+00  -5  7  0 0.00000000D+00 0.00000000D+00 0.00000000D+00 0.00000000D+00 0.00000000D+00
  <mgrwgt>
 -.1777295491D-03    5    2    0
 0.592419611941276D+03 0.000000000000000D+00 0.000000000000000D+00 0.592419611941276D+03
 0.592419611941276D+03 0.000000000000000D+00 0.000000000000000D+00 -.592419611941276D+03
 0.174288428236387D+03 0.104049331965488D+03 -.111008777700761D+02 0.105412105108378D+03
 0.324051423292568D+03 -.207874621258377D+03 -.155569840484560D+03 -.193895568557495D+03
 0.233798434675205D+03 -.171500541551749D+03 -.141598820736187D+03 -.721044122793741D+02
 0.452700937678391D+03 0.275325830844639D+03 0.308269538990823D+03 0.160587875728491D+03
 0.000000000000000D+00 -.000000000000000D+00 0.000000000000000D+00 0.000000000000000D+00
 0.614122357348544D+03 0.000000000000000D+00 0.000000000000000D+00 0.614122357348544D+03
 0.593515970171707D+03 0.000000000000000D+00 0.000000000000000D+00 -.593515970171707D+03
 0.175147406176043D+03 0.105462211513330D+03 -.112859463729838D+02 0.105412105108378D+03
 0.322545956028080D+03 -.205260223640953D+03 -.155912292121885D+03 -.193895568557495D+03
 0.232569315501717D+03 -.169614869302061D+03 -.141845818952931D+03 -.721044122793741D+02
 0.454615951987222D+03 0.278994399865259D+03 0.307789004790753D+03 0.160587875728491D+03
 0.227596978271885D+02 -.958151843557506D+01 0.125505265704701D+01 0.206063871768367D+02
-.119923027367D-03 0.000000000000D+00 0.000000000000D+00 0.277336233107D-05 0.000000000000D+00  7 1 -1 23 -11 11 23 21 2 0.18563922D+00 0.46426673D-01 0.27757948D+06 0.27757948D+06 0.27757948D+06 0.10870565D+01  1  2 13  1  7  1        1 -.838966941227D-03 0.100000000000D+01
-.348944691877D-03 0.000000000000D+00 0.000000000000D+00 0.277336233107D-05 0.000000000000D+00  7 1 -1 23 -11 11 23 21 2 0.17892234D+00 0.46426673D-01 0.27253726D+06 0.27253726D+06 0.27253726D+06 0.10876502D+01  1  2  8  1  7  1        1 -.262743218360D-02 0.100000000000D+01
-.180357201330D-06 0.000000000000D+00 0.000000000000D+00 0.277336233107D-05 0.000000000000D+00  7 1 -1 23 -11 11 23 21 2 0.18562404D+00 0.46426673D-01 0.27253726D+06 0.27253726D+06 0.27253726D+06 0.10876502D+01  1  2  9  1  7  1        1 -.126425684460D-05 0.100000000000D+01
0.180235335886D-06 0.000000000000D+00 0.000000000000D+00 0.277336233107D-05 0.000000000000D+00  7 1 -1 23 -11 11 23 21 2 0.17892234D+00 0.46426673D-01 0.27253726D+06 0.27253726D+06 0.27253726D+06 0.10876502D+01  1  2 10  1  7  1        1 0.135710940201D-05 0.100000000000D+01
0.470826011990D-03 0.000000000000D+00 0.000000000000D+00 0.277336233107D-05 0.187281655882D-06  7 1 -1 23 -11 11 23 21 2 0.18547700D+00 0.46512592D-01 0.27757948D+06 0.27757948D+06 0.27757948D+06 0.10870565D+01  1  2  1  1  7  1        1 0.328857672320D-02 0.100000000000D+01
  </mgrwgt>
  </event>
  <event>
  8     66 0.56006291E-06 0.47219436E+03 0.75467711E-02 0.94465816E-01
        1 -1    0    0  501    0 0.00000000E+00 0.00000000E+00 0.98129196E+03 0.98129202E+03 0.32000000E+00 0.0000E+00 0.9000E+01
       -1 -1    0    0    0  501 0.00000000E+00 0.00000000E+00 -.33940584E+03 0.33940599E+03 0.32000000E+00 0.0000E+00 0.9000E+01
       25  2    1    2    0    0 -.42234459E+03 0.93401883E+01 -.32984812E+02 0.51927933E+03 0.30016802E+03 0.0000E+00 0.0000E+00
       23  2    1    2    0    0 0.42234459E+03 -.93401883E+01 0.67487093E+03 0.80141868E+03 0.91427157E+02 0.0000E+00 0.0000E+00
       23  1    3    3    0    0 -.31241622E+03 -.97602373E+02 -.18923535E+02 0.34029909E+03 0.91188000E+02 0.0000E+00 0.9000E+01
      -13  1    4    4    0    0 0.53359739E+02 0.17689711E+02 0.50001308E+02 0.75235162E+02 0.10565837E+00 0.0000E+00 0.9000E+01
       13  1    4    4    0    0 0.36898485E+03 -.27029899E+02 0.62486963E+03 0.72618351E+03 0.10565837E+00 0.0000E+00 0.9000E+01
       23  1    3    3    0    0 -.10992837E+03 0.10694256E+03 -.14061277E+02 0.17898025E+03 0.91188000E+02 0.0000E+00 0.9000E+01
#aMCatNLO 1  0  0  2  2 0.66587370D+02 0.00000000D+00  -5  7  0 0.00000000D+00 0.00000000D+00 0.00000000D+00 0.00000000D+00 0.00000000D+00
  <mgrwgt>
 0.2261266898D-03    4    2    0
 0.577110352110629D+03 0.000000000000000D+00 0.000000000000000D+00 0.577110352110629D+03
 0.577110352110629D+03 0.000000000000000D+00 0.000000000000000D+00 -.577110352110629D+03
 0.399905390505623D+03 -.312416219255515D+03 -.976023729201629D+02 -.210900338448990D+03
 0.582792587047305D+02 0.533593171433224D+02 0.176897704277069D+02 0.153729402323131D+02
 0.483421092084286D+03 0.368985270048487D+03 -.270299587149019D+02 0.311151416662499D+03
 0.212614962926617D+03 -.109928367936295D+03 0.106942561207358D+03 -.115624018445822D+03
 0.000000000000000D+00 -.000000000000000D+00 -.000000000000000D+00 0.000000000000000D+00
 0.727028874143301D+03 0.000000000000000D+00 0.000000000000000D+00 0.727028874143301D+03
 0.585511358220045D+03 0.000000000000000D+00 0.000000000000000D+00 -.585511358220045D+03
 0.385041541236921D+03 -.298495672422743D+03 -.797691539449923D+02 -.210900338448990D+03
 0.610747785275789D+02 0.554759869432596D+02 0.204013762643070D+02 0.153729402323131D+02
 0.496093999536994D+03 0.386356362481514D+03 -.477634332769532D+01 0.311151416662499D+03
 0.213929513017258D+03 -.102363866294820D+03 0.116633230390904D+03 -.115624018445822D+03
 0.156400400044592D+03 -.409728107072110D+02 -.524891093825233D+02 0.141517515923256D+03
0.344927553855D-04 0.000000000000D+00 0.000000000000D+00 0.422679793409D-05 0.000000000000D+00  7 1 -1 23 -13 13 23 21 0 0.15096801D+00 0.52216299D-01 0.22296751D+06 0.22296751D+06 0.22296751D+06 0.10942177D+01  1  2  2  2  7  2       -1 0.243790241036D-03 0.100000000000D+01
-.182246822227D-05 0.000000000000D+00 -.132461262831D-06 0.422679793409D-05 0.000000000000D+00  7 1 -1 23 -13 13 23 21 2 0.15096801D+00 0.52216299D-01 0.22296751D+06 0.22296751D+06 0.22296751D+06 0.10942177D+01  1  2  3  2  7  2       -1 -.154225389570D-04 0.100000000000D+01
0.221469446840D-05 0.000000000000D+00 0.000000000000D+00 0.422679793409D-05 0.000000000000D+00  7 1 -1 23 -13 13 23 21 2 0.15096801D+00 0.52216299D-01 0.22296751D+06 0.22296751D+06 0.22296751D+06 0.10942177D+01  1  2 15  2  7  2       -1 0.187417323932D-04 0.100000000000D+01
-.247951296602D-05 0.000000000000D+00 0.000000000000D+00 0.422679793409D-05 0.000000000000D+00  7 1 -1 23 -13 13 23 21 2 0.15096801D+00 0.52216299D-01 0.22296751D+06 0.22296751D+06 0.22296751D+06 0.10942177D+01  1  2  4  2  7  2       -1 -.209827446349D-04 0.100000000000D+01
  </mgrwgt>
  </event>
  <event>
  8     66 0.56006291E-06 0.29455900E+03 0.75467711E-02 0.89037666E-01
        1 -1    0    0  501    0 0.00000000E+00 0.00000000E+00 0.63761691E+03 0.63761699E+03 0.32000000E+00 0.0000E+00 0.9000E+01
       -1 -1    0    0    0  501 0.00000000E+00 0.00000000E+00 -.17677003E+03 0.17677032E+03 0.32000000E+00 0.0000E+00 0.9000E+01
       25  2    1    2    0    0 -.25248844E+03 0.58604842E+02 0.27407679E+03 0.48212458E+03 0.30023504E+03 0.0000E+00 0.0000E+00
       23  2    1    2    0    0 0.25248844E+03 -.58604842E+02 0.18677008E+03 0.33226273E+03 0.91271673E+02 0.0000E+00 0.0000E+00
       23  1    3    3    0    0 -.17926116E+03 0.13995410E+02 0.24723271E+02 0.20311801E+03 0.91188000E+02 0.0000E+00 0.9000E+01
      -13  1    4    4    0    0 0.15189261E+02 -.14456873E+02 -.76574080E+01 0.22324021E+02 0.10565837E+00 0.0000E+00 0.9000E+01
       13  1    4    4    0    0 0.23729918E+03 -.44147968E+02 0.19442749E+03 0.30993871E+03 0.10565837E+00 0.0000E+00 0.9000E+01
       23  1    3    3    0    0 -.73227286E+02 0.44609431E+02 0.24935352E+03 0.27900657E+03 0.91188000E+02 0.0000E+00 0.9000E+01
#aMCatNLO 1  0  0  2  1 0.74371216D+03 0.00000000D+00  -5  7  0 0.00000000D+00 0.00000000D+00 0.00000000D+00 0.00000000D+00 0.00000000D+00
  <mgrwgt>
 0.3288184808D-03    3    2    0
 0.335725651831783D+03 0.000000000000000D+00 0.000000000000000D+00 0.335725651831783D+03
 0.335725651831783D+03 0.000000000000000D+00 0.000000000000000D+00 -.335725651831783D+03
 0.229388321328893D+03 -.179261157798215D+03 0.139954103670993D+02 -.109422650358998D+03
 0.323316111727430D+02 0.151889635105495D+02 -.144568334644196D+02 -.246095191883685D+02
 0.242473343351317D+03 0.237299479924147D+03 -.441480082216215D+02 0.230918261243838D+02
 0.167258027810613D+03 -.732272856364818D+02 0.446094313189418D+02 0.110940343422983D+03
 0.000000000000000D+00 -.000000000000000D+00 -.000000000000000D+00 0.000000000000000D+00
 0.183084198424646D+04 0.000000000000000D+00 0.000000000000000D+00 0.183084198424646D+04
 0.604966699811939D+03 0.000000000000000D+00 0.000000000000000D+00 -.604966699811939D+03
 0.273839701703002D+03 -.862628678571451D+02 0.217389816004021D+03 -.109422650358998D+03
 0.406800184714261D+02 0.286817667566996D+02 0.150529639562174D+02 -.246095191883685D+02
 0.426655265277703D+03 0.360956775434501D+03 0.226299998284038D+03 0.230918261243838D+02
 0.260800378517251D+03 0.587939753976040D+01 0.217621825597759D+03 0.110940343422983D+03
 0.143383332008901D+04 -.309255071873816D+03 -.676364603842036D+03 0.122587528443452D+04
0.735803122718D-05 0.000000000000D+00 0.000000000000D+00 0.771675476977D-06 0.000000000000D+00  7 1 -1 23 -13 13 23 21 0 0.98094938D-01 0.27195418D-01 0.86765003D+05 0.86765003D+05 0.86765003D+05 0.11268170D+01  1  2  2  2  7  2       -1 0.324974295489D-03 0.100000000000D+01
-.400274289202D-06 0.000000000000D+00 -.282567773265D-07 0.771675476977D-06 0.000000000000D+00  7 1 -1 23 -13 13 23 21 2 0.98094938D-01 0.27195418D-01 0.86765003D+05 0.86765003D+05 0.86765003D+05 0.11268170D+01  1  2  3  2  7  2       -1 -.224466656807D-04 0.100000000000D+01
0.468824717914D-06 0.000000000000D+00 0.000000000000D+00 0.771675476977D-06 0.000000000000D+00  7 1 -1 23 -13 13 23 21 2 0.98094938D-01 0.27195418D-01 0.86765003D+05 0.86765003D+05 0.86765003D+05 0.11268170D+01  1  2 15  2  7  2       -1 0.262908510233D-04 0.100000000000D+01
  </mgrwgt>
  </event>
  <event>
  9     66 0.56006291E-06 0.40725939E+03 0.75467711E-02 0.96084019E-01
        1 -1    0    0  501    0 0.00000000E+00 0.00000000E+00 0.10311421E+04 0.10311422E+04 0.32000000E+00 0.0000E+00 0.9000E+01
       -1 -1    0    0    0  502 0.00000000E+00 0.00000000E+00 -.25099473E+03 0.25099494E+03 0.32000000E+00 0.0000E+00 0.9000E+01
       25  2    1    2    0    0 -.32427584E+03 -.19293703E+03 0.53986677E+03 0.72411606E+03 0.30084618E+03 0.0000E+00 0.0000E+00
       23  2    1    2    0    0 0.27559480E+03 0.23353779E+03 0.74007381E+02 0.38007269E+03 0.92118239E+02 0.0000E+00 0.0000E+00
       23  1    3    3    0    0 -.20756270E+02 -.61941776E+02 0.42432588E+02 0.11993074E+03 0.91188000E+02 0.0000E+00 0.9000E+01
      -11  1    4    4    0    0 0.94210016E+02 0.99693594E+02 -.14434084E+02 0.13792274E+03 0.51099893E-03 0.0000E+00 0.9000E+01
       11  1    4    4    0    0 0.18138478E+03 0.13384419E+03 0.88441464E+02 0.24214995E+03 0.51099893E-03 0.0000E+00 0.9000E+01
       23  1    3    3    0    0 -.30351957E+03 -.13099526E+03 0.49743418E+03 0.60418532E+03 0.91188000E+02 0.0000E+00 0.9000E+01
       21  1    1    2  501  502 0.48681041E+02 -.40600756E+02 0.16627322E+03 0.17794834E+03 0.75000000E+00 0.0000E+00 0.9000E+01
#aMCatNLO 2  0  0  2  1 0.63389787D+02 0.00000000D+00  -5  7  0 0.00000000D+00 0.00000000D+00 0.00000000D+00 0.00000000D+00 0.00000000D+00
  <mgrwgt>
 0.2226881009D-04    1    2    0
 0.457813571949192D+03 0.000000000000000D+00 0.000000000000000D+00 0.457813571949192D+03
 0.457813571949192D+03 0.000000000000000D+00 0.000000000000000D+00 -.457813571949192D+03
 0.117823451914283D+03 -.145504451619978D+02 -.671175318375571D+02 -.291656637609988D+02
 0.176591594903744D+03 0.103560839680029D+03 0.918948600444718D+02 -.109613313848375D+03
 0.236431555319317D+03 0.193826854070023D+03 0.123467308158691D+03 -.555594709124931D+02
 0.384780541761038D+03 -.282837248588054D+03 -.148244636365606D+03 0.194338448521867D+03
 0.000000000000000D+00 0.000000000000000D+00 -.000000000000000D+00 0.000000000000000D+00
 0.550852364470811D+03 0.000000000000000D+00 0.000000000000000D+00 0.550852364470811D+03
 0.469835366629750D+03 0.000000000000000D+00 0.000000000000000D+00 -.469835366629750D+03
 0.115902949263766D+03 -.207562700474882D+02 -.619417760088886D+02 -.291656637609988D+02
 0.175583081375469D+03 0.942100159858407D+02 0.996935944804375D+02 -.109613313848375D+03
 0.232167098315199D+03 0.181384780040838D+03 0.133844194127202D+03 -.555594709124931D+02
 0.394165661276007D+03 -.303519566490100D+03 -.130995257047447D+03 0.194338448521867D+03
 0.102868940870119D+03 0.486810405109103D+02 -.406007555513036D+02 0.810169978410608D+02
0.165565034565D-05 0.000000000000D+00 0.000000000000D+00 0.362475117670D-06 0.592477352031D-09  7 1 -1 23 -11 11 23 21 2 0.15863681D+00 0.38614484D-01 0.19407416D+06 0.19407416D+06 0.19407416D+06 0.10988300D+01  1  2  1  2  7  2       -1 0.222688100914D-04 0.100000000000D+01
  </mgrwgt>
  </event>
  <event>
  8     66 0.56006291E-06 0.23046319E+03 0.75467711E-02 0.97984957E-01
        3 -1    0    0  501    0 0.00000000E+00 0.00000000E+00 0.63259105E+03 0.63259125E+03 0.50000000E+00 0.0000E+00 0.9000E+01
       -3 -1    0    0    0  501 0.00000000E+00 0.00000000E+00 -.45711204E+03 0.45711231E+03 0.50000000E+00 0.0000E+00 0.9000E+01
       25  2    1    2    0    0 0.32595219E+02 0.16955223E+03 0.55813985E+03 0.65672885E+03 0.29993715E+03 0.0000E+00 0.0000E+00
       23  2    1    2    0    0 -.32595219E+02 -.16955223E+03 -.38266084E+03 0.43297471E+03 0.10595929E+03 0.0000E+00 0.0000E+00
       23  1    3    3    0    0 0.83490361E+01 0.16321346E+03 0.15605780E+03 0.24367525E+03 0.91188000E+02 0.0000E+00 0.9000E+01
      -13  1    4    4    0    0 -.44998525E+02 -.12088814E+03 -.16415414E+03 0.20877117E+03 0.10565837E+00 0.0000E+00 0.9000E+01
       13  1    4    4    0    0 0.12403306E+02 -.48664092E+02 -.21850670E+03 0.22420354E+03 0.10565837E+00 0.0000E+00 0.9000E+01
       23  1    3    3    0    0 0.24246183E+02 0.63387721E+01 0.40208204E+03 0.41305360E+03 0.91188000E+02 0.0000E+00 0.9000E+01
#aMCatNLO 1  0  0  1  2 0.20931571D+03 0.00000000D+00  -5  7  0 0.00000000D+00 0.00000000D+00 0.00000000D+00 0.00000000D+00 0.00000000D+00
  <mgrwgt>
 0.1772690902D-04    4    2    0
 0.537740867779075D+03 0.000000000000000D+00 0.000000000000000D+00 0.537740867779075D+03
 0.537740867779075D+03 0.000000000000000D+00 0.000000000000000D+00 -.537740867779075D+03
 0.221434650708548D+03 0.834903615484292D+01 0.163213458417597D+03 0.118362636744325D+03
 0.238315774531003D+03 -.449985756515185D+02 -.120888201709609D+03 -.200388570699686D+03
 0.262820600714349D+03 0.124033563004116D+02 -.486640294285165D+02 -.257977978037113D+03
 0.352910709604249D+03 0.242461831962640D+02 0.633877272052888D+01 0.340003911992473D+03
 0.000000000000000D+00 0.000000000000000D+00 0.000000000000000D+00 -.000000000000000D+00
 0.581563418785311D+03 0.000000000000000D+00 0.000000000000000D+00 0.581563418785311D+03
 0.872538485238563D+03 0.000000000000000D+00 0.000000000000000D+00 -.872538485238563D+03
 0.193857593505146D+03 0.356354512725403D+01 0.123462960375424D+03 0.118362636744325D+03
 0.267193385542762D+03 -.508236532531416D+02 -.169273985835818D+03 -.200388570699686D+03
 0.276866823600554D+03 0.618443609964670D+01 -.100321252029033D+03 -.257977978037113D+03
 0.357743654327125D+03 0.160571786345497D+02 -.616828802135428D+02 0.340003911992473D+03
 0.358440447048286D+03 0.250184933916911D+02 0.207815157702970D+03 -.290975066453253D+03
0.239870031499D-04 0.000000000000D+00 0.000000000000D+00 0.213760996539D-07 0.000000000000D+00  7 3 -3 23 -13 13 23 21 0 0.97321736D-01 0.70324965D-01 0.53113284D+05 0.53113284D+05 0.53113284D+05 0.11449951D+01  1  2  2  1  7  1        3 0.184328045922D-04 0.100000000000D+01
-.169437376848D-06 0.000000000000D+00 -.921164080187D-07 0.213760996539D-07 0.000000000000D+00  7 3 -3 23 -13 13 23 21 2 0.97321736D-01 0.70324965D-01 0.53113284D+05 0.53113284D+05 0.53113284D+05 0.11449951D+01  1  2  3  1  7  1        3 -.170699351139D-06 0.100000000000D+01
0.137920315871D-05 0.000000000000D+00 0.000000000000D+00 0.213760996539D-07 0.000000000000D+00  7 3 -3 23 -13 13 23 21 2 0.97321736D-01 0.70324965D-01 0.53113284D+05 0.53113284D+05 0.53113284D+05 0.11449951D+01  1  2 15  1  7  1        3 0.138947550215D-05 0.100000000000D+01
-.191044269591D-05 0.000000000000D+00 0.000000000000D+00 0.213760996539D-07 0.000000000000D+00  7 3 -3 23 -13 13 23 21 2 0.97321736D-01 0.70324965D-01 0.53113284D+05 0.53113284D+05 0.53113284D+05 0.11449951D+01  1  2  4  1  7  1        3 -.192467172619D-05 0.100000000000D+01
  </mgrwgt>
  </event>
  <event>
  8     66 0.56006291E-06 0.21188020E+03 0.75467711E-02 0.96472615E-01
        1 -1    0    0  501    0 0.00000000E+00 0.00000000E+00 0.13528788E+03 0.13528826E+03 0.32000000E+00 0.0000E+00 0.9000E+01
       -1 -1    0    0    0  501 0.00000000E+00 0.00000000E+00 -.93737873E+03 0.93737879E+03 0.32000000E+00 0.0000E+00 0.9000E+01
       25  2    1    2    0    0 -.20716492E+03 -.18160282E+03 -.57224210E+03 0.70241766E+03 0.30005443E+03 0.0000E+00 0.0000E+00
       23  2    1    2    0    0 0.20716492E+03 0.18160282E+03 -.22984876E+03 0.37024938E+03 0.91418094E+02 0.0000E+00 0.0000E+00
       23  1    3    3    0    0 -.57662010E+02 -.20179088E+03 -.35933208E+03 0.42600383E+03 0.91188000E+02 0.0000E+00 0.9000E+01
      -11  1    4    4    0    0 0.19964700E+03 0.19008378E+03 -.20695666E+03 0.34470542E+03 0.51099893E-03 0.0000E+00 0.9000E+01
       11  1    4    4    0    0 0.75179247E+01 -.84809670E+01 -.22892095E+02 0.25543962E+02 0.51099893E-03 0.0000E+00 0.9000E+01
       23  1    3    3    0    0 -.14950291E+03 0.20188065E+02 -.21291002E+03 0.27641383E+03 0.91188000E+02 0.0000E+00 0.9000E+01
#aMCatNLO 1  0  0  1  2 0.14614776D+03 0.00000000D+00  -5  7  0 0.00000000D+00 0.00000000D+00 0.00000000D+00 0.00000000D+00 0.00000000D+00
  <mgrwgt>
 0.2952008892D-03    9    2    0
 0.356112639668554D+03 0.000000000000000D+00 0.000000000000000D+00 0.356112639668554D+03
 0.356112639668554D+03 0.000000000000000D+00 0.000000000000000D+00 -.356112639668554D+03
 0.236924044029401D+03 -.576620104236447D+02 -.201790883065168D+03 -.614270572380648D+02
 0.286083781234194D+03 0.199646996415130D+03 0.190083784843950D+03 0.765059569384663D+02
 0.126906845600378D+02 0.751792468230905D+01 -.848096700836124D+01 -.571029611111364D+01
 0.176526769513475D+03 -.149502910673794D+03 0.201880652295792D+02 -.936860358928782D+01
 0.000000000000000D+00 0.000000000000000D+00 -.000000000000000D+00 0.000000000000000D+00
 0.497100239338736D+03 0.000000000000000D+00 0.000000000000000D+00 0.497100239338736D+03
 0.403510879963826D+03 0.000000000000000D+00 0.000000000000000D+00 -.403510879963826D+03
 0.218346887007206D+03 -.879658372432272D+02 -.166879716679131D+03 -.614270572380648D+02
 0.294645694774487D+03 0.160992375023150D+03 0.234615385655918D+03 0.765059569384663D+02
 0.106296359473650D+02 0.596567325166220D+01 -.669271404971982D+01 -.571029611111364D+01
 0.203443127391372D+03 -.174794536313590D+03 0.493249843434942D+02 -.936860358928782D+01
 0.173545774182131D+03 0.958023252820044D+02 -.110367939270561D+03 0.935893593749100D+02
0.195406630018D-04 0.000000000000D+00 0.000000000000D+00 0.909831386073D-06 0.000000000000D+00  7 1 -1 23 -11 11 23 21 0 0.20813553D-01 0.14421215D+00 0.11974994D+06 0.11974994D+06 0.11974994D+06 0.11153547D+01  1  2  2  1  7  1        1 0.249097826196D-03 0.100000000000D+01
-.108450771306D-05 0.000000000000D+00 -.750412911015D-07 0.909831386073D-06 0.000000000000D+00  7 1 -1 23 -11 11 23 21 2 0.20813553D-01 0.14421215D+00 0.11974994D+06 0.11974994D+06 0.11974994D+06 0.11153547D+01  1  2  3  1  7  1        1 -.171984490979D-04 0.100000000000D+01
0.123274136050D-05 0.000000000000D+00 0.000000000000D+00 0.909831386073D-06 0.000000000000D+00  7 1 -1 23 -11 11 23 21 2 0.20813553D-01 0.14421215D+00 0.11974994D+06 0.11974994D+06 0.11974994D+06 0.11153547D+01  1  2 15  1  7  1        1 0.195491828080D-04 0.100000000000D+01
0.122248732071D-04 0.000000000000D+00 0.000000000000D+00 0.909831386073D-06 0.000000000000D+00  7 1 -1 23 -11 11 23 21 2 0.30007544D-01 0.14421215D+00 0.18165016D+06 0.18165016D+06 0.18165016D+06 0.11010498D+01  1  2 12  1  7  1        1 0.115597267982D-03 0.100000000000D+01
-.155098203852D-04 0.000000000000D+00 0.000000000000D+00 0.909831386073D-06 0.000000000000D+00  7 1 -1 23 -11 11 23 21 2 0.20813553D-01 0.14421215D+00 0.11974994D+06 0.11974994D+06 0.11974994D+06 0.11153547D+01  1  2  4  1  7  1        1 -.245959390790D-03 0.100000000000D+01
-.213371073358D-04 0.000000000000D+00 -.824496549386D-05 0.909831386073D-06 0.000000000000D+00  7 1 -1 23 -11 11 23 21 2 0.32671713D-01 0.14421215D+00 0.11974994D+06 0.11974994D+06 0.11974994D+06 0.11153547D+01  1  2  5  1  7  1        1 -.188011051148D-03 0.100000000000D+01
0.234072679062D-04 0.000000000000D+00 0.747238178759D-05 0.909831386073D-06 0.000000000000D+00  7 1 -1 23 -11 11 23 21 2 0.20813553D-01 0.14421215D+00 0.11974994D+06 0.11974994D+06 0.11974994D+06 0.11153547D+01  1  2  6  1  7  1        1 0.371199485957D-03 0.100000000000D+01
0.545269796771D-06 0.000000000000D+00 0.000000000000D+00 0.909831386073D-06 0.000000000000D+00  7 21 -1 23 -11 11 23 -1 2 0.30007544D-01 0.14421215D+00 0.18165016D+06 0.18165016D+06 0.18165016D+06 0.11010498D+01  1  2 12  3  7  1        1 0.329420275952D-04 0.100000000000D+01
-.781555126997D-06 0.000000000000D+00 -.429104669015D-06 0.909831386073D-06 0.000000000000D+00  7 21 -1 23 -11 11 23 -1 2 0.32671713D-01 0.14421215D+00 0.11974994D+06 0.11974994D+06 0.11974994D+06 0.11153547D+01  1  2  5  3  7  1        1 -.420160102534D-04 0.100000000000D+01
  </mgrwgt>
  </event>
  <event>
  8     66 0.56006291E-06 0.11159417E+03 0.75467711E-02 0.10663852E+00
        1 -1    0    0  501    0 0.00000000E+00 0.00000000E+00 0.12154733E+04 0.12154733E+04 0.32000000E+00 0.0000E+00 0.9000E+01
       -1 -1    0    0    0  501 0.00000000E+00 0.00000000E+00 -.49973313E+02 0.49974337E+02 0.32000000E+00 0.0000E+00 0.9000E+01
       25  2    1    2    0    0 -.23502714E+02 0.30287195E+02 0.11139010E+04 0.11543535E+04 0.30047759E+03 0.0000E+00 0.0000E+00
       23  2    1    2    0    0 0.23502714E+02 -.30287195E+02 0.51598964E+02 0.11109419E+03 0.90607809E+02 0.0000E+00 0.0000E+00
       23  1    3    3    0    0 0.67827550E+02 0.53181299E+02 0.24140766E+03 0.27206936E+03 0.91188000E+02 0.0000E+00 0.9000E+01
      -11  1    4    4    0    0 0.50247422E+02 -.45049575E+02 0.39793047E+02 0.78343821E+02 0.51099893E-03 0.0000E+00 0.9000E+01
       11  1    4    4    0    0 -.26744708E+02 0.14762380E+02 0.11805917E+02 0.32750373E+02 0.51099893E-03 0.0000E+00 0.9000E+01
       23  1    3    3    0    0 -.91330264E+02 -.22894104E+02 0.87249333E+03 0.88228409E+03 0.91188000E+02 0.0000E+00 0.9000E+01
#aMCatNLO 1  0  0  1  2 0.35451615D+02 0.00000000D+00  -5  7  0 0.00000000D+00 0.00000000D+00 0.00000000D+00 0.00000000D+00 0.00000000D+00
  <mgrwgt>
 0.2403011488D-03    9    2    0
 0.246458719732993D+03 0.000000000000000D+00 0.000000000000000D+00 0.246458719732993D+03
 0.246458719732993D+03 0.000000000000000D+00 0.000000000000000D+00 -.246458719732993D+03
 0.127666236993094D+03 0.678275497441494D+02 0.531812992466965D+02 -.235497267524490D+02
 0.107038633506752D+03 0.502474221684906D+02 -.450495754185595D+02 -.830843028677607D+02
 0.561637399915312D+02 -.267447077342231D+02 0.147623801124922D+02 -.471291675235369D+02
 0.202048828974608D+03 -.913302641784169D+02 -.228941039406292D+02 0.153763197143747D+03
 0.000000000000000D+00 0.000000000000000D+00 -.000000000000000D+00 0.000000000000000D+00
 0.266879591531477D+03 0.000000000000000D+00 0.000000000000000D+00 0.266879591531477D+03
 0.262976864775385D+03 0.000000000000000D+00 0.000000000000000D+00 -.262976864775385D+03
 0.128680058981370D+03 0.629810921715285D+02 0.610090045338827D+02 -.235497267524490D+02
 0.102657929477737D+03 0.462829198074735D+02 -.386463508720969D+02 -.830843028677607D+02
 0.582241081421904D+02 -.289073130127433D+02 0.182552894218406D+02 -.471291675235369D+02
 0.204628574202135D+03 -.990188667101891D+02 -.104759379323213D+02 0.153763197143747D+03
 0.356657855034291D+02 0.186621677439303D+02 -.301420051513050D+02 0.390272675609230D+01
0.996151778692D-06 0.000000000000D+00 0.000000000000D+00 0.160606255275D-06 0.000000000000D+00  7 1 -1 23 -11 11 23 21 0 0.18699597D+00 0.76882840D-02 0.31432451D+05 0.31432451D+05 0.31432451D+05 0.11654611D+01  1  2  2  1  7  1        1 0.110463850970D-03 0.100000000000D+01
-.480409331493D-07 0.000000000000D+00 -.382548512296D-08 0.160606255275D-06 0.000000000000D+00  7 1 -1 23 -11 11 23 21 2 0.18699597D+00 0.76882840D-02 0.31432451D+05 0.31432451D+05 0.31432451D+05 0.11654611D+01  1  2  3  1  7  1        1 -.723605170467D-05 0.100000000000D+01
0.612382512121D-07 0.000000000000D+00 0.000000000000D+00 0.160606255275D-06 0.000000000000D+00  7 1 -1 23 -11 11 23 21 2 0.18699597D+00 0.76882840D-02 0.31432451D+05 0.31432451D+05 0.31432451D+05 0.11654611D+01  1  2 15  1  7  1        1 0.922386646191D-05 0.100000000000D+01
0.137286158539D-05 0.000000000000D+00 0.000000000000D+00 0.160606255275D-06 0.000000000000D+00  7 1 -1 23 -11 11 23 21 2 0.20829421D+00 0.76882840D-02 0.38310484D+05 0.38310484D+05 0.38310484D+05 0.11576092D+01  1  2 12  1  7  1        1 0.164459896258D-03 0.100000000000D+01
-.117087795086D-05 0.000000000000D+00 0.000000000000D+00 0.160606255275D-06 0.000000000000D+00  7 1 -1 23 -11 11 23 21 2 0.18699597D+00 0.76882840D-02 0.31432451D+05 0.31432451D+05 0.31432451D+05 0.11654611D+01  1  2  4  1  7  1        1 -.176360716515D-03 0.100000000000D+01
-.402355537608D-05 0.000000000000D+00 -.101270345148D-05 0.160606255275D-06 0.000000000000D+00  7 1 -1 23 -11 11 23 21 2 0.21110118D+00 0.76882840D-02 0.31432451D+05 0.31432451D+05 0.31432451D+05 0.11654611D+01  1  2  5  1  7  1        1 -.475824868505D-03 0.100000000000D+01
0.412339747291D-05 0.000000000000D+00 0.100530455867D-05 0.160606255275D-06 0.000000000000D+00  7 1 -1 23 -11 11 23 21 2 0.18699597D+00 0.76882840D-02 0.31432451D+05 0.31432451D+05 0.31432451D+05 0.11654611D+01  1  2  6  1  7  1        1 0.621076972426D-03 0.100000000000D+01
0.237971865667D-07 0.000000000000D+00 0.000000000000D+00 0.160606255275D-06 0.000000000000D+00  7 21 -1 23 -11 11 23 -1 2 0.20829421D+00 0.76882840D-02 0.38310484D+05 0.38310484D+05 0.38310484D+05 0.11576092D+01  1  2 12  3  7  1        1 0.279135904440D-05 0.100000000000D+01
-.722358870513D-07 0.000000000000D+00 -.193828786534D-07 0.160606255275D-06 0.000000000000D+00  7 21 -1 23 -11 11 23 -1 2 0.21110118D+00 0.76882840D-02 0.31432451D+05 0.31432451D+05 0.31432451D+05 0.11654611D+01  1  2  5  3  7  1        1 -.829315965729D-05 0.100000000000D+01
  </mgrwgt>
  </event>
  <event>
  8     66 0.56006291E-06 0.18421947E+03 0.75467711E-02 0.94441836E-01
        1 -1    0    0  501    0 0.00000000E+00 0.00000000E+00 0.11611916E+04 0.11611916E+04 0.32000000E+00 0.0000E+00 0.9000E+01
       -1 -1    0    0    0  501 0.00000000E+00 0.00000000E+00 -.77539118E+02 0.77539778E+02 0.32000000E+00 0.0000E+00 0.9000E+01
       25  2    1    2    0    0 0.15611584E+01 -.10596610E+03 0.10448050E+04 0.10922809E+04 0.30038125E+03 0.0000E+00 0.0000E+00
       23  2    1    2    0    0 -.15611584E+01 0.10596610E+03 0.38847516E+02 0.14645052E+03 0.93313310E+02 0.0000E+00 0.0000E+00
       23  1    3    3    0    0 0.82686722E+01 -.27350038E+01 0.84238436E+03 0.84735029E+03 0.91188000E+02 0.0000E+00 0.9000E+01
      -13  1    4    4    0    0 0.39615751E+02 0.82552528E+02 0.12985809E+02 0.92482269E+02 0.10565837E+00 0.0000E+00 0.9000E+01
       13  1    4    4    0    0 -.41176909E+02 0.23413574E+02 0.25861707E+02 0.53968253E+02 0.10565837E+00 0.0000E+00 0.9000E+01
       23  1    3    3    0    0 -.67075138E+01 -.10323110E+03 0.20242060E+03 0.24493060E+03 0.91188000E+02 0.0000E+00 0.9000E+01
#aMCatNLO 1  0  0  2  2 0.42740364D+03 0.00000000D+00  -5  7  0 0.00000000D+00 0.00000000D+00 0.00000000D+00 0.00000000D+00 0.00000000D+00
  <mgrwgt>
 0.1638913700D-03    5    2    0
 0.300063673333910D+03 0.000000000000000D+00 0.000000000000000D+00 0.300063673333910D+03
 0.300063673333910D+03 0.000000000000000D+00 0.000000000000000D+00 -.300063673333910D+03
 0.227930836149113D+03 0.826867217258539D+01 -.273500528701369D+01 0.208713592107021D+03
 0.167445571197375D+03 0.396158468261751D+02 0.825526043872255D+02 -.140191552893697D+03
 0.646979136229642D+02 -.411770052369314D+02 0.234135001684172D+02 -.440690625807469D+02
 0.140053025698369D+03 -.670751376182905D+01 -.103231099268629D+03 -.244529766325768D+02
 0.000000000000000D+00 -.000000000000000D+00 -.000000000000000D+00 -.000000000000000D+00
 0.416020712538695D+03 0.000000000000000D+00 0.000000000000000D+00 0.416020712538695D+03
 0.132706340273840D+04 0.000000000000000D+00 0.000000000000000D+00 -.132706340273840D+04
 0.279813259392713D+03 0.588923641511105D+02 0.151494338846211D+03 0.208713592107021D+03
 0.270230252879366D+03 0.832535105608248D+02 0.215498424699111D+03 -.140191552893697D+03
 0.861261681047609D+02 -.261393673335689D+02 0.692269314000303D+02 -.440690625807469D+02
 0.100598057700810D+03 0.172861602705553D+02 -.301323491630299D+02 -.244529766325768D+02
 0.100631637719944D+04 -.133292667648922D+03 -.406087345782323D+03 -.911042690199701D+03
0.257803527561D-05 0.000000000000D+00 0.000000000000D+00 0.126884848649D-06 0.000000000000D+00  7 1 -1 23 -13 13 23 21 0 0.17864491D+00 0.11929149D-01 0.33936813D+05 0.33936813D+05 0.33936813D+05 0.11623998D+01  1  2  2  2  7  2       -1 0.160256734207D-03 0.100000000000D+01
-.101776473280D-06 0.000000000000D+00 -.990033427063D-08 0.126884848649D-06 0.000000000000D+00  7 1 -1 23 -13 13 23 21 2 0.17864491D+00 0.11929149D-01 0.33936813D+05 0.33936813D+05 0.33936813D+05 0.11623998D+01  1  2  3  2  7  2       -1 -.854842135254D-05 0.100000000000D+01
0.160461844728D-06 0.000000000000D+00 0.000000000000D+00 0.126884848649D-06 0.000000000000D+00  7 1 -1 23 -13 13 23 21 2 0.17864491D+00 0.11929149D-01 0.33936813D+05 0.33936813D+05 0.33936813D+05 0.11623998D+01  1  2 15  2  7  2       -1 0.134775298803D-04 0.100000000000D+01
0.115880244397D-06 0.000000000000D+00 -.120513742999D-05 0.126884848649D-06 0.000000000000D+00  7 1 -1 23 -13 13 23 21 2 0.17864491D+00 0.70699198D-01 0.33936813D+05 0.33936813D+05 0.33936813D+05 0.11623998D+01  1  2  5  2  7  2       -1 0.503528689027D-06 0.100000000000D+01
-.488367942599D-07 0.000000000000D+00 -.262806061372D-06 0.126884848649D-06 0.000000000000D+00  7 1 21 23 -13 13 23 1 2 0.17864491D+00 0.70699198D-01 0.33936813D+05 0.33936813D+05 0.33936813D+05 0.11623998D+01  1  2  5  4  7  2       -1 -.179800142070D-05 0.100000000000D+01
  </mgrwgt>
  </event>
  <event>
  8     66 0.56006291E-06 0.25958987E+03 0.75467711E-02 0.10265882E+00
        3 -1    0    0  501    0 0.00000000E+00 0.00000000E+00 0.23920242E+03 0.23920294E+03 0.50000000E+00 0.0000E+00 0.9000E+01
       -3 -1    0    0    0  501 0.00000000E+00 0.00000000E+00 -.35000743E+03 0.35000779E+03 0.50000000E+00 0.0000E+00 0.9000E+01
       25  2    1    2    0    0 -.13008255E+03 -.12343051E+03 0.20001324E+02 0.34923948E+03 0.29901773E+03 0.0000E+00 0.0000E+00
       23  2    1    2    0    0 0.13008255E+03 0.12343051E+03 -.13080633E+03 0.23997125E+03 0.91210424E+02 0.0000E+00 0.0000E+00
       23  1    3    3    0    0 -.17559904E+03 -.30105286E+02 -.29802718E+02 0.20234822E+03 0.91188000E+02 0.0000E+00 0.9000E+01
      -13  1    4    4    0    0 0.38087400E+02 0.51584442E+02 0.71035212E+00 0.64125817E+02 0.10565837E+00 0.0000E+00 0.9000E+01
       13  1    4    4    0    0 0.91995154E+02 0.71846068E+02 -.13151669E+03 0.17584543E+03 0.10565837E+00 0.0000E+00 0.9000E+01
       23  1    3    3    0    0 0.45516483E+02 -.93325224E+02 0.49804042E+02 0.14689126E+03 0.91188000E+02 0.0000E+00 0.9000E+01
#aMCatNLO 1  0  0  1  1 0.19407714D+01 0.00000000D+00  -5  7  0 0.00000000D+00 0.00000000D+00 0.00000000D+00 0.00000000D+00 0.00000000D+00
  <mgrwgt>
 0.2438122564D-04    8    2    0
 0.289349068208964D+03 0.000000000000000D+00 0.000000000000000D+00 0.289349068208964D+03
 0.289349068208964D+03 0.000000000000000D+00 0.000000000000000D+00 -.289349068208964D+03
 0.200317654842450D+03 -.175599036741289D+03 -.301052868070810D+02 0.840008924797115D+01
 0.654266171386769D+02 0.380873278190718D+02 0.515844145984536D+02 0.130017637399092D+02
 0.153858065947606D+03 0.919952270082189D+02 0.718460961921606D+02 -.100236326383157D+03
 0.159095798489195D+03 0.455164819139982D+02 -.933252239835332D+02 0.788344733952771D+02
 0.000000000000000D+00 0.000000000000000D+00 -.000000000000000D+00 -.000000000000000D+00
 0.289550494565996D+03 0.000000000000000D+00 0.000000000000000D+00 0.289550494565996D+03
 0.294063669647342D+03 0.000000000000000D+00 0.000000000000000D+00 -.294063669647342D+03
 0.200789064022918D+03 -.176190918791577D+03 -.297858275561647D+02 0.840008924797115D+01
 0.653967482087551D+02 0.378942819336116D+02 0.516886081517664D+02 0.130017637399092D+02
 0.153701873169022D+03 0.915413846795099D+02 0.720910506223432D+02 -.100236326383157D+03
 0.158813705376194D+03 0.450473675359443D+02 -.930720266991514D+02 0.788344733952771D+02
 0.491277343644854D+01 0.170788464251066D+01 -.921804518793574D+00 -.451317508134599D+01
0.187544053621D-05 0.000000000000D+00 0.000000000000D+00 0.124887267045D-06 0.000000000000D+00  7 3 -3 23 -13 13 23 21 0 0.36800440D-01 0.53847364D-01 0.67386899D+05 0.67386899D+05 0.67386899D+05 0.11360669D+01  1  2  2  1  7  1        3 0.196207714175D-04 0.100000000000D+01
-.102698969260D-06 0.000000000000D+00 -.720218547388D-08 0.124887267045D-06 0.000000000000D+00  7 3 -3 23 -13 13 23 21 2 0.36800440D-01 0.53847364D-01 0.67386899D+05 0.67386899D+05 0.67386899D+05 0.11360669D+01  1  2  3  1  7  1        3 -.138671325411D-05 0.100000000000D+01
0.120468401121D-06 0.000000000000D+00 0.000000000000D+00 0.124887267045D-06 0.000000000000D+00  7 3 -3 23 -13 13 23 21 2 0.36800440D-01 0.53847364D-01 0.67386899D+05 0.67386899D+05 0.67386899D+05 0.11360669D+01  1  2 15  1  7  1        3 0.162664854125D-05 0.100000000000D+01
-.171236225318D-05 0.000000000000D+00 0.000000000000D+00 0.124887267045D-06 0.000000000000D+00  7 3 -3 23 -13 13 23 21 2 0.36800440D-01 0.53847364D-01 0.67386899D+05 0.67386899D+05 0.67386899D+05 0.11360669D+01  1  2  4  1  7  1        3 -.231215118265D-04 0.100000000000D+01
0.335098624218D-09 0.000000000000D+00 0.000000000000D+00 0.124887267045D-06 0.000000000000D+00  7 3 -3 23 -13 13 23 21 2 0.37425899D-01 0.53847364D-01 0.67386899D+05 0.67386899D+05 0.67386899D+05 0.11360669D+01  1  2  5  1  7  1        3 0.438148925721D-08 0.100000000000D+01
-.335051041053D-09 0.000000000000D+00 0.000000000000D+00 0.124887267045D-06 0.000000000000D+00  7 3 -3 23 -13 13 23 21 2 0.36800440D-01 0.53847364D-01 0.67386899D+05 0.67386899D+05 0.67386899D+05 0.11360669D+01  1  2  6  1  7  1        3 -.452409330666D-08 0.100000000000D+01
0.171254378395D-05 0.000000000000D+00 0.000000000000D+00 0.124887267045D-06 0.228158939315D-06  7 3 -3 23 -13 13 23 21 2 0.36826058D-01 0.54724744D-01 0.67868334D+05 0.67868334D+05 0.67868334D+05 0.11358031D+01  1  2 11  1  7  1        3 0.223109699006D-04 0.100000000000D+01
0.254575441836D-07 0.000000000000D+00 0.000000000000D+00 0.124887267045D-06 0.300312415659D-10  7 21 -3 23 -13 13 23 -3 2 0.36826058D-01 0.54724744D-01 0.67868334D+05 0.67868334D+05 0.67868334D+05 0.11358031D+01  1  2 11  3  7  1        3 0.533120346108D-05 0.100000000000D+01
  </mgrwgt>
  </event>
  <event>
  8     66 0.56006291E-06 0.37697766E+03 0.75467711E-02 0.88421833E-01
        1 -1    0    0  501    0 0.00000000E+00 0.00000000E+00 0.30337058E+03 0.30337075E+03 0.32000000E+00 0.0000E+00 0.9000E+01
       -1 -1    0    0    0  501 0.00000000E+00 0.00000000E+00 -.48526042E+03 0.48526053E+03 0.32000000E+00 0.0000E+00 0.9000E+01
       25  2    1    2    0    0 0.20479951E+03 0.24909783E+03 -.96778971E+02 0.44114837E+03 0.28504937E+03 0.0000E+00 0.0000E+00
       23  2    1    2    0    0 -.20479951E+03 -.24909783E+03 -.85110869E+02 0.34748291E+03 0.97508671E+02 0.0000E+00 0.0000E+00
       23  1    3    3    0    0 -.11183190E+02 0.14208715E+02 0.75442497E+01 0.93269064E+02 0.91188000E+02 0.0000E+00 0.9000E+01
      -13  1    4    4    0    0 -.26131285E+01 0.42483668E+01 0.87143647E+01 0.10041333E+02 0.10565837E+00 0.0000E+00 0.9000E+01
       13  1    4    4    0    0 -.20218638E+03 -.25334620E+03 -.93825233E+02 0.33744158E+03 0.10565837E+00 0.0000E+00 0.9000E+01
       23  1    3    3    0    0 0.21598270E+03 0.23488912E+03 -.10432322E+03 0.34787931E+03 0.91188000E+02 0.0000E+00 0.9000E+01
#aMCatNLO 1  0  0  1  1 0.74069365D+03 0.00000000D+00  -5  7  0 0.00000000D+00 0.00000000D+00 0.00000000D+00 0.00000000D+00 0.00000000D+00
  <mgrwgt>
 0.1268337825D-02    5    2    0
 0.383684565459160D+03 0.000000000000000D+00 0.000000000000000D+00 0.383684565459160D+03
 0.383684565459160D+03 0.000000000000000D+00 0.000000000000000D+00 -.383684565459160D+03
 0.976415663656789D+02 -.111831879882150D+02 0.142087163116862D+02 0.298608912381655D+02
 0.123847580538081D+02 -.261289501785680D+01 0.424866696152362D+01 0.113359534546980D+02
 0.324552288888908D+03 -.202186620016307D+03 -.253346504321834D+03 -.164410357738717D+02
 0.332790517609925D+03 0.215982703022378D+03 0.234889121048625D+03 -.247558089189918D+02
 0.000000000000000D+00 -.000000000000000D+00 0.000000000000000D+00 0.000000000000000D+00
 0.145126107099362D+04 0.000000000000000D+00 0.000000000000000D+00 0.145126107099362D+04
 0.682672857623302D+03 0.000000000000000D+00 0.000000000000000D+00 -.682672857623302D+03
 0.123788576895085D+03 0.779281839749222D+02 0.662463150247063D+01 0.298608912381655D+02
 0.143522116371653D+02 0.814701334969392D+01 0.333291338483477D+01 0.113359534546980D+02
 0.277361220951538D+03 0.400448028386395D+02 -.273962320394657D+03 -.164410357738717D+02
 0.651026220846004D+03 0.611905579795593D+03 0.201192942780841D+03 -.247558089189918D+02
 0.106740569828713D+04 -.738025579958849D+03 0.628118327265107D+02 0.768588213370318D+03
0.610745019756D-04 0.000000000000D+00 0.000000000000D+00 0.483319564691D-09 0.000000000000D+00  7 1 -1 23 -13 13 23 21 0 0.46672419D-01 0.74655471D-01 0.14211216D+06 0.14211216D+06 0.14211216D+06 0.11094080D+01  1  2  2  1  7  1        1 0.122128860232D-02 0.100000000000D+01
-.339174493203D-05 0.000000000000D+00 -.234542168872D-06 0.483319564691D-09 0.000000000000D+00  7 1 -1 23 -13 13 23 21 2 0.46672419D-01 0.74655471D-01 0.14211216D+06 0.14211216D+06 0.14211216D+06 0.11094080D+01  1  2  3  1  7  1        1 -.834764820536D-04 0.100000000000D+01
0.389557126370D-05 0.000000000000D+00 0.000000000000D+00 0.483319564691D-09 0.000000000000D+00  7 1 -1 23 -13 13 23 21 2 0.46672419D-01 0.74655471D-01 0.14211216D+06 0.14211216D+06 0.14211216D+06 0.11094080D+01  1  2 15  1  7  1        1 0.958764857616D-04 0.100000000000D+01
0.205335425489D-04 0.000000000000D+00 -.284942553008D-04 0.483319564691D-09 0.000000000000D+00  7 1 -1 23 -13 13 23 21 2 0.25467134D+00 0.74655471D-01 0.14211216D+06 0.14211216D+06 0.14211216D+06 0.11094080D+01  1  2  5  1  7  1        1 0.314760616187D-04 0.100000000000D+01
0.297274811375D-05 0.000000000000D+00 -.591587392756D-05 0.483319564691D-09 0.000000000000D+00  7 21 -1 23 -13 13 23 -1 2 0.25467134D+00 0.74655471D-01 0.14211216D+06 0.14211216D+06 0.14211216D+06 0.11094080D+01  1  2  5  3  7  1        1 0.317315700548D-05 0.100000000000D+01
  </mgrwgt>
  </event>
  <event>
  8     66 0.56006291E-06 0.24613201E+03 0.75467711E-02 0.99174728E-01
        1 -1    0    0  501    0 0.00000000E+00 0.00000000E+00 0.19287098E+03 0.19287125E+03 0.32000000E+00 0.0000E+00 0.9000E+01
       -1 -1    0    0    0  501 0.00000000E+00 0.00000000E+00 -.58247793E+03 0.58247801E+03 0.32000000E+00 0.0000E+00 0.9000E+01
       25  2    1    2    0    0 0.17243214E+03 -.44307466E+02 -.13037016E+02 0.34901384E+03 0.29990782E+03 0.0000E+00 0.0000E+00
       23  2    1    2    0    0 -.17243214E+03 0.44307466E+02 -.37656993E+03 0.42633543E+03 0.90889990E+02 0.0000E+00 0.0000E+00
       23  1    3    3    0    0 0.11680395E+03 0.59528329E+02 0.74514135E+02 0.17622257E+03 0.91188000E+02 0.0000E+00 0.9000E+01
      -13  1    4    4    0    0 -.15419016E+03 0.23567404E+02 -.36395211E+03 0.39596866E+03 0.10565837E+00 0.0000E+00 0.9000E+01
       13  1    4    4    0    0 -.18241986E+02 0.20740063E+02 -.12617817E+02 0.30366770E+02 0.10565837E+00 0.0000E+00 0.9000E+01
       23  1    3    3    0    0 0.55628189E+02 -.10383580E+03 -.87551151E+02 0.17279127E+03 0.91188000E+02 0.0000E+00 0.9000E+01
#aMCatNLO 1  0  0  2  1 0.17045443D+03 0.00000000D+00  -5  7  0 0.00000000D+00 0.00000000D+00 0.00000000D+00 0.00000000D+00 0.00000000D+00
  <mgrwgt>
 0.1394422127D-03    7    2    0
 0.335176412704862D+03 0.000000000000000D+00 0.000000000000000D+00 0.335176412704862D+03
 0.335176412704862D+03 0.000000000000000D+00 0.000000000000000D+00 -.335176412704862D+03
 0.247131444151192D+03 0.116803953313592D+03 0.595283288446650D+02 0.188605179938228D+03
 0.246461160092913D+03 -.154190340535126D+03 0.235674079997818D+02 -.190821957856475D+03
 0.277893442419902D+02 -.182418023157747D+02 0.207400585106873D+02 0.305520451775263D+01
 0.148970876923628D+03 0.556281895373081D+02 -.103835795355134D+03 -.838426599505866D+00
 0.000000000000000D+00 0.000000000000000D+00 0.000000000000000D+00 -.000000000000000D+00
 0.423943158567382D+03 0.000000000000000D+00 0.000000000000000D+00 0.423943158567382D+03
 0.438846151344567D+03 0.000000000000000D+00 0.000000000000000D+00 -.438846151344567D+03
 0.223563373075887D+03 0.762246520068628D+02 0.168291106113551D+02 0.188605179938228D+03
 0.276969068831117D+03 -.199316040235175D+03 -.239157185542888D+02 -.190821957856475D+03
 0.280462486582116D+02 -.230554719484363D+02 0.156749163438854D+02 0.305520451775263D+01
 0.163105936798345D+03 0.287235825788708D+02 -.132145934933837D+03 -.838426599505866D+00
 0.171104682548389D+03 0.117423277597877D+03 0.123557626532885D+03 -.149029927771848D+02
0.511037686892D-05 0.000000000000D+00 0.000000000000D+00 0.137710020965D-05 0.000000000000D+00  7 1 -1 23 -13 13 23 21 0 0.29672486D-01 0.89612016D-01 0.60580964D+05 0.60580964D+05 0.60580964D+05 0.11400339D+01  1  2  2  2  7  2       -1 0.129191105520D-03 0.100000000000D+01
-.250995455513D-06 0.000000000000D+00 -.196251927698D-07 0.137710020965D-05 0.000000000000D+00  7 1 -1 23 -13 13 23 21 2 0.29672486D-01 0.89612016D-01 0.60580964D+05 0.60580964D+05 0.60580964D+05 0.11400339D+01  1  2  3  2  7  2       -1 -.824671731717D-05 0.100000000000D+01
0.332429777216D-06 0.000000000000D+00 0.000000000000D+00 0.137710020965D-05 0.000000000000D+00  7 1 -1 23 -13 13 23 21 2 0.29672486D-01 0.89612016D-01 0.60580964D+05 0.60580964D+05 0.60580964D+05 0.11400339D+01  1  2 15  2  7  2       -1 0.109223268402D-04 0.100000000000D+01
-.183092678662D-05 0.000000000000D+00 0.000000000000D+00 0.137710020965D-05 0.000000000000D+00  7 1 -1 23 -13 13 23 21 2 0.29672486D-01 0.89612016D-01 0.60580964D+05 0.60580964D+05 0.60580964D+05 0.11400339D+01  1  2  4  2  7  2       -1 -.601570080497D-04 0.100000000000D+01
-.225586347482D-05 0.000000000000D+00 -.182112478844D-05 0.137710020965D-05 0.000000000000D+00  7 1 -1 23 -13 13 23 21 2 0.29672486D-01 0.14090092D+00 0.60580964D+05 0.60580964D+05 0.60580964D+05 0.11400339D+01  1  2  5  2  7  2       -1 -.256564715986D-04 0.100000000000D+01
0.294506888577D-05 0.000000000000D+00 0.164931767851D-05 0.137710020965D-05 0.000000000000D+00  7 1 -1 23 -13 13 23 21 2 0.29672486D-01 0.89612016D-01 0.60580964D+05 0.60580964D+05 0.60580964D+05 0.11400339D+01  1  2  6  2  7  2       -1 0.967633080483D-04 0.100000000000D+01
-.447491908636D-07 0.000000000000D+00 -.950446272176D-07 0.137710020965D-05 0.000000000000D+00  7 1 21 23 -13 13 23 1 2 0.29672486D-01 0.14090092D+00 0.60580964D+05 0.60580964D+05 0.60580964D+05 0.11400339D+01  1  2  5  4  7  2       -1 -.337433074085D-05 0.100000000000D+01
  </mgrwgt>
  </event>
  <event>
  8     66 0.56006291E-06 0.33785491E+03 0.75467711E-02 0.92557887E-01
        1 -1    0    0  501    0 0.00000000E+00 0.00000000E+00 0.21848322E+04 0.21848323E+04 0.32000000E+00 0.0000E+00 0.9000E+01
       -1 -1    0    0    0  501 0.00000000E+00 0.00000000E+00 -.13051025E+03 0.13051064E+03 0.32000000E+00 0.0000E+00 0.9000E+01
       25  2    1    2    0    0 -.26438825E+03 -.26579408E+03 0.44290524E+03 0.65836290E+03 0.31101289E+03 0.0000E+00 0.0000E+00
       23  2    1    2    0    0 0.26438825E+03 0.26579408E+03 0.16114168E+04 0.16569800E+04 0.91493868E+02 0.0000E+00 0.0000E+00
       23  1    3    3    0    0 -.12776987E+03 -.24670923E+03 0.38435319E+03 0.48294224E+03 0.91188000E+02 0.0000E+00 0.9000E+01
      -11  1    4    4    0    0 0.63762273E+01 0.46608797E+02 0.21942842E+03 0.22441450E+03 0.51099893E-03 0.0000E+00 0.9000E+01
       11  1    4    4    0    0 0.25801203E+03 0.21918528E+03 0.13919883E+04 0.14325655E+04 0.51099893E-03 0.0000E+00 0.9000E+01
       23  1    3    3    0    0 -.13661838E+03 -.19084849E+02 0.58552052E+02 0.17542066E+03 0.91188000E+02 0.0000E+00 0.9000E+01
#aMCatNLO 1  0  0  2  1 0.31872644D+03 0.00000000D+00  -5  7  0 0.00000000D+00 0.00000000D+00 0.00000000D+00 0.00000000D+00 0.00000000D+00
  <mgrwgt>
 0.1726482070D-03    7    2    0
 0.533988273419312D+03 0.000000000000000D+00 0.000000000000000D+00 0.533988273419312D+03
 0.533988273419312D+03 0.000000000000000D+00 0.000000000000000D+00 -.533988273419312D+03
 0.307676875162944D+03 -.127769873691244D+03 -.246709230525908D+03 -.957038302069030D+02
 0.644395138212207D+02 0.637622733516277D+01 0.466087965405734D+02 0.440387868988809D+02
 0.428181798798884D+03 0.258012026839824D+03 0.219185283504076D+03 0.262158841780879D+03
 0.267678359055575D+03 -.136618380483743D+03 -.190848495187414D+02 -.210493798472857D+03
 0.000000000000000D+00 -.000000000000000D+00 -.000000000000000D+00 -.000000000000000D+00
 0.608028779376030D+03 0.000000000000000D+00 0.000000000000000D+00 0.608028779376030D+03
 0.105751490767472D+04 0.000000000000000D+00 0.000000000000000D+00 -.105751490767472D+04
 0.271804163098997D+03 -.442062536079298D+02 -.233342743104699D+03 -.957038302069030D+02
 0.713240760817957D+02 0.259539120197725D+02 0.497403611593910D+02 0.440387868988809D+02
 0.533209759982046D+03 0.396648761546854D+03 0.241361036166913D+03 0.262158841780879D+03
 0.238184522042542D+03 -.636708104698546D+02 -.741646109772500D+01 -.210493798472857D+03
 0.551021165845371D+03 -.314725609488842D+03 -.503421931238801D+02 -.449486128298690D+03
0.418043660261D-04 0.000000000000D+00 0.000000000000D+00 0.827701548534D-08 0.000000000000D+00  7 1 -1 23 -11 11 23 21 0 0.33612807D+00 0.20078531D-01 0.17781472D+06 0.17781472D+06 0.17781472D+06 0.11017688D+01  1  2  2  2  7  2       -1 0.230200726068D-03 0.100000000000D+01
-.216502472546D-05 0.000000000000D+00 -.160539772883D-06 0.827701548534D-08 0.000000000000D+00  7 1 -1 23 -11 11 23 21 2 0.33612807D+00 0.20078531D-01 0.17781472D+06 0.17781472D+06 0.17781472D+06 0.11017688D+01  1  2  3  2  7  2       -1 -.144720088635D-04 0.100000000000D+01
0.258955905281D-05 0.000000000000D+00 0.000000000000D+00 0.827701548534D-08 0.000000000000D+00  7 1 -1 23 -11 11 23 21 2 0.33612807D+00 0.20078531D-01 0.17781472D+06 0.17781472D+06 0.17781472D+06 0.11017688D+01  1  2 15  2  7  2       -1 0.173097891789D-04 0.100000000000D+01
0.489800506018D-05 0.000000000000D+00 0.000000000000D+00 0.827701548534D-08 0.000000000000D+00  7 1 -1 23 -11 11 23 21 2 0.33612807D+00 0.39907770D-01 0.36300898D+06 0.36300898D+06 0.36300898D+06 0.10784789D+01  1  2 12  2  7  2       -1 0.954530248634D-05 0.100000000000D+01
-.289303989629D-04 0.000000000000D+00 -.128108606911D-04 0.827701548534D-08 0.000000000000D+00  7 1 -1 23 -11 11 23 21 2 0.33612807D+00 0.45411459D-01 0.17781472D+06 0.17781472D+06 0.17781472D+06 0.11017688D+01  1  2  5  2  7  2       -1 -.488464665215D-04 0.100000000000D+01
0.364157133290D-06 0.000000000000D+00 0.000000000000D+00 0.827701548534D-08 0.000000000000D+00  7 1 21 23 -11 11 23 1 2 0.33612807D+00 0.39907770D-01 0.36300898D+06 0.36300898D+06 0.36300898D+06 0.10784789D+01  1  2 12  4  7  2       -1 0.684861910984D-05 0.100000000000D+01
-.175492139668D-05 0.000000000000D+00 -.113586815033D-05 0.827701548534D-08 0.000000000000D+00  7 1 21 23 -11 11 23 1 2 0.33612807D+00 0.45411459D-01 0.17781472D+06 0.17781472D+06 0.17781472D+06 0.11017688D+01  1  2  5  4  7  2       -1 -.279377544419D-04 0.100000000000D+01
  </mgrwgt>
  </event>
  <event>
  8     66 0.56006291E-06 0.19698494E+03 0.75467711E-02 0.99673186E-01
        1 -1    0    0  501    0 0.00000000E+00 0.00000000E+00 0.12208822E+04 0.12208822E+04 0.32000000E+00 0.0000E+00 0.9000E+01
       -1 -1    0    0    0  501 0.00000000E+00 0.00000000E+00 -.69420780E+02 0.69421517E+02 0.32000000E+00 0.0000E+00 0.9000E+01
       25  2    1    2    0    0 0.60357289E+02 -.58356547E+02 0.11202142E+04 0.11629683E+04 0.30094346E+03 0.0000E+00 0.0000E+00
       23  2    1    2    0    0 -.60357289E+02 0.58356547E+02 0.31247229E+02 0.12733545E+03 0.90495516E+02 0.0000E+00 0.0000E+00
       23  1    3    3    0    0 -.82462280E+02 0.17647642E+02 0.37850292E+03 0.39836062E+03 0.91188000E+02 0.0000E+00 0.9000E+01
      -11  1    4    4    0    0 -.35637516E+02 0.37194820E+02 0.63332928E+02 0.81636676E+02 0.51099893E-03 0.0000E+00 0.9000E+01
       11  1    4    4    0    0 -.24719773E+02 0.21161727E+02 -.32085698E+02 0.45698773E+02 0.51099893E-03 0.0000E+00 0.9000E+01
       23  1    3    3    0    0 0.14281957E+03 -.76004189E+02 0.74171123E+03 0.76460766E+03 0.91188000E+02 0.0000E+00 0.9000E+01
#aMCatNLO 1  0  0  2  1 0.21683521D+03 0.00000000D+00  -5  7  0 0.00000000D+00 0.00000000D+00 0.00000000D+00 0.00000000D+00 0.00000000D+00
  <mgrwgt>
 0.2022187038D-03    3    2    0
 0.291127282917959D+03 0.000000000000000D+00 0.000000000000000D+00 0.291127282917959D+03
 0.291127282917959D+03 0.000000000000000D+00 0.000000000000000D+00 -.291127282917959D+03
 0.134262042447028D+03 -.824622800039418D+02 0.176476416616291D+02 0.509860551364961D+02
 0.556641182917014D+02 -.356375163811978D+02 0.371948200330901D+02 -.210951855663423D+02
 0.164723036510982D+03 -.247197728970939D+02 0.211617270653191D+02 -.161476911330776D+03
 0.227605368586206D+03 0.142819569282233D+03 -.760041887600383D+02 0.131586041760622D+03
 0.000000000000000D+00 -.000000000000000D+00 0.000000000000000D+00 0.000000000000000D+00
 0.112685742892015D+04 0.000000000000000D+00 0.000000000000000D+00 0.112685742892015D+04
 0.325061120055115D+03 0.000000000000000D+00 0.000000000000000D+00 -.325061120055115D+03
 0.112499466703110D+03 -.417285873910208D+02 -.160749657076881D+00 0.509860551364961D+02
 0.416897992290979D+02 -.195670013133754D+02 0.301689404070883D+02 -.210951855663423D+02
 0.164182917074407D+03 0.295737595831090D+02 -.257490004753014D+01 -.161476911330776D+03
 0.302947288619046D+03 0.230399552594858D+03 -.114293342393564D+03 0.131586041760622D+03
 0.830599077349600D+03 -.198677723473571D+03 0.868600516910830D+02 0.801796308865031D+03
0.295923706994D-05 0.000000000000D+00 0.000000000000D+00 0.113719319167D-06 0.000000000000D+00  7 1 -1 23 -11 11 23 21 0 0.18782809D+00 0.10680180D-01 0.38803066D+05 0.38803066D+05 0.38803066D+05 0.11571079D+01  1  2  2  2  7  2       -1 0.197830276047D-03 0.100000000000D+01
-.133900131732D-06 0.000000000000D+00 -.113642495336D-07 0.113719319167D-06 0.000000000000D+00  7 1 -1 23 -11 11 23 21 2 0.18782809D+00 0.10680180D-01 0.38803066D+05 0.38803066D+05 0.38803066D+05 0.11571079D+01  1  2  3  2  7  2       -1 -.119851011029D-04 0.100000000000D+01
0.182928592267D-06 0.000000000000D+00 0.000000000000D+00 0.113719319167D-06 0.000000000000D+00  7 1 -1 23 -11 11 23 21 2 0.18782809D+00 0.10680180D-01 0.38803066D+05 0.38803066D+05 0.38803066D+05 0.11571079D+01  1  2 15  2  7  2       -1 0.163735288724D-04 0.100000000000D+01
  </mgrwgt>
  </event>
  <event>
  8     66 0.56006291E-06 0.14780056E+03 0.75467711E-02 0.92676923E-01
        1 -1    0    0  501    0 0.00000000E+00 0.00000000E+00 0.12529684E+04 0.12529684E+04 0.32000000E+00 0.0000E+00 0.9000E+01
       -1 -1    0    0    0  501 0.00000000E+00 0.00000000E+00 -.55178778E+03 0.55178787E+03 0.32000000E+00 0.0000E+00 0.9000E+01
       25  2    1    2    0    0 -.17521802E+02 -.37552977E+03 -.40679384E+03 0.63108829E+03 0.30242614E+03 0.0000E+00 0.0000E+00
       23  2    1    2    0    0 0.17521802E+02 0.37552977E+03 0.11079744E+04 0.11736680E+04 0.92518028E+02 0.0000E+00 0.0000E+00
       23  1    3    3    0    0 -.50853046E+02 -.13453156E+03 -.29260473E+02 0.17278946E+03 0.91188000E+02 0.0000E+00 0.9000E+01
      -13  1    4    4    0    0 0.55004508E+02 0.23468708E+03 0.66558822E+03 0.70789209E+03 0.10565837E+00 0.0000E+00 0.9000E+01
       13  1    4    4    0    0 -.37482706E+02 0.14084269E+03 0.44238621E+03 0.46577590E+03 0.10565837E+00 0.0000E+00 0.9000E+01
       23  1    3    3    0    0 0.33331244E+02 -.24099822E+03 -.37753337E+03 0.45829882E+03 0.91188000E+02 0.0000E+00 0.9000E+01
#aMCatNLO 1  0  0  2  1 0.34273394D+03 0.00000000D+00  -5  7  0 0.00000000D+00 0.00000000D+00 0.00000000D+00 0.00000000D+00 0.00000000D+00
  <mgrwgt>
 0.1675158500D-03    9    2    0
 0.831488275064736D+03 0.000000000000000D+00 0.000000000000000D+00 0.831488275064736D+03
 0.831488275064736D+03 0.000000000000000D+00 0.000000000000000D+00 -.831488275064736D+03
 0.199858347733942D+03 -.508530461929325D+02 -.134531557454001D+03 -.104610398894382D+03
 0.487604906181857D+03 0.550046288579470D+02 0.234687206779694D+03 0.423857228687635D+03
 0.318957586689384D+03 -.374828265863579D+02 0.140842567264898D+03 0.283711739383561D+03
 0.656555709524288D+03 0.333312439213434D+02 -.240998216590592D+03 -.602958569176814D+03
 0.000000000000000D+00 0.000000000000000D+00 -.000000000000000D+00 -.000000000000000D+00
 0.976658858526315D+03 0.000000000000000D+00 0.000000000000000D+00 0.976658858526315D+03
 0.107893831341239D+04 0.000000000000000D+00 0.000000000000000D+00 -.107893831341239D+04
 0.183924022199913D+03 -.683193765550420D+02 -.995084007935146D+02 -.104610398894382D+03
 0.536077908570629D+03 0.841577113745629D+01 0.328106306770929D+03 0.423857228687635D+03
 0.355084868539300D+03 -.681591919523352D+02 0.202354237301648D+03 0.283711739383561D+03
 0.622840632183841D+03 -.248953994031010D+02 -.124243248106189D+03 -.602958569176814D+03
 0.357669740445026D+03 0.152958196773022D+03 -.306708895172873D+03 -.102279454886078D+03
0.109625833584D-03 0.000000000000D+00 0.000000000000D+00 0.126977241956D-06 0.000000000000D+00  7 1 -1 23 -13 13 23 21 0 0.19276437D+00 0.84890438D-01 0.16683370D+06 0.16683370D+06 0.16683370D+06 0.11039250D+01  1  2  2  2  7  2       -1 0.194376856982D-03 0.100000000000D+01
-.234864441386D-05 0.000000000000D+00 -.420992066109D-06 0.126977241956D-06 0.000000000000D+00  7 1 -1 23 -13 13 23 21 2 0.19276437D+00 0.84890438D-01 0.16683370D+06 0.16683370D+06 0.16683370D+06 0.11039250D+01  1  2  3  2  7  2       -1 -.507490659690D-05 0.100000000000D+01
0.665146050979D-05 0.000000000000D+00 0.000000000000D+00 0.126977241956D-06 0.000000000000D+00  7 1 -1 23 -13 13 23 21 2 0.19276437D+00 0.84890438D-01 0.16683370D+06 0.16683370D+06 0.16683370D+06 0.11039250D+01  1  2 15  2  7  2       -1 0.143723505444D-04 0.100000000000D+01
0.281980147060D-05 0.000000000000D+00 0.000000000000D+00 0.126977241956D-06 0.000000000000D+00  7 1 -1 23 -13 13 23 21 2 0.19276437D+00 0.11576876D+00 0.35513467D+06 0.35513467D+06 0.35513467D+06 0.10791722D+01  1  2 12  2  7  2       -1 0.278418921230D-05 0.100000000000D+01
-.575829516571D-04 0.000000000000D+00 0.000000000000D+00 0.126977241956D-06 0.000000000000D+00  7 1 -1 23 -13 13 23 21 2 0.19276437D+00 0.84890438D-01 0.16683370D+06 0.16683370D+06 0.16683370D+06 0.11039250D+01  1  2  4  2  7  2       -1 -.124424156977D-03 0.100000000000D+01
-.434813951741D-04 0.000000000000D+00 -.432534748281D-04 0.126977241956D-06 0.000000000000D+00  7 1 -1 23 -13 13 23 21 2 0.19276437D+00 0.12524750D+00 0.16683370D+06 0.16683370D+06 0.16683370D+06 0.11039250D+01  1  2  5  2  7  2       -1 -.388764383387D-04 0.100000000000D+01
0.588720458539D-04 0.000000000000D+00 0.401763065482D-04 0.126977241956D-06 0.000000000000D+00  7 1 -1 23 -13 13 23 21 2 0.19276437D+00 0.84890438D-01 0.16683370D+06 0.16683370D+06 0.16683370D+06 0.11039250D+01  1  2  6  2  7  2       -1 0.127209607429D-03 0.100000000000D+01
0.111671446753D-06 0.000000000000D+00 0.000000000000D+00 0.126977241956D-06 0.000000000000D+00  7 1 21 23 -13 13 23 1 2 0.19276437D+00 0.11576876D+00 0.35513467D+06 0.35513467D+06 0.35513467D+06 0.10791722D+01  1  2 12  4  7  2       -1 0.727489460627D-06 0.100000000000D+01
-.606879635448D-06 0.000000000000D+00 -.201699278957D-05 0.126977241956D-06 0.000000000000D+00  7 1 21 23 -13 13 23 1 2 0.19276437D+00 0.12524750D+00 0.16683370D+06 0.16683370D+06 0.16683370D+06 0.11039250D+01  1  2  5  4  7  2       -1 -.357914173776D-05 0.100000000000D+01
  </mgrwgt>
  </event>
  <event>
  8     66 0.56006291E-06 0.16182063E+03 0.75467711E-02 0.97051288E-01
        1 -1    0    0  501    0 0.00000000E+00 0.00000000E+00 0.61934601E+03 0.61934610E+03 0.32000000E+00 0.0000E+00 0.9000E+01
       -1 -1    0    0    0  501 0.00000000E+00 0.00000000E+00 -.15516681E+03 0.15516714E+03 0.32000000E+00 0.0000E+00 0.9000E+01
       25  2    1    2    0    0 -.21268310E+03 0.20728478E+02 0.18810393E+03 0.41371747E+03 0.30019208E+03 0.0000E+00 0.0000E+00
       23  2    1    2    0    0 0.21268310E+03 -.20728478E+02 0.27607528E+03 0.36079576E+03 0.91061802E+02 0.0000E+00 0.0000E+00
       23  1    3    3    0    0 -.59771923E+02 0.11745703E+03 0.11910374E+03 0.19967421E+03 0.91188000E+02 0.0000E+00 0.9000E+01
      -11  1    4    4    0    0 0.12004785E+02 -.13750149E+00 0.75045666E+02 0.75999906E+02 0.51099893E-03 0.0000E+00 0.9000E+01
       11  1    4    4    0    0 0.20067832E+03 -.20590976E+02 0.20102961E+03 0.28479586E+03 0.51099893E-03 0.0000E+00 0.9000E+01
       23  1    3    3    0    0 -.15291118E+03 -.96728550E+02 0.69000190E+02 0.21404326E+03 0.91188000E+02 0.0000E+00 0.9000E+01
#aMCatNLO 1  0  0  2  1 0.19936726D+03 0.00000000D+00  -5  7  0 0.00000000D+00 0.00000000D+00 0.00000000D+00 0.00000000D+00 0.00000000D+00
  <mgrwgt>
 0.3200797863D-03    9    2    0
 0.310003391024664D+03 0.000000000000000D+00 0.000000000000000D+00 0.310003391024664D+03
 0.310003391024664D+03 0.000000000000000D+00 0.000000000000000D+00 -.310003391024664D+03
 0.160264109277965D+03 -.597719228212939D+02 0.117457027887670D+03 -.705138780741933D+00
 0.387548910754702D+02 0.120047854723630D+02 -.137501493126595D+00 0.368484436764091D+02
 0.205262905101217D+03 0.200678316672606D+03 -.205909763205113D+02 0.379089055791455D+02
 0.215724876594675D+03 -.152911179323676D+03 -.967285500740317D+02 -.740522104748127D+02
 0.000000000000000D+00 0.000000000000000D+00 0.000000000000000D+00 -.000000000000000D+00
 0.396690172624300D+03 0.000000000000000D+00 0.000000000000000D+00 0.396690172624300D+03
 0.465485160711970D+03 0.000000000000000D+00 0.000000000000000D+00 -.465485160711970D+03
 0.137078072308386D+03 -.722196843126715D+02 0.725187323445539D+02 -.705138780741933D+00
 0.397213604352278D+02 0.871950096839212D+01 -.119978738247242D+02 0.368484436764091D+02
 0.204768951608651D+03 0.183512979655972D+03 -.825604307067514D+02 0.379089055791455D+02
 0.269703996909820D+03 -.173232893539179D+03 -.170093001987060D+03 -.740522104748127D+02
 0.210902952074186D+03 0.532200972274863D+02 0.192132574173981D+03 -.687949880876706D+02
0.524107360410D-05 0.000000000000D+00 0.000000000000D+00 0.614899109041D-06 0.000000000000D+00  7 1 -1 23 -11 11 23 21 0 0.95284034D-01 0.23871848D-01 0.83121700D+05 0.83121700D+05 0.83121700D+05 0.11283706D+01  1  2  2  2  7  2       -1 0.298950252790D-03 0.100000000000D+01
-.289307225861D-06 0.000000000000D+00 -.201271026461D-07 0.614899109041D-06 0.000000000000D+00  7 1 -1 23 -11 11 23 21 2 0.95284034D-01 0.23871848D-01 0.83121700D+05 0.83121700D+05 0.83121700D+05 0.11283706D+01  1  2  3  2  7  2       -1 -.210107441942D-04 0.100000000000D+01
0.339883433782D-06 0.000000000000D+00 0.000000000000D+00 0.614899109041D-06 0.000000000000D+00  7 1 -1 23 -11 11 23 21 2 0.95284034D-01 0.23871848D-01 0.83121700D+05 0.83121700D+05 0.83121700D+05 0.11283706D+01  1  2 15  2  7  2       -1 0.246838075399D-04 0.100000000000D+01
0.474994603853D-06 0.000000000000D+00 0.000000000000D+00 0.614899109041D-06 0.000000000000D+00  7 1 -1 23 -11 11 23 21 2 0.95284034D-01 0.37829443D-01 0.16477232D+06 0.16477232D+06 0.16477232D+06 0.11043471D+01  1  2 12  2  7  2       -1 0.151529435597D-04 0.100000000000D+01
-.205233380205D-05 0.000000000000D+00 0.000000000000D+00 0.614899109041D-06 0.000000000000D+00  7 1 -1 23 -11 11 23 21 2 0.95284034D-01 0.23871848D-01 0.83121700D+05 0.83121700D+05 0.83121700D+05 0.11283706D+01  1  2  4  2  7  2       -1 -.149049372645D-03 0.100000000000D+01
-.203270509007D-05 0.000000000000D+00 -.169614746124D-05 0.614899109041D-06 0.000000000000D+00  7 1 -1 23 -11 11 23 21 2 0.95284034D-01 0.45098134D-01 0.83121700D+05 0.83121700D+05 0.83121700D+05 0.11283706D+01  1  2  5  2  7  2       -1 -.505280849551D-04 0.100000000000D+01
0.281595287266D-05 0.000000000000D+00 0.140263972160D-05 0.614899109041D-06 0.000000000000D+00  7 1 -1 23 -11 11 23 21 2 0.95284034D-01 0.23871848D-01 0.83121700D+05 0.83121700D+05 0.83121700D+05 0.11283706D+01  1  2  6  2  7  2       -1 0.204506698007D-03 0.100000000000D+01
0.251158436846D-07 0.000000000000D+00 0.000000000000D+00 0.614899109041D-06 0.000000000000D+00  7 1 21 23 -11 11 23 1 2 0.95284034D-01 0.37829443D-01 0.16477232D+06 0.16477232D+06 0.16477232D+06 0.11043471D+01  1  2 12  4  7  2       -1 0.803280149117D-05 0.100000000000D+01
-.443879606202D-07 0.000000000000D+00 -.117326832507D-06 0.614899109041D-06 0.000000000000D+00  7 1 21 23 -11 11 23 1 2 0.95284034D-01 0.45098134D-01 0.83121700D+05 0.83121700D+05 0.83121700D+05 0.11283706D+01  1  2  5  4  7  2       -1 -.106585153052D-04 0.100000000000D+01
  </mgrwgt>
  </event>
  <event>
  7     66 0.56006291E-06 0.21505397E+03 0.75467711E-02 0.95121351E-01
        1 -1    0    0  501    0 0.00000000E+00 0.00000000E+00 0.59203868E+03 0.59203877E+03 0.32000000E+00 0.0000E+00 0.9000E+01
       -1 -1    0    0    0  501 0.00000000E+00 0.00000000E+00 -.61498267E+03 0.61498276E+03 0.32000000E+00 0.0000E+00 0.9000E+01
       25  2    1    2    0    0 -.32140288E+03 0.10096688E+03 0.39148437E+03 0.59756885E+03 0.30055682E+03 0.0000E+00 0.0000E+00
       23  1    3    3    0    0 -.56434287E+02 0.23078028E+02 0.25234558E+03 0.27515626E+03 0.91188000E+02 0.0000E+00 0.9000E+01
      -11  1    1    2    0    0 0.36959020E+03 -.10549569E+03 -.30799507E+03 0.49253144E+03 0.51099893E-03 0.0000E+00 0.9000E+01
       11  1    1    2    0    0 -.48187322E+02 0.45288161E+01 -.10643329E+03 0.11692123E+03 0.51099893E-03 0.0000E+00 0.9000E+01
       23  1    3    3    0    0 -.26496859E+03 0.77888850E+02 0.13913880E+03 0.32241260E+03 0.91188000E+02 0.0000E+00 0.9000E+01
#aMCatNLO 1  0  0  2  1 0.11090675D+03 0.00000000D+00  -5  7  0 0.00000000D+00 0.00000000D+00 0.00000000D+00 0.00000000D+00 0.00000000D+00
  <mgrwgt>
 0.1133252943D-02    9    2    0
 0.603401717972800D+03 0.000000000000000D+00 0.000000000000000D+00 0.603401717972800D+03
 0.603401717972800D+03 0.000000000000000D+00 0.000000000000000D+00 -.603401717972800D+03
 0.280003627573003D+03 -.564342882475891D+02 0.230780285921027D+02 0.257622506424286D+03
 0.486764785755669D+03 0.369590194009014D+03 -.105495693365178D+03 -.298686631481126D+03
 0.114918821852975D+03 -.481873136147630D+02 0.452881425256335D+01 -.104229593993904D+03
 0.325116200763954D+03 -.264968592146662D+03 0.778888505205115D+02 0.145293719050744D+03
 0.000000000000000D+00 0.000000000000000D+00 0.000000000000000D+00 -.000000000000000D+00
 0.625984412676179D+03 0.000000000000000D+00 0.000000000000000D+00 0.625984412676179D+03
 0.759391918621555D+03 0.000000000000000D+00 0.000000000000000D+00 -.759391918621555D+03
 0.286347485879743D+03 -.824023378223240D+02 0.228063638209673D+02 0.257622506424286D+03
 0.454953509478274D+03 0.326410995107148D+03 -.105947412588592D+03 -.298686631481126D+03
 0.119826972855677D+03 -.589507610410271D+02 0.441621243881264D+01 -.104229593993904D+03
 0.350760987093523D+03 -.295958576811325D+03 0.775646487714666D+02 0.145293719050744D+03
 0.173487375990517D+03 0.110900680567528D+03 0.116018755734535D+01 -.133407505945377D+03
0.185669226891D-03 0.000000000000D+00 0.000000000000D+00 0.211381789716D-09 0.000000000000D+00  7 1 -1 23 -11 11 23 21 0 0.91082887D-01 0.94612732D-01 0.17359265D+06 0.17359265D+06 0.17359265D+06 0.11025801D+01  1  2  2  2  7  2       -1 0.907596559472D-03 0.100000000000D+01
-.859477997301D-05 0.000000000000D+00 -.713018719093D-06 0.211381789716D-09 0.000000000000D+00  7 1 -1 23 -11 11 23 21 2 0.91082887D-01 0.94612732D-01 0.17359265D+06 0.17359265D+06 0.17359265D+06 0.11025801D+01  1  2  3  2  7  2       -1 -.510749536163D-04 0.100000000000D+01
0.112411954786D-04 0.000000000000D+00 0.000000000000D+00 0.211381789716D-09 0.000000000000D+00  7 1 -1 23 -11 11 23 21 2 0.91082887D-01 0.94612732D-01 0.17359265D+06 0.17359265D+06 0.17359265D+06 0.11025801D+01  1  2 15  2  7  2       -1 0.668014235924D-04 0.100000000000D+01
0.369194650975D-03 0.000000000000D+00 0.000000000000D+00 0.211381789716D-09 0.000000000000D+00  7 1 -1 23 -11 11 23 21 2 0.91082887D-01 0.12051752D+00 0.22917930D+06 0.22917930D+06 0.22917930D+06 0.10933115D+01  1  2 12  2  7  2       -1 0.121962100630D-02 0.100000000000D+01
-.389657786871D-03 0.000000000000D+00 0.000000000000D+00 0.211381789716D-09 0.000000000000D+00  7 1 -1 23 -11 11 23 21 2 0.91082887D-01 0.94612732D-01 0.17359265D+06 0.17359265D+06 0.17359265D+06 0.11025801D+01  1  2  4  2  7  2       -1 -.231556287109D-02 0.100000000000D+01
-.499727052307D-03 0.000000000000D+00 -.100898263626D-03 0.211381789716D-09 0.000000000000D+00  7 1 -1 23 -11 11 23 21 2 0.91082887D-01 0.12157709D+00 0.17359265D+06 0.17359265D+06 0.17359265D+06 0.11025801D+01  1  2  5  2  7  2       -1 -.166497908588D-02 0.100000000000D+01
0.511939502478D-03 0.000000000000D+00 0.978071193631D-04 0.211381789716D-09 0.000000000000D+00  7 1 -1 23 -11 11 23 21 2 0.91082887D-01 0.94612732D-01 0.17359265D+06 0.17359265D+06 0.17359265D+06 0.11025801D+01  1  2  6  2  7  2       -1 0.304222870458D-02 0.100000000000D+01
0.121979078149D-04 0.000000000000D+00 0.000000000000D+00 0.211381789716D-09 0.000000000000D+00  7 1 21 23 -11 11 23 1 2 0.91082887D-01 0.12051752D+00 0.22917930D+06 0.22917930D+06 0.22917930D+06 0.10933115D+01  1  2 12  4  7  2       -1 0.266125060845D-03 0.100000000000D+01
-.152507828635D-04 0.000000000000D+00 -.342234137378D-05 0.211381789716D-09 0.000000000000D+00  7 1 21 23 -11 11 23 1 2 0.91082887D-01 0.12157709D+00 0.17359265D+06 0.17359265D+06 0.17359265D+06 0.11025801D+01  1  2  5  4  7  2       -1 -.337502901210D-03 0.100000000000D+01
  </mgrwgt>
  </event>
  <event>
  7     66 0.56006291E-06 0.30767310E+03 0.75467711E-02 0.91935350E-01
        1 -1    0    0  501    0 0.00000000E+00 0.00000000E+00 0.19916004E+04 0.19916005E+04 0.32000000E+00 0.0000E+00 0.9000E+01
       -1 -1    0    0    0  501 0.00000000E+00 0.00000000E+00 -.14282607E+03 0.14282642E+03 0.32000000E+00 0.0000E+00 0.9000E+01
       25  2    1    2    0    0 0.45912602E+03 -.15686078E+01 0.98472936E+03 0.11265870E+04 0.29783761E+03 0.0000E+00 0.0000E+00
       23  1    3    3    0    0 0.44101462E+03 0.15707512E+02 0.84885651E+03 0.96104800E+03 0.91188000E+02 0.0000E+00 0.9000E+01
      -13  1    1    2    0    0 -.46460790E+02 -.45360709E+02 0.21343538E+02 0.68350251E+02 0.10565837E+00 0.0000E+00 0.9000E+01
       13  1    1    2    0    0 -.41266523E+03 0.46929317E+02 0.84270146E+03 0.93948960E+03 0.10565837E+00 0.0000E+00 0.9000E+01
       23  1    3    3    0    0 0.18111401E+02 -.17276119E+02 0.13587285E+03 0.16553903E+03 0.91188000E+02 0.0000E+00 0.9000E+01
#aMCatNLO 1  0  0  1  2 0.23438758D+03 0.00000000D+00  -5  7  0 0.00000000D+00 0.00000000D+00 0.00000000D+00 0.00000000D+00 0.00000000D+00
  <mgrwgt>
 0.1670869660D-02    9    2    0
 0.533341226644847D+03 0.000000000000000D+00 0.000000000000000D+00 0.533341226644847D+03
 0.533341226644847D+03 0.000000000000000D+00 0.000000000000000D+00 -.533341226644847D+03
 0.451815124369554D+03 0.441015336468134D+03 0.157075090717781D+02 0.328694755622005D+02
 0.997751928968925D+02 -.464614467044052D+02 -.453601157332885D+02 -.757554155714856D+02
 0.419344109714552D+03 -.412665443522946D+03 0.469287264620645D+02 0.579172574190951D+02
 0.957480263086950D+02 0.181115537592168D+02 -.172761198005541D+02 -.150313174098100D+02
 0.000000000000000D+00 -.000000000000000D+00 -.000000000000000D+00 0.000000000000000D+00
 0.679706602408813D+03 0.000000000000000D+00 0.000000000000000D+00 0.679706602408813D+03
 0.648835705054030D+03 0.000000000000000D+00 0.000000000000000D+00 -.648835705054030D+03
 0.524079546372822D+03 0.505240499096947D+03 0.999787739016463D+02 0.328694755622005D+02
 0.880398008823529D+02 -.341010466722732D+02 -.291417598447880D+02 -.757554155714856D+02
 0.382585771491763D+03 -.359889177209082D+03 0.116177639710780D+03 0.579172574190951D+02
 0.974253652694648D+02 0.308245983752191D+02 -.595051107573855D+00 -.150313174098100D+02
 0.236411823446440D+03 -.142074873590812D+03 -.186419602660064D+03 0.308708973547824D+02
0.174441287427D-03 0.000000000000D+00 0.000000000000D+00 0.249881372731D-10 0.000000000000D+00  7 1 -1 23 -13 13 23 21 0 0.30640010D+00 0.21973270D-01 0.26287990D+06 0.26287990D+06 0.26287990D+06 0.10888216D+01  1  2  2  1  7  1        1 0.109686712956D-02 0.100000000000D+01
-.967285842529D-05 0.000000000000D+00 -.669900475166D-06 0.249881372731D-10 0.000000000000D+00  7 1 -1 23 -13 13 23 21 2 0.30640010D+00 0.21973270D-01 0.26287990D+06 0.26287990D+06 0.26287990D+06 0.10888216D+01  1  2  3  1  7  1        1 -.721062668053D-04 0.100000000000D+01
0.108564727705D-04 0.000000000000D+00 0.000000000000D+00 0.249881372731D-10 0.000000000000D+00  7 1 -1 23 -13 13 23 21 2 0.30640010D+00 0.21973270D-01 0.26287990D+06 0.26287990D+06 0.26287990D+06 0.10888216D+01  1  2 15  1  7  1        1 0.809295130497D-04 0.100000000000D+01
0.578635251384D-04 0.000000000000D+00 0.000000000000D+00 0.249881372731D-10 0.000000000000D+00  7 1 -1 23 -13 13 23 21 2 0.41588769D+00 0.21973270D-01 0.40750820D+06 0.40750820D+06 0.40750820D+06 0.10748459D+01  1  2 12  1  7  1        1 0.133865487435D-03 0.100000000000D+01
-.726663187690D-04 0.000000000000D+00 0.000000000000D+00 0.249881372731D-10 0.000000000000D+00  7 1 -1 23 -13 13 23 21 2 0.30640010D+00 0.21973270D-01 0.26287990D+06 0.26287990D+06 0.26287990D+06 0.10888216D+01  1  2  4  1  7  1        1 -.541690650120D-03 0.100000000000D+01
-.165521995305D-03 0.000000000000D+00 -.651660288352D-04 0.249881372731D-10 0.000000000000D+00  7 1 -1 23 -13 13 23 21 2 0.42387976D+00 0.21973270D-01 0.26287990D+06 0.26287990D+06 0.26287990D+06 0.10888216D+01  1  2  5  1  7  1        1 -.369919409464D-03 0.100000000000D+01
0.180376022068D-03 0.000000000000D+00 0.618782554579D-04 0.249881372731D-10 0.000000000000D+00  7 1 -1 23 -13 13 23 21 2 0.30640010D+00 0.21973270D-01 0.26287990D+06 0.26287990D+06 0.26287990D+06 0.10888216D+01  1  2  6  1  7  1        1 0.134461200616D-02 0.100000000000D+01
0.226639292534D-05 0.000000000000D+00 0.000000000000D+00 0.249881372731D-10 0.000000000000D+00  7 21 -1 23 -13 13 23 -1 2 0.41588769D+00 0.21973270D-01 0.40750820D+06 0.40750820D+06 0.40750820D+06 0.10748459D+01  1  2 12  3  7  1        1 0.148305327492D-05 0.100000000000D+01
-.512394230175D-05 0.000000000000D+00 -.266607805765D-05 0.249881372731D-10 0.000000000000D+00  7 21 -1 23 -13 13 23 -1 2 0.42387976D+00 0.21973270D-01 0.26287990D+06 0.26287990D+06 0.26287990D+06 0.10888216D+01  1  2  5  3  7  1        1 -.317120345326D-05 0.100000000000D+01
  </mgrwgt>
  </event>
  <event>
  8     66 0.56006291E-06 0.29709975E+03 0.75467711E-02 0.90684200E-01
        1 -1    0    0  501    0 0.00000000E+00 0.00000000E+00 0.10192144E+04 0.10192144E+04 0.32000000E+00 0.0000E+00 0.9000E+01
       -1 -1    0    0    0  501 0.00000000E+00 0.00000000E+00 -.92718526E+02 0.92719078E+02 0.32000000E+00 0.0000E+00 0.9000E+01
       25  2    1    2    0    0 -.19787420E+03 0.10104895E+03 0.52324870E+03 0.64270051E+03 0.29984939E+03 0.0000E+00 0.0000E+00
       23  2    1    2    0    0 0.19787420E+03 -.10104895E+03 0.40324716E+03 0.46923301E+03 0.90588358E+02 0.0000E+00 0.0000E+00
       23  1    3    3    0    0 -.23862370E+03 0.88981928E+02 0.34988234E+03 0.44225780E+03 0.91188000E+02 0.0000E+00 0.9000E+01
      -11  1    4    4    0    0 0.25124330E+02 -.20755690E+02 0.14328658E+03 0.14694582E+03 0.51099893E-03 0.0000E+00 0.9000E+01
       11  1    4    4    0    0 0.17274987E+03 -.80293260E+02 0.25996059E+03 0.32228719E+03 0.51099893E-03 0.0000E+00 0.9000E+01
       23  1    3    3    0    0 0.40749505E+02 0.12067022E+02 0.17336635E+03 0.20044271E+03 0.91188000E+02 0.0000E+00 0.9000E+01
#aMCatNLO 1  0  0  2  1 0.59390397D+03 0.00000000D+00  -5  7  0 0.00000000D+00 0.00000000D+00 0.00000000D+00 0.00000000D+00 0.00000000D+00
  <mgrwgt>
 0.3034045732D-03    5    2    0
 0.307409157302349D+03 0.000000000000000D+00 0.000000000000000D+00 0.307409157302349D+03
 0.307409157302349D+03 0.000000000000000D+00 0.000000000000000D+00 -.307409157302349D+03
 0.272595533413692D+03 -.238623704321436D+03 0.889819283139033D+02 -.336751787307945D+02
 0.498351458665468D+02 0.251243300434946D+02 -.207556898440452D+02 0.377029328103711D+02
 0.191128850573167D+03 0.172749868879722D+03 -.802932602020794D+02 -.155149182911181D+02
 0.101258784751291D+03 0.407495053982190D+02 0.120670217322213D+02 0.114871642115416D+02
 0.000000000000000D+00 0.000000000000000D+00 0.000000000000000D+00 -.000000000000000D+00
 0.621205198710858D+03 0.000000000000000D+00 0.000000000000000D+00 0.621205198710858D+03
 0.882435037505926D+03 0.000000000000000D+00 0.000000000000000D+00 -.882435037505926D+03
 0.297460034897015D+03 -.243012436703256D+03 -.141344115413159D+03 -.336751787307945D+02
 0.888728292313736D+02 0.240564478653887D+02 -.767994527922262D+02 0.377029328103711D+02
 0.340108158402552D+03 0.168659992044342D+03 -.294934999289670D+03 -.155149182911181D+02
 0.128382634534294D+03 0.389815466428778D+02 -.807176163279887D+02 0.114871642115416D+02
 0.648816579151549D+03 0.113144501506481D+02 0.593796183823044D+03 -.261229838795067D+03
0.462928655694D-05 0.000000000000D+00 0.000000000000D+00 0.468287856383D-06 0.000000000000D+00  7 1 -1 23 -11 11 23 21 0 0.15680226D+00 0.14264435D-01 0.88268264D+05 0.88268264D+05 0.88268264D+05 0.11261967D+01  1  2  2  2  7  2       -1 0.273351168262D-03 0.100000000000D+01
-.256818731065D-06 0.000000000000D+00 -.177776792978D-07 0.468287856383D-06 0.000000000000D+00  7 1 -1 23 -11 11 23 21 2 0.15680226D+00 0.14264435D-01 0.88268264D+05 0.88268264D+05 0.88268264D+05 0.11261967D+01  1  2  3  2  7  2       -1 -.192336665235D-04 0.100000000000D+01
0.300027163774D-06 0.000000000000D+00 0.000000000000D+00 0.468287856383D-06 0.000000000000D+00  7 1 -1 23 -11 11 23 21 2 0.15680226D+00 0.14264435D-01 0.88268264D+05 0.88268264D+05 0.88268264D+05 0.11261967D+01  1  2 15  2  7  2       -1 0.224696321490D-04 0.100000000000D+01
0.316897339272D-05 0.000000000000D+00 -.213143580079D-05 0.468287856383D-06 0.000000000000D+00  7 1 -1 23 -11 11 23 21 2 0.15680226D+00 0.83086234D-01 0.88268264D+05 0.88268264D+05 0.88268264D+05 0.11261967D+01  1  2  5  2  7  2       -1 0.113315486718D-04 0.100000000000D+01
0.560417146410D-06 0.000000000000D+00 -.460199349194D-06 0.468287856383D-06 0.000000000000D+00  7 1 21 23 -11 11 23 1 2 0.15680226D+00 0.83086234D-01 0.88268264D+05 0.88268264D+05 0.88268264D+05 0.11261967D+01  1  2  5  4  7  2       -1 0.154858906389D-04 0.100000000000D+01
  </mgrwgt>
  </event>
  <event>
  8     66 0.56006291E-06 0.11554886E+04 0.75467711E-02 0.82966415E-01
        1 -1    0    0  501    0 0.00000000E+00 0.00000000E+00 0.14885134E+04 0.14885134E+04 0.32000000E+00 0.0000E+00 0.9000E+01
       -1 -1    0    0    0  501 0.00000000E+00 0.00000000E+00 -.93176884E+03 0.93176889E+03 0.32000000E+00 0.0000E+00 0.9000E+01
       25  2    1    2    0    0 0.68967601E+03 -.90947196E+03 0.47763234E+03 0.12731356E+04 0.29991546E+03 0.0000E+00 0.0000E+00
       23  2    1    2    0    0 -.68967601E+03 0.90947196E+03 0.79112185E+02 0.11471467E+04 0.83033853E+02 0.0000E+00 0.0000E+00
       23  1    3    3    0    0 0.27286784E+03 -.50724418E+03 0.32337398E+03 0.66681294E+03 0.91188000E+02 0.0000E+00 0.9000E+01
      -13  1    4    4    0    0 -.67505089E+03 0.88746574E+03 0.89810872E+02 0.11186399E+04 0.10565837E+00 0.0000E+00 0.9000E+01
       13  1    4    4    0    0 -.14625118E+02 0.22006215E+02 -.10698687E+02 0.28506852E+02 0.10565837E+00 0.0000E+00 0.9000E+01
       23  1    3    3    0    0 0.41680817E+03 -.40222778E+03 0.15425836E+03 0.60632262E+03 0.91188000E+02 0.0000E+00 0.9000E+01
#aMCatNLO 1  0  0  2  2 0.79461335D+03 0.00000000D+00  -5  7  0 0.00000000D+00 0.00000000D+00 0.00000000D+00 0.00000000D+00 0.00000000D+00
  <mgrwgt>
 0.1166025998D-02    3    2    0
 0.117768861257396D+04 0.000000000000000D+00 0.000000000000000D+00 0.117768861257396D+04
 0.117768861257396D+04 0.000000000000000D+00 0.000000000000000D+00 -.117768861257396D+04
 0.608751262276474D+03 0.272867841026560D+03 -.507244180105480D+03 0.174669204675077D+03
 0.112823826821427D+04 -.675051957769939D+03 0.887467144098616D+03 -.172129347641668D+03
 0.318194821420744D+02 -.146240484989920D+02 0.220048135690973D+02 -.177314643805356D+02
 0.586568212515096D+03 0.416808165242371D+03 -.402227777562233D+03 0.151916073471269D+02
 0.000000000000000D+00 0.000000000000000D+00 0.000000000000000D+00 0.000000000000000D+00
 0.189524982797863D+04 0.000000000000000D+00 0.000000000000000D+00 0.189524982797863D+04
 0.148487683663640D+04 0.000000000000000D+00 0.000000000000000D+00 -.148487683663640D+04
 0.651160652722146D+03 0.953187642577984D+02 -.613269880581195D+03 0.174669204675077D+03
 0.123273725656073D+04 -.100776491945179D+04 0.688783346572532D+03 -.172129347641668D+03
 0.340111486202805D+02 -.239010206236457D+02 0.164649510943905D+02 -.177314643805356D+02
 0.567893075709749D+03 0.254119382439789D+03 -.499379463564242D+03 0.151916073471269D+02
 0.894324531002125D+03 0.682227793377847D+03 0.407401046478515D+03 0.410372991342237D+03
0.379663699990D-02 0.000000000000D+00 0.000000000000D+00 0.322343451343D-06 0.000000000000D+00  7 1 -1 23 -13 13 23 21 0 0.22900206D+00 0.14334906D+00 0.13351539D+07 0.13351539D+07 0.13351539D+07 0.10396086D+01  1  2  2  2  7  2       -1 0.115623495571D-02 0.100000000000D+01
-.210831401560D-03 0.000000000000D+00 -.145800857571D-04 0.322343451343D-06 0.000000000000D+00  7 1 -1 23 -13 13 23 21 2 0.22900206D+00 0.14334906D+00 0.13351539D+07 0.13351539D+07 0.13351539D+07 0.10396086D+01  1  2  3  2  7  2       -1 -.693940174238D-04 0.100000000000D+01
0.240578334881D-03 0.000000000000D+00 0.000000000000D+00 0.322343451343D-06 0.000000000000D+00  7 1 -1 23 -13 13 23 21 2 0.22900206D+00 0.14334906D+00 0.13351539D+07 0.13351539D+07 0.13351539D+07 0.10396086D+01  1  2 15  2  7  2       -1 0.791850599056D-04 0.100000000000D+01
  </mgrwgt>
  </event>
  <event>
  8     66 0.56006291E-06 0.21356349E+03 0.75467711E-02 0.10179875E+00
        1 -1    0    0  501    0 0.00000000E+00 0.00000000E+00 0.16695491E+04 0.16695491E+04 0.32000000E+00 0.0000E+00 0.9000E+01
       -1 -1    0    0    0  501 0.00000000E+00 0.00000000E+00 -.30430143E+02 0.30431825E+02 0.32000000E+00 0.0000E+00 0.9000E+01
       25  2    1    2    0    0 0.81755501E+02 0.50097335E+02 0.10326785E+04 0.10790411E+04 0.29784426E+03 0.0000E+00 0.0000E+00
       23  2    1    2    0    0 -.81755501E+02 -.50097335E+02 0.60644048E+03 0.62093983E+03 0.92749731E+02 0.0000E+00 0.0000E+00
       23  1    3    3    0    0 0.12894008E+03 -.52155431E+02 0.49582418E+03 0.52297476E+03 0.91188000E+02 0.0000E+00 0.9000E+01
      -11  1    4    4    0    0 -.86660643E+02 -.59624488E+02 0.38127821E+03 0.39552272E+03 0.51099893E-03 0.0000E+00 0.9000E+01
       11  1    4    4    0    0 0.49051425E+01 0.95271521E+01 0.22516227E+03 0.22541712E+03 0.51099893E-03 0.0000E+00 0.9000E+01
       23  1    3    3    0    0 -.47184576E+02 0.10225277E+03 0.53685429E+03 0.55606635E+03 0.91188000E+02 0.0000E+00 0.9000E+01
#aMCatNLO 1  0  0  2  2 0.11178410D+03 0.00000000D+00  -5  7  0 0.00000000D+00 0.00000000D+00 0.00000000D+00 0.00000000D+00 0.00000000D+00
  <mgrwgt>
 0.5562440513D-03    3    2    0
 0.225402025437321D+03 0.000000000000000D+00 0.000000000000000D+00 0.225402025437321D+03
 0.225402025437321D+03 0.000000000000000D+00 0.000000000000000D+00 -.225402025437321D+03
 0.169324835224598D+03 0.128940076725181D+03 -.521554305146339D+02 -.317791781167320D+02
 0.105191479612128D+03 -.866606433797901D+02 -.596244876263501D+02 -.317407127879402D+00
 0.313596434419651D+02 0.490514247628019D+01 0.952715210873327D+01 0.294720237987084D+02
 0.144928092595951D+03 -.471845758216708D+02 0.102252766032251D+03 0.262456144590293D+01
 0.000000000000000D+00 -.000000000000000D+00 0.000000000000000D+00 0.000000000000000D+00
 0.495426127616869D+03 0.000000000000000D+00 0.000000000000000D+00 0.495426127616869D+03
 0.244097424964163D+03 0.000000000000000D+00 0.000000000000000D+00 -.244097424964163D+03
 0.207706430862460D+03 0.174679466168731D+03 -.574793703414899D+02 -.317791781167320D+02
 0.887417868790110D+02 -.631337107352976D+02 -.623629582363341D+02 -.317407127879402D+00
 0.332443880493576D+02 0.127425533803474D+02 0.861489891604263D+01 0.294720237987084D+02
 0.134764041960558D+03 -.132538421731144D+02 0.983033214414142D+02 0.262456144590293D+01
 0.275066904829646D+03 -.111034466640666D+03 0.129241082203672D+02 0.251328702652706D+03
0.473939602047D-05 0.000000000000D+00 0.000000000000D+00 0.551722451193D-08 0.000000000000D+00  7 1 -1 23 -11 11 23 21 0 0.25685384D+00 0.46816922D-02 0.45609364D+05 0.45609364D+05 0.45609364D+05 0.11508230D+01  1  2  2  2  7  2       -1 0.549302928580D-03 0.100000000000D+01
-.262367946592D-06 0.000000000000D+00 -.182005286303D-07 0.551722451193D-08 0.000000000000D+00  7 1 -1 23 -11 11 23 21 2 0.25685384D+00 0.46816922D-02 0.45609364D+05 0.45609364D+05 0.45609364D+05 0.11508230D+01  1  2  3  2  7  2       -1 -.402732584337D-04 0.100000000000D+01
0.307587235813D-06 0.000000000000D+00 0.000000000000D+00 0.551722451193D-08 0.000000000000D+00  7 1 -1 23 -11 11 23 21 2 0.25685384D+00 0.46816922D-02 0.45609364D+05 0.45609364D+05 0.45609364D+05 0.11508230D+01  1  2 15  2  7  2       -1 0.472143811762D-04 0.100000000000D+01
  </mgrwgt>
  </event>
  <event>
  8     66 0.56006291E-06 0.10229228E+03 0.75467711E-02 0.10071780E+00
        1 -1    0    0  501    0 0.00000000E+00 0.00000000E+00 0.31869941E+03 0.31869957E+03 0.32000000E+00 0.0000E+00 0.9000E+01
       -1 -1    0    0    0  501 0.00000000E+00 0.00000000E+00 -.28890225E+03 0.28890243E+03 0.32000000E+00 0.0000E+00 0.9000E+01
       25  2    1    2    0    0 -.18591675E+03 0.85802099E+02 -.54082496E+02 0.36657309E+03 0.29920540E+03 0.0000E+00 0.0000E+00
       23  2    1    2    0    0 0.18591675E+03 -.85802099E+02 0.83879660E+02 0.24102892E+03 0.95562038E+02 0.0000E+00 0.0000E+00
       23  1    3    3    0    0 -.98701451E+02 0.28373018E+02 -.14583511E+03 0.20032508E+03 0.91188000E+02 0.0000E+00 0.9000E+01
      -11  1    4    4    0    0 0.48388931E+02 0.97829235E+00 0.59331566E+02 0.76568142E+02 0.51099893E-03 0.0000E+00 0.9000E+01
       11  1    4    4    0    0 0.13752782E+03 -.86780392E+02 0.24548094E+02 0.16446077E+03 0.51099893E-03 0.0000E+00 0.9000E+01
       23  1    3    3    0    0 -.87215298E+02 0.57429081E+02 0.91752616E+02 0.16624801E+03 0.91188000E+02 0.0000E+00 0.9000E+01
#aMCatNLO 1  0  0  2  1 0.10811889D+03 0.00000000D+00  -5  7  0 0.00000000D+00 0.00000000D+00 0.00000000D+00 0.00000000D+00 0.00000000D+00
  <mgrwgt>
 0.1644592710D-03    9    2    0
 0.303435463670095D+03 0.000000000000000D+00 0.000000000000000D+00 0.303435463670095D+03
 0.303435463670095D+03 0.000000000000000D+00 0.000000000000000D+00 -.303435463670095D+03
 0.207726855649208D+03 -.987014509215028D+02 0.283730178379952D+02 -.155846689598021D+03
 0.737472207428937D+02 0.483889307915715D+02 0.978292314846403D+00 0.556435700534779D+02
 0.163453589844001D+03 0.137527817952967D+03 -.867803915017269D+02 0.165026959250103D+02
 0.161943261104088D+03 -.872152978230357D+02 0.574290813488854D+02 0.837004236195325D+02
 0.000000000000000D+00 0.000000000000000D+00 0.000000000000000D+00 -.000000000000000D+00
 0.349494918758490D+03 0.000000000000000D+00 0.000000000000000D+00 0.349494918758490D+03
 0.379005957896034D+03 0.000000000000000D+00 0.000000000000000D+00 -.379005957896034D+03
 0.208431899824375D+03 -.103805449578389D+03 -.805254615415354D+01 -.155846689598021D+03
 0.735395703966799D+02 0.465825250046789D+02 -.119134331752192D+02 0.556435700534779D+02
 0.177938404143271D+03 0.133340799763719D+03 -.116661766721718D+03 0.165026959250103D+02
 0.156516939307236D+03 -.911210679499228D+02 0.295548812834934D+02 0.837004236195325D+02
 0.112074062982962D+03 0.150031927599148D+02 0.107072864767597D+03 -.295110391375441D+02
0.258262511164D-05 0.000000000000D+00 0.000000000000D+00 0.121378490755D-07 0.000000000000D+00  7 1 -1 23 -11 11 23 21 0 0.49030705D-01 0.44446526D-01 0.59290505D+05 0.59290505D+05 0.59290505D+05 0.11408414D+01  1  2  2  2  7  2       -1 0.128132984690D-03 0.100000000000D+01
-.135030682280D-06 0.000000000000D+00 -.991796044950D-08 0.121378490755D-07 0.000000000000D+00  7 1 -1 23 -11 11 23 21 2 0.49030705D-01 0.44446526D-01 0.59290505D+05 0.59290505D+05 0.59290505D+05 0.11408414D+01  1  2  3  2  7  2       -1 -.871931936102D-05 0.100000000000D+01
0.161046399815D-06 0.000000000000D+00 0.000000000000D+00 0.121378490755D-07 0.000000000000D+00  7 1 -1 23 -11 11 23 21 2 0.49030705D-01 0.44446526D-01 0.59290505D+05 0.59290505D+05 0.59290505D+05 0.11408414D+01  1  2 15  2  7  2       -1 0.103992290361D-04 0.100000000000D+01
0.120378759231D-05 0.000000000000D+00 0.000000000000D+00 0.121378490755D-07 0.000000000000D+00  7 1 -1 23 -11 11 23 21 2 0.49030705D-01 0.58201596D-01 0.91213885D+05 0.91213885D+05 0.91213885D+05 0.11250143D+01  1  2 12  2  7  2       -1 0.463286333346D-04 0.100000000000D+01
-.152754098886D-05 0.000000000000D+00 0.000000000000D+00 0.121378490755D-07 0.000000000000D+00  7 1 -1 23 -11 11 23 21 2 0.49030705D-01 0.44446526D-01 0.59290505D+05 0.59290505D+05 0.59290505D+05 0.11408414D+01  1  2  4  2  7  2       -1 -.986377132519D-04 0.100000000000D+01
-.255920212079D-05 0.000000000000D+00 -.115538614037D-05 0.121378490755D-07 0.000000000000D+00  7 1 -1 23 -11 11 23 21 2 0.49030705D-01 0.62800721D-01 0.59290505D+05 0.59290505D+05 0.59290505D+05 0.11408414D+01  1  2  5  2  7  2       -1 -.885329769812D-04 0.100000000000D+01
0.285223238388D-05 0.000000000000D+00 0.108963271763D-05 0.121378490755D-07 0.000000000000D+00  7 1 -1 23 -11 11 23 21 2 0.49030705D-01 0.44446526D-01 0.59290505D+05 0.59290505D+05 0.59290505D+05 0.11408414D+01  1  2  6  2  7  2       -1 0.184176845047D-03 0.100000000000D+01
0.430630324008D-07 0.000000000000D+00 0.000000000000D+00 0.121378490755D-07 0.000000000000D+00  7 1 21 23 -11 11 23 1 2 0.49030705D-01 0.58201596D-01 0.91213885D+05 0.91213885D+05 0.91213885D+05 0.11250143D+01  1  2 12  4  7  2       -1 0.146173318905D-04 0.100000000000D+01
-.774811081994D-07 0.000000000000D+00 -.494660256991D-07 0.121378490755D-07 0.000000000000D+00  7 1 21 23 -11 11 23 1 2 0.49030705D-01 0.62800721D-01 0.59290505D+05 0.59290505D+05 0.59290505D+05 0.11408414D+01  1  2  5  4  7  2       -1 -.233057434106D-04 0.100000000000D+01
  </mgrwgt>
  </event>
  <event>
  9     66 0.56006291E-06 0.15347737E+03 0.75467711E-02 0.10833633E+00
        1 -1    0    0  501    0 0.00000000E+00 0.00000000E+00 0.12251319E+03 0.12251361E+03 0.32000000E+00 0.0000E+00 0.9000E+01
       -1 -1    0    0    0  502 0.00000000E+00 0.00000000E+00 -.52005860E+03 0.52005869E+03 0.32000000E+00 0.0000E+00 0.9000E+01
       25  2    1    2    0    0 0.57673839E+02 -.64848663E+02 -.37938935E+03 0.49140709E+03 0.30002170E+03 0.0000E+00 0.0000E+00
       23  2    1    2    0    0 -.60398782E+02 0.29719941E+02 -.30007261E+01 0.11280249E+03 0.90466065E+02 0.0000E+00 0.0000E+00
       23  1    3    3    0    0 -.29166876E+02 -.14179072E+02 -.33484251E+03 0.34854915E+03 0.91188000E+02 0.0000E+00 0.9000E+01
      -11  1    4    4    0    0 -.32676973E+01 -.10602606E+02 0.32527087E+02 0.34367201E+02 0.51099893E-03 0.0000E+00 0.9000E+01
       11  1    4    4    0    0 -.57131084E+02 0.40322547E+02 -.35527813E+02 0.78435286E+02 0.51099893E-03 0.0000E+00 0.9000E+01
       23  1    3    3    0    0 0.86840715E+02 -.50669591E+02 -.44546844E+02 0.14285794E+03 0.91188000E+02 0.0000E+00 0.9000E+01
       21  1    1    2  501  502 0.27249422E+01 0.35128722E+02 -.15155327E+02 0.38362727E+02 0.75000000E+00 0.0000E+00 0.9000E+01
#aMCatNLO 2  0  0  2  1 0.35234251D+02 0.00000000D+00  -5  7  0 0.00000000D+00 0.00000000D+00 0.00000000D+00 0.00000000D+00 0.00000000D+00
  <mgrwgt>
 0.8866254740D-04    1    2    0
 0.233241067879678D+03 0.000000000000000D+00 0.000000000000000D+00 0.233241067879678D+03
 0.233241067879678D+03 0.000000000000000D+00 0.000000000000000D+00 -.233241067879678D+03
 0.175738152879327D+03 -.281396211798262D+02 -.936171993551667D+00 -.147566704697543D+03
 0.703599646197306D+02 -.285548138895429D+01 -.528850501147340D+01 0.701027999588511D+02
 0.751725854307129D+02 -.567010735896752D+02 0.458660513908218D+02 0.182266613489843D+02
 0.145211432829586D+03 0.876961761584557D+02 -.396413743857968D+02 0.592372433897077D+02
 0.000000000000000D+00 0.000000000000000D+00 0.000000000000000D+00 0.000000000000000D+00
 0.258373414673841D+03 0.000000000000000D+00 0.000000000000000D+00 0.258373414673841D+03
 0.246589915271358D+03 0.000000000000000D+00 0.000000000000000D+00 -.246589915271358D+03
 0.176473613888488D+03 -.291668756814695D+02 -.141790719919485D+02 -.147566704697543D+03
 0.709753173176335D+02 -.326769732922097D+01 -.106026063037667D+02 0.701027999588511D+02
 0.722639591674963D+02 -.571310843628391D+02 0.403225471685158D+02 0.182266613489843D+02
 0.148098006672172D+03 0.868407151246928D+02 -.506695907669610D+02 0.592372433897077D+02
 0.371524328994087D+02 0.272494224883679D+01 0.351287218941604D+02 0.117834994024826D+02
0.113252237041D-05 0.000000000000D+00 0.000000000000D+00 0.285294492642D-06 0.167635753346D-08  7 1 -1 23 -11 11 23 21 2 0.18847938D-01 0.80007846D-01 0.30410962D+05 0.30410962D+05 0.30410962D+05 0.11667881D+01  1  2  1  2  7  2       -1 0.886625473972D-04 0.100000000000D+01
  </mgrwgt>
  </event>
  <event>
  8     66 -.56006291E-06 0.18880501E+03 0.75467711E-02 0.10716239E+00
        1 -1    0    0  501    0 0.00000000E+00 0.00000000E+00 0.74038448E+03 0.74038455E+03 0.32000000E+00 0.0000E+00 0.9000E+01
       -1 -1    0    0    0  501 0.00000000E+00 0.00000000E+00 -.22921232E+03 0.22921254E+03 0.32000000E+00 0.0000E+00 0.9000E+01
       25  2    1    2    0    0 0.73329053E+02 0.53102278E+02 -.11197607E+03 0.33336901E+03 0.30066468E+03 0.0000E+00 0.0000E+00
       23  2    1    2    0    0 -.73329053E+02 -.53102278E+02 0.62314824E+03 0.63622808E+03 0.90969484E+02 0.0000E+00 0.0000E+00
       23  1    3    3    0    0 -.67473775E+02 0.32343641E+02 0.19069296E+02 0.11948938E+03 0.91188000E+02 0.0000E+00 0.9000E+01
      -13  1    4    4    0    0 -.11536305E+02 -.10154064E+02 0.96836721E+01 0.18165242E+02 0.10565837E+00 0.0000E+00 0.9000E+01
       13  1    4    4    0    0 -.61792748E+02 -.42948214E+02 0.61346456E+03 0.61806284E+03 0.10565837E+00 0.0000E+00 0.9000E+01
       23  1    3    3    0    0 0.14080283E+03 0.20758637E+02 -.13104537E+03 0.21387963E+03 0.91188000E+02 0.0000E+00 0.9000E+01
#aMCatNLO 1  0  0  2  1 0.35234251D+02 0.00000000D+00  -5  7  0 0.00000000D+00 0.00000000D+00 0.00000000D+00 0.00000000D+00 0.00000000D+00
  <mgrwgt>
 -.1130442690D-04    1    2    0
 0.411953132571770D+03 0.000000000000000D+00 0.000000000000000D+00 0.411953132571770D+03
 0.411953132571770D+03 0.000000000000000D+00 0.000000000000000D+00 -.411953132571770D+03
 0.128787535332137D+03 -.674737749237749D+02 0.323436408544992D+02 -.516929057679822D+02
 0.153689492592080D+02 -.115362371265655D+02 -.101540193521674D+02 0.125400508662068D+00
 0.346746107825825D+03 -.617928154853179D+02 -.429482585150583D+02 0.338481843438137D+03
 0.333003672726370D+03 0.140802827535658D+03 0.207586370127264D+02 -.286914338178817D+03
 0.000000000000000D+00 -.000000000000000D+00 -.000000000000000D+00 0.000000000000000D+00
 0.881415127205481D+03 0.000000000000000D+00 0.000000000000000D+00 0.881415127205481D+03
 0.469482926427916D+03 0.000000000000000D+00 0.000000000000000D+00 -.469482926427916D+03
 0.114021307892058D+03 -.301124693238061D+02 0.332669504749219D+02 -.516929057679822D+02
 0.123993894976988D+02 -.726348751611447D+01 -.100484269281973D+02 0.125400508662068D+00
 0.343761904573978D+03 0.444565308231913D+02 -.403225193436106D+02 0.338481843438137D+03
 0.393708992497485D+03 0.252623029832519D+03 0.235220486997738D+02 -.286914338178817D+03
 0.487006459172177D+03 -.259703603815790D+03 -.641805290288779D+01 0.411932200777565D+03
-.360110181546D-06 0.000000000000D+00 0.000000000000D+00 0.131043162351D-05 0.000000000000D+00  7 1 -1 23 -13 13 23 21 2 0.11390533D+00 0.35263456D-01 0.35647333D+05 0.35647333D+05 0.35647333D+05 0.11604492D+01  1  2 14  2  7  2       -1 -.113044268997D-04 0.100000000000D+01
  </mgrwgt>
  </event>
  <event>
  8     66 0.56006291E-06 0.35746221E+03 0.75467711E-02 0.89334146E-01
        3 -1    0    0  501    0 0.00000000E+00 0.00000000E+00 0.47230007E+03 0.47230033E+03 0.50000000E+00 0.0000E+00 0.9000E+01
       -3 -1    0    0    0  501 0.00000000E+00 0.00000000E+00 -.36748306E+03 0.36748340E+03 0.50000000E+00 0.0000E+00 0.9000E+01
       25  2    1    2    0    0 0.30272765E+03 0.11203822E+03 -.90199223E+02 0.44956321E+03 0.29962408E+03 0.0000E+00 0.0000E+00
       23  2    1    2    0    0 -.30272765E+03 -.11203822E+03 0.19501623E+03 0.39022051E+03 0.10022040E+03 0.0000E+00 0.0000E+00
       23  1    3    3    0    0 0.22136144E+03 0.65319001E+02 0.54928513E+02 0.25416501E+03 0.91188000E+02 0.0000E+00 0.9000E+01
      -11  1    4    4    0    0 -.50766184E+02 0.16096774E+02 0.47549686E+02 0.71395267E+02 0.51099893E-03 0.0000E+00 0.9000E+01
       11  1    4    4    0    0 -.25196146E+03 -.12813499E+03 0.14746655E+03 0.31882525E+03 0.51099893E-03 0.0000E+00 0.9000E+01
       23  1    3    3    0    0 0.81366203E+02 0.46719218E+02 -.14512774E+03 0.19539820E+03 0.91188000E+02 0.0000E+00 0.9000E+01
#aMCatNLO 1  0  0  1  1 0.67410317D+03 0.00000000D+00  -5  7  0 0.00000000D+00 0.00000000D+00 0.00000000D+00 0.00000000D+00 0.00000000D+00
  <mgrwgt>
 0.2521137058D-04    3    2    0
 0.416608359045389D+03 0.000000000000000D+00 0.000000000000000D+00 0.416608359045389D+03
 0.416608359045389D+03 0.000000000000000D+00 0.000000000000000D+00 -.416608359045389D+03
 0.249258319872117D+03 0.221361444826721D+03 0.653190012084533D+02 0.233879778268070D+02
 0.659763138090976D+02 -.507661836376067D+02 0.160967743669829D+02 0.389430666189473D+02
 0.302787073185360D+03 -.251961463872770D+03 -.128134993689915D+03 0.108521222824538D+03
 0.215195011224204D+03 0.813662026836552D+02 0.467192181144784D+02 -.170852267270292D+03
 0.000000000000000D+00 0.000000000000000D+00 0.000000000000000D+00 -.000000000000000D+00
 0.815090174143257D+03 0.000000000000000D+00 0.000000000000000D+00 0.815090174143257D+03
 0.942752990519267D+03 0.000000000000000D+00 0.000000000000000D+00 -.942752990519267D+03
 0.140675557244993D+03 0.833966812229775D+02 0.630266381489214D+02 0.233879778268070D+02
 0.125714345751706D+03 -.118589366190707D+03 0.149698535924063D+02 0.389430666189473D+02
 0.595012107068313D+03 -.569616991992303D+03 -.133413021059343D+03 0.108521222824538D+03
 0.210355974924239D+03 -.692004565647718D+02 0.442174673873902D+02 -.170852267270292D+03
 0.686085179673272D+03 0.674010133524805D+03 0.111990619306255D+02 -.127662816376010D+03
0.104846796946D-04 0.000000000000D+00 0.000000000000D+00 0.162246810121D-07 0.000000000000D+00  7 3 -3 23 -11 11 23 21 0 0.72661595D-01 0.56535901D-01 0.12777923D+06 0.12777923D+06 0.12777923D+06 0.11130890D+01  1  2  2  1  7  1        3 0.249179964463D-04 0.100000000000D+01
-.565878285951D-06 0.000000000000D+00 -.402639307067D-07 0.162246810121D-07 0.000000000000D+00  7 3 -3 23 -11 11 23 21 2 0.72661595D-01 0.56535901D-01 0.12777923D+06 0.12777923D+06 0.12777923D+06 0.11130890D+01  1  2  3  1  7  1        3 -.166625244771D-05 0.100000000000D+01
0.665511477604D-06 0.000000000000D+00 0.000000000000D+00 0.162246810121D-07 0.000000000000D+00  7 3 -3 23 -11 11 23 21 2 0.72661595D-01 0.56535901D-01 0.12777923D+06 0.12777923D+06 0.12777923D+06 0.11130890D+01  1  2 15  1  7  1        3 0.195962657707D-05 0.100000000000D+01
  </mgrwgt>
  </event>
  <event>
  8     66 0.56006291E-06 0.46091183E+03 0.75467711E-02 0.94724255E-01
        1 -1    0    0  501    0 0.00000000E+00 0.00000000E+00 0.16017237E+04 0.16017237E+04 0.32000000E+00 0.0000E+00 0.9000E+01
       -1 -1    0    0    0  501 0.00000000E+00 0.00000000E+00 -.16495114E+03 0.16495145E+03 0.32000000E+00 0.0000E+00 0.9000E+01
       25  2    1    2    0    0 -.28034972E+03 0.29998046E+03 0.11528507E+04 0.12592326E+04 0.29667783E+03 0.0000E+00 0.0000E+00
       23  2    1    2    0    0 0.28034972E+03 -.29998046E+03 0.28392182E+03 0.50744256E+03 0.91115855E+02 0.0000E+00 0.0000E+00
       23  1    3    3    0    0 -.65095769E+02 -.15776747E+02 0.28263492E+03 0.30444066E+03 0.91188000E+02 0.0000E+00 0.9000E+01
      -13  1    4    4    0    0 0.17076005E+03 -.13470819E+03 0.18645341E+03 0.28647893E+03 0.10565837E+00 0.0000E+00 0.9000E+01
       13  1    4    4    0    0 0.10958967E+03 -.16527227E+03 0.97468409E+02 0.22096362E+03 0.10565837E+00 0.0000E+00 0.9000E+01
       23  1    3    3    0    0 -.21525395E+03 0.31575721E+03 0.87021577E+03 0.95479193E+03 0.91188000E+02 0.0000E+00 0.9000E+01
#aMCatNLO 1  0  0  1  1 0.66502849D+02 0.00000000D+00  -5  7  0 0.00000000D+00 0.00000000D+00 0.00000000D+00 0.00000000D+00 0.00000000D+00
  <mgrwgt>
 0.4200855460D-03    3    2    0
 0.514010163002786D+03 0.000000000000000D+00 0.000000000000000D+00 0.514010163002786D+03
 0.514010163002786D+03 0.000000000000000D+00 0.000000000000000D+00 -.514010163002786D+03
 0.128174175104692D+03 -.650957691879375D+02 -.157767471726245D+02 0.602246037948779D+02
 0.231730878876222D+03 0.170760136656830D+03 -.134708149072320D+03 -.799618066779181D+02
 0.243507853127626D+03 0.109589586282749D+03 -.165272315855921D+03 -.141319703951084D+03
 0.424607418897033D+03 -.215253953751641D+03 0.315757212100866D+03 0.161056906834124D+03
 0.000000000000000D+00 0.000000000000000D+00 0.000000000000000D+00 -.000000000000000D+00
 0.517052306184197D+03 0.000000000000000D+00 0.000000000000000D+00 0.517052306184197D+03
 0.107697499401467D+04 0.000000000000000D+00 0.000000000000000D+00 -.107697499401467D+04
 0.132034279826629D+03 -.707625163060664D+02 -.219877940940001D+02 0.602246037948779D+02
 0.231207497271474D+03 0.160678393887946D+03 -.145758258788077D+03 -.799618066779181D+02
 0.247136810900785D+03 0.989044637080721D+02 -.176983760938701D+03 -.141319703951084D+03
 0.419790533854564D+03 -.233643016730290D+03 0.295601851252818D+03 0.161056906834124D+03
 0.563858178345416D+03 0.448226754403383D+02 0.491279625679594D+02 -.559922687830473D+03
0.459539620848D-04 0.000000000000D+00 0.000000000000D+00 0.358471718338D-07 0.000000000000D+00  7 1 -1 23 -13 13 23 21 0 0.24641905D+00 0.25377125D-01 0.21243972D+06 0.21243972D+06 0.21243972D+06 0.10958184D+01  1  2  2  1  7  1        1 0.416948830026D-03 0.100000000000D+01
-.251609385282D-05 0.000000000000D+00 -.176475314362D-06 0.358471718338D-07 0.000000000000D+00  7 1 -1 23 -13 13 23 21 2 0.24641905D+00 0.25377125D-01 0.21243972D+06 0.21243972D+06 0.21243972D+06 0.10958184D+01  1  2  3  1  7  1        1 -.274134558587D-04 0.100000000000D+01
0.280399158356D-05 0.000000000000D+00 0.000000000000D+00 0.358471718338D-07 0.000000000000D+00  7 1 -1 23 -13 13 23 21 2 0.24641905D+00 0.25377125D-01 0.21243972D+06 0.21243972D+06 0.21243972D+06 0.10958184D+01  1  2 15  1  7  1        1 0.305501718141D-04 0.100000000000D+01
  </mgrwgt>
  </event>
  <event>
  8     66 0.56006291E-06 0.21442646E+03 0.75467711E-02 0.85536653E-01
        1 -1    0    0  501    0 0.00000000E+00 0.00000000E+00 0.85921653E+03 0.85921659E+03 0.32000000E+00 0.0000E+00 0.9000E+01
       -1 -1    0    0    0  501 0.00000000E+00 0.00000000E+00 -.30842635E+03 0.30842651E+03 0.32000000E+00 0.0000E+00 0.9000E+01
       25  2    1    2    0    0 0.45045336E+01 0.13760420E+03 0.80406640E+03 0.86859100E+03 0.29828232E+03 0.0000E+00 0.0000E+00
       23  2    1    2    0    0 -.45045336E+01 -.13760420E+03 -.25327622E+03 0.29905211E+03 0.79549448E+02 0.0000E+00 0.0000E+00
       23  1    3    3    0    0 -.47837871E+02 -.55795615E+01 0.10447670E+03 0.14679995E+03 0.91188000E+02 0.0000E+00 0.9000E+01
      -13  1    4    4    0    0 -.17265833E+02 -.13359973E+03 -.25183309E+03 0.28559921E+03 0.10565837E+00 0.0000E+00 0.9000E+01
       13  1    4    4    0    0 0.12761300E+02 -.40044705E+01 -.14431300E+01 0.13452893E+02 0.10565837E+00 0.0000E+00 0.9000E+01
       23  1    3    3    0    0 0.52342405E+02 0.14318376E+03 0.69958970E+03 0.72179105E+03 0.91188000E+02 0.0000E+00 0.9000E+01
#aMCatNLO 1  0  0  1  1 0.11828932D+04 0.00000000D+00  -5  7  0 0.00000000D+00 0.00000000D+00 0.00000000D+00 0.00000000D+00 0.00000000D+00
  <mgrwgt>
 0.5269038577D-03    5    2    0
 0.514786506050026D+03 0.000000000000000D+00 0.000000000000000D+00 0.514786506050026D+03
 0.514786506050026D+03 0.000000000000000D+00 0.000000000000000D+00 -.514786506050026D+03
 0.110594593965943D+03 -.478378712103577D+02 -.557956145014818D+01 0.399539665437253D+02
 0.458623078604738D+03 -.172658862271837D+02 -.133599954467011D+03 -.438392597528847D+03
 0.160282330200649D+02 0.127613526178393D+02 -.400424183919765D+01 -.883279006893540D+01
 0.444327106509306D+03 0.523424048197021D+02 0.143183757756357D+03 0.407271421054057D+03
 0.000000000000000D+00 -.000000000000000D+00 -.000000000000000D+00 0.000000000000000D+00
 0.209792565033116D+04 0.000000000000000D+00 0.000000000000000D+00 0.209792565033116D+04
 0.105035341568925D+04 0.000000000000000D+00 0.000000000000000D+00 -.105035341568925D+04
 0.128931151021034D+03 0.206942974247327D+02 0.792680072357590D+02 0.399539665437253D+02
 0.566681435811970D+03 0.276090228323866D+03 0.229595221966620D+03 -.438392597528847D+03
 0.300472281813771D+02 0.259442832342057D+02 0.123171388092030D+02 -.883279006893540D+01
 0.842542029696304D+03 0.420536365174698D+03 0.599033367700856D+03 0.407271421054057D+03
 0.158007722130972D+04 -.743265174157502D+03 -.920213735712438D+03 0.104757223464190D+04
0.442899009832D-04 0.000000000000D+00 0.000000000000D+00 0.449099937918D-08 0.000000000000D+00  7 1 -1 23 -13 13 23 21 0 0.13218718D+00 0.47450225D-01 0.45978706D+05 0.45978706D+05 0.45978706D+05 0.11505121D+01  1  2  2  1  7  1        1 0.489177588955D-03 0.100000000000D+01
-.165938656712D-06 0.000000000000D+00 -.170084881574D-06 0.449099937918D-08 0.000000000000D+00  7 1 -1 23 -13 13 23 21 2 0.13218718D+00 0.47450225D-01 0.45978706D+05 0.45978706D+05 0.45978706D+05 0.11505121D+01  1  2  3  1  7  1        1 -.242600565454D-05 0.100000000000D+01
0.259289302341D-05 0.000000000000D+00 0.000000000000D+00 0.449099937918D-08 0.000000000000D+00  7 1 -1 23 -13 13 23 21 2 0.13218718D+00 0.47450225D-01 0.45978706D+05 0.45978706D+05 0.45978706D+05 0.11505121D+01  1  2 15  1  7  1        1 0.379078224511D-04 0.100000000000D+01
0.425881107809D-04 0.000000000000D+00 -.174275271494D-04 0.449099937918D-08 0.000000000000D+00  7 1 -1 23 -13 13 23 21 2 0.64543974D+00 0.47450225D-01 0.45978706D+05 0.45978706D+05 0.45978706D+05 0.11505121D+01  1  2  5  1  7  1        1 0.221408792088D-05 0.100000000000D+01
0.780206478820D-05 0.000000000000D+00 -.336310994556D-05 0.449099937918D-08 0.000000000000D+00  7 21 -1 23 -13 13 23 -1 2 0.64543974D+00 0.47450225D-01 0.45978706D+05 0.45978706D+05 0.45978706D+05 0.11505121D+01  1  2  5  3  7  1        1 0.303640115229D-07 0.100000000000D+01
  </mgrwgt>
  </event>
  <event>
  8     66 0.56006291E-06 0.10395237E+03 0.75467711E-02 0.98123598E-01
        1 -1    0    0  501    0 0.00000000E+00 0.00000000E+00 0.96218554E+03 0.96218559E+03 0.32000000E+00 0.0000E+00 0.9000E+01
       -1 -1    0    0    0  501 0.00000000E+00 0.00000000E+00 -.25790269E+03 0.25790289E+03 0.32000000E+00 0.0000E+00 0.9000E+01
       25  2    1    2    0    0 -.15464388E+03 0.23300718E+03 0.80982919E+03 0.90759743E+03 0.29950410E+03 0.0000E+00 0.0000E+00
       23  2    1    2    0    0 0.15464388E+03 -.23300718E+03 -.10554634E+03 0.31249105E+03 0.91123823E+02 0.0000E+00 0.0000E+00
       23  1    3    3    0    0 -.16026611E+02 0.19652786E+03 0.59687982E+03 0.63518566E+03 0.91188000E+02 0.0000E+00 0.9000E+01
      -11  1    4    4    0    0 0.29004985E+02 -.49048577E+01 -.28401516E+02 0.40890009E+02 0.51099893E-03 0.0000E+00 0.9000E+01
       11  1    4    4    0    0 0.12563890E+03 -.22810233E+03 -.77144825E+02 0.27160104E+03 0.51099893E-03 0.0000E+00 0.9000E+01
       23  1    3    3    0    0 -.13861727E+03 0.36479329E+02 0.21294936E+03 0.27241177E+03 0.91188000E+02 0.0000E+00 0.9000E+01
#aMCatNLO 1  0  0  2  1 0.63610929D+02 0.00000000D+00  -5  7  0 0.00000000D+00 0.00000000D+00 0.00000000D+00 0.00000000D+00 0.00000000D+00
  <mgrwgt>
 0.2396396815D-03    9    2    0
 0.498146961976718D+03 0.000000000000000D+00 0.000000000000000D+00 0.498146961976718D+03
 0.498146961976718D+03 0.000000000000000D+00 0.000000000000000D+00 -.498146961976718D+03
 0.355929593162848D+03 -.160266108170580D+02 0.196527855414254D+03 0.281940727347191D+03
 0.701521189440318D+02 0.290049847104033D+02 -.490485767179300D+01 -.636865215371848D+02
 0.387143868802444D+03 0.125638895453043D+03 -.228102326618778D+03 -.286469146142763D+03
 0.183068343044113D+03 -.138617269346388D+03 0.364793288763172D+02 0.682149403327570D+02
 0.000000000000000D+00 -.000000000000000D+00 0.000000000000000D+00 -.000000000000000D+00
 0.504001445831483D+03 0.000000000000000D+00 0.000000000000000D+00 0.504001445831483D+03
 0.708159812176324D+03 0.000000000000000D+00 0.000000000000000D+00 -.708159812176324D+03
 0.344172298280217D+03 -.113262331055821D+02 0.174701065440546D+03 0.281940727347191D+03
 0.709909729066027D+02 0.299525979809461D+02 -.930521804749988D+01 -.636865215371848D+02
 0.403858308516638D+03 0.130949563870658D+03 -.252763077581044D+03 -.286469146142763D+03
 0.179300980015499D+03 -.136184376777106D+03 0.251818888836415D+02 0.682149403327570D+02
 0.213838698288850D+03 -.133915519689160D+02 0.621853413043562D+02 -.204158366344841D+03
0.189523570754D-04 0.000000000000D+00 0.000000000000D+00 0.122395386276D-05 0.000000000000D+00  7 1 -1 23 -11 11 23 21 0 0.14802856D+00 0.39677357D-01 0.11456896D+06 0.11456896D+06 0.11456896D+06 0.11169069D+01  1  2  2  2  7  2       -1 0.230929716801D-03 0.100000000000D+01
-.861742250370D-06 0.000000000000D+00 -.727820414396D-07 0.122395386276D-05 0.000000000000D+00  7 1 -1 23 -11 11 23 21 2 0.14802856D+00 0.39677357D-01 0.11456896D+06 0.11456896D+06 0.11456896D+06 0.11169069D+01  1  2  3  2  7  2       -1 -.130986920378D-04 0.100000000000D+01
0.113477243341D-05 0.000000000000D+00 0.000000000000D+00 0.122395386276D-05 0.000000000000D+00  7 1 -1 23 -11 11 23 21 2 0.14802856D+00 0.39677357D-01 0.11456896D+06 0.11456896D+06 0.11456896D+06 0.11169069D+01  1  2 15  2  7  2       -1 0.172488173023D-04 0.100000000000D+01
0.131719081594D-03 0.000000000000D+00 0.000000000000D+00 0.122395386276D-05 0.000000000000D+00  7 1 -1 23 -11 11 23 21 2 0.14802856D+00 0.56562946D-01 0.13795892D+06 0.13795892D+06 0.13795892D+06 0.11104312D+01  1  2 12  2  7  2       -1 0.104353264280D-02 0.100000000000D+01
-.127227933089D-03 0.000000000000D+00 0.000000000000D+00 0.122395386276D-05 0.000000000000D+00  7 1 -1 23 -11 11 23 21 2 0.14802856D+00 0.39677357D-01 0.11456896D+06 0.11456896D+06 0.11456896D+06 0.11169069D+01  1  2  4  2  7  2       -1 -.193389556265D-02 0.100000000000D+01
-.136270313599D-03 0.000000000000D+00 -.831673856185D-05 0.122395386276D-05 0.000000000000D+00  7 1 -1 23 -11 11 23 21 2 0.14802856D+00 0.56734430D-01 0.11456896D+06 0.11456896D+06 0.11456896D+06 0.11169069D+01  1  2  5  2  7  2       -1 -.109380531255D-02 0.100000000000D+01
0.131266342274D-03 0.000000000000D+00 0.781190679666D-05 0.122395386276D-05 0.000000000000D+00  7 1 -1 23 -11 11 23 21 2 0.14802856D+00 0.39677357D-01 0.11456896D+06 0.11456896D+06 0.11456896D+06 0.11169069D+01  1  2  6  2  7  2       -1 0.199528036561D-02 0.100000000000D+01
0.574366668471D-05 0.000000000000D+00 0.000000000000D+00 0.122395386276D-05 0.000000000000D+00  7 1 21 23 -11 11 23 1 2 0.14802856D+00 0.56562946D-01 0.13795892D+06 0.13795892D+06 0.13795892D+06 0.11104312D+01  1  2 12  4  7  2       -1 0.400459634998D-03 0.100000000000D+01
-.573608569820D-05 0.000000000000D+00 -.364888856940D-06 0.122395386276D-05 0.000000000000D+00  7 1 21 23 -11 11 23 1 2 0.14802856D+00 0.56734430D-01 0.11456896D+06 0.11456896D+06 0.11456896D+06 0.11169069D+01  1  2  5  4  7  2       -1 -.407011928804D-03 0.100000000000D+01
  </mgrwgt>
  </event>
  <event>
  8     66 0.56006291E-06 0.40632937E+03 0.75467711E-02 0.80711328E-01
        1 -1    0    0  501    0 0.00000000E+00 0.00000000E+00 0.65993566E+03 0.65993573E+03 0.32000000E+00 0.0000E+00 0.9000E+01
       -1 -1    0    0    0  501 0.00000000E+00 0.00000000E+00 -.30528986E+03 0.30529002E+03 0.32000000E+00 0.0000E+00 0.9000E+01
       25  2    1    2    0    0 -.47547710E+02 0.37612761E+03 0.83213334E+02 0.49100792E+03 0.30071841E+03 0.0000E+00 0.0000E+00
       23  2    1    2    0    0 0.47547710E+02 -.37612761E+03 0.27143247E+03 0.47421783E+03 0.86453496E+02 0.0000E+00 0.0000E+00
       23  1    3    3    0    0 -.56851553E+02 0.27485233E+03 0.15855799E+03 0.33501013E+03 0.91188000E+02 0.0000E+00 0.9000E+01
      -13  1    4    4    0    0 0.19518263E+02 -.28359359E+03 0.15819304E+03 0.32531728E+03 0.10565837E+00 0.0000E+00 0.9000E+01
       13  1    4    4    0    0 0.28029447E+02 -.92534019E+02 0.11323943E+03 0.14890055E+03 0.10565837E+00 0.0000E+00 0.9000E+01
       23  1    3    3    0    0 0.93038429E+01 0.10127528E+03 -.75344652E+02 0.15599780E+03 0.91188000E+02 0.0000E+00 0.9000E+01
#aMCatNLO 1  0  0  2  1 0.20470010D+04 0.00000000D+00  -5  7  0 0.00000000D+00 0.00000000D+00 0.00000000D+00 0.00000000D+00 0.00000000D+00
  <mgrwgt>
 0.2862808023D-03    3    2    0
 0.448856079286242D+03 0.000000000000000D+00 0.000000000000000D+00 0.448856079286242D+03
 0.448856079286242D+03 0.000000000000000D+00 0.000000000000000D+00 -.448856079286242D+03
 0.297565850925852D+03 -.568515526427234D+02 0.274852326931361D+03 0.381350709420357D+02
 0.287288473407710D+03 0.195182502058198D+02 -.283593874589028D+03 0.415718553521280D+02
 0.115362732140297D+03 0.280294596424435D+02 -.925337337650806D+02 0.629318478555940D+02
 0.197495102098625D+03 0.930384279446011D+01 0.101275281422747D+03 -.142638774149758D+03
 0.000000000000000D+00 -.000000000000000D+00 0.000000000000000D+00 0.000000000000000D+00
 0.220417951239755D+04 0.000000000000000D+00 0.000000000000000D+00 0.220417951239755D+04
 0.208167951478422D+04 0.000000000000000D+00 0.000000000000000D+00 -.208167951478422D+04
 0.106192029589447D+03 0.292760580144561D+02 0.254975409737133D+02 0.381350709420357D+02
 0.134107333008850D+04 0.366872241765199D+03 -.128924559946483D+04 0.415718553521280D+02
 0.507543480467610D+03 0.160904695877985D+03 -.477231229002324D+03 0.629318478555940D+02
 0.280386992194693D+03 0.111243259815381D+03 -.193857502570029D+03 -.142638774149758D+03
 0.205066319484152D+04 -.668296255473022D+03 0.193483679006347D+04 0.122499997613326D+03
0.174165228594D-04 0.000000000000D+00 0.000000000000D+00 0.353751490156D-07 0.000000000000D+00  7 1 -1 23 -13 13 23 21 0 0.10152858D+00 0.46967689D-01 0.16510356D+06 0.16510356D+06 0.16510356D+06 0.11042789D+01  1  2  2  2  7  2       -1 0.283684326412D-03 0.100000000000D+01
-.955928589162D-06 0.000000000000D+00 -.668840336558D-07 0.353751490156D-07 0.000000000000D+00  7 1 -1 23 -13 13 23 21 2 0.10152858D+00 0.46967689D-01 0.16510356D+06 0.16510356D+06 0.16510356D+06 0.11042789D+01  1  2  3  2  7  2       -1 -.189870220373D-04 0.100000000000D+01
0.108665185310D-05 0.000000000000D+00 0.000000000000D+00 0.353751490156D-07 0.000000000000D+00  7 1 -1 23 -13 13 23 21 2 0.10152858D+00 0.46967689D-01 0.16510356D+06 0.16510356D+06 0.16510356D+06 0.11042789D+01  1  2 15  2  7  2       -1 0.215834978844D-04 0.100000000000D+01
  </mgrwgt>
  </event>
  <event>
  8     66 0.56006291E-06 0.25933996E+03 0.75467711E-02 0.10259731E+00
        1 -1    0    0  501    0 0.00000000E+00 0.00000000E+00 0.89708294E+02 0.89708865E+02 0.32000000E+00 0.0000E+00 0.9000E+01
       -1 -1    0    0    0  501 0.00000000E+00 0.00000000E+00 -.87114288E+03 0.87114294E+03 0.32000000E+00 0.0000E+00 0.9000E+01
       25  2    1    2    0    0 -.50438733E+02 -.17662616E+03 -.53359343E+03 0.63904599E+03 0.29986157E+03 0.0000E+00 0.0000E+00
       23  2    1    2    0    0 0.50438733E+02 0.17662616E+03 -.24784115E+03 0.32180582E+03 0.91612670E+02 0.0000E+00 0.0000E+00
       23  1    3    3    0    0 -.25836894E+02 -.19723200E+03 -.21760838E+03 0.30860438E+03 0.91188000E+02 0.0000E+00 0.9000E+01
      -11  1    4    4    0    0 0.23974712E+01 0.14641883E+03 -.15697897E+03 0.21467794E+03 0.51099893E-03 0.0000E+00 0.9000E+01
       11  1    4    4    0    0 0.48041262E+02 0.30207330E+02 -.90862185E+02 0.10712788E+03 0.51099893E-03 0.0000E+00 0.9000E+01
       23  1    3    3    0    0 -.24601840E+02 0.20605840E+02 -.31598505E+03 0.33044161E+03 0.91188000E+02 0.0000E+00 0.9000E+01
#aMCatNLO 1  0  0  2  1 0.47840623D+01 0.00000000D+00  -5  7  0 0.00000000D+00 0.00000000D+00 0.00000000D+00 0.00000000D+00 0.00000000D+00
  <mgrwgt>
 0.1245725794D-03    6    2    0
 0.279551505930557D+03 0.000000000000000D+00 0.000000000000000D+00 0.279551505930557D+03
 0.279551505930557D+03 0.000000000000000D+00 0.000000000000000D+00 -.279551505930557D+03
 0.226212985570755D+03 -.258368935296184D+02 -.197231995859537D+03 0.573503115844825D+02
 0.149533962356186D+03 0.239747116848369D+01 0.146418825738901D+03 0.302685562784002D+02
 0.571114097850930D+02 0.480412621071143D+02 0.302073297863758D+02 -.642397773762401D+01
 0.126244654149080D+03 -.246018397459796D+02 0.206058403342601D+02 -.811948901252587D+02
 0.000000000000000D+00 -.000000000000000D+00 -.000000000000000D+00 0.000000000000000D+00
 0.286908656584870D+03 0.000000000000000D+00 0.000000000000000D+00 0.286908656584870D+03
 0.280340544294946D+03 0.000000000000000D+00 0.000000000000000D+00 -.280340544294946D+03
 0.225385637358347D+03 -.240447642532995D+02 -.196510114896395D+03 0.573503115844825D+02
 0.150026575019194D+03 0.358625072139325D+01 0.146897673632275D+03 0.302685562784002D+02
 0.575913771731080D+02 0.484964499933170D+02 0.303906823346795D+02 -.642397773762401D+01
 0.126119889766778D+03 -.236003533275246D+02 0.210092453731047D+02 -.811948901252587D+02
 0.812572156238931D+01 -.443758313388613D+01 -.178748644366351D+01 0.656811228992373D+01
0.459802819596D-05 0.000000000000D+00 0.000000000000D+00 0.168881091608D-06 0.000000000000D+00  7 1 -1 23 -11 11 23 21 0 0.13801324D-01 0.13402203D+00 0.67257216D+05 0.67257216D+05 0.67257216D+05 0.11361383D+01  1  2  2  2  7  2       -1 0.123762860058D-03 0.100000000000D+01
-.253696790692D-06 0.000000000000D+00 -.176576389611D-07 0.168881091608D-06 0.000000000000D+00  7 1 -1 23 -11 11 23 21 2 0.13801324D-01 0.13402203D+00 0.67257216D+05 0.67257216D+05 0.67257216D+05 0.11361383D+01  1  2  3  2  7  2       -1 -.881446723038D-05 0.100000000000D+01
0.288378096486D-06 0.000000000000D+00 0.000000000000D+00 0.168881091608D-06 0.000000000000D+00  7 1 -1 23 -11 11 23 21 2 0.13801324D-01 0.13402203D+00 0.67257216D+05 0.67257216D+05 0.67257216D+05 0.11361383D+01  1  2 15  2  7  2       -1 0.100194380643D-04 0.100000000000D+01
-.297423188171D-05 0.000000000000D+00 0.000000000000D+00 0.168881091608D-06 0.000000000000D+00  7 1 -1 23 -11 11 23 21 2 0.13801324D-01 0.13402203D+00 0.67257216D+05 0.67257216D+05 0.67257216D+05 0.11361383D+01  1  2  4  2  7  2       -1 -.103337016544D-03 0.100000000000D+01
0.280265792130D-05 0.000000000000D+00 0.000000000000D+00 0.168881091608D-06 0.507650591774D-07  7 1 -1 23 -11 11 23 21 2 0.14164544D-01 0.13440031D+00 0.68495159D+05 0.68495159D+05 0.68495159D+05 0.11354628D+01  1  2 11  2  7  2       -1 0.932828387440D-04 0.100000000000D+01
0.435359236056D-07 0.000000000000D+00 0.000000000000D+00 0.168881091608D-06 0.272061058572D-10  7 1 21 23 -11 11 23 1 2 0.14164544D-01 0.13440031D+00 0.68495159D+05 0.68495159D+05 0.68495159D+05 0.11354628D+01  1  2 11  4  7  2       -1 0.965892630590D-05 0.100000000000D+01
  </mgrwgt>
  </event>
  <event>
  8     66 0.56006291E-06 0.21415002E+03 0.75467711E-02 0.10041577E+00
        3 -1    0    0  501    0 0.00000000E+00 0.00000000E+00 0.41896488E+03 0.41896517E+03 0.50000000E+00 0.0000E+00 0.9000E+01
       -3 -1    0    0    0  501 0.00000000E+00 0.00000000E+00 -.12390552E+03 0.12390653E+03 0.50000000E+00 0.0000E+00 0.9000E+01
       25  2    1    2    0    0 -.50860705E+02 -.89928681E+02 0.21402046E+03 0.38334434E+03 0.30078921E+03 0.0000E+00 0.0000E+00
       23  2    1    2    0    0 0.50860705E+02 0.89928681E+02 0.81038891E+02 0.15952737E+03 0.90596354E+02 0.0000E+00 0.0000E+00
       23  1    3    3    0    0 0.28906939E+02 -.15045841E+03 0.90068272E+02 0.19975207E+03 0.91188000E+02 0.0000E+00 0.9000E+01
      -13  1    4    4    0    0 0.32166858E+02 0.11836748E+02 -.12286906E+02 0.36411462E+02 0.10565837E+00 0.0000E+00 0.9000E+01
       13  1    4    4    0    0 0.18693846E+02 0.78091934E+02 0.93325797E+02 0.12311590E+03 0.10565837E+00 0.0000E+00 0.9000E+01
       23  1    3    3    0    0 -.79767644E+02 0.60529733E+02 0.12395219E+03 0.18359227E+03 0.91188000E+02 0.0000E+00 0.9000E+01
#aMCatNLO 1  0  0  2  2 0.15908699D+03 0.00000000D+00  -5  7  0 0.00000000D+00 0.00000000D+00 0.00000000D+00 0.00000000D+00 0.00000000D+00
  <mgrwgt>
 0.2331368462D-04    6    2    0
 0.227842967009561D+03 0.000000000000000D+00 0.000000000000000D+00 0.227842967009561D+03
 0.227842967009561D+03 0.000000000000000D+00 0.000000000000000D+00 -.227842967009561D+03
 0.179650631500396D+03 0.289069334380505D+02 -.150458423114344D+03 -.220397406437642D+02
 0.513338090571551D+02 0.321668757428208D+02 0.118366711473277D+02 -.382144641910940D+02
 0.862425413763034D+02 0.186938385816853D+02 0.780920266774031D+02 0.314634980817622D+02
 0.138458952085266D+03 -.797676477625567D+02 0.605297252896132D+02 0.287907067530960D+02
 0.000000000000000D+00 0.000000000000000D+00 -.000000000000000D+00 -.000000000000000D+00
 0.304348687747239D+03 0.000000000000000D+00 0.000000000000000D+00 0.304348687747239D+03
 0.341728310052551D+03 0.000000000000000D+00 0.000000000000000D+00 -.341728310052551D+03
 0.136822913836148D+03 0.204609446385028D+02 -.974723447110496D+02 -.220397406437642D+02
 0.566853182495018D+02 0.292840807894583D+02 0.299219425163436D+02 -.382144641910940D+02
 0.117243074259510D+03 0.132632512360621D+02 0.112160924197909D+03 0.314634980817622D+02
 0.171906274337234D+03 -.880506188505380D+02 0.112493108843176D+03 0.287907067530960D+02
 0.163419417117397D+03 0.250423421865149D+02 -.157103630846379D+03 -.373796223053129D+02
0.638909466779D-06 0.000000000000D+00 0.000000000000D+00 0.139124313868D-06 0.000000000000D+00  7 3 -3 23 -13 13 23 21 0 0.64456235D-01 0.19062489D-01 0.45860232D+05 0.45860232D+05 0.45860232D+05 0.11506115D+01  1  2  2  2  7  2       -3 0.156095706001D-04 0.100000000000D+01
-.353291838421D-07 0.000000000000D+00 -.245358058116D-08 0.139124313868D-06 0.000000000000D+00  7 3 -3 23 -13 13 23 21 2 0.64456235D-01 0.19062489D-01 0.45860232D+05 0.45860232D+05 0.45860232D+05 0.11506115D+01  1  2  3  2  7  2       -3 -.114272753509D-05 0.100000000000D+01
0.408543893524D-07 0.000000000000D+00 0.000000000000D+00 0.139124313868D-06 0.000000000000D+00  7 3 -3 23 -13 13 23 21 2 0.64456235D-01 0.19062489D-01 0.45860232D+05 0.45860232D+05 0.45860232D+05 0.11506115D+01  1  2 15  2  7  2       -3 0.132144110238D-05 0.100000000000D+01
-.190368625466D-06 0.000000000000D+00 -.203409710006D-06 0.139124313868D-06 0.000000000000D+00  7 3 -3 23 -13 13 23 21 2 0.64456235D-01 0.37580970D-01 0.45860232D+05 0.45860232D+05 0.45860232D+05 0.11506115D+01  1  2  5  2  7  2       -3 -.177432308823D-05 0.100000000000D+01
0.296705316110D-06 0.000000000000D+00 0.164126143202D-06 0.139124313868D-06 0.000000000000D+00  7 3 -3 23 -13 13 23 21 2 0.64456235D-01 0.19062489D-01 0.45860232D+05 0.45860232D+05 0.45860232D+05 0.11506115D+01  1  2  6  2  7  2       -3 0.959697614420D-05 0.100000000000D+01
-.193511694449D-08 0.000000000000D+00 -.149508470700D-07 0.139124313868D-06 0.000000000000D+00  7 3 21 23 -13 13 23 3 2 0.64456235D-01 0.37580970D-01 0.45860232D+05 0.45860232D+05 0.45860232D+05 0.11506115D+01  1  2  5  4  7  2       -3 -.297252599019D-06 0.100000000000D+01
  </mgrwgt>
  </event>
  <event>
  8     66 0.56006291E-06 0.21576343E+03 0.75467711E-02 0.10337468E+00
        1 -1    0    0  501    0 0.00000000E+00 0.00000000E+00 0.11967991E+04 0.11967992E+04 0.32000000E+00 0.0000E+00 0.9000E+01
       -1 -1    0    0    0  501 0.00000000E+00 0.00000000E+00 -.47887665E+02 0.47888734E+02 0.32000000E+00 0.0000E+00 0.9000E+01
       25  2    1    2    0    0 0.37969659E+02 -.10682393E+03 0.90963424E+03 0.96460253E+03 0.30028411E+03 0.0000E+00 0.0000E+00
       23  2    1    2    0    0 -.37969659E+02 0.10682393E+03 0.23927724E+03 0.28008539E+03 0.91330067E+02 0.0000E+00 0.0000E+00
       23  1    3    3    0    0 0.98211851E+01 0.60295943E+02 0.18749558E+03 0.21725998E+03 0.91188000E+02 0.0000E+00 0.9000E+01
      -11  1    4    4    0    0 -.50097507E+02 0.48436775E+02 0.62806367E+02 0.93811093E+02 0.51099893E-03 0.0000E+00 0.9000E+01
       11  1    4    4    0    0 0.12127848E+02 0.58387157E+02 0.17647088E+03 0.18627430E+03 0.51099893E-03 0.0000E+00 0.9000E+01
       23  1    3    3    0    0 0.28148474E+02 -.16711988E+03 0.72213866E+03 0.74734255E+03 0.91188000E+02 0.0000E+00 0.9000E+01
#aMCatNLO 1  0  0  1  2 0.60587032D+02 0.00000000D+00  -5  7  0 0.00000000D+00 0.00000000D+00 0.00000000D+00 0.00000000D+00 0.00000000D+00
  <mgrwgt>
 0.1499955983D-03    4    2    0
 0.239400519896167D+03 0.000000000000000D+00 0.000000000000000D+00 0.239400519896167D+03
 0.239400519896167D+03 0.000000000000000D+00 0.000000000000000D+00 -.239400519896167D+03
 0.114880813549600D+03 0.982118510927436D+01 0.602959425736169D+02 -.339159786830104D+02
 0.931630781308987D+02 -.500975071859122D+02 0.484367754580669D+02 -.618342759624969D+02
 0.607850735450820D+02 0.121278483445007D+02 0.583871571617020D+02 0.117762616728960D+02
 0.209972074566752D+03 0.281484737321371D+02 -.167119875193386D+03 0.839739929726114D+02
 0.000000000000000D+00 -.000000000000000D+00 0.000000000000000D+00 -.000000000000000D+00
 0.250071390027480D+03 0.000000000000000D+00 0.000000000000000D+00 0.250071390027480D+03
 0.346047685229401D+03 0.000000000000000D+00 0.000000000000000D+00 -.346047685229401D+03
 0.113853970791345D+03 0.230090303850362D+02 0.544772083689189D+02 -.339159786830104D+02
 0.856319767252562D+02 -.397889678602989D+02 0.438884471208620D+02 -.618342759624969D+02
 0.596914029052014D+02 0.190739940099849D+02 0.553223823990764D+02 0.117762616728960D+02
 0.223441779072334D+03 0.531372171741673D+02 -.178145395523519D+03 0.839739929726114D+02
 0.113499945762744D+03 -.554312737088896D+02 0.244573576346619D+02 -.959762952019211D+02
0.137021422631D-05 0.000000000000D+00 0.000000000000D+00 0.243551655776D-06 0.000000000000D+00  7 1 -1 23 -11 11 23 21 0 0.18412303D+00 0.73674186D-02 0.46553858D+05 0.46553858D+05 0.46553858D+05 0.11500334D+01  1  2  2  1  7  1        1 0.166644729971D-03 0.100000000000D+01
-.751228020538D-07 0.000000000000D+00 -.526198341472D-08 0.243551655776D-06 0.000000000000D+00  7 1 -1 23 -11 11 23 21 2 0.18412303D+00 0.73674186D-02 0.46553858D+05 0.46553858D+05 0.46553858D+05 0.11500334D+01  1  2  3  1  7  1        1 -.120835854044D-04 0.100000000000D+01
0.883235118008D-07 0.000000000000D+00 0.000000000000D+00 0.243551655776D-06 0.000000000000D+00  7 1 -1 23 -11 11 23 21 2 0.18412303D+00 0.73674186D-02 0.46553858D+05 0.46553858D+05 0.46553858D+05 0.11500334D+01  1  2 15  1  7  1        1 0.142069340984D-04 0.100000000000D+01
-.116707192280D-06 0.000000000000D+00 0.000000000000D+00 0.243551655776D-06 0.000000000000D+00  7 1 -1 23 -11 11 23 21 2 0.18412303D+00 0.73674186D-02 0.46553858D+05 0.46553858D+05 0.46553858D+05 0.11500334D+01  1  2  4  1  7  1        1 -.187724803478D-04 0.100000000000D+01
  </mgrwgt>
  </event>
  <event>
  8     66 0.56006291E-06 0.18764342E+03 0.75467711E-02 0.99910755E-01
        1 -1    0    0  501    0 0.00000000E+00 0.00000000E+00 0.65951258E+03 0.65951265E+03 0.32000000E+00 0.0000E+00 0.9000E+01
       -1 -1    0    0    0  501 0.00000000E+00 0.00000000E+00 -.71736813E+02 0.71737527E+02 0.32000000E+00 0.0000E+00 0.9000E+01
       25  2    1    2    0    0 -.37390298E+02 0.67938661E+02 0.41653162E+03 0.51917264E+03 0.30004657E+03 0.0000E+00 0.0000E+00
       23  2    1    2    0    0 0.37390298E+02 -.67938661E+02 0.17124414E+03 0.21207754E+03 0.98176530E+02 0.0000E+00 0.0000E+00
       23  1    3    3    0    0 -.20135566E+02 -.45496957E+02 0.33640614E+02 0.10918954E+03 0.91188000E+02 0.0000E+00 0.9000E+01
      -11  1    4    4    0    0 0.19834785E+02 -.92529601E+02 0.12372150E+03 0.15576314E+03 0.51099893E-03 0.0000E+00 0.9000E+01
       11  1    4    4    0    0 0.17555513E+02 0.24590940E+02 0.47522646E+02 0.56314405E+02 0.51099893E-03 0.0000E+00 0.9000E+01
       23  1    3    3    0    0 -.17254732E+02 0.11343562E+03 0.38289101E+03 0.40998310E+03 0.91188000E+02 0.0000E+00 0.9000E+01
#aMCatNLO 1  0  0  1  2 0.21420788D+03 0.00000000D+00  -5  7  0 0.00000000D+00 0.00000000D+00 0.00000000D+00 0.00000000D+00 0.00000000D+00
  <mgrwgt>
 0.1785623113D-03    5    2    0
 0.217512344235990D+03 0.000000000000000D+00 0.000000000000000D+00 0.217512344235990D+03
 0.217512344235990D+03 0.000000000000000D+00 0.000000000000000D+00 -.217512344235990D+03
 0.138088104835758D+03 -.201355710739031D+02 -.454969479885969D+02 -.909816457005589D+02
 0.946643447607820D+02 0.198347955089030D+02 -.925296055919304D+02 -.248820117956846D+01
 0.304517300379819D+02 0.175555136194005D+02 0.245909248026747D+02 0.379449880937784D+01
 0.171820508837458D+03 -.172547380544005D+02 0.113435628777853D+03 0.896753480707495D+02
 0.000000000000000D+00 0.000000000000000D+00 0.000000000000000D+00 0.000000000000000D+00
 0.162767300311750D+04 0.000000000000000D+00 0.000000000000000D+00 0.162767300311750D+04
 0.250732969380433D+03 0.000000000000000D+00 0.000000000000000D+00 -.250732969380433D+03
 0.178247902642203D+03 -.577021930795399D+02 -.108857064592858D+03 -.909816457005589D+02
 0.139728441008649D+03 -.800062308302536D+01 -.139477009259164D+03 -.248820117956846D+01
 0.191190370832223D+02 0.116687153196481D+02 0.146622113122226D+02 0.379449880937784D+01
 0.147808214990150D+03 -.552123880415344D+02 0.494160017576836D+02 0.896753480707495D+02
 0.139350237677371D+04 0.109246488884452D+03 0.184255860782116D+03 0.137694003373707D+04
0.101004734842D-05 0.000000000000D+00 0.000000000000D+00 0.517520903316D-08 0.000000000000D+00  7 1 -1 23 -11 11 23 21 0 0.10146353D+00 0.11036494D-01 0.35210053D+05 0.35210053D+05 0.35210053D+05 0.11609379D+01  1  2  2  1  7  1        1 0.176680466180D-03 0.100000000000D+01
-.546251239385D-07 0.000000000000D+00 -.387884776951D-08 0.517520903316D-08 0.000000000000D+00  7 1 -1 23 -11 11 23 21 2 0.10146353D+00 0.11036494D-01 0.35210053D+05 0.35210053D+05 0.35210053D+05 0.11609379D+01  1  2  3  1  7  1        1 -.128782598206D-04 0.100000000000D+01
0.644533937726D-07 0.000000000000D+00 0.000000000000D+00 0.517520903316D-08 0.000000000000D+00  7 1 -1 23 -11 11 23 21 2 0.10146353D+00 0.11036494D-01 0.35210053D+05 0.35210053D+05 0.35210053D+05 0.11609379D+01  1  2 15  1  7  1        1 0.151953440373D-04 0.100000000000D+01
-.564144019919D-05 0.000000000000D+00 -.568616420867D-06 0.517520903316D-08 0.000000000000D+00  7 1 -1 23 -11 11 23 21 2 0.76445972D+00 0.11036494D-01 0.35210053D+05 0.35210053D+05 0.35210053D+05 0.11609379D+01  1  2  5  1  7  1        1 -.430816396482D-06 0.100000000000D+01
-.144947024360D-05 0.000000000000D+00 -.139891104789D-06 0.517520903316D-08 0.000000000000D+00  7 21 -1 23 -11 11 23 -1 2 0.76445972D+00 0.11036494D-01 0.35210053D+05 0.35210053D+05 0.35210053D+05 0.11609379D+01  1  2  5  3  7  1        1 -.442271745186D-08 0.100000000000D+01
  </mgrwgt>
  </event>
  <event>
  8     66 0.56006291E-06 0.17487724E+03 0.75467711E-02 0.10029083E+00
        1 -1    0    0  501    0 0.00000000E+00 0.00000000E+00 0.59531291E+02 0.59532151E+02 0.32000000E+00 0.0000E+00 0.9000E+01
       -1 -1    0    0    0  501 0.00000000E+00 0.00000000E+00 -.16871443E+04 0.16871443E+04 0.32000000E+00 0.0000E+00 0.9000E+01
       25  2    1    2    0    0 -.21502318E+03 0.87748155E+02 -.87567862E+03 0.95440475E+03 0.30023438E+03 0.0000E+00 0.0000E+00
       23  2    1    2    0    0 0.21502318E+03 -.87748155E+02 -.75193436E+03 0.79227169E+03 0.91402699E+02 0.0000E+00 0.0000E+00
       23  1    3    3    0    0 -.24350474E+03 0.10051846E+03 -.70944782E+03 0.76225323E+03 0.91188000E+02 0.0000E+00 0.9000E+01
      -11  1    4    4    0    0 0.17963463E+03 -.55947777E+02 -.68350947E+03 0.70893155E+03 0.51099893E-03 0.0000E+00 0.9000E+01
       11  1    4    4    0    0 0.35388554E+02 -.31800379E+02 -.68424888E+02 0.83340141E+02 0.51099893E-03 0.0000E+00 0.9000E+01
       23  1    3    3    0    0 0.28481559E+02 -.12770306E+02 -.16623079E+03 0.19215152E+03 0.91188000E+02 0.0000E+00 0.9000E+01
#aMCatNLO 1  0  0  1  2 0.13676650D+02 0.00000000D+00  -5  7  0 0.00000000D+00 0.00000000D+00 0.00000000D+00 0.00000000D+00 0.00000000D+00
  <mgrwgt>
 0.1351584545D-03    9    2    0
 0.316920579682677D+03 0.000000000000000D+00 0.000000000000000D+00 0.316920579682677D+03
 0.316920579682677D+03 0.000000000000000D+00 0.000000000000000D+00 -.316920579682677D+03
 0.278781641820931D+03 -.243504739388656D+03 0.100518461557084D+03 0.233093411187571D+01
 0.198449034933906D+03 0.179634626427771D+03 -.559477769379509D+02 -.631131262896636D+02
 0.539551991101777D+02 0.353885537003162D+02 -.318003784995930D+02 0.254469979624587D+02
 0.102655283500340D+03 0.284815592605688D+02 -.127703061195398D+02 0.353351942153292D+02
 0.000000000000000D+00 0.000000000000000D+00 -.000000000000000D+00 0.000000000000000D+00
 0.327260853999018D+03 0.000000000000000D+00 0.000000000000000D+00 0.327260853999018D+03
 0.321549225979505D+03 0.000000000000000D+00 0.000000000000000D+00 -.321549225979505D+03
 0.281665630759431D+03 -.244273101303326D+03 0.106515233337441D+03 0.233093411187571D+01
 0.196805199765090D+03 0.179092740838505D+03 -.517185665257084D+02 -.631131262896636D+02
 0.531901070129065D+02 0.352416596451777D+02 -.306539264075016D+02 0.254469979624587D+02
 0.102327757983419D+03 0.282005316422093D+02 -.105769927094091D+02 0.353351942153292D+02
 0.148213844576760D+02 0.173816917743399D+01 -.135657476948223D+02 0.571162801951272D+01
0.307416470810D-04 0.000000000000D+00 0.000000000000D+00 0.692321507920D-06 0.000000000000D+00  7 1 -1 23 -11 11 23 21 0 0.91587286D-02 0.25956072D+00 0.93292715D+05 0.93292715D+05 0.93292715D+05 0.11242048D+01  1  2  2  1  7  1        1 0.136503928402D-03 0.100000000000D+01
-.170504148074D-05 0.000000000000D+00 -.118056019252D-06 0.692321507920D-06 0.000000000000D+00  7 1 -1 23 -11 11 23 21 2 0.91587286D-02 0.25956072D+00 0.93292715D+05 0.93292715D+05 0.93292715D+05 0.11242048D+01  1  2  3  1  7  1        1 -.956849972557D-05 0.100000000000D+01
0.203625649946D-05 0.000000000000D+00 0.000000000000D+00 0.692321507920D-06 0.000000000000D+00  7 1 -1 23 -11 11 23 21 2 0.91587286D-02 0.25956072D+00 0.93292715D+05 0.93292715D+05 0.93292715D+05 0.11242048D+01  1  2 15  1  7  1        1 0.114272409067D-04 0.100000000000D+01
0.719718043116D-04 0.000000000000D+00 0.000000000000D+00 0.692321507920D-06 0.000000000000D+00  7 1 -1 23 -11 11 23 21 2 0.95228345D-02 0.25956072D+00 0.97495325D+05 0.97495325D+05 0.97495325D+05 0.11226272D+01  1  2 12  1  7  1        1 0.381611743834D-03 0.100000000000D+01
-.682078663139D-04 0.000000000000D+00 0.000000000000D+00 0.692321507920D-06 0.000000000000D+00  7 1 -1 23 -11 11 23 21 2 0.91587286D-02 0.25956072D+00 0.93292715D+05 0.93292715D+05 0.93292715D+05 0.11242048D+01  1  2  4  1  7  1        1 -.382774822477D-03 0.100000000000D+01
-.641923627575D-03 0.000000000000D+00 -.927223267997D-04 0.692321507920D-06 0.000000000000D+00  7 1 -1 23 -11 11 23 21 2 0.96065543D-02 0.25956072D+00 0.93292715D+05 0.93292715D+05 0.93292715D+05 0.11242048D+01  1  2  5  1  7  1        1 -.337950279781D-02 0.100000000000D+01
0.645719664002D-03 0.000000000000D+00 0.926167727780D-04 0.692321507920D-06 0.000000000000D+00  7 1 -1 23 -11 11 23 21 2 0.91587286D-02 0.25956072D+00 0.93292715D+05 0.93292715D+05 0.93292715D+05 0.11242048D+01  1  2  6  1  7  1        1 0.362370563860D-02 0.100000000000D+01
0.120711666084D-05 0.000000000000D+00 0.000000000000D+00 0.692321507920D-06 0.000000000000D+00  7 21 -1 23 -11 11 23 -1 2 0.95228345D-02 0.25956072D+00 0.97495325D+05 0.97495325D+05 0.97495325D+05 0.11226272D+01  1  2 12  3  7  1        1 0.738744620619D-04 0.100000000000D+01
-.528134841991D-05 0.000000000000D+00 -.773636391705D-06 0.692321507920D-06 0.000000000000D+00  7 21 -1 23 -11 11 23 -1 2 0.96065543D-02 0.25956072D+00 0.93292715D+05 0.93292715D+05 0.93292715D+05 0.11242048D+01  1  2  5  3  7  1        1 -.320118439254D-03 0.100000000000D+01
  </mgrwgt>
  </event>
  <event>
  8     66 0.56006291E-06 0.11987059E+03 0.75467711E-02 0.10586280E+00
        1 -1    0    0  501    0 0.00000000E+00 0.00000000E+00 0.17576621E+04 0.17576622E+04 0.32000000E+00 0.0000E+00 0.9000E+01
       -1 -1    0    0    0  501 0.00000000E+00 0.00000000E+00 -.54382309E+02 0.54383250E+02 0.32000000E+00 0.0000E+00 0.9000E+01
       25  2    1    2    0    0 0.65469728E+02 0.10339593E+03 0.15885735E+04 0.16211940E+04 0.29954518E+03 0.0000E+00 0.0000E+00
       23  2    1    2    0    0 -.65469728E+02 -.10339593E+03 0.11470635E+03 0.19085141E+03 0.91047850E+02 0.0000E+00 0.0000E+00
       23  1    3    3    0    0 0.29043460E+02 0.10329013E+03 0.14132299E+04 0.14202276E+04 0.91188000E+02 0.0000E+00 0.9000E+01
      -13  1    4    4    0    0 -.17393930E+02 -.62543685E+01 -.13558424E+02 0.22923960E+02 0.10565837E+00 0.0000E+00 0.9000E+01
       13  1    4    4    0    0 -.48075798E+02 -.97141557E+02 0.12826478E+03 0.16792745E+03 0.10565837E+00 0.0000E+00 0.9000E+01
       23  1    3    3    0    0 0.36426268E+02 0.10579366E+00 0.17534358E+03 0.20096643E+03 0.91188000E+02 0.0000E+00 0.9000E+01
#aMCatNLO 1  0  0  2  1 0.41851780D+02 0.00000000D+00  -5  7  0 0.00000000D+00 0.00000000D+00 0.00000000D+00 0.00000000D+00 0.00000000D+00
  <mgrwgt>
 0.1064036298D-03    9    2    0
 0.309170835343665D+03 0.000000000000000D+00 0.000000000000000D+00 0.309170835343665D+03
 0.309170835343665D+03 0.000000000000000D+00 0.000000000000000D+00 -.309170835343665D+03
 0.269092158028046D+03 0.290434596413091D+02 0.103290131679665D+03 0.229309756263993D+03
 0.104526385538253D+03 -.173938888666418D+02 -.625424704255559D+01 -.102879066372694D+03
 0.138792827195854D+03 -.480758392321668D+02 -.971416783596808D+02 -.866928883392709D+02
 0.105930299925177D+03 0.364262684574994D+02 0.105793722571640D+00 -.397378015520287D+02
 0.000000000000000D+00 0.000000000000000D+00 -.000000000000000D+00 -.000000000000000D+00
 0.318204146068701D+03 0.000000000000000D+00 0.000000000000000D+00 0.318204146068701D+03
 0.362471961217741D+03 0.000000000000000D+00 0.000000000000000D+00 -.362471961217741D+03
 0.276542479934949D+03 0.277398309140423D+02 0.121688246464398D+03 0.229309756263993D+03
 0.104426492193261D+03 -.178931184886336D+02 0.791381591756855D+00 -.102879066372694D+03
 0.132781879795854D+03 -.487246847507636D+02 -.879845202831390D+02 -.866928883392709D+02
 0.106005546346210D+03 0.359199119355446D+02 0.725200431004001D+01 -.397378015520287D+02
 0.609197090161682D+02 0.295806038981025D+01 -.417471120830562D+02 -.442678151490401D+02
0.247222413012D-05 0.000000000000D+00 0.000000000000D+00 0.394754502355D-06 0.000000000000D+00  7 1 -1 23 -13 13 23 21 0 0.27040964D+00 0.83665837D-02 0.33466373D+05 0.33466373D+05 0.33466373D+05 0.11629554D+01  1  2  2  2  7  2       -1 0.106545809356D-03 0.100000000000D+01
-.913630569200D-07 0.000000000000D+00 -.949399161124D-08 0.394754502355D-06 0.000000000000D+00  7 1 -1 23 -13 13 23 21 2 0.27040964D+00 0.83665837D-02 0.33466373D+05 0.33466373D+05 0.33466373D+05 0.11629554D+01  1  2  3  2  7  2       -1 -.532531498064D-05 0.100000000000D+01
0.148615936486D-06 0.000000000000D+00 0.000000000000D+00 0.394754502355D-06 0.000000000000D+00  7 1 -1 23 -13 13 23 21 2 0.27040964D+00 0.83665837D-02 0.33466373D+05 0.33466373D+05 0.33466373D+05 0.11629554D+01  1  2 15  2  7  2       -1 0.866243643340D-05 0.100000000000D+01
0.632929658399D-05 0.000000000000D+00 0.000000000000D+00 0.394754502355D-06 0.000000000000D+00  7 1 -1 23 -13 13 23 21 2 0.27040964D+00 0.99169353D-02 0.42680673D+05 0.42680673D+05 0.42680673D+05 0.11533911D+01  1  2 12  2  7  2       -1 0.279265716705D-03 0.100000000000D+01
-.658896385697D-05 0.000000000000D+00 0.000000000000D+00 0.394754502355D-06 0.000000000000D+00  7 1 -1 23 -13 13 23 21 2 0.27040964D+00 0.83665837D-02 0.33466373D+05 0.33466373D+05 0.33466373D+05 0.11629554D+01  1  2  4  2  7  2       -1 -.384053567353D-03 0.100000000000D+01
-.904855781461D-05 0.000000000000D+00 -.186926329657D-05 0.394754502355D-06 0.000000000000D+00  7 1 -1 23 -13 13 23 21 2 0.27040964D+00 0.10107915D-01 0.33466373D+05 0.33466373D+05 0.33466373D+05 0.11629554D+01  1  2  5  2  7  2       -1 -.396444752964D-03 0.100000000000D+01
0.926873997064D-05 0.000000000000D+00 0.183634200852D-05 0.394754502355D-06 0.000000000000D+00  7 1 -1 23 -13 13 23 21 2 0.27040964D+00 0.83665837D-02 0.33466373D+05 0.33466373D+05 0.33466373D+05 0.11629554D+01  1  2  6  2  7  2       -1 0.540250747744D-03 0.100000000000D+01
0.159586738436D-06 0.000000000000D+00 0.000000000000D+00 0.394754502355D-06 0.000000000000D+00  7 1 21 23 -13 13 23 1 2 0.27040964D+00 0.99169353D-02 0.42680673D+05 0.42680673D+05 0.42680673D+05 0.11533911D+01  1  2 12  4  7  2       -1 0.100447552138D-03 0.100000000000D+01
-.228427775318D-06 0.000000000000D+00 -.512245246363D-07 0.394754502355D-06 0.000000000000D+00  7 1 21 23 -13 13 23 1 2 0.27040964D+00 0.10107915D-01 0.33466373D+05 0.33466373D+05 0.33466373D+05 0.11629554D+01  1  2  5  4  7  2       -1 -.142944997292D-03 0.100000000000D+01
  </mgrwgt>
  </event>
  <event>
  8     66 0.56006291E-06 0.19637126E+03 0.75467711E-02 0.10207519E+00
        1 -1    0    0  501    0 0.00000000E+00 0.00000000E+00 0.23795913E+03 0.23795934E+03 0.32000000E+00 0.0000E+00 0.9000E+01
       -1 -1    0    0    0  501 0.00000000E+00 0.00000000E+00 -.27622012E+03 0.27622030E+03 0.32000000E+00 0.0000E+00 0.9000E+01
       25  2    1    2    0    0 0.24299821E+01 -.14989619E+03 -.62187871E+01 0.33517892E+03 0.29971897E+03 0.0000E+00 0.0000E+00
       23  2    1    2    0    0 -.24299821E+01 0.14989619E+03 -.32042207E+02 0.17900073E+03 0.92410950E+02 0.0000E+00 0.0000E+00
       23  1    3    3    0    0 -.42939881E+01 -.99174964E+02 0.11350886E+03 0.17622039E+03 0.91188000E+02 0.0000E+00 0.9000E+01
      -11  1    4    4    0    0 0.14411344E+02 0.48281980E+02 0.30113167E+02 0.58699567E+02 0.51099893E-03 0.0000E+00 0.9000E+01
       11  1    4    4    0    0 -.16841326E+02 0.10161421E+03 -.62155373E+02 0.12030116E+03 0.51099893E-03 0.0000E+00 0.9000E+01
       23  1    3    3    0    0 0.67239702E+01 -.50721228E+02 -.11972765E+03 0.15895853E+03 0.91188000E+02 0.0000E+00 0.9000E+01
#aMCatNLO 1  0  0  1  2 0.12825819D+03 0.00000000D+00  -5  7  0 0.00000000D+00 0.00000000D+00 0.00000000D+00 0.00000000D+00 0.00000000D+00
  <mgrwgt>
 0.1726634926D-03    4    2    0
 0.256377068240259D+03 0.000000000000000D+00 0.000000000000000D+00 0.256377068240259D+03
 0.256377068240259D+03 0.000000000000000D+00 0.000000000000000D+00 -.256377068240259D+03
 0.185180168396149D+03 -.429398812201469D+01 -.991749642676061D+02 0.126973743552567D+03
 0.611097604920109D+02 0.144113439807885D+02 0.482819799003165D+02 0.345769635590485D+02
 0.115997661670995D+03 -.168413260836900D+02 0.101614212209057D+03 -.533514678899662D+02
 0.150466545921363D+03 0.672397022491616D+01 -.507212278417674D+02 -.108199239221649D+03
 0.000000000000000D+00 -.000000000000000D+00 0.000000000000000D+00 -.000000000000000D+00
 0.288753636620665D+03 0.000000000000000D+00 0.000000000000000D+00 0.288753636620665D+03
 0.432287241394347D+03 0.000000000000000D+00 0.000000000000000D+00 -.432287241394347D+03
 0.198621965376049D+03 0.399467871468474D+02 -.115833313130273D+03 0.126973743552567D+03
 0.621103011424056D+02 0.286148894426258D+02 0.429338002187420D+02 0.345769635590485D+02
 0.106672371617458D+03 0.882579255633175D+01 0.919495575097106D+02 -.533514678899662D+02
 0.161147126256108D+03 0.426435997121533D+02 -.642463461377225D+02 -.108199239221649D+03
 0.192489113622991D+03 -.120031068857958D+03 0.451963015395425D+02 -.143533604773683D+03
0.246379826691D-05 0.000000000000D+00 0.000000000000D+00 0.138057443377D-06 0.000000000000D+00  7 1 -1 23 -11 11 23 21 0 0.36609127D-01 0.42495434D-01 0.38561672D+05 0.38561672D+05 0.38561672D+05 0.11573527D+01  1  2  2  1  7  1        1 0.193192586030D-03 0.100000000000D+01
-.125045304650D-06 0.000000000000D+00 -.946163407792D-08 0.138057443377D-06 0.000000000000D+00  7 1 -1 23 -11 11 23 21 2 0.36609127D-01 0.42495434D-01 0.38561672D+05 0.38561672D+05 0.38561672D+05 0.11573527D+01  1  2  3  1  7  1        1 -.131336108180D-04 0.100000000000D+01
0.159688422040D-06 0.000000000000D+00 0.000000000000D+00 0.138057443377D-06 0.000000000000D+00  7 1 -1 23 -11 11 23 21 2 0.36609127D-01 0.42495434D-01 0.38561672D+05 0.38561672D+05 0.38561672D+05 0.11573527D+01  1  2 15  1  7  1        1 0.167722058264D-04 0.100000000000D+01
-.230100922145D-06 0.000000000000D+00 0.000000000000D+00 0.138057443377D-06 0.000000000000D+00  7 1 -1 23 -11 11 23 21 2 0.36609127D-01 0.42495434D-01 0.38561672D+05 0.38561672D+05 0.38561672D+05 0.11573527D+01  1  2  4  1  7  1        1 -.241676884132D-04 0.100000000000D+01
  </mgrwgt>
  </event>
  <event>
  8     66 0.56006291E-06 0.46475426E+03 0.75467711E-02 0.91762648E-01
        1 -1    0    0  501    0 0.00000000E+00 0.00000000E+00 0.13982957E+04 0.13982958E+04 0.32000000E+00 0.0000E+00 0.9000E+01
       -1 -1    0    0    0  501 0.00000000E+00 0.00000000E+00 -.18243094E+03 0.18243122E+03 0.32000000E+00 0.0000E+00 0.9000E+01
       25  2    1    2    0    0 -.32146130E+03 0.27442888E+03 0.39682892E+03 0.65228839E+03 0.29892870E+03 0.0000E+00 0.0000E+00
       23  2    1    2    0    0 0.32146130E+03 -.27442888E+03 0.81903587E+03 0.92843860E+03 0.11193704E+03 0.0000E+00 0.0000E+00
       23  1    3    3    0    0 -.24102550E+03 0.83591057E+02 0.12432608E+03 0.29808217E+03 0.91188000E+02 0.0000E+00 0.9000E+01
      -11  1    4    4    0    0 0.11917546E+02 0.71127828E+01 0.85129793E+01 0.16281597E+02 0.51099893E-03 0.0000E+00 0.9000E+01
       11  1    4    4    0    0 0.30954376E+03 -.28154166E+03 0.81052289E+03 0.91215700E+03 0.51099893E-03 0.0000E+00 0.9000E+01
       23  1    3    3    0    0 -.80435802E+02 0.19083782E+03 0.27250284E+03 0.35420621E+03 0.91188000E+02 0.0000E+00 0.9000E+01
#aMCatNLO 1  0  0  1  2 0.32395868D+03 0.00000000D+00  -5  7  0 0.00000000D+00 0.00000000D+00 0.00000000D+00 0.00000000D+00 0.00000000D+00
  <mgrwgt>
 0.2530395972D-03    4    2    0
 0.505066981695853D+03 0.000000000000000D+00 0.000000000000000D+00 0.505066981695853D+03
 0.505066981695853D+03 0.000000000000000D+00 0.000000000000000D+00 -.505066981695853D+03
 0.316812271881519D+03 -.241025502040158D+03 0.835910570726569D+02 -.164237653461364D+03
 0.152317700280744D+02 0.119175463514296D+02 0.711278272548689D+01 -.627592455736108D+01
 0.451806360428702D+03 0.309543757326411D+03 -.281541659086285D+03 0.170428705982943D+03
 0.226283561053410D+03 -.804358016376822D+02 0.190837819288142D+03 0.848720357811885D-01
 0.000000000000000D+00 -.000000000000000D+00 0.000000000000000D+00 -.000000000000000D+00
 0.634169454724788D+03 0.000000000000000D+00 0.000000000000000D+00 0.634169454724788D+03
 0.783261083594610D+03 0.000000000000000D+00 0.000000000000000D+00 -.783261083594610D+03
 0.251310217849995D+03 -.154545178365794D+03 0.631138279713856D+02 -.164237653461364D+03
 0.191895414982814D+02 0.171572019114517D+02 0.587211175253434D+01 -.627592455736108D+01
 0.591879722661292D+03 0.468414972445365D+03 -.319159953414578D+03 0.170428705982943D+03
 0.198431457172114D+03 -.157851445885934D+02 0.175529524178992D+03 0.848720357811885D-01
 0.356619599137716D+03 -.315241851402429D+03 0.746444895116656D+02 -.149091628869822D+03
0.298077846306D-04 0.000000000000D+00 0.000000000000D+00 0.257573112012D-08 0.000000000000D+00  7 1 -1 23 -11 11 23 21 0 0.21512244D+00 0.28066323D-01 0.21599653D+06 0.21599653D+06 0.21599653D+06 0.10952681D+01  1  2  2  1  7  1        1 0.313059023512D-03 0.100000000000D+01
-.164205646361D-05 0.000000000000D+00 -.114469741552D-06 0.257573112012D-08 0.000000000000D+00  7 1 -1 23 -11 11 23 21 2 0.21512244D+00 0.28066323D-01 0.21599653D+06 0.21599653D+06 0.21599653D+06 0.10952681D+01  1  2  3  1  7  1        1 -.206883317061D-04 0.100000000000D+01
0.191160723518D-05 0.000000000000D+00 0.000000000000D+00 0.257573112012D-08 0.000000000000D+00  7 1 -1 23 -11 11 23 21 2 0.21512244D+00 0.28066323D-01 0.21599653D+06 0.21599653D+06 0.21599653D+06 0.10952681D+01  1  2 15  1  7  1        1 0.240844121074D-04 0.100000000000D+01
-.503336103117D-05 0.000000000000D+00 0.000000000000D+00 0.257573112012D-08 0.000000000000D+00  7 1 -1 23 -11 11 23 21 2 0.21512244D+00 0.28066323D-01 0.21599653D+06 0.21599653D+06 0.21599653D+06 0.10952681D+01  1  2  4  1  7  1        1 -.634155066632D-04 0.100000000000D+01
  </mgrwgt>
  </event>
  <event>
  9     66 0.56006291E-06 0.42338063E+03 0.75467711E-02 0.94779504E-01
        1 -1    0    0  502    0 0.00000000E+00 0.00000000E+00 0.12102575E+04 0.12102576E+04 0.32000000E+00 0.0000E+00 0.9000E+01
       -1 -1    0    0    0  501 0.00000000E+00 0.00000000E+00 -.40649960E+03 0.40649973E+03 0.32000000E+00 0.0000E+00 0.9000E+01
       25  2    1    2    0    0 0.17914325E+03 -.40568509E+03 0.97864346E+03 0.11156162E+04 0.30030631E+03 0.0000E+00 0.0000E+00
       23  2    1    2    0    0 -.10413419E+03 0.29368738E+03 -.84147693E+02 0.33864868E+03 0.10249824E+03 0.0000E+00 0.0000E+00
       23  1    3    3    0    0 0.21352427E+03 -.25005198E+03 0.73663689E+03 0.81182988E+03 0.91188000E+02 0.0000E+00 0.9000E+01
      -11  1    4    4    0    0 0.35988643E+01 0.13529237E+03 -.48703692E+02 0.14383681E+03 0.51099893E-03 0.0000E+00 0.9000E+01
       11  1    4    4    0    0 -.10773305E+03 0.15839500E+03 -.35444001E+02 0.19481187E+03 0.51099893E-03 0.0000E+00 0.9000E+01
       23  1    3    3    0    0 -.34381020E+02 -.15563310E+03 0.24200658E+03 0.30378636E+03 0.91188000E+02 0.0000E+00 0.9000E+01
       21  1    1    2  502  501 -.75009058E+02 0.11199771E+03 -.90737862E+02 0.16249236E+03 0.75000000E+00 0.0000E+00 0.9000E+01
#aMCatNLO 2  0  0  1  1 0.13479557D+03 0.00000000D+00  -5  7  0 0.00000000D+00 0.00000000D+00 0.00000000D+00 0.00000000D+00 0.00000000D+00
  <mgrwgt>
 0.5584743369D-05    1    2    0
 0.569340393326569D+03 0.000000000000000D+00 0.000000000000000D+00 0.569340393326569D+03
 0.569340393326569D+03 0.000000000000000D+00 0.000000000000000D+00 -.569340393326569D+03
 0.419499165713223D+03 0.184821826849028D+03 -.207195726055856D+03 0.300957010409235D+03
 0.235030365788367D+03 -.113500795940545D+02 0.157612977264078D+03 -.173978728394523D+03
 0.299323053342649D+03 -.126574714745139D+03 0.186527910806172D+03 -.196927576382378D+03
 0.184828201808900D+03 -.468970325098347D+02 -.136945162014394D+03 0.699492943676664D+02
 0.000000000000000D+00 -.000000000000000D+00 0.000000000000000D+00 -.000000000000000D+00
 0.590830013456407D+03 0.000000000000000D+00 0.000000000000000D+00 0.590830013456407D+03
 0.832673526460224D+03 0.000000000000000D+00 0.000000000000000D+00 -.832673526460224D+03
 0.454982395897359D+03 0.213524266639030D+03 -.250051983943941D+03 0.300957010409235D+03
 0.220421360186695D+03 0.359886423270297D+01 0.135292373284720D+03 -.173978728394523D+03
 0.274728698416757D+03 -.107733052937114D+03 0.158395002126889D+03 -.196927576382378D+03
 0.196499038054995D+03 -.343810200254513D+02 -.155633101530534D+03 0.699492943676664D+02
 0.276872047360824D+03 -.750090579091674D+02 0.111997710062865D+03 -.241843513003818D+03
0.137319874972D-05 0.000000000000D+00 0.000000000000D+00 0.179742312175D-07 0.709946893753D-11  7 1 -1 23 -11 11 23 21 2 0.18619332D+00 0.62538361D-01 0.24331900D+06 0.24331900D+06 0.24331900D+06 0.10913452D+01  1  2  1  1  7  1        1 0.558474336912D-05 0.100000000000D+01
  </mgrwgt>
  </event>
  <event>
  8     66 0.56006291E-06 0.22724357E+03 0.75467711E-02 0.93557364E-01
        3 -1    0    0  501    0 0.00000000E+00 0.00000000E+00 0.29410392E+03 0.29410435E+03 0.50000000E+00 0.0000E+00 0.9000E+01
       -3 -1    0    0    0  501 0.00000000E+00 0.00000000E+00 -.37694902E+03 0.37694936E+03 0.50000000E+00 0.0000E+00 0.9000E+01
       25  2    1    2    0    0 0.12962012E+03 -.33584412E+02 -.26890770E+03 0.42503324E+03 0.30068691E+03 0.0000E+00 0.0000E+00
       23  2    1    2    0    0 -.12962012E+03 0.33584412E+02 0.18606260E+03 0.24602047E+03 0.89316805E+02 0.0000E+00 0.0000E+00
       23  1    3    3    0    0 0.12282140E+03 0.70306928E+02 -.22259003E+03 0.27908732E+03 0.91188000E+02 0.0000E+00 0.9000E+01
      -13  1    4    4    0    0 -.53021114E+02 0.45923772E+02 0.13786116E+03 0.15468013E+03 0.10565837E+00 0.0000E+00 0.9000E+01
       13  1    4    4    0    0 -.76599005E+02 -.12339360E+02 0.48201432E+02 0.91340333E+02 0.10565837E+00 0.0000E+00 0.9000E+01
       23  1    3    3    0    0 0.67987177E+01 -.10389134E+03 -.46317665E+02 0.14594592E+03 0.91188000E+02 0.0000E+00 0.9000E+01
#aMCatNLO 1  0  0  2  1 0.46878896D+03 0.00000000D+00  -5  7  0 0.00000000D+00 0.00000000D+00 0.00000000D+00 0.00000000D+00 0.00000000D+00
  <mgrwgt>
 0.2817596442D-04    5    2    0
 0.332960119389120D+03 0.000000000000000D+00 0.000000000000000D+00 0.332960119389120D+03
 0.332960119389120D+03 0.000000000000000D+00 0.000000000000000D+00 -.332960119389120D+03
 0.253547014872126D+03 0.122821400910863D+03 0.703069275241300D+02 -.189585539604095D+03
 0.173023525895646D+03 -.530210814930957D+02 0.459238531776138D+02 0.158167332720713D+03
 0.980409483048804D+02 -.765990376497558D+02 -.123394409715739D+02 0.599362425595780D+02
 0.141308749705587D+03 0.679871823198830D+01 -.103891339730170D+03 -.285180356761959D+02
 0.000000000000000D+00 -.000000000000000D+00 -.000000000000000D+00 -.000000000000000D+00
 0.549291183500289D+03 0.000000000000000D+00 0.000000000000000D+00 0.549291183500289D+03
 0.793819137936881D+03 0.000000000000000D+00 0.000000000000000D+00 -.793819137936881D+03
 0.403488077169829D+03 0.328070816649262D+03 0.104471237717930D+03 -.189585539604095D+03
 0.180086419500393D+03 0.572859795174706D+02 0.642847563518016D+02 0.158167332720713D+03
 0.652799562490218D+02 -.255796619062533D+02 -.384713042089912D+01 0.599362425595780D+02
 0.165524360402577D+03 0.102649483802475D+03 -.879367253139369D+02 -.285180356761959D+02
 0.528731508115349D+03 -.462426618062955D+03 -.769721383348952D+02 -.244527954436592D+03
0.434607364057D-05 0.000000000000D+00 0.000000000000D+00 0.816013908583D-07 0.000000000000D+00  7 3 -3 23 -13 13 23 21 0 0.45246816D-01 0.57992216D-01 0.51639640D+05 0.51639640D+05 0.51639640D+05 0.11460648D+01  1  2  2  2  7  2       -3 0.259728840225D-04 0.100000000000D+01
-.198610115087D-06 0.000000000000D+00 -.166900671273D-07 0.816013908583D-07 0.000000000000D+00  7 3 -3 23 -13 13 23 21 2 0.45246816D-01 0.57992216D-01 0.51639640D+05 0.51639640D+05 0.51639640D+05 0.11460648D+01  1  2  3  2  7  2       -3 -.155898820451D-05 0.100000000000D+01
0.280448410213D-06 0.000000000000D+00 0.000000000000D+00 0.816013908583D-07 0.000000000000D+00  7 3 -3 23 -13 13 23 21 2 0.45246816D-01 0.57992216D-01 0.51639640D+05 0.51639640D+05 0.51639640D+05 0.11460648D+01  1  2 15  2  7  2       -3 0.220137712172D-05 0.100000000000D+01
0.139811274230D-05 0.000000000000D+00 -.138452643399D-05 0.816013908583D-07 0.000000000000D+00  7 3 -3 23 -13 13 23 21 2 0.45246816D-01 0.19788598D+00 0.51639640D+05 0.51639640D+05 0.51639640D+05 0.11460648D+01  1  2  5  2  7  2       -3 0.345504814872D-06 0.100000000000D+01
0.248847525414D-06 0.000000000000D+00 -.197956754699D-06 0.816013908583D-07 0.000000000000D+00  7 3 21 23 -13 13 23 3 2 0.45246816D-01 0.19788598D+00 0.51639640D+05 0.51639640D+05 0.51639640D+05 0.11460648D+01  1  2  5  4  7  2       -3 0.121518666893D-05 0.100000000000D+01
  </mgrwgt>
  </event>
  <event>
  8     66 0.56006291E-06 0.19727820E+03 0.75467711E-02 0.10242354E+00
        1 -1    0    0  501    0 0.00000000E+00 0.00000000E+00 0.17380214E+03 0.17380244E+03 0.32000000E+00 0.0000E+00 0.9000E+01
       -1 -1    0    0    0  501 0.00000000E+00 0.00000000E+00 -.68036181E+03 0.68036189E+03 0.32000000E+00 0.0000E+00 0.9000E+01
       25  2    1    2    0    0 0.48234906E+00 0.85016740E+02 -.61487865E+03 0.68905210E+03 0.29914705E+03 0.0000E+00 0.0000E+00
       23  2    1    2    0    0 -.48234906E+00 -.85016740E+02 0.10831898E+03 0.16511223E+03 0.91109640E+02 0.0000E+00 0.0000E+00
       23  1    3    3    0    0 0.83730089E+02 -.47646525E+01 -.43905754E+03 0.45620193E+03 0.91188000E+02 0.0000E+00 0.9000E+01
      -11  1    4    4    0    0 -.12371149E+02 0.13765698E+02 0.40996281E+02 0.44980383E+02 0.51099893E-03 0.0000E+00 0.9000E+01
       11  1    4    4    0    0 0.11888800E+02 -.98782438E+02 0.67322700E+02 0.12013184E+03 0.51099893E-03 0.0000E+00 0.9000E+01
       23  1    3    3    0    0 -.83247740E+02 0.89781392E+02 -.17582111E+03 0.23285017E+03 0.91188000E+02 0.0000E+00 0.9000E+01
#aMCatNLO 1  0  0  2  1 0.12891462D+03 0.00000000D+00  -5  7  0 0.00000000D+00 0.00000000D+00 0.00000000D+00 0.00000000D+00 0.00000000D+00
  <mgrwgt>
 0.2659907764D-03    4    2    0
 0.343872792700818D+03 0.000000000000000D+00 0.000000000000000D+00 0.343872792700818D+03
 0.343872792700818D+03 0.000000000000000D+00 0.000000000000000D+00 -.343872792700818D+03
 0.243204138199883D+03 0.837300888098473D+02 -.476465247022497D+01 -.209283472372476D+03
 0.860604585144604D+02 -.123711494012182D+02 0.137656982634669D+02 0.840467889543145D+02
 0.198787605959333D+03 0.118888003438773D+02 -.987824378885333D+02 0.172096480714233D+03
 0.159693382727959D+03 -.832477397525064D+02 0.897813920952914D+02 -.468597972960719D+02
 0.000000000000000D+00 -.000000000000000D+00 -.000000000000000D+00 0.000000000000000D+00
 0.603660788558628D+03 0.000000000000000D+00 0.000000000000000D+00 0.603660788558628D+03
 0.366231962143323D+03 0.000000000000000D+00 0.000000000000000D+00 -.366231962143323D+03
 0.247697536005578D+03 0.870675793663011D+02 0.407244743888314D+02 -.209283472372476D+03
 0.899630211322611D+02 -.111744195224987D+02 0.300768147590096D+02 0.840467889543145D+02
 0.183946134537506D+03 0.144908901546564D+02 -.633166316191193D+02 0.172096480714233D+03
 0.178116803272083D+03 -.809510714686310D+02 0.121084382516151D+03 -.468597972960719D+02
 0.270169255754524D+03 -.943297852982774D+01 -.128569040044872D+03 0.237428826415305D+03
0.132136751567D-04 0.000000000000D+00 0.000000000000D+00 0.316809494552D-06 0.000000000000D+00  7 1 -1 23 -11 11 23 21 0 0.26738819D-01 0.10467108D+00 0.38918686D+05 0.38918686D+05 0.38918686D+05 0.11569912D+01  1  2  2  2  7  2       -1 0.275476052577D-03 0.100000000000D+01
-.458514104962D-06 0.000000000000D+00 -.507439918423D-07 0.316809494552D-06 0.000000000000D+00  7 1 -1 23 -11 11 23 21 2 0.26738819D-01 0.10467108D+00 0.38918686D+05 0.38918686D+05 0.38918686D+05 0.11569912D+01  1  2  3  2  7  2       -1 -.127959651676D-04 0.100000000000D+01
0.821127785161D-06 0.000000000000D+00 0.000000000000D+00 0.316809494552D-06 0.000000000000D+00  7 1 -1 23 -11 11 23 21 2 0.26738819D-01 0.10467108D+00 0.38918686D+05 0.38918686D+05 0.38918686D+05 0.11569912D+01  1  2 15  2  7  2       -1 0.229155928320D-04 0.100000000000D+01
-.702496828045D-06 0.000000000000D+00 0.000000000000D+00 0.316809494552D-06 0.000000000000D+00  7 1 -1 23 -11 11 23 21 2 0.26738819D-01 0.10467108D+00 0.38918686D+05 0.38918686D+05 0.38918686D+05 0.11569912D+01  1  2  4  2  7  2       -1 -.196049038507D-04 0.100000000000D+01
  </mgrwgt>
  </event>
  <event>
  8     66 0.56006291E-06 0.35580393E+03 0.75467711E-02 0.94983904E-01
        1 -1    0    0  501    0 0.00000000E+00 0.00000000E+00 0.52233259E+03 0.52233269E+03 0.32000000E+00 0.0000E+00 0.9000E+01
       -1 -1    0    0    0  501 0.00000000E+00 0.00000000E+00 -.25107593E+03 0.25107613E+03 0.32000000E+00 0.0000E+00 0.9000E+01
       25  2    1    2    0    0 0.13440293E+03 0.25148939E+03 0.22225726E+03 0.47031890E+03 0.30081642E+03 0.0000E+00 0.0000E+00
       23  2    1    2    0    0 -.13440293E+03 -.25148939E+03 0.48999402E+02 0.30308992E+03 0.90285627E+02 0.0000E+00 0.0000E+00
       23  1    3    3    0    0 -.55565774E+02 0.39295432E+02 0.80447703E+02 0.13935125E+03 0.91188000E+02 0.0000E+00 0.9000E+01
      -13  1    4    4    0    0 -.14352341E+03 -.19818529E+03 0.34632283E+02 0.24713515E+03 0.10565837E+00 0.0000E+00 0.9000E+01
       13  1    4    4    0    0 0.91204770E+01 -.53304102E+02 0.14367119E+02 0.55954764E+02 0.10565837E+00 0.0000E+00 0.9000E+01
       23  1    3    3    0    0 0.18996870E+03 0.21219396E+03 0.14180956E+03 0.33096765E+03 0.91188000E+02 0.0000E+00 0.9000E+01
#aMCatNLO 1  0  0  1  1 0.22229540D+03 0.00000000D+00  -5  7  0 0.00000000D+00 0.00000000D+00 0.00000000D+00 0.00000000D+00 0.00000000D+00
  <mgrwgt>
 0.1661163329D-03    7    2    0
 0.362139829616819D+03 0.000000000000000D+00 0.000000000000000D+00 0.362139829616819D+03
 0.362139829616819D+03 0.000000000000000D+00 0.000000000000000D+00 -.362139829616819D+03
 0.118674476245419D+03 -.555657741348530D+02 0.392954316709255D+02 0.337148893326767D+02
 0.250928577172770D+03 -.143523614882001D+03 -.198185489619517D+03 -.555754848600186D+02
 0.543692427029065D+02 0.912068576602007D+01 -.533039035871141D+02 -.561440162623894D+01
 0.300307363112543D+03 0.189968703250834D+03 0.212193961535706D+03 0.274749971535808D+02
 0.000000000000000D+00 0.000000000000000D+00 0.000000000000000D+00 0.000000000000000D+00
 0.498571234018084D+03 0.000000000000000D+00 0.000000000000000D+00 0.498571234018084D+03
 0.481968712004080D+03 0.000000000000000D+00 0.000000000000000D+00 -.481968712004080D+03
 0.139369224653236D+03 -.939052624349050D+02 0.339652375342952D+02 0.337148893326767D+02
 0.314487815063815D+03 -.227531769622139D+03 -.209864825825588D+03 -.555754848600186D+02
 0.563525505020959D+02 -.733008160539959D+01 -.555909915915226D+02 -.561440162623894D+01
 0.247415824642806D+03 0.108589360622118D+03 0.200880099140682D+03 0.274749971535808D+02
 0.222914531160211D+03 0.220177753040325D+03 0.306104807421331D+02 0.166025220140035D+02
0.465007423014D-05 0.000000000000D+00 0.000000000000D+00 0.134623968638D-06 0.000000000000D+00  7 1 -1 23 -13 13 23 21 0 0.80358883D-01 0.38627089D-01 0.12659644D+06 0.12659644D+06 0.12659644D+06 0.11134128D+01  1  2  2  1  7  1        1 0.150273187393D-03 0.100000000000D+01
-.258239601314D-06 0.000000000000D+00 -.178575094364D-07 0.134623968638D-06 0.000000000000D+00  7 1 -1 23 -13 13 23 21 2 0.80358883D-01 0.38627089D-01 0.12659644D+06 0.12659644D+06 0.12659644D+06 0.11134128D+01  1  2  3  1  7  1        1 -.103456290687D-04 0.100000000000D+01
0.299962289706D-06 0.000000000000D+00 0.000000000000D+00 0.134623968638D-06 0.000000000000D+00  7 1 -1 23 -13 13 23 21 2 0.80358883D-01 0.38627089D-01 0.12659644D+06 0.12659644D+06 0.12659644D+06 0.11134128D+01  1  2 15  1  7  1        1 0.120171289304D-04 0.100000000000D+01
-.157009055595D-05 0.000000000000D+00 0.000000000000D+00 0.134623968638D-06 0.000000000000D+00  7 1 -1 23 -13 13 23 21 2 0.80358883D-01 0.38627089D-01 0.12659644D+06 0.12659644D+06 0.12659644D+06 0.11134128D+01  1  2  4  1  7  1        1 -.629011755500D-04 0.100000000000D+01
-.230068265049D-05 0.000000000000D+00 -.166071138214D-05 0.134623968638D-06 0.000000000000D+00  7 1 -1 23 -13 13 23 21 2 0.13873556D+00 0.38627089D-01 0.12659644D+06 0.12659644D+06 0.12659644D+06 0.11134128D+01  1  2  5  1  7  1        1 -.404791362062D-04 0.100000000000D+01
0.297328379007D-05 0.000000000000D+00 0.144054371817D-05 0.134623968638D-06 0.000000000000D+00  7 1 -1 23 -13 13 23 21 2 0.80358883D-01 0.38627089D-01 0.12659644D+06 0.12659644D+06 0.12659644D+06 0.11134128D+01  1  2  6  1  7  1        1 0.119116088515D-03 0.100000000000D+01
-.570150826007D-07 0.000000000000D+00 -.100570759760D-06 0.134623968638D-06 0.000000000000D+00  7 21 -1 23 -13 13 23 -1 2 0.13873556D+00 0.38627089D-01 0.12659644D+06 0.12659644D+06 0.12659644D+06 0.11134128D+01  1  2  5  3  7  1        1 -.156413113323D-05 0.100000000000D+01
  </mgrwgt>
  </event>
  <event>
  8     66 0.56006291E-06 0.20132933E+03 0.75467711E-02 0.96905984E-01
        1 -1    0    0  501    0 0.00000000E+00 0.00000000E+00 0.44613619E+03 0.44613631E+03 0.32000000E+00 0.0000E+00 0.9000E+01
       -1 -1    0    0    0  501 0.00000000E+00 0.00000000E+00 -.17235658E+03 0.17235687E+03 0.32000000E+00 0.0000E+00 0.9000E+01
       25  2    1    2    0    0 0.35264858E+02 -.61382549E+02 -.12304481E+02 0.30859477E+03 0.30011316E+03 0.0000E+00 0.0000E+00
       23  2    1    2    0    0 -.35264858E+02 0.61382549E+02 0.28608410E+03 0.30989841E+03 0.95820073E+02 0.0000E+00 0.0000E+00
       23  1    3    3    0    0 -.95523604E+02 -.28737349E+01 -.36505476E+02 0.13704349E+03 0.91188000E+02 0.0000E+00 0.9000E+01
      -13  1    4    4    0    0 -.10124182E+02 0.72527503E+02 0.11307386E+03 0.13471617E+03 0.10565837E+00 0.0000E+00 0.9000E+01
       13  1    4    4    0    0 -.25140676E+02 -.11144953E+02 0.17301024E+03 0.17518224E+03 0.10565837E+00 0.0000E+00 0.9000E+01
       23  1    3    3    0    0 0.13078846E+03 -.58508814E+02 0.24200995E+02 0.17155128E+03 0.91188000E+02 0.0000E+00 0.9000E+01
#aMCatNLO 1  0  0  2  1 0.30388771D+03 0.00000000D+00  -5  7  0 0.00000000D+00 0.00000000D+00 0.00000000D+00 0.00000000D+00 0.00000000D+00
  <mgrwgt>
 0.1869001071D-03    3    2    0
 0.277298818956154D+03 0.000000000000000D+00 0.000000000000000D+00 0.277298818956154D+03
 0.277298818956154D+03 0.000000000000000D+00 0.000000000000000D+00 -.277298818956154D+03
 0.170853453069671D+03 -.955236018110499D+02 -.287373720211932D+01 -.108363435776868D+03
 0.944174645255966D+02 -.101241669279125D+02 0.725275899963581D+02 0.595978820158756D+02
 0.109957832633720D+03 -.251406931679725D+02 -.111450363632995D+02 0.106463414697255D+03
 0.179368887683320D+03 0.130788461906935D+03 -.585088164309393D+02 -.576978609362624D+02
 0.000000000000000D+00 0.000000000000000D+00 0.000000000000000D+00 0.000000000000000D+00
 0.686914508003751D+03 0.000000000000000D+00 0.000000000000000D+00 0.686914508003751D+03
 0.378475249545441D+03 0.000000000000000D+00 0.000000000000000D+00 -.378475249545441D+03
 0.225561799271410D+03 -.152604344832431D+03 -.867879811463138D+02 -.108363435776868D+03
 0.779231805101472D+02 -.349398923908677D+02 0.360460599754444D+02 0.595978820158756D+02
 0.138180181549509D+03 -.608706559728394D+02 -.636715568012255D+02 0.106463414697255D+03
 0.190732085668048D+03 0.774967723791672D+02 -.136852783214207D+03 -.576978609362624D+02
 0.432992510550078D+03 0.170918120816971D+03 0.251266261186302D+03 0.308439258458310D+03
0.241676956828D-05 0.000000000000D+00 0.000000000000D+00 0.353708715659D-07 0.000000000000D+00  7 1 -1 23 -13 13 23 21 0 0.68636369D-01 0.26516428D-01 0.40533499D+05 0.40533499D+05 0.40533499D+05 0.11554008D+01  1  2  2  2  7  2       -1 0.183780205372D-03 0.100000000000D+01
-.117532461447D-06 0.000000000000D+00 -.928103149224D-08 0.353708715659D-07 0.000000000000D+00  7 1 -1 23 -13 13 23 21 2 0.68636369D-01 0.26516428D-01 0.40533499D+05 0.40533499D+05 0.40533499D+05 0.11554008D+01  1  2  3  2  7  2       -1 -.119312690611D-04 0.100000000000D+01
0.148265967262D-06 0.000000000000D+00 0.000000000000D+00 0.353708715659D-07 0.000000000000D+00  7 1 -1 23 -13 13 23 21 2 0.68636369D-01 0.26516428D-01 0.40533499D+05 0.40533499D+05 0.40533499D+05 0.11554008D+01  1  2 15  2  7  2       -1 0.150511707680D-04 0.100000000000D+01
  </mgrwgt>
  </event>
  <event>
  9     66 0.56006291E-06 0.21270345E+03 0.75467711E-02 0.10301163E+00
        1 -1    0    0  502    0 0.00000000E+00 0.00000000E+00 0.79656290E+02 0.79656933E+02 0.32000000E+00 0.0000E+00 0.9000E+01
       -1 -1    0    0    0  501 0.00000000E+00 0.00000000E+00 -.97869633E+03 0.97869638E+03 0.32000000E+00 0.0000E+00 0.9000E+01
       25  2    1    2    0    0 0.46039178E+02 0.12293277E+03 -.71704920E+03 0.78801874E+03 0.29930239E+03 0.0000E+00 0.0000E+00
       23  2    1    2    0    0 0.63409693E+00 -.63419459E+02 -.15848788E+03 0.19113116E+03 0.85966756E+02 0.0000E+00 0.0000E+00
       23  1    3    3    0    0 -.68099316E+02 0.13830579E+03 -.36613384E+03 0.40759692E+03 0.91188000E+02 0.0000E+00 0.9000E+01
      -11  1    4    4    0    0 0.41788842E+02 -.42933276E+02 -.76915503E+02 0.97496502E+02 0.51099893E-03 0.0000E+00 0.9000E+01
       11  1    4    4    0    0 -.41154745E+02 -.20486184E+02 -.81572378E+02 0.93634660E+02 0.51099893E-03 0.0000E+00 0.9000E+01
       23  1    3    3    0    0 0.11413849E+03 -.15373023E+02 -.35091536E+03 0.38042183E+03 0.91188000E+02 0.0000E+00 0.9000E+01
       21  1    1    2  502  501 -.46673275E+02 -.59513307E+02 -.23502962E+02 0.79203409E+02 0.75000000E+00 0.0000E+00 0.9000E+01
#aMCatNLO 2  0  0  1  2 0.75632191D+02 0.00000000D+00  -5  7  0 0.00000000D+00 0.00000000D+00 0.00000000D+00 0.00000000D+00 0.00000000D+00
  <mgrwgt>
 0.1640535772D-04    2    2    0
 0.215898782058817D+03 0.000000000000000D+00 0.000000000000000D+00 0.215898782058817D+03
 0.215898782058817D+03 0.000000000000000D+00 0.000000000000000D+00 -.215898782058817D+03
 0.170177235512399D+03 -.868362559776048D+02 0.114414230492726D+03 -.372674807193166D+01
 0.665265355077259D+02 0.347797644547469D+02 -.518705822937934D+02 0.229257628801280D+02
 0.541984406883620D+02 -.465410398733085D+02 -.273542735364216D+02 0.481106015921954D+01
 0.140895352409146D+03 0.985975313961664D+02 -.351893746625114D+02 -.240100749674159D+02
 0.000000000000000D+00 -.000000000000000D+00 -.000000000000000D+00 0.000000000000000D+00
 0.337014487874676D+03 0.000000000000000D+00 0.000000000000000D+00 0.337014487874676D+03
 0.231322362357743D+03 0.000000000000000D+00 0.000000000000000D+00 -.231322362357743D+03
 0.179151188019257D+03 -.680993155626427D+02 0.138305789442883D+03 -.372674807193166D+01
 0.641495444276531D+02 0.417888417541443D+02 -.429332755736930D+02 0.229257628801280D+02
 0.462227547289655D+02 -.411547448334970D+02 -.204861839435320D+02 0.481106015921954D+01
 0.148847776371411D+03 0.114138493350309D+03 -.153730225555770D+02 -.240100749674159D+02
 0.129965586685132D+03 -.466732747083134D+02 -.595133073700815D+02 0.105692125516932D+03
-.608588900998D-05 0.000000000000D+00 0.000000000000D+00 0.155718307709D-08 0.000000000000D+00  7 1 -1 23 -11 11 23 21 2 0.12406189D-01 0.14052881D+00 0.64396138D+05 0.64396138D+05 0.64396138D+05 0.11377532D+01  1  2 13  1  7  1        1 -.215504242098D-03 0.100000000000D+01
0.779053982420D-05 0.000000000000D+00 0.000000000000D+00 0.155718307709D-08 0.219565879713D-11  7 1 -1 23 -11 11 23 21 2 0.12254812D-01 0.15056804D+00 0.64396138D+05 0.64396138D+05 0.64396138D+05 0.11377532D+01  1  2  1  1  7  1        1 0.231909599814D-03 0.100000000000D+01
  </mgrwgt>
  </event>
  <event>
  8     66 0.56006291E-06 0.86107279E+03 0.75467711E-02 0.84685825E-01
        1 -1    0    0  501    0 0.00000000E+00 0.00000000E+00 0.16664639E+04 0.16664639E+04 0.32000000E+00 0.0000E+00 0.9000E+01
       -1 -1    0    0    0  501 0.00000000E+00 0.00000000E+00 -.59480851E+03 0.59480860E+03 0.32000000E+00 0.0000E+00 0.9000E+01
       25  2    1    2    0    0 0.70124638E+02 0.83499263E+03 -.12740706E+02 0.88794811E+03 0.29352915E+03 0.0000E+00 0.0000E+00
       23  2    1    2    0    0 -.70124638E+02 -.83499263E+03 0.10843961E+04 0.13733244E+04 0.89302282E+02 0.0000E+00 0.0000E+00
       23  1    3    3    0    0 0.14323333E+03 0.54498252E+03 0.33832348E+02 0.57182306E+03 0.91188000E+02 0.0000E+00 0.9000E+01
      -13  1    4    4    0    0 -.21009589E+02 -.45642545E+03 0.52353629E+03 0.69487830E+03 0.10565837E+00 0.0000E+00 0.9000E+01
       13  1    4    4    0    0 -.49115049E+02 -.37856718E+03 0.56085978E+03 0.67844609E+03 0.10565837E+00 0.0000E+00 0.9000E+01
       23  1    3    3    0    0 -.73108693E+02 0.29001011E+03 -.46573054E+02 0.31612505E+03 0.91188000E+02 0.0000E+00 0.9000E+01
#aMCatNLO 1  0  0  1  2 0.77677951D+03 0.00000000D+00  -5  7  0 0.00000000D+00 0.00000000D+00 0.00000000D+00 0.00000000D+00 0.00000000D+00
  <mgrwgt>
 0.5143744493D-03    3    2    0
 0.995603854498420D+03 0.000000000000000D+00 0.000000000000000D+00 0.995603854498420D+03
 0.995603854498420D+03 0.000000000000000D+00 0.000000000000000D+00 -.995603854498420D+03
 0.631170294024766D+03 0.143233330677153D+03 0.544982522004306D+03 -.269330563449945D+03
 0.507359847590577D+03 -.210095494751518D+02 -.456425563344454D+03 0.220563639124137D+03
 0.468611584153657D+03 -.491150886422204D+02 -.378567071039755D+03 0.271793115429820D+03
 0.384065983227841D+03 -.731086925597807D+02 0.290010112379903D+03 -.223026191104012D+03
 0.000000000000000D+00 0.000000000000000D+00 0.000000000000000D+00 -.000000000000000D+00
 0.128472253135675D+04 0.000000000000000D+00 0.000000000000000D+00 0.128472253135675D+04
 0.176689987266888D+04 0.000000000000000D+00 0.000000000000000D+00 -.176689987266888D+04
 0.569640197445299D+03 -.753428838092487D+02 0.487810619659474D+03 -.269330563449945D+03
 0.597584673478998D+03 -.222135865699462D+03 -.509033181868597D+03 0.220563639124137D+03
 0.558913710550128D+03 -.236149254983010D+03 -.427488675425249D+03 0.271793115429820D+03
 0.411218326024414D+03 -.217869447892608D+03 0.252145755607601D+03 -.223026191104012D+03
 0.914265496526794D+03 0.751497452384330D+03 0.196565482026772D+03 -.482177341312126D+03
0.704830037782D-03 0.000000000000D+00 0.000000000000D+00 0.180734791714D-07 0.000000000000D+00  7 1 -1 23 -13 13 23 21 0 0.25637907D+00 0.91509011D-01 0.74144635D+06 0.74144635D+06 0.74144635D+06 0.10566234D+01  1  2  2  1  7  1        1 0.509551543251D-03 0.100000000000D+01
-.381538810476D-04 0.000000000000D+00 -.270673293110D-05 0.180734791714D-07 0.000000000000D+00  7 1 -1 23 -13 13 23 21 2 0.25637907D+00 0.91509011D-01 0.74144635D+06 0.74144635D+06 0.74144635D+06 0.10566234D+01  1  2  3  1  7  1        1 -.307951886650D-04 0.100000000000D+01
0.441292489787D-04 0.000000000000D+00 0.000000000000D+00 0.180734791714D-07 0.000000000000D+00  7 1 -1 23 -13 13 23 21 2 0.25637907D+00 0.91509011D-01 0.74144635D+06 0.74144635D+06 0.74144635D+06 0.10566234D+01  1  2 15  1  7  1        1 0.356180946899D-04 0.100000000000D+01
  </mgrwgt>
  </event>
  <event>
  8     66 0.56006291E-06 0.41429787E+03 0.75467711E-02 0.92655214E-01
        1 -1    0    0  501    0 0.00000000E+00 0.00000000E+00 0.12575796E+04 0.12575796E+04 0.32000000E+00 0.0000E+00 0.9000E+01
       -1 -1    0    0    0  501 0.00000000E+00 0.00000000E+00 -.27261351E+03 0.27261370E+03 0.32000000E+00 0.0000E+00 0.9000E+01
       25  2    1    2    0    0 -.32039918E+03 -.19524850E+03 0.10871420E+02 0.48225617E+03 0.30277914E+03 0.0000E+00 0.0000E+00
       23  2    1    2    0    0 0.32039918E+03 0.19524850E+03 0.97409462E+03 0.10479371E+04 0.92381161E+02 0.0000E+00 0.0000E+00
       23  1    3    3    0    0 -.19676817E+03 -.20536066E+03 0.86194935E+02 0.31086256E+03 0.91188000E+02 0.0000E+00 0.9000E+01
      -13  1    4    4    0    0 0.28219244E+02 0.96542961E+01 0.29633271E+02 0.42043705E+02 0.10565837E+00 0.0000E+00 0.9000E+01
       13  1    4    4    0    0 0.29217994E+03 0.18559421E+03 0.94446135E+03 0.10058934E+04 0.10565837E+00 0.0000E+00 0.9000E+01
       23  1    3    3    0    0 -.12363102E+03 0.10112162E+02 -.75323516E+02 0.17139361E+03 0.91188000E+02 0.0000E+00 0.9000E+01
#aMCatNLO 1  0  0  1  2 0.33118992D+03 0.00000000D+00  -5  7  0 0.00000000D+00 0.00000000D+00 0.00000000D+00 0.00000000D+00 0.00000000D+00
  <mgrwgt>
 0.2531057906D-03    7    2    0
 0.585519729100440D+03 0.000000000000000D+00 0.000000000000000D+00 0.585519729100440D+03
 0.585519729100440D+03 0.000000000000000D+00 0.000000000000000D+00 -.585519729100440D+03
 0.333704143476207D+03 -.196768165034438D+03 -.205360662609915D+03 -.148837130819516D+03
 0.300130608550436D+02 0.282188989405520D+02 0.965406598371325D+01 0.335806111522420D+01
 0.520007895680527D+03 0.292180285762455D+03 0.185594436078972D+03 0.388063909012920D+03
 0.287314358189103D+03 -.123631019668569D+03 0.101121605472297D+02 -.242584839308628D+03
 0.000000000000000D+00 0.000000000000000D+00 0.000000000000000D+00 0.000000000000000D+00
 0.784333728202004D+03 0.000000000000000D+00 0.000000000000000D+00 0.784333728202004D+03
 0.764425717399532D+03 0.000000000000000D+00 0.000000000000000D+00 -.764425717399532D+03
 0.417130876150310D+03 -.223289998464659D+03 -.306058820439785D+03 -.148837130819516D+03
 0.265173291743171D+02 0.262220693456166D+02 0.207249881041830D+01 0.335806111522420D+01
 0.468599906493724D+03 0.257259576456536D+03 0.530074071139369D+02 0.388063909012920D+03
 0.304723611845672D+03 -.144543646297837D+03 -.692889480711357D+02 -.242584839308628D+03
 0.331787721937513D+03 0.843519989603438D+02 0.320267862586565D+03 0.199080108024710D+02
0.347242633242D-04 0.000000000000D+00 0.000000000000D+00 0.117627503263D-06 0.000000000000D+00  7 1 -1 23 -13 13 23 21 0 0.19347379D+00 0.41940558D-01 0.17164273D+06 0.17164273D+06 0.17164273D+06 0.11029621D+01  1  2  2  1  7  1        1 0.231093829026D-03 0.100000000000D+01
-.164846607749D-05 0.000000000000D+00 -.133350314274D-06 0.117627503263D-06 0.000000000000D+00  7 1 -1 23 -13 13 23 21 2 0.19347379D+00 0.41940558D-01 0.17164273D+06 0.17164273D+06 0.17164273D+06 0.11029621D+01  1  2  3  1  7  1        1 -.133461662993D-04 0.100000000000D+01
0.220542881500D-05 0.000000000000D+00 0.000000000000D+00 0.117627503263D-06 0.000000000000D+00  7 1 -1 23 -13 13 23 21 2 0.19347379D+00 0.41940558D-01 0.17164273D+06 0.17164273D+06 0.17164273D+06 0.11029621D+01  1  2 15  1  7  1        1 0.178553991060D-04 0.100000000000D+01
-.118310490047D-04 0.000000000000D+00 0.000000000000D+00 0.117627503263D-06 0.000000000000D+00  7 1 -1 23 -13 13 23 21 2 0.19347379D+00 0.41940558D-01 0.17164273D+06 0.17164273D+06 0.17164273D+06 0.11029621D+01  1  2  4  1  7  1        1 -.957855000282D-04 0.100000000000D+01
-.141962136016D-04 0.000000000000D+00 -.121418369893D-04 0.117627503263D-06 0.000000000000D+00  7 1 -1 23 -13 13 23 21 2 0.30232858D+00 0.41940558D-01 0.17164273D+06 0.17164273D+06 0.17164273D+06 0.11029621D+01  1  2  5  1  7  1        1 -.387571272163D-04 0.100000000000D+01
0.188258613283D-04 0.000000000000D+00 0.110251108634D-04 0.117627503263D-06 0.000000000000D+00  7 1 -1 23 -13 13 23 21 2 0.19347379D+00 0.41940558D-01 0.17164273D+06 0.17164273D+06 0.17164273D+06 0.11029621D+01  1  2  6  1  7  1        1 0.152416285325D-03 0.100000000000D+01
-.254894387505D-06 0.000000000000D+00 -.627097246675D-06 0.117627503263D-06 0.000000000000D+00  7 21 -1 23 -13 13 23 -1 2 0.30232858D+00 0.41940558D-01 0.17164273D+06 0.17164273D+06 0.17164273D+06 0.11029621D+01  1  2  5  3  7  1        1 -.370929271232D-06 0.100000000000D+01
  </mgrwgt>
  </event>
  <event>
  8     66 0.56006291E-06 0.23946731E+03 0.75467711E-02 0.10361989E+00
        1 -1    0    0  501    0 0.00000000E+00 0.00000000E+00 0.94222685E+02 0.94223228E+02 0.32000000E+00 0.0000E+00 0.9000E+01
       -1 -1    0    0    0  501 0.00000000E+00 0.00000000E+00 -.86421936E+03 0.86421942E+03 0.32000000E+00 0.0000E+00 0.9000E+01
       25  2    1    2    0    0 0.18600041E+03 -.53301651E+02 -.48803039E+03 0.60419082E+03 0.29905796E+03 0.0000E+00 0.0000E+00
       23  2    1    2    0    0 -.18600041E+03 0.53301651E+02 -.28196628E+03 0.35425183E+03 0.92477869E+02 0.0000E+00 0.0000E+00
       23  1    3    3    0    0 0.15865237E+03 -.51114480E+02 -.12157202E+03 0.22556213E+03 0.91188000E+02 0.0000E+00 0.9000E+01
      -13  1    4    4    0    0 -.11015729E+03 0.26776065E+02 -.85505385E+02 0.14199566E+03 0.10565837E+00 0.0000E+00 0.9000E+01
       13  1    4    4    0    0 -.75843119E+02 0.26525586E+02 -.19646090E+03 0.21225617E+03 0.10565837E+00 0.0000E+00 0.9000E+01
       23  1    3    3    0    0 0.27348035E+02 -.21871713E+01 -.36645837E+03 0.37862869E+03 0.91188000E+02 0.0000E+00 0.9000E+01
#aMCatNLO 1  0  0  2  1 0.62178794D+01 0.00000000D+00  -5  7  0 0.00000000D+00 0.00000000D+00 0.00000000D+00 0.00000000D+00 0.00000000D+00
  <mgrwgt>
 0.3039636842D-03    8    2    0
 0.285358296387296D+03 0.000000000000000D+00 0.000000000000000D+00 0.285358296387296D+03
 0.285358296387296D+03 0.000000000000000D+00 0.000000000000000D+00 -.285358296387296D+03
 0.214779647538009D+03 0.158652371481374D+03 -.511144800151567D+02 0.100158776992671D+03
 0.123101131129356D+03 -.110157332469349D+03 0.267760655709984D+02 0.479822144247410D+02
 0.913958043135227D+02 -.758430752622161D+02 0.265255860474922D+02 -.435593189308860D+02
 0.141440009793704D+03 0.273480362501911D+02 -.218717160333394D+01 -.104581672486526D+03
 0.000000000000000D+00 -.000000000000000D+00 0.000000000000000D+00 0.000000000000000D+00
 0.307331309099045D+03 0.000000000000000D+00 0.000000000000000D+00 0.307331309099045D+03
 0.285815451697881D+03 0.000000000000000D+00 0.000000000000000D+00 -.285815451697881D+03
 0.216008991462678D+03 0.159614465896105D+03 -.532548093298332D+02 0.100158776992671D+03
 0.122350310083573D+03 -.109609157704976D+03 0.255565651770783D+02 0.479822144247410D+02
 0.907988655440897D+02 -.754361739226858D+02 0.256203704555057D+02 -.435593189308860D+02
 0.141592296153129D+03 0.279801415939431D+02 -.359338868190817D+01 -.104581672486526D+03
 0.223962975534572D+02 -.254927586238647D+01 0.567126237915738D+01 0.215158574011635D+02
0.132550901582D-04 0.000000000000D+00 0.000000000000D+00 0.105210435086D-06 0.000000000000D+00  7 1 -1 23 -13 13 23 21 0 0.14495844D-01 0.13295687D+00 0.57344593D+05 0.57344593D+05 0.57344593D+05 0.11420963D+01  1  2  2  2  7  2       -1 0.342420913645D-03 0.100000000000D+01
-.708870788702D-06 0.000000000000D+00 -.509030363528D-07 0.105210435086D-06 0.000000000000D+00  7 1 -1 23 -13 13 23 21 2 0.14495844D-01 0.13295687D+00 0.57344593D+05 0.57344593D+05 0.57344593D+05 0.11420963D+01  1  2  3  2  7  2       -1 -.238863698387D-04 0.100000000000D+01
0.859110405364D-06 0.000000000000D+00 0.000000000000D+00 0.105210435086D-06 0.000000000000D+00  7 1 -1 23 -13 13 23 21 2 0.14495844D-01 0.13295687D+00 0.57344593D+05 0.57344593D+05 0.57344593D+05 0.11420963D+01  1  2 15  2  7  2       -1 0.289488990122D-04 0.100000000000D+01
-.159716430436D-05 0.000000000000D+00 0.000000000000D+00 0.105210435086D-06 0.000000000000D+00  7 1 -1 23 -13 13 23 21 2 0.14495844D-01 0.13295687D+00 0.57344593D+05 0.57344593D+05 0.57344593D+05 0.11420963D+01  1  2  4  2  7  2       -1 -.538186336284D-04 0.100000000000D+01
0.785770113218D-06 0.000000000000D+00 0.000000000000D+00 0.105210435086D-06 0.000000000000D+00  7 1 -1 23 -13 13 23 21 2 0.14495844D-01 0.14200885D+00 0.57344593D+05 0.57344593D+05 0.57344593D+05 0.11420963D+01  1  2  5  2  7  2       -1 0.222642157336D-04 0.100000000000D+01
-.784068797514D-06 0.000000000000D+00 0.000000000000D+00 0.105210435086D-06 0.000000000000D+00  7 1 -1 23 -13 13 23 21 2 0.14495844D-01 0.13295687D+00 0.57344593D+05 0.57344593D+05 0.57344593D+05 0.11420963D+01  1  2  6  2  7  2       -1 -.264202694975D-04 0.100000000000D+01
0.286234425784D-06 0.000000000000D+00 0.000000000000D+00 0.105210435086D-06 0.189470216059D-07  7 1 -1 23 -13 13 23 21 2 0.15612046D-01 0.13316987D+00 0.58872161D+05 0.58872161D+05 0.58872161D+05 0.11411073D+01  1  2 11  2  7  2       -1 0.869810530935D-05 0.100000000000D+01
0.282270953699D-07 0.000000000000D+00 0.000000000000D+00 0.105210435086D-06 0.589612846776D-11  7 1 21 23 -13 13 23 1 2 0.15612046D-01 0.13316987D+00 0.58872161D+05 0.58872161D+05 0.58872161D+05 0.11411073D+01  1  2 11  4  7  2       -1 0.575682344207D-05 0.100000000000D+01
  </mgrwgt>
  </event>
  <event>
  8     66 0.56006291E-06 0.17872357E+03 0.75467711E-02 0.10319962E+00
        3 -1    0    0  501    0 0.00000000E+00 0.00000000E+00 0.10969992E+03 0.10970106E+03 0.50000000E+00 0.0000E+00 0.9000E+01
       -3 -1    0    0    0  501 0.00000000E+00 0.00000000E+00 -.12197734E+04 0.12197735E+04 0.50000000E+00 0.0000E+00 0.9000E+01
       25  2    1    2    0    0 -.61382456E+02 0.12401326E+03 -.11036526E+04 0.11521090E+04 0.30026488E+03 0.0000E+00 0.0000E+00
       23  2    1    2    0    0 0.61382456E+02 -.12401326E+03 -.64208285E+01 0.17736552E+03 0.11077095E+03 0.0000E+00 0.0000E+00
       23  1    3    3    0    0 0.78859060E+02 0.34963021E+02 -.27860123E+03 0.30557333E+03 0.91188000E+02 0.0000E+00 0.9000E+01
      -13  1    4    4    0    0 0.77030269E+02 -.11409264E+03 -.36155562E+02 0.14233070E+03 0.10565837E+00 0.0000E+00 0.9000E+01
       13  1    4    4    0    0 -.15647813E+02 -.99206251E+01 0.29734734E+02 0.35034817E+02 0.10565837E+00 0.0000E+00 0.9000E+01
       23  1    3    3    0    0 -.14024152E+03 0.89050240E+02 -.82505139E+03 0.84653569E+03 0.91188000E+02 0.0000E+00 0.9000E+01
#aMCatNLO 1  0  0  1  2 0.29967647D+02 0.00000000D+00  -5  7  0 0.00000000D+00 0.00000000D+00 0.00000000D+00 0.00000000D+00 0.00000000D+00
  <mgrwgt>
 0.1619651197D-04    9    2    0
 0.365800316208572D+03 0.000000000000000D+00 0.000000000000000D+00 0.365800316208572D+03
 0.365800316208572D+03 0.000000000000000D+00 0.000000000000000D+00 -.365800316208572D+03
 0.132564320373653D+03 0.788590537455466D+02 0.349630330565981D+02 -.426249182282943D+02
 0.203785719526485D+03 0.770302315895583D+02 -.114092634510786D+03 0.150259221529244D+03
 0.108782765621188D+03 -.156477569997042D+02 -.992066355766610D+01 0.107193368412641D+03
 0.286467826895818D+03 -.140241528335401D+03 0.890502650118538D+02 -.214827671713591D+03
 0.000000000000000D+00 0.000000000000000D+00 -.000000000000000D+00 0.000000000000000D+00
 0.412855482873774D+03 0.000000000000000D+00 0.000000000000000D+00 0.412855482873774D+03
 0.370909691610551D+03 0.000000000000000D+00 0.000000000000000D+00 -.370909691610551D+03
 0.133692817795537D+03 0.781779997595819D+02 0.403712135776567D+02 -.426249182282943D+02
 0.198925563877058D+03 0.760001441836738D+02 -.105912815056970D+03 0.150259221529244D+03
 0.108550889103234D+03 -.162036705532416D+02 -.550621049874299D+01 0.107193368412641D+03
 0.291044868132601D+03 -.141718736892507D+03 0.100780628108944D+03 -.214827671713591D+03
 0.515510355758939D+02 0.374426350249320D+01 -.297328161308874D+02 0.419457912632223D+02
0.145473034797D-04 0.000000000000D+00 0.000000000000D+00 0.403482131809D-08 0.000000000000D+00  7 3 -3 23 -13 13 23 21 0 0.16877007D-01 0.18765754D+00 0.55512301D+05 0.55512301D+05 0.55512301D+05 0.11433216D+01  1  2  2  1  7  1        3 0.207747498511D-04 0.100000000000D+01
-.618025563797D-06 0.000000000000D+00 -.558654757551D-07 0.403482131809D-08 0.000000000000D+00  7 3 -3 23 -13 13 23 21 2 0.16877007D-01 0.18765754D+00 0.55512301D+05 0.55512301D+05 0.55512301D+05 0.11433216D+01  1  2  3  1  7  1        3 -.115370981775D-05 0.100000000000D+01
0.906641116697D-06 0.000000000000D+00 0.000000000000D+00 0.403482131809D-08 0.000000000000D+00  7 3 -3 23 -13 13 23 21 2 0.16877007D-01 0.18765754D+00 0.55512301D+05 0.55512301D+05 0.55512301D+05 0.11433216D+01  1  2 15  1  7  1        3 0.169248784966D-05 0.100000000000D+01
0.835900690400D-04 0.000000000000D+00 0.000000000000D+00 0.403482131809D-08 0.000000000000D+00  7 3 -3 23 -13 13 23 21 2 0.19156272D-01 0.18765754D+00 0.62628482D+05 0.62628482D+05 0.62628482D+05 0.11387909D+01  1  2 12  1  7  1        3 0.124139947727D-03 0.100000000000D+01
-.850690235114D-04 0.000000000000D+00 0.000000000000D+00 0.403482131809D-08 0.000000000000D+00  7 3 -3 23 -13 13 23 21 2 0.16877007D-01 0.18765754D+00 0.55512301D+05 0.55512301D+05 0.55512301D+05 0.11433216D+01  1  2  4  1  7  1        3 -.158804058215D-03 0.100000000000D+01
-.120233301263D-03 0.000000000000D+00 -.164175314404D-04 0.403482131809D-08 0.000000000000D+00  7 3 -3 23 -13 13 23 21 2 0.19278540D-01 0.18765754D+00 0.55512301D+05 0.55512301D+05 0.55512301D+05 0.11433216D+01  1  2  5  1  7  1        3 -.178410311279D-03 0.100000000000D+01
0.121485011663D-03 0.000000000000D+00 0.162733022173D-04 0.403482131809D-08 0.000000000000D+00  7 3 -3 23 -13 13 23 21 2 0.16877007D-01 0.18765754D+00 0.55512301D+05 0.55512301D+05 0.55512301D+05 0.11433216D+01  1  2  6  1  7  1        3 0.226784228477D-03 0.100000000000D+01
0.165958126548D-05 0.000000000000D+00 0.000000000000D+00 0.403482131809D-08 0.000000000000D+00  7 21 -3 23 -13 13 23 -3 2 0.19156272D-01 0.18765754D+00 0.62628482D+05 0.62628482D+05 0.62628482D+05 0.11387909D+01  1  2 12  3  7  1        3 0.421261968645D-04 0.100000000000D+01
-.239448184850D-05 0.000000000000D+00 -.339483376932D-06 0.403482131809D-08 0.000000000000D+00  7 21 -3 23 -13 13 23 -3 2 0.19278540D-01 0.18765754D+00 0.55512301D+05 0.55512301D+05 0.55512301D+05 0.11433216D+01  1  2  5  3  7  1        3 -.609530194872D-04 0.100000000000D+01
  </mgrwgt>
  </event>
  <event>
  8     66 0.56006291E-06 0.21960166E+03 0.75467711E-02 0.10167074E+00
        1 -1    0    0  501    0 0.00000000E+00 0.00000000E+00 0.37703673E+03 0.37703686E+03 0.32000000E+00 0.0000E+00 0.9000E+01
       -1 -1    0    0    0  501 0.00000000E+00 0.00000000E+00 -.19982706E+03 0.19982732E+03 0.32000000E+00 0.0000E+00 0.9000E+01
       25  2    1    2    0    0 -.13633631E+03 -.89407478E+01 0.23326568E+03 0.40382406E+03 0.29998911E+03 0.0000E+00 0.0000E+00
       23  2    1    2    0    0 0.13633631E+03 0.89407478E+01 -.56056014E+02 0.17304012E+03 0.90183585E+02 0.0000E+00 0.0000E+00
       23  1    3    3    0    0 -.12307722E+03 0.99910804E+02 0.16235892E+03 0.24455233E+03 0.91188000E+02 0.0000E+00 0.9000E+01
      -11  1    4    4    0    0 0.56930393E+02 0.30750279E+02 -.63118394E+02 0.90391266E+02 0.51099893E-03 0.0000E+00 0.9000E+01
       11  1    4    4    0    0 0.79405919E+02 -.21809531E+02 0.70623800E+01 0.82648853E+02 0.51099893E-03 0.0000E+00 0.9000E+01
       23  1    3    3    0    0 -.13259088E+02 -.10885155E+03 0.70906759E+02 0.15927173E+03 0.91188000E+02 0.0000E+00 0.9000E+01
#aMCatNLO 1  0  0  2  1 0.88010298D+02 0.00000000D+00  -5  7  0 0.00000000D+00 0.00000000D+00 0.00000000D+00 0.00000000D+00 0.00000000D+00
  <mgrwgt>
 0.1079085547D-03    9    2    0
 0.274485434757972D+03 0.000000000000000D+00 0.000000000000000D+00 0.274485434757972D+03
 0.274485434757972D+03 0.000000000000000D+00 0.000000000000000D+00 -.274485434757972D+03
 0.204568067367589D+03 -.123077224797752D+03 0.999108036705095D+02 0.916660836324270D+02
 0.115358895617090D+03 0.569303930831379D+02 0.307502789809980D+02 -.955040600392718D+02
 0.845684959943786D+02 0.794059193699336D+02 -.218095311945816D+02 -.192581108325667D+02
 0.144475410536886D+03 -.132590876553198D+02 -.108851551456926D+03 0.230960872394115D+02
 0.000000000000000D+00 0.000000000000000D+00 0.000000000000000D+00 -.000000000000000D+00
 0.296732749486907D+03 0.000000000000000D+00 0.000000000000000D+00 0.296732749486907D+03
 0.381310580298769D+03 0.000000000000000D+00 0.000000000000000D+00 -.381310580298769D+03
 0.198965227402187D+03 -.134180760507192D+03 0.697478529591311D+02 0.916660836324270D+02
 0.109052660194549D+03 0.507555327782724D+02 0.139761619880692D+02 -.955040600392718D+02
 0.845318777082391D+02 0.747529897053371D+02 -.344492967439836D+02 -.192581108325667D+02
 0.163431194951221D+03 -.217313798639717D+02 -.131866682761876D+03 0.230960872394115D+02
 0.122062369529480D+03 0.304036178875539D+02 0.825919645586595D+02 -.845778308118621D+02
0.124061493095D-05 0.000000000000D+00 0.000000000000D+00 0.302151296993D-06 0.000000000000D+00  7 1 -1 23 -11 11 23 21 0 0.58005681D-01 0.30742655D-01 0.55825675D+05 0.55825675D+05 0.55825675D+05 0.11431089D+01  1  2  2  2  7  2       -1 0.924491311545D-04 0.100000000000D+01
-.670399655731D-07 0.000000000000D+00 -.476428799624D-08 0.302151296993D-06 0.000000000000D+00  7 1 -1 23 -11 11 23 21 2 0.58005681D-01 0.30742655D-01 0.55825675D+05 0.55825675D+05 0.55825675D+05 0.11431089D+01  1  2  3  2  7  2       -1 -.652792052758D-05 0.100000000000D+01
0.788878251241D-07 0.000000000000D+00 0.000000000000D+00 0.302151296993D-06 0.000000000000D+00  7 1 -1 23 -11 11 23 21 2 0.58005681D-01 0.30742655D-01 0.55825675D+05 0.55825675D+05 0.55825675D+05 0.11431089D+01  1  2 15  2  7  2       -1 0.768158886422D-05 0.100000000000D+01
0.119851318534D-05 0.000000000000D+00 0.000000000000D+00 0.302151296993D-06 0.000000000000D+00  7 1 -1 23 -11 11 23 21 2 0.58005681D-01 0.43579560D-01 0.78777385D+05 0.78777385D+05 0.78777385D+05 0.11303239D+01  1  2 12  2  7  2       -1 0.628519771427D-04 0.100000000000D+01
-.139904229475D-05 0.000000000000D+00 0.000000000000D+00 0.302151296993D-06 0.000000000000D+00  7 1 -1 23 -11 11 23 21 2 0.58005681D-01 0.30742655D-01 0.55825675D+05 0.55825675D+05 0.55825675D+05 0.11431089D+01  1  2  4  2  7  2       -1 -.136229737542D-03 0.100000000000D+01
-.176669388599D-05 0.000000000000D+00 -.514612985727D-06 0.302151296993D-06 0.000000000000D+00  7 1 -1 23 -11 11 23 21 2 0.58005681D-01 0.45554669D-01 0.55825675D+05 0.55825675D+05 0.55825675D+05 0.11431089D+01  1  2  5  2  7  2       -1 -.880215961483D-04 0.100000000000D+01
0.186070519200D-05 0.000000000000D+00 0.477231776386D-06 0.302151296993D-06 0.000000000000D+00  7 1 -1 23 -11 11 23 21 2 0.58005681D-01 0.30742655D-01 0.55825675D+05 0.55825675D+05 0.55825675D+05 0.11431089D+01  1  2  6  2  7  2       -1 0.181183500242D-03 0.100000000000D+01
0.516607294602D-07 0.000000000000D+00 0.000000000000D+00 0.302151296993D-06 0.000000000000D+00  7 1 21 23 -11 11 23 1 2 0.58005681D-01 0.43579560D-01 0.78777385D+05 0.78777385D+05 0.78777385D+05 0.11303239D+01  1  2 12  4  7  2       -1 0.265079217642D-04 0.100000000000D+01
-.658911549740D-07 0.000000000000D+00 -.241924327285D-07 0.302151296993D-06 0.000000000000D+00  7 1 21 23 -11 11 23 1 2 0.58005681D-01 0.45554669D-01 0.55825675D+05 0.55825675D+05 0.55825675D+05 0.11431089D+01  1  2  5  4  7  2       -1 -.319863102958D-04 0.100000000000D+01
  </mgrwgt>
  </event>
  <event>
  8     66 0.56006291E-06 0.26634191E+03 0.75467711E-02 0.86836157E-01
        1 -1    0    0  501    0 0.00000000E+00 0.00000000E+00 0.77601171E+03 0.77601178E+03 0.32000000E+00 0.0000E+00 0.9000E+01
       -1 -1    0    0    0  501 0.00000000E+00 0.00000000E+00 -.12670534E+03 0.12670574E+03 0.32000000E+00 0.0000E+00 0.9000E+01
       25  2    1    2    0    0 -.22920108E+03 -.22275727E+02 0.41465653E+03 0.56154720E+03 0.30060917E+03 0.0000E+00 0.0000E+00
       23  2    1    2    0    0 0.22920108E+03 0.22275727E+02 0.23464984E+03 0.34117033E+03 0.91144407E+02 0.0000E+00 0.0000E+00
       23  1    3    3    0    0 -.16275582E+03 -.22469040E+01 0.71570941E+02 0.19983032E+03 0.91188000E+02 0.0000E+00 0.9000E+01
      -13  1    4    4    0    0 0.39412357E+02 -.51879491E+01 0.21789265E+01 0.39812154E+02 0.10565837E+00 0.0000E+00 0.9000E+01
       13  1    4    4    0    0 0.18978872E+03 0.27463676E+02 0.23247092E+03 0.30135817E+03 0.10565837E+00 0.0000E+00 0.9000E+01
       23  1    3    3    0    0 -.66445259E+02 -.20028823E+02 0.34308559E+03 0.36171688E+03 0.91188000E+02 0.0000E+00 0.9000E+01
#aMCatNLO 1  0  0  2  1 0.10033223D+04 0.00000000D+00  -5  7  0 0.00000000D+00 0.00000000D+00 0.00000000D+00 0.00000000D+00 0.00000000D+00
  <mgrwgt>
 0.2130869518D-03    5    2    0
 0.313568237318882D+03 0.000000000000000D+00 0.000000000000000D+00 0.313568237318882D+03
 0.313568237318882D+03 0.000000000000000D+00 0.000000000000000D+00 -.313568237318882D+03
 0.213540218198842D+03 -.162755816241646D+03 -.224690404275124D+01 -.103873332218366D+03
 0.550505715726757D+02 0.394121551529525D+02 -.518799278098778D+01 -.380832271161768D+02
 0.193094450623732D+03 0.189788920628930D+03 0.274637201345697D+02 0.226136362524197D+02
 0.165451234242514D+03 -.664452595402362D+02 -.200288233108307D+02 0.119342923082123D+03
 0.000000000000000D+00 -.000000000000000D+00 -.000000000000000D+00 -.000000000000000D+00
 0.959900992223840D+03 0.000000000000000D+00 0.000000000000000D+00 0.959900992223840D+03
 0.127490656275600D+04 0.000000000000000D+00 0.000000000000000D+00 -.127490656275600D+04
 0.207139496554088D+03 0.103539296531855D+02 0.153930655437021D+03 -.103873332218366D+03
 0.145118472262342D+03 0.121781737281823D+03 0.691248672244280D+02 -.380832271161768D+02
 0.619180353462005D+03 0.524040086066370D+03 0.329021157016276D+03 0.226136362524197D+02
 0.211758961166731D+03 0.887767746730966D+02 0.120010654857266D+03 0.119342923082123D+03
 0.105161027153467D+04 -.744952527674475D+03 -.672087334534992D+03 -.315005570532161D+03
0.358377844407D-05 0.000000000000D+00 0.000000000000D+00 0.349997406899D-06 0.000000000000D+00  7 1 -1 23 -13 13 23 21 0 0.11938645D+00 0.19493165D-01 0.70938012D+05 0.70938012D+05 0.70938012D+05 0.11341685D+01  1  2  2  2  7  2       -1 0.202568994860D-03 0.100000000000D+01
-.192648459152D-06 0.000000000000D+00 -.137626528558D-07 0.349997406899D-06 0.000000000000D+00  7 1 -1 23 -13 13 23 21 2 0.11938645D+00 0.19493165D-01 0.70938012D+05 0.70938012D+05 0.70938012D+05 0.11341685D+01  1  2  3  2  7  2       -1 -.140072386586D-04 0.100000000000D+01
0.224712788454D-06 0.000000000000D+00 0.000000000000D+00 0.349997406899D-06 0.000000000000D+00  7 1 -1 23 -13 13 23 21 2 0.11938645D+00 0.19493165D-01 0.70938012D+05 0.70938012D+05 0.70938012D+05 0.11341685D+01  1  2 15  2  7  2       -1 0.163385976269D-04 0.100000000000D+01
0.812055722606D-05 0.000000000000D+00 -.282097225418D-05 0.349997406899D-06 0.000000000000D+00  7 1 -1 23 -13 13 23 21 2 0.11938645D+00 0.21924311D+00 0.70938012D+05 0.70938012D+05 0.70938012D+05 0.11341685D+01  1  2  5  2  7  2       -1 0.322706174793D-05 0.100000000000D+01
0.180170000695D-05 0.000000000000D+00 -.801325420261D-06 0.349997406899D-06 0.000000000000D+00  7 1 21 23 -13 13 23 1 2 0.11938645D+00 0.21924311D+00 0.70938012D+05 0.70938012D+05 0.70938012D+05 0.11341685D+01  1  2  5  4  7  2       -1 0.495953623480D-05 0.100000000000D+01
  </mgrwgt>
  </event>
  <event>
  8     66 0.56006291E-06 0.32730454E+03 0.75467711E-02 0.98152468E-01
        1 -1    0    0  501    0 0.00000000E+00 0.00000000E+00 0.15721672E+03 0.15721705E+03 0.32000000E+00 0.0000E+00 0.9000E+01
       -1 -1    0    0    0  501 0.00000000E+00 0.00000000E+00 -.10149379E+04 0.10149379E+04 0.32000000E+00 0.0000E+00 0.9000E+01
       25  2    1    2    0    0 -.24905079E+03 -.83123498E+02 -.18625896E+03 0.44517151E+03 0.30748897E+03 0.0000E+00 0.0000E+00
       23  2    1    2    0    0 0.24905079E+03 0.83123498E+02 -.67146222E+03 0.72698348E+03 0.93314823E+02 0.0000E+00 0.0000E+00
       23  1    3    3    0    0 -.17585429E+03 0.50100493E+02 -.25578473E+02 0.20592305E+03 0.91188000E+02 0.0000E+00 0.9000E+01
      -11  1    4    4    0    0 0.35417217E+02 -.14331766E+02 -.52129732E+02 0.64631940E+02 0.51099893E-03 0.0000E+00 0.9000E+01
       11  1    4    4    0    0 0.21363357E+03 0.97455264E+02 -.61933249E+03 0.66235154E+03 0.51099893E-03 0.0000E+00 0.9000E+01
       23  1    3    3    0    0 -.73196498E+02 -.13322399E+03 -.16068048E+03 0.23924847E+03 0.91188000E+02 0.0000E+00 0.9000E+01
#aMCatNLO 1  0  0  1  1 0.86002850D+02 0.00000000D+00  -5  7  0 0.00000000D+00 0.00000000D+00 0.00000000D+00 0.00000000D+00 0.00000000D+00
  <mgrwgt>
 0.7384250298D-04    4    2    0
 0.399456415159920D+03 0.000000000000000D+00 0.000000000000000D+00 0.399456415159920D+03
 0.399456415159920D+03 0.000000000000000D+00 0.000000000000000D+00 -.399456415159920D+03
 0.274666422818009D+03 -.175854292184186D+03 0.501004931628165D+02 0.183552719905978D+03
 0.388601552304307D+02 0.354172168698745D+02 -.143317659216925D+02 -.709456829491799D+01
 0.306872120957342D+03 0.213633573292996D+03 0.974552636262589D+02 -.197569396857055D+03
 0.178514131314057D+03 -.731964979786839D+02 -.133223990867383D+03 0.211112452459944D+02
 0.000000000000000D+00 0.000000000000000D+00 0.000000000000000D+00 -.000000000000000D+00
 0.427114613330047D+03 0.000000000000000D+00 0.000000000000000D+00 0.427114613330047D+03
 0.474707076548376D+03 0.000000000000000D+00 0.000000000000000D+00 -.474707076548376D+03
 0.273921145759668D+03 -.180509708217186D+03 0.210282430258203D+02 0.183552719905978D+03
 0.400052255186174D+02 0.347479505958690D+02 -.185112154892981D+02 -.709456829491799D+01
 0.294649679320572D+03 0.208528947534755D+03 0.655777781668710D+02 -.197569396857055D+03
 0.194952542966587D+03 -.763658055657021D+02 -.153015756474958D+03 0.211112452459944D+02
 0.982930963129788D+02 0.135986156522643D+02 0.849209507715651D+02 -.475924632183284D+02
0.138694964616D-04 0.000000000000D+00 0.000000000000D+00 0.178998296187D-08 0.000000000000D+00  7 1 -1 23 -11 11 23 21 0 0.24187217D-01 0.15614432D+00 0.10712826D+06 0.10712826D+06 0.10712826D+06 0.11192763D+01  1  2  2  1  7  1        1 0.116373428219D-03 0.100000000000D+01
-.733347723460D-06 0.000000000000D+00 -.532625183348D-07 0.178998296187D-08 0.000000000000D+00  7 1 -1 23 -11 11 23 21 2 0.24187217D-01 0.15614432D+00 0.10712826D+06 0.10712826D+06 0.10712826D+06 0.11192763D+01  1  2  3  1  7  1        1 -.770863884306D-05 0.100000000000D+01
0.881506758681D-06 0.000000000000D+00 0.000000000000D+00 0.178998296187D-08 0.000000000000D+00  7 1 -1 23 -11 11 23 21 2 0.24187217D-01 0.15614432D+00 0.10712826D+06 0.10712826D+06 0.10712826D+06 0.11192763D+01  1  2 15  1  7  1        1 0.926602350155D-05 0.100000000000D+01
-.419426339124D-05 0.000000000000D+00 0.000000000000D+00 0.178998296187D-08 0.000000000000D+00  7 1 -1 23 -11 11 23 21 2 0.24187217D-01 0.15614432D+00 0.10712826D+06 0.10712826D+06 0.10712826D+06 0.11192763D+01  1  2  4  1  7  1        1 -.440883098991D-04 0.100000000000D+01
  </mgrwgt>
  </event>
  <event>
  8     66 0.56006291E-06 0.50096693E+03 0.75467711E-02 0.79988403E-01
        1 -1    0    0  501    0 0.00000000E+00 0.00000000E+00 0.15672543E+04 0.15672543E+04 0.32000000E+00 0.0000E+00 0.9000E+01
       -1 -1    0    0    0  501 0.00000000E+00 0.00000000E+00 -.31347498E+03 0.31347515E+03 0.32000000E+00 0.0000E+00 0.9000E+01
       25  2    1    2    0    0 -.38683123E+03 -.25790690E+03 0.12921037E+04 0.14054599E+04 0.29938430E+03 0.0000E+00 0.0000E+00
       23  2    1    2    0    0 0.38683123E+03 0.25790690E+03 -.38324470E+02 0.47526958E+03 0.90873727E+02 0.0000E+00 0.0000E+00
       23  1    3    3    0    0 -.33506566E+03 -.24121534E+03 0.11677861E+04 0.12419716E+04 0.91188000E+02 0.0000E+00 0.9000E+01
      -13  1    4    4    0    0 0.98783067E+02 0.11434262E+03 0.41391263E+00 0.15110431E+03 0.10565837E+00 0.0000E+00 0.9000E+01
       13  1    4    4    0    0 0.28804816E+03 0.14356428E+03 -.38738383E+02 0.32416527E+03 0.10565837E+00 0.0000E+00 0.9000E+01
       23  1    3    3    0    0 -.51765568E+02 -.16691559E+02 0.12431766E+03 0.16348827E+03 0.91188000E+02 0.0000E+00 0.9000E+01
#aMCatNLO 1  0  0  2  1 0.22023591D+04 0.00000000D+00  -5  7  0 0.00000000D+00 0.00000000D+00 0.00000000D+00 0.00000000D+00 0.00000000D+00
  <mgrwgt>
 0.1735029029D-03    3    2    0
 0.700924521872954D+03 0.000000000000000D+00 0.000000000000000D+00 0.700924521872954D+03
 0.700924521872954D+03 0.000000000000000D+00 0.000000000000000D+00 -.700924521872954D+03
 0.621797718746489D+03 -.335065664378361D+03 -.241215339884277D+03 0.455920291337793D+03
 0.202351931574089D+03 0.987828112782197D+02 0.114342583884174D+03 -.134588387011758D+03
 0.469549164835442D+03 0.288048420709595D+03 0.143564315463827D+03 -.341897371808810D+03
 0.108150228589889D+03 -.517655676094545D+02 -.166915594637247D+02 0.205654674827756D+02
 0.000000000000000D+00 -.000000000000000D+00 0.000000000000000D+00 0.000000000000000D+00
 0.261996797089198D+04 0.000000000000000D+00 0.000000000000000D+00 0.261996797089198D+04
 0.222771378647326D+04 0.000000000000000D+00 0.000000000000000D+00 -.222771378647326D+04
 0.120802005279291D+04 0.187082362507868D+03 -.109915152467288D+04 0.455920291337793D+03
 0.304071911661710D+03 0.243293491317825D+03 -.123101464757993D+03 -.134588387011758D+03
 0.917043861673106D+03 0.683719959234739D+03 -.506559620110602D+03 -.341897371808810D+03
 0.181528103955225D+03 0.308956526075050D+02 -.152511381144983D+03 0.205654674827756D+02
 0.223701782728230D+04 -.114499146566794D+04 0.188132399068646D+04 0.392254184418719D+03
0.542185360986D-04 0.000000000000D+00 0.000000000000D+00 0.120211893264D-05 0.000000000000D+00  7 1 -1 23 -13 13 23 21 0 0.24111606D+00 0.48226935D-01 0.25096787D+06 0.25096787D+06 0.25096787D+06 0.10903329D+01  1  2  2  2  7  2       -1 0.170585413688D-03 0.100000000000D+01
-.259902333895D-05 0.000000000000D+00 -.208213454687D-06 0.120211893264D-05 0.000000000000D+00  7 1 -1 23 -13 13 23 21 2 0.24111606D+00 0.48226935D-01 0.25096787D+06 0.25096787D+06 0.25096787D+06 0.10903329D+01  1  2  3  2  7  2       -1 -.972125886145D-05 0.100000000000D+01
0.337902751111D-05 0.000000000000D+00 0.000000000000D+00 0.120211893264D-05 0.000000000000D+00  7 1 -1 23 -13 13 23 21 2 0.24111606D+00 0.48226935D-01 0.25096787D+06 0.25096787D+06 0.25096787D+06 0.10903329D+01  1  2 15  2  7  2       -1 0.126387480417D-04 0.100000000000D+01
  </mgrwgt>
  </event>
  <event>
  8     66 0.56006291E-06 0.10001056E+03 0.75467711E-02 0.10491444E+00
        1 -1    0    0  501    0 0.00000000E+00 0.00000000E+00 0.35887738E+03 0.35887752E+03 0.32000000E+00 0.0000E+00 0.9000E+01
       -1 -1    0    0    0  501 0.00000000E+00 0.00000000E+00 -.13206703E+03 0.13206741E+03 0.32000000E+00 0.0000E+00 0.9000E+01
       25  2    1    2    0    0 -.46735358E+01 0.34153529E+01 0.69059155E+02 0.30773430E+03 0.29982949E+03 0.0000E+00 0.0000E+00
       23  2    1    2    0    0 0.46735358E+01 -.34153529E+01 0.15775120E+03 0.18321064E+03 0.92990270E+02 0.0000E+00 0.0000E+00
       23  1    3    3    0    0 0.10412115E+03 -.44593773E+02 0.71323762E+01 0.14558826E+03 0.91188000E+02 0.0000E+00 0.9000E+01
      -13  1    4    4    0    0 -.12307251E+02 0.41192143E+02 0.54133918E+02 0.69128528E+02 0.10565837E+00 0.0000E+00 0.9000E+01
       13  1    4    4    0    0 0.16980787E+02 -.44607496E+02 0.10361728E+03 0.11408211E+03 0.10565837E+00 0.0000E+00 0.9000E+01
       23  1    3    3    0    0 -.10879469E+03 0.48009126E+02 0.61926779E+02 0.16214604E+03 0.91188000E+02 0.0000E+00 0.9000E+01
#aMCatNLO 1  0  0  2  1 0.49992026D+02 0.00000000D+00  -5  7  0 0.00000000D+00 0.00000000D+00 0.00000000D+00 0.00000000D+00 0.00000000D+00
  <mgrwgt>
 0.1338986711D-03    9    2    0
 0.217706220493773D+03 0.000000000000000D+00 0.000000000000000D+00 0.217706220493773D+03
 0.217706220493773D+03 0.000000000000000D+00 0.000000000000000D+00 -.217706220493773D+03
 0.160441263320103D+03 0.104121145600980D+03 -.445937687193059D+02 -.677962422402537D+02
 0.497462870347770D+02 -.123072842128521D+02 0.411922420627140D+02 0.250284442764085D+02
 0.746569823295175D+02 0.169808219083590D+02 -.446075963380657D+02 0.574062631322286D+02
 0.150567908303148D+03 -.108794683296487D+03 0.480091229946576D+02 -.146384651683834D+02
 0.000000000000000D+00 -.000000000000000D+00 0.000000000000000D+00 -.000000000000000D+00
 0.232323110622513D+03 0.000000000000000D+00 0.000000000000000D+00 0.232323110622513D+03
 0.266517877672292D+03 0.000000000000000D+00 0.000000000000000D+00 -.266517877672292D+03
 0.174454414933371D+03 0.121040794716091D+03 -.535899906544394D+02 -.677962422402537D+02
 0.466050952138893D+02 -.743940539188548D+01 0.386039780905231D+02 0.250284442764085D+02
 0.792733463296586D+02 0.247577127976934D+02 -.487425896780451D+02 0.574062631322286D+02
 0.137940113804416D+03 -.942186382235502D+02 0.402590014926967D+02 -.146384651683834D+02
 0.605680180134697D+02 -.441404638983487D+02 0.234696007492646D+02 -.341947670497795D+02
0.667424958450D-06 0.000000000000D+00 0.000000000000D+00 0.617071067701D-07 0.000000000000D+00  7 1 -1 23 -13 13 23 21 0 0.55211945D-01 0.20318045D-01 0.37247056D+05 0.37247056D+05 0.37247056D+05 0.11587163D+01  1  2  2  2  7  2       -1 0.103729125070D-03 0.100000000000D+01
-.364247407100D-07 0.000000000000D+00 -.256308757747D-08 0.617071067701D-07 0.000000000000D+00  7 1 -1 23 -13 13 23 21 2 0.55211945D-01 0.20318045D-01 0.37247056D+05 0.37247056D+05 0.37247056D+05 0.11587163D+01  1  2  3  2  7  2       -1 -.760061896178D-05 0.100000000000D+01
0.430840425351D-07 0.000000000000D+00 0.000000000000D+00 0.617071067701D-07 0.000000000000D+00  7 1 -1 23 -13 13 23 21 2 0.55211945D-01 0.20318045D-01 0.37247056D+05 0.37247056D+05 0.37247056D+05 0.11587163D+01  1  2 15  2  7  2       -1 0.899019139900D-05 0.100000000000D+01
0.816511805824D-06 0.000000000000D+00 0.000000000000D+00 0.617071067701D-07 0.000000000000D+00  7 1 -1 23 -13 13 23 21 2 0.55211945D-01 0.25442827D-01 0.48814334D+05 0.48814334D+05 0.48814334D+05 0.11482133D+01  1  2 12  2  7  2       -1 0.116791801980D-03 0.100000000000D+01
-.846857220577D-06 0.000000000000D+00 0.000000000000D+00 0.617071067701D-07 0.000000000000D+00  7 1 -1 23 -13 13 23 21 2 0.55211945D-01 0.20318045D-01 0.37247056D+05 0.37247056D+05 0.37247056D+05 0.11587163D+01  1  2  4  2  7  2       -1 -.176710634672D-03 0.100000000000D+01
-.143242588547D-05 0.000000000000D+00 -.379349398536D-06 0.617071067701D-07 0.000000000000D+00  7 1 -1 23 -13 13 23 21 2 0.55211945D-01 0.26389481D-01 0.37247056D+05 0.37247056D+05 0.37247056D+05 0.11587163D+01  1  2  5  2  7  2       -1 -.196492569439D-03 0.100000000000D+01
0.149289774429D-05 0.000000000000D+00 0.366742695576D-06 0.617071067701D-07 0.000000000000D+00  7 1 -1 23 -13 13 23 21 2 0.55211945D-01 0.20318045D-01 0.37247056D+05 0.37247056D+05 0.37247056D+05 0.11587163D+01  1  2  6  2  7  2       -1 0.311517575200D-03 0.100000000000D+01
0.255436001082D-07 0.000000000000D+00 0.000000000000D+00 0.617071067701D-07 0.000000000000D+00  7 1 21 23 -13 13 23 1 2 0.55211945D-01 0.25442827D-01 0.48814334D+05 0.48814334D+05 0.48814334D+05 0.11482133D+01  1  2 12  4  7  2       -1 0.424126007923D-04 0.100000000000D+01
-.432628796185D-07 0.000000000000D+00 -.132684201813D-07 0.617071067701D-07 0.000000000000D+00  7 1 21 23 -13 13 23 1 2 0.55211945D-01 0.26389481D-01 0.37247056D+05 0.37247056D+05 0.37247056D+05 0.11587163D+01  1  2  5  4  7  2       -1 -.687388002207D-04 0.100000000000D+01
  </mgrwgt>
  </event>
  <event>
  8     66 0.56006291E-06 0.36807463E+03 0.75467711E-02 0.94768896E-01
        1 -1    0    0  501    0 0.00000000E+00 0.00000000E+00 0.58247638E+03 0.58247647E+03 0.32000000E+00 0.0000E+00 0.9000E+01
       -1 -1    0    0    0  501 0.00000000E+00 0.00000000E+00 -.30159619E+03 0.30159636E+03 0.32000000E+00 0.0000E+00 0.9000E+01
       25  2    1    2    0    0 -.24349792E+03 0.17743705E+03 0.35791965E+03 0.55990515E+03 0.30759090E+03 0.0000E+00 0.0000E+00
       23  2    1    2    0    0 0.24349792E+03 -.17743705E+03 -.77039465E+02 0.32416767E+03 0.91512061E+02 0.0000E+00 0.0000E+00
       23  1    3    3    0    0 -.22272715E+02 0.15970964E+03 0.11277026E+03 0.21687698E+03 0.91188000E+02 0.0000E+00 0.9000E+01
      -13  1    4    4    0    0 0.57083933E+02 -.86270066E+02 -.18807710E+01 0.10346327E+03 0.10565837E+00 0.0000E+00 0.9000E+01
       13  1    4    4    0    0 0.18641399E+03 -.91166987E+02 -.75158694E+02 0.22070441E+03 0.10565837E+00 0.0000E+00 0.9000E+01
       23  1    3    3    0    0 -.22122521E+03 0.17727414E+02 0.24514939E+03 0.34302817E+03 0.91188000E+02 0.0000E+00 0.9000E+01
#aMCatNLO 1  0  0  1  1 0.22147211D+03 0.00000000D+00  -5  7  0 0.00000000D+00 0.00000000D+00 0.00000000D+00 0.00000000D+00 0.00000000D+00
  <mgrwgt>
 0.1137619941D-03    3    2    0
 0.419133358409636D+03 0.000000000000000D+00 0.000000000000000D+00 0.419133358409636D+03
 0.419133358409636D+03 0.000000000000000D+00 0.000000000000000D+00 -.419133358409636D+03
 0.190941744935495D+03 -.222727410186676D+02 0.159709621677273D+03 0.462629480927179D+02
 0.109746902130004D+03 0.570837649294523D+02 -.862700616715801D+02 -.366510950422144D+02
 0.257948368740593D+03 0.186414168340024D+03 -.911669996715127D+02 -.153217808850422D+03
 0.279629701013181D+03 -.221225192250809D+03 0.177274396658201D+02 0.143605955799919D+03
 0.000000000000000D+00 -.000000000000000D+00 -.000000000000000D+00 -.000000000000000D+00
 0.453601761333896D+03 0.000000000000000D+00 0.000000000000000D+00 0.453601761333896D+03
 0.104399004372937D+04 0.000000000000000D+00 0.000000000000000D+00 -.104399004372937D+04
 0.214599923012631D+03 0.225808021925663D+02 0.187317171180695D+03 0.462629480927179D+02
 0.114409054260059D+03 0.818757645453419D+02 -.710104788675829D+02 -.366510950422144D+02
 0.296116666206578D+03 0.247694628403664D+03 -.534486119215865D+02 -.153217808850422D+03
 0.241904334365740D+03 -.163542711655523D+03 0.532312555185593D+02 0.143605955799919D+03
 0.630561827218255D+03 -.188608483486049D+03 -.116089335910084D+03 -.590388282395469D+03
0.560014701825D-05 0.000000000000D+00 0.000000000000D+00 0.447815312316D-08 0.000000000000D+00  7 1 -1 23 -13 13 23 21 0 0.89611770D-01 0.46399434D-01 0.13547894D+06 0.13547894D+06 0.13547894D+06 0.11110584D+01  1  2  2  1  7  1        1 0.112341177120D-03 0.100000000000D+01
-.304735915251D-06 0.000000000000D+00 -.215060391027D-07 0.447815312316D-08 0.000000000000D+00  7 1 -1 23 -13 13 23 21 2 0.89611770D-01 0.46399434D-01 0.13547894D+06 0.13547894D+06 0.13547894D+06 0.11110584D+01  1  2  3  1  7  1        1 -.754635074379D-05 0.100000000000D+01
0.362111192685D-06 0.000000000000D+00 0.000000000000D+00 0.447815312316D-08 0.000000000000D+00  7 1 -1 23 -13 13 23 21 2 0.89611770D-01 0.46399434D-01 0.13547894D+06 0.13547894D+06 0.13547894D+06 0.11110584D+01  1  2 15  1  7  1        1 0.896716773934D-05 0.100000000000D+01
  </mgrwgt>
  </event>
  <event>
  9     66 0.56006291E-06 0.17889006E+03 0.75467711E-02 0.10495732E+00
        1 -1    0    0  501    0 0.00000000E+00 0.00000000E+00 0.43506762E+03 0.43506774E+03 0.32000000E+00 0.0000E+00 0.9000E+01
       -1 -1    0    0    0  502 0.00000000E+00 0.00000000E+00 -.54487426E+03 0.54487436E+03 0.32000000E+00 0.0000E+00 0.9000E+01
       25  2    1    2    0    0 0.90932034E+02 -.42566766E+02 0.34669159E+03 0.46824223E+03 0.29828704E+03 0.0000E+00 0.0000E+00
       23  2    1    2    0    0 -.46046296E+02 0.98033654E+02 -.20065466E+03 0.24609150E+03 0.92562821E+02 0.0000E+00 0.0000E+00
       23  1    3    3    0    0 -.13688389E+02 0.35093868E+02 0.27803419E+03 0.29502070E+03 0.91188000E+02 0.0000E+00 0.9000E+01
      -11  1    4    4    0    0 -.38186558E+02 0.96064571E+02 -.20979215E+03 0.23387894E+03 0.51099893E-03 0.0000E+00 0.9000E+01
       11  1    4    4    0    0 -.78597376E+01 0.19690833E+01 0.91374911E+01 0.12212555E+02 0.51099893E-03 0.0000E+00 0.9000E+01
       23  1    3    3    0    0 0.10462042E+03 -.77660634E+02 0.68657408E+02 0.17322153E+03 0.91188000E+02 0.0000E+00 0.9000E+01
       21  1    1    2  501  502 -.44885738E+02 -.55466888E+02 -.25584358E+03 0.26560837E+03 0.75000000E+00 0.0000E+00 0.9000E+01
#aMCatNLO 2  0  0  2  1 0.71353382D+02 0.00000000D+00  -5  7  0 0.00000000D+00 0.00000000D+00 0.00000000D+00 0.00000000D+00 0.00000000D+00
  <mgrwgt>
 0.7561111794D-04    2    2    0
 0.347798280840384D+03 0.000000000000000D+00 0.000000000000000D+00 0.347798280840384D+03
 0.347798280840384D+03 0.000000000000000D+00 0.000000000000000D+00 -.347798280840384D+03
 0.242680666731094D+03 -.293277470462500D+02 0.157677625865493D+02 0.222418334624764D+03
 0.279027612959510D+03 -.562641135616021D+02 0.737254988746840D+02 -.263164034652701D+03
 0.109733148462538D+02 -.855292252269954D+01 0.111249025282797D+01 0.678406371381309D+01
 0.162914967143911D+03 0.941447831305516D+02 -.906057517140613D+02 0.339616363141236D+02
 0.000000000000000D+00 -.000000000000000D+00 -.000000000000000D+00 -.000000000000000D+00
 0.353590952617625D+03 0.000000000000000D+00 0.000000000000000D+00 0.353590952617625D+03
 0.670426308141689D+03 0.000000000000000D+00 0.000000000000000D+00 -.670426308141689D+03
 0.243318964518710D+03 -.136883891982006D+02 0.350938680450330D+02 0.222418334624764D+03
 0.282740029222750D+03 -.381865583154183D+02 0.960645707543450D+02 -.263164034652701D+03
 0.105677000366834D+02 -.785973755196599D+01 0.196908334167423D+01 0.678406371381309D+01
 0.162619959243682D+03 0.104620423189622D+03 -.776606342422485D+02 0.339616363141236D+02
 0.324770607737489D+03 -.448857381240372D+02 -.554668878988038D+02 -.316835355524063D+03
-.245600743409D-04 0.000000000000D+00 0.000000000000D+00 0.839009771236D-07 0.000000000000D+00  7 1 -1 23 -11 11 23 21 2 0.65836884D-01 0.83864576D-01 0.48516299D+05 0.48516299D+05 0.48516299D+05 0.11484479D+01  1  2 13  2  7  2       -1 -.334313534008D-03 0.100000000000D+01
0.307586363122D-04 0.000000000000D+00 0.000000000000D+00 0.839009771236D-07 0.140454402607D-09  7 1 -1 23 -11 11 23 21 2 0.66933415D-01 0.83826724D-01 0.48516299D+05 0.48516299D+05 0.48516299D+05 0.11484479D+01  1  2  1  2  7  2       -1 0.409924651952D-03 0.100000000000D+01
  </mgrwgt>
  </event>
  <event>
  8     66 0.56006291E-06 0.41091014E+03 0.75467711E-02 0.91560959E-01
        1 -1    0    0  501    0 0.00000000E+00 0.00000000E+00 0.10110316E+04 0.10110317E+04 0.32000000E+00 0.0000E+00 0.9000E+01
       -1 -1    0    0    0  501 0.00000000E+00 0.00000000E+00 -.54209554E+03 0.54209564E+03 0.32000000E+00 0.0000E+00 0.9000E+01
       25  2    1    2    0    0 -.46998363E+03 -.37203699E+03 0.63521969E+03 0.92359238E+03 0.30037092E+03 0.0000E+00 0.0000E+00
       23  2    1    2    0    0 0.46998363E+03 0.37203699E+03 -.16628359E+03 0.62953496E+03 0.96787933E+02 0.0000E+00 0.0000E+00
       23  1    3    3    0    0 -.83537391E+02 -.16219931E+03 0.10721736E+03 0.23042987E+03 0.91188000E+02 0.0000E+00 0.9000E+01
      -11  1    4    4    0    0 0.21533663E+03 0.19197752E+03 -.12696323E+03 0.31519025E+03 0.51099893E-03 0.0000E+00 0.9000E+01
       11  1    4    4    0    0 0.25464700E+03 0.18005947E+03 -.39320355E+02 0.31434471E+03 0.51099893E-03 0.0000E+00 0.9000E+01
       23  1    3    3    0    0 -.38644624E+03 -.20983768E+03 0.52800233E+03 0.69316251E+03 0.91188000E+02 0.0000E+00 0.9000E+01
#aMCatNLO 1  0  0  1  2 0.66312600D+02 0.00000000D+00  -5  7  0 0.00000000D+00 0.00000000D+00 0.00000000D+00 0.00000000D+00 0.00000000D+00
  <mgrwgt>
 0.1788753173D-03    9    2    0
 0.740321458273046D+03 0.000000000000000D+00 0.000000000000000D+00 0.740321458273046D+03
 0.740321458273046D+03 0.000000000000000D+00 0.000000000000000D+00 -.740321458273046D+03
 0.207753560038128D+03 -.835373909548499D+02 -.162199306769386D+03 0.394864478081147D+02
 0.370830959440525D+03 0.215336628055123D+03 0.191977517492416D+03 -.233002939627120D+03
 0.342186554521551D+03 0.254647001326901D+03 0.180059467810638D+03 -.140801743108164D+03
 0.559871842545889D+03 -.386446238427173D+03 -.209837678533668D+03 0.334318234927169D+03
 0.000000000000000D+00 0.000000000000000D+00 -.000000000000000D+00 0.000000000000000D+00
 0.847528116291729D+03 0.000000000000000D+00 0.000000000000000D+00 0.847528116291729D+03
 0.751389441353854D+03 0.000000000000000D+00 0.000000000000000D+00 -.751389441353854D+03
 0.203536154816244D+03 -.881340393626117D+02 -.154223625033613D+03 0.394864478081147D+02
 0.373836330565820D+03 0.207014091436058D+03 0.206418017922227D+03 -.233002939627120D+03
 0.343821633697100D+03 0.246980049462560D+03 0.193362457843597D+03 -.140801743108164D+03
 0.560933003417920D+03 -.398972556554130D+03 -.188103162895501D+03 0.334318234927169D+03
 0.116790435148499D+03 0.331124550181235D+02 -.574536878367094D+02 0.961386749378750D+02
0.435148453738D-04 0.000000000000D+00 0.000000000000D+00 0.186967513157D-06 0.000000000000D+00  7 1 -1 23 -11 11 23 21 0 0.15554334D+00 0.83399325D-01 0.39276971D+06 0.39276971D+06 0.39276971D+06 0.10759992D+01  1  2  2  1  7  1        1 0.114796178663D-03 0.100000000000D+01
-.233591379307D-05 0.000000000000D+00 -.167108463957D-06 0.186967513157D-06 0.000000000000D+00  7 1 -1 23 -11 11 23 21 2 0.15554334D+00 0.83399325D-01 0.39276971D+06 0.39276971D+06 0.39276971D+06 0.10759992D+01  1  2  3  1  7  1        1 -.713461720536D-05 0.100000000000D+01
0.276711089529D-05 0.000000000000D+00 0.000000000000D+00 0.186967513157D-06 0.000000000000D+00  7 1 -1 23 -11 11 23 21 2 0.15554334D+00 0.83399325D-01 0.39276971D+06 0.39276971D+06 0.39276971D+06 0.10759992D+01  1  2 15  1  7  1        1 0.845162910600D-05 0.100000000000D+01
0.210369507770D-03 0.000000000000D+00 0.000000000000D+00 0.186967513157D-06 0.000000000000D+00  7 1 -1 23 -11 11 23 21 2 0.17912268D+00 0.83399325D-01 0.43719239D+06 0.43719239D+06 0.43719239D+06 0.10726551D+01  1  2 12  1  7  1        1 0.488750337951D-03 0.100000000000D+01
-.213581206975D-03 0.000000000000D+00 0.000000000000D+00 0.186967513157D-06 0.000000000000D+00  7 1 -1 23 -11 11 23 21 2 0.15554334D+00 0.83399325D-01 0.39276971D+06 0.39276971D+06 0.39276971D+06 0.10759992D+01  1  2  4  1  7  1        1 -.652344345303D-03 0.100000000000D+01
-.315384030249D-03 0.000000000000D+00 -.397402379725D-04 0.186967513157D-06 0.000000000000D+00  7 1 -1 23 -11 11 23 21 2 0.17927754D+00 0.83399325D-01 0.39276971D+06 0.39276971D+06 0.39276971D+06 0.10759992D+01  1  2  5  1  7  1        1 -.740179843687D-03 0.100000000000D+01
0.318210869288D-03 0.000000000000D+00 0.393428563965D-04 0.186967513157D-06 0.000000000000D+00  7 1 -1 23 -11 11 23 21 2 0.15554334D+00 0.83399325D-01 0.39276971D+06 0.39276971D+06 0.39276971D+06 0.10759992D+01  1  2  6  1  7  1        1 0.971916322293D-03 0.100000000000D+01
0.456690078559D-05 0.000000000000D+00 0.000000000000D+00 0.186967513157D-06 0.000000000000D+00  7 21 -1 23 -11 11 23 -1 2 0.17912268D+00 0.83399325D-01 0.43719239D+06 0.43719239D+06 0.43719239D+06 0.10726551D+01  1  2 12  3  7  1        1 0.114142867491D-04 0.100000000000D+01
-.663101079459D-05 0.000000000000D+00 -.867036367549D-06 0.186967513157D-06 0.000000000000D+00  7 21 -1 23 -11 11 23 -1 2 0.17927754D+00 0.83399325D-01 0.39276971D+06 0.39276971D+06 0.39276971D+06 0.10759992D+01  1  2  5  3  7  1        1 -.167946312386D-04 0.100000000000D+01
  </mgrwgt>
  </event>
  <event>
  8     66 0.56006291E-06 0.45450386E+03 0.75467711E-02 0.84000643E-01
        1 -1    0    0  501    0 0.00000000E+00 0.00000000E+00 0.26529247E+04 0.26529247E+04 0.32000000E+00 0.0000E+00 0.9000E+01
       -1 -1    0    0    0  501 0.00000000E+00 0.00000000E+00 -.36848995E+03 0.36849009E+03 0.32000000E+00 0.0000E+00 0.9000E+01
       25  2    1    2    0    0 -.39075235E+03 -.16341387E+03 -.15652998E+03 0.54241853E+03 0.30054074E+03 0.0000E+00 0.0000E+00
       23  2    1    2    0    0 0.39075235E+03 0.16341387E+03 0.24409647E+04 0.24789962E+04 0.87876257E+02 0.0000E+00 0.0000E+00
       23  1    3    3    0    0 -.59665929E+02 -.67119045E+02 0.41404806E+02 0.13451616E+03 0.91188000E+02 0.0000E+00 0.9000E+01
      -13  1    4    4    0    0 0.65742638E+02 0.17055181E+02 0.60085224E+03 0.60467876E+03 0.10565837E+00 0.0000E+00 0.9000E+01
       13  1    4    4    0    0 0.32500971E+03 0.14635869E+03 0.18401125E+04 0.18743175E+04 0.10565837E+00 0.0000E+00 0.9000E+01
       23  1    3    3    0    0 -.33108642E+03 -.96294822E+02 -.19793478E+03 0.40790237E+03 0.91188000E+02 0.0000E+00 0.9000E+01
#aMCatNLO 1  0  0  1  2 0.13537471D+04 0.00000000D+00  -5  7  0 0.00000000D+00 0.00000000D+00 0.00000000D+00 0.00000000D+00 0.00000000D+00
  <mgrwgt>
 0.3423523423D-03    5    2    0
 0.988724590104978D+03 0.000000000000000D+00 0.000000000000000D+00 0.988724590104978D+03
 0.988724590104978D+03 0.000000000000000D+00 0.000000000000000D+00 -.988724590104978D+03
 0.157699401470536D+03 -.596659291919371D+02 -.671190446841752D+02 -.921350129674484D+02
 0.229778931281180D+03 0.657422635789100D+02 0.170549936706594D+02 0.219511820253799D+03
 0.738059533853403D+03 0.325010088354646D+03 0.146358872584538D+03 0.646281206902530D+03
 0.851911313604837D+03 -.331086422741619D+03 -.962948215710223D+02 -.773658014188881D+03
 0.000000000000000D+00 -.000000000000000D+00 -.000000000000000D+00 0.000000000000000D+00
 0.187544317628353D+04 0.000000000000000D+00 0.000000000000000D+00 0.187544317628353D+04
 0.187474654495780D+04 0.000000000000000D+00 0.000000000000000D+00 -.187474654495780D+04
 0.129788030175838D+03 0.401291603677871D+01 -.497165196831784D+01 -.921350129674484D+02
 0.318830178635063D+03 0.187259904894068D+03 0.135650180967056D+03 0.219511820253799D+03
 0.112365974650557D+04 0.737383364064037D+03 0.548814724586691D+03 0.646281206902530D+03
 0.824164499116530D+03 0.401665800719535D+02 0.266029684784691D+03 -.773658014188881D+03
 0.135374726680833D+04 -.968822765066837D+03 -.945522938370120D+03 0.696631325727011D+00
0.735838247976D-03 0.000000000000D+00 0.000000000000D+00 0.843497620058D-06 0.000000000000D+00  7 1 -1 23 -13 13 23 21 0 0.40814227D+00 0.56690774D-01 0.20657376D+06 0.20657376D+06 0.20657376D+06 0.10967483D+01  1  2  2  1  7  1        1 0.323803273385D-03 0.100000000000D+01
-.108559785911D-04 0.000000000000D+00 -.282581262289D-05 0.843497620058D-06 0.000000000000D+00  7 1 -1 23 -13 13 23 21 2 0.40814227D+00 0.56690774D-01 0.20657376D+06 0.20657376D+06 0.20657376D+06 0.10967483D+01  1  2  3  1  7  1        1 -.574621403667D-05 0.100000000000D+01
0.457466993468D-04 0.000000000000D+00 0.000000000000D+00 0.843497620058D-06 0.000000000000D+00  7 1 -1 23 -13 13 23 21 2 0.40814227D+00 0.56690774D-01 0.20657376D+06 0.20657376D+06 0.20657376D+06 0.10967483D+01  1  2 15  1  7  1        1 0.242143371703D-04 0.100000000000D+01
0.128835909123D-03 0.000000000000D+00 -.152871115755D-03 0.843497620058D-06 0.000000000000D+00  7 1 -1 23 -13 13 23 21 2 0.83765038D+00 0.56690774D-01 0.20657376D+06 0.20657376D+06 0.20657376D+06 0.10967483D+01  1  2  5  1  7  1        1 0.806373718524D-07 0.100000000000D+01
0.193609130714D-04 0.000000000000D+00 -.118851426601D-04 0.843497620058D-06 0.000000000000D+00  7 21 -1 23 -13 13 23 -1 2 0.83765038D+00 0.56690774D-01 0.20657376D+06 0.20657376D+06 0.20657376D+06 0.10967483D+01  1  2  5  3  7  1        1 0.308447047413D-09 0.100000000000D+01
  </mgrwgt>
  </event>
  <event>
  8     66 0.56006291E-06 0.16933324E+03 0.75467711E-02 0.97108292E-01
        1 -1    0    0  501    0 0.00000000E+00 0.00000000E+00 0.74742157E+03 0.74742164E+03 0.32000000E+00 0.0000E+00 0.9000E+01
       -1 -1    0    0    0  501 0.00000000E+00 0.00000000E+00 -.17015999E+03 0.17016029E+03 0.32000000E+00 0.0000E+00 0.9000E+01
       25  2    1    2    0    0 0.22874722E+03 -.74106249E+02 0.53512634E+03 0.65835458E+03 0.29875329E+03 0.0000E+00 0.0000E+00
       23  2    1    2    0    0 -.22874722E+03 0.74106249E+02 0.42135243E+02 0.25922735E+03 0.87214741E+02 0.0000E+00 0.0000E+00
       23  1    3    3    0    0 0.11553571E+03 0.42088007E+02 0.40022481E+03 0.42850327E+03 0.91188000E+02 0.0000E+00 0.9000E+01
      -13  1    4    4    0    0 -.37056845E+02 0.45149539E+02 -.80757302E+01 0.58965407E+02 0.10565837E+00 0.0000E+00 0.9000E+01
       13  1    4    4    0    0 -.19169038E+03 0.28956710E+02 0.50210973E+02 0.20026194E+03 0.10565837E+00 0.0000E+00 0.9000E+01
       23  1    3    3    0    0 0.11321151E+03 -.11619426E+03 0.13490153E+03 0.22985131E+03 0.91188000E+02 0.0000E+00 0.9000E+01
#aMCatNLO 1  0  0  1  2 0.18129153D+03 0.00000000D+00  -5  7  0 0.00000000D+00 0.00000000D+00 0.00000000D+00 0.00000000D+00 0.00000000D+00
  <mgrwgt>
 0.1653239313D-03    9    2    0
 0.356625033169106D+03 0.000000000000000D+00 0.000000000000000D+00 0.356625033169106D+03
 0.356625033169106D+03 0.000000000000000D+00 0.000000000000000D+00 -.356625033169106D+03
 0.227343053452291D+03 0.115535710712578D+03 0.420880070268777D+02 0.168076505864611D+03
 0.823936266930245D+02 -.370566190540007D+02 0.451495622665398D+02 -.581122511270731D+02
 0.216995438228362D+03 -.191690602310300D+03 0.289566868556809D+02 -.974845807508816D+02
 0.186517947964534D+03 0.113211510651723D+03 -.116194256149098D+03 -.124796739866559D+02
 0.000000000000000D+00 0.000000000000000D+00 -.000000000000000D+00 0.000000000000000D+00
 0.564079943162448D+03 0.000000000000000D+00 0.000000000000000D+00 0.564079943162448D+03
 0.409861854897175D+03 0.000000000000000D+00 0.000000000000000D+00 -.409861854897175D+03
 0.238849343614348D+03 0.103260985095958D+03 0.991020420292186D+02 0.168076505864611D+03
 0.982148394646452D+02 -.418119934017448D+02 0.672374759176939D+02 -.581122511270731D+02
 0.241345383558871D+03 -.203758597974181D+03 0.850104960143137D+02 -.974845807508816D+02
 0.157519965931145D+03 0.104153081081967D+03 -.741193750733850D+02 -.124796739866559D+02
 0.238012265490612D+03 0.381565251980013D+02 -.177230638887841D+03 0.154218088265273D+03
0.475759409454D-05 0.000000000000D+00 0.000000000000D+00 0.802267351077D-08 0.000000000000D+00  7 1 -1 23 -13 13 23 21 0 0.11498796D+00 0.26178488D-01 0.87456331D+05 0.87456331D+05 0.87456331D+05 0.11265303D+01  1  2  2  1  7  1        1 0.176446898695D-03 0.100000000000D+01
-.253044468056D-06 0.000000000000D+00 -.182704140263D-07 0.802267351077D-08 0.000000000000D+00  7 1 -1 23 -13 13 23 21 2 0.11498796D+00 0.26178488D-01 0.87456331D+05 0.87456331D+05 0.87456331D+05 0.11265303D+01  1  2  3  1  7  1        1 -.119099304088D-04 0.100000000000D+01
0.304745164870D-06 0.000000000000D+00 0.000000000000D+00 0.802267351077D-08 0.000000000000D+00  7 1 -1 23 -13 13 23 21 2 0.11498796D+00 0.26178488D-01 0.87456331D+05 0.87456331D+05 0.87456331D+05 0.11265303D+01  1  2 15  1  7  1        1 0.143433039018D-04 0.100000000000D+01
0.135377695150D-05 0.000000000000D+00 0.000000000000D+00 0.802267351077D-08 0.000000000000D+00  7 1 -1 23 -13 13 23 21 2 0.18637792D+00 0.26178488D-01 0.16320749D+06 0.16320749D+06 0.16320749D+06 0.11046713D+01  1  2 12  1  7  1        1 0.264326184778D-04 0.100000000000D+01
-.353393370405D-05 0.000000000000D+00 0.000000000000D+00 0.802267351077D-08 0.000000000000D+00  7 1 -1 23 -13 13 23 21 2 0.11498796D+00 0.26178488D-01 0.87456331D+05 0.87456331D+05 0.87456331D+05 0.11265303D+01  1  2  4  1  7  1        1 -.166330071579D-03 0.100000000000D+01
-.367884690500D-05 0.000000000000D+00 -.165037677333D-05 0.802267351077D-08 0.000000000000D+00  7 1 -1 23 -13 13 23 21 2 0.19648421D+00 0.26178488D-01 0.87456331D+05 0.87456331D+05 0.87456331D+05 0.11265303D+01  1  2  5  1  7  1        1 -.684866693104D-04 0.100000000000D+01
0.416269240721D-05 0.000000000000D+00 0.143888592132D-05 0.802267351077D-08 0.000000000000D+00  7 1 -1 23 -13 13 23 21 2 0.11498796D+00 0.26178488D-01 0.87456331D+05 0.87456331D+05 0.87456331D+05 0.11265303D+01  1  2  6  1  7  1        1 0.195923575266D-03 0.100000000000D+01
0.742757965775D-07 0.000000000000D+00 0.000000000000D+00 0.802267351077D-08 0.000000000000D+00  7 21 -1 23 -13 13 23 -1 2 0.18637792D+00 0.26178488D-01 0.16320749D+06 0.16320749D+06 0.16320749D+06 0.11046713D+01  1  2 12  3  7  1        1 0.154139433814D-05 0.100000000000D+01
-.139085597062D-06 0.000000000000D+00 -.983833112790D-07 0.802267351077D-08 0.000000000000D+00  7 21 -1 23 -13 13 23 -1 2 0.19648421D+00 0.26178488D-01 0.87456331D+05 0.87456331D+05 0.87456331D+05 0.11265303D+01  1  2  5  3  7  1        1 -.263718812441D-05 0.100000000000D+01
  </mgrwgt>
  </event>
  <event>
  8     66 0.56006291E-06 0.27013048E+03 0.75467711E-02 0.86702804E-01
        3 -1    0    0  501    0 0.00000000E+00 0.00000000E+00 0.36144958E+03 0.36144992E+03 0.50000000E+00 0.0000E+00 0.9000E+01
       -3 -1    0    0    0  501 0.00000000E+00 0.00000000E+00 -.99288900E+03 0.99288912E+03 0.50000000E+00 0.0000E+00 0.9000E+01
       25  2    1    2    0    0 0.95189529E+02 0.15608726E+03 -.92851256E+03 0.99262315E+03 0.29956780E+03 0.0000E+00 0.0000E+00
       23  2    1    2    0    0 -.95189529E+02 -.15608726E+03 0.29707315E+03 0.36171589E+03 0.95716531E+02 0.0000E+00 0.0000E+00
       23  1    3    3    0    0 0.11116288E+03 -.26529983E+02 -.38626908E+03 0.41301341E+03 0.91188000E+02 0.0000E+00 0.9000E+01
      -11  1    4    4    0    0 -.92269082E+02 -.11192893E+03 0.15228297E+03 0.21031351E+03 0.51099893E-03 0.0000E+00 0.9000E+01
       11  1    4    4    0    0 -.29204477E+01 -.44158325E+02 0.14479017E+03 0.15140238E+03 0.51099893E-03 0.0000E+00 0.9000E+01
       23  1    3    3    0    0 -.15973349E+02 0.18261724E+03 -.54224348E+03 0.57960974E+03 0.91188000E+02 0.0000E+00 0.9000E+01
#aMCatNLO 1  0  0  2  2 0.10276772D+04 0.00000000D+00  -5  7  0 0.00000000D+00 0.00000000D+00 0.00000000D+00 0.00000000D+00 0.00000000D+00
  <mgrwgt>
 0.2682839631D-04    5    2    0
 0.599065629572110D+03 0.000000000000000D+00 0.000000000000000D+00 0.599065629572110D+03
 0.599065629572110D+03 0.000000000000000D+00 0.000000000000000D+00 -.599065629572110D+03
 0.263288905917524D+03 0.111162878017480D+03 -.265299826286528D+02 -.218962944828209D+03
 0.317989595352029D+03 -.922690815956595D+02 -.111928932913078D+03 0.282976524310022D+03
 0.247448996416378D+03 -.292044772123614D+01 -.441583249098759D+02 0.243459481544125D+03
 0.369403761458287D+03 -.159733487005843D+02 0.182617240451607D+03 -.307473061025938D+03
 0.000000000000000D+00 -.000000000000000D+00 0.000000000000000D+00 -.000000000000000D+00
 0.956190746853465D+03 0.000000000000000D+00 0.000000000000000D+00 0.956190746853465D+03
 0.237079097837879D+04 0.000000000000000D+00 0.000000000000000D+00 -.237079097837879D+04
 0.385185989669818D+03 0.151123134729032D+03 -.263191987407950D+03 -.218962944828209D+03
 0.500427850114839D+03 -.418366416652784D+02 -.410611757350116D+03 0.282976524310022D+03
 0.362935053070628D+03 0.346925785903619D+02 -.266919011283192D+03 0.243459481544125D+03
 0.329943711940008D+03 0.271217730346367D+02 -.726107972380720D+02 -.307473061025938D+03
 0.174848912043697D+04 -.171100844688752D+03 0.101333355327933D+04 -.141460023152533D+04
0.769223117689D-04 0.000000000000D+00 0.000000000000D+00 0.150758039694D-06 0.000000000000D+00  7 3 -3 23 -11 11 23 21 0 0.55607664D-01 0.15275219D+00 0.72970475D+05 0.72970475D+05 0.72970475D+05 0.11331285D+01  1  2  2  2  7  2       -3 0.252597356687D-04 0.100000000000D+01
-.977395965807D-06 0.000000000000D+00 -.295401931302D-06 0.150758039694D-06 0.000000000000D+00  7 3 -3 23 -11 11 23 21 2 0.55607664D-01 0.15275219D+00 0.72970475D+05 0.72970475D+05 0.72970475D+05 0.11331285D+01  1  2  3  2  7  2       -3 -.412102552438D-06 0.100000000000D+01
0.467905747506D-05 0.000000000000D+00 0.000000000000D+00 0.150758039694D-06 0.000000000000D+00  7 3 -3 23 -11 11 23 21 2 0.55607664D-01 0.15275219D+00 0.72970475D+05 0.72970475D+05 0.72970475D+05 0.11331285D+01  1  2 15  2  7  2       -3 0.197284580245D-05 0.100000000000D+01
0.340092365292D-04 0.000000000000D+00 -.248653891083D-04 0.150758039694D-06 0.000000000000D+00  7 3 -3 23 -11 11 23 21 2 0.55607664D-01 0.65818333D+00 0.72970475D+05 0.72970475D+05 0.72970475D+05 0.11331285D+01  1  2  5  2  7  2       -3 0.722788059348D-09 0.100000000000D+01
0.595571438597D-05 0.000000000000D+00 -.437267732809D-05 0.150758039694D-06 0.000000000000D+00  7 3 21 23 -11 11 23 3 2 0.55607664D-01 0.65818333D+00 0.72970475D+05 0.72970475D+05 0.72970475D+05 0.11331285D+01  1  2  5  4  7  2       -3 0.719460732732D-08 0.100000000000D+01
  </mgrwgt>
  </event>
  <event>
  8     66 0.56006291E-06 0.30865491E+03 0.75467711E-02 0.96688277E-01
        1 -1    0    0  501    0 0.00000000E+00 0.00000000E+00 0.19113622E+04 0.19113622E+04 0.32000000E+00 0.0000E+00 0.9000E+01
       -1 -1    0    0    0  501 0.00000000E+00 0.00000000E+00 -.86524377E+02 0.86524969E+02 0.32000000E+00 0.0000E+00 0.9000E+01
       25  2    1    2    0    0 0.29193972E+03 -.17032142E+03 0.86671838E+03 0.97760463E+03 0.30045276E+03 0.0000E+00 0.0000E+00
       23  2    1    2    0    0 -.29193972E+03 0.17032142E+03 0.95811942E+03 0.10202826E+04 0.93517232E+02 0.0000E+00 0.0000E+00
       23  1    3    3    0    0 0.25651562E+03 -.20715415E+02 0.54488244E+03 0.60946002E+03 0.91188000E+02 0.0000E+00 0.9000E+01
      -11  1    4    4    0    0 -.27440787E+03 0.15683898E+03 0.79265217E+03 0.85334378E+03 0.51099893E-03 0.0000E+00 0.9000E+01
       11  1    4    4    0    0 -.17531850E+02 0.13482441E+02 0.16546726E+03 0.16693878E+03 0.51099893E-03 0.0000E+00 0.9000E+01
       23  1    3    3    0    0 0.35424099E+02 -.14960601E+03 0.32183594E+03 0.36814461E+03 0.91188000E+02 0.0000E+00 0.9000E+01
#aMCatNLO 1  0  0  2  1 0.46204046D+02 0.00000000D+00  -5  7  0 0.00000000D+00 0.00000000D+00 0.00000000D+00 0.00000000D+00 0.00000000D+00
  <mgrwgt>
 0.2386181048D-03    9    2    0
 0.406669448152927D+03 0.000000000000000D+00 0.000000000000000D+00 0.406669448152927D+03
 0.406669448152927D+03 0.000000000000000D+00 0.000000000000000D+00 -.406669448152927D+03
 0.274559945669953D+03 0.256515618657115D+03 -.207154148330280D+02 -.289572339069213D+02
 0.317730963078210D+03 -.274407868142872D+03 0.156838983611044D+03 0.324779928527863D+02
 0.388201462424046D+02 -.175318499844642D+02 0.134824413554675D+02 0.319039459236675D+02
 0.182227841315287D+03 0.354240994702213D+02 -.149606010133483D+03 -.354247048695325D+02
 0.000000000000000D+00 -.000000000000000D+00 -.000000000000000D+00 -.000000000000000D+00
 0.426884183113652D+03 0.000000000000000D+00 0.000000000000000D+00 0.426884183113652D+03
 0.434611851869595D+03 0.000000000000000D+00 0.000000000000000D+00 -.434611851869595D+03
 0.288264099729441D+03 0.271499496489499D+03 -.151803115657539D+02 -.289572339069213D+02
 0.306707871082307D+03 -.257783640231256D+03 0.162980038634238D+03 0.324779928527863D+02
 0.382138933210929D+02 -.154809983067692D+02 0.142400340126481D+02 0.319039459236675D+02
 0.181464351697099D+03 0.451065560625336D+02 -.146029272674805D+03 -.354247048695325D+02
 0.468458191533066D+02 -.433414140140071D+02 -.160104884063279D+02 -.772766875594274D+01
0.109948923442D-04 0.000000000000D+00 0.000000000000D+00 0.189318356023D-06 0.000000000000D+00  7 1 -1 23 -11 11 23 21 0 0.29405577D+00 0.13311490D-01 0.15601051D+06 0.15601051D+06 0.15601051D+06 0.11062079D+01  1  2  2  2  7  2       -1 0.177504845500D-03 0.100000000000D+01
-.610195791204D-06 0.000000000000D+00 -.422232816232D-07 0.189318356023D-06 0.000000000000D+00  7 1 -1 23 -11 11 23 21 2 0.29405577D+00 0.13311490D-01 0.15601051D+06 0.15601051D+06 0.15601051D+06 0.11062079D+01  1  2  3  2  7  2       -1 -.120548545295D-04 0.100000000000D+01
0.722954086025D-06 0.000000000000D+00 0.000000000000D+00 0.189318356023D-06 0.000000000000D+00  7 1 -1 23 -11 11 23 21 2 0.29405577D+00 0.13311490D-01 0.15601051D+06 0.15601051D+06 0.15601051D+06 0.11062079D+01  1  2 15  2  7  2       -1 0.142824753369D-04 0.100000000000D+01
0.178553237307D-04 0.000000000000D+00 0.000000000000D+00 0.189318356023D-06 0.000000000000D+00  7 1 -1 23 -11 11 23 21 2 0.29405577D+00 0.14537471D-01 0.17514257D+06 0.17514257D+06 0.17514257D+06 0.11022798D+01  1  2 12  2  7  2       -1 0.303790632224D-03 0.100000000000D+01
-.154145892026D-04 0.000000000000D+00 0.000000000000D+00 0.189318356023D-06 0.000000000000D+00  7 1 -1 23 -11 11 23 21 2 0.29405577D+00 0.13311490D-01 0.15601051D+06 0.15601051D+06 0.15601051D+06 0.11062079D+01  1  2  4  2  7  2       -1 -.304526240837D-03 0.100000000000D+01
-.570068272316D-04 0.000000000000D+00 -.122975063163D-04 0.189318356023D-06 0.000000000000D+00  7 1 -1 23 -11 11 23 21 2 0.29405577D+00 0.15035862D-01 0.15601051D+06 0.15601051D+06 0.15601051D+06 0.11062079D+01  1  2  5  2  7  2       -1 -.929866200503D-03 0.100000000000D+01
0.581634238394D-04 0.000000000000D+00 0.122068329556D-04 0.189318356023D-06 0.000000000000D+00  7 1 -1 23 -11 11 23 21 2 0.29405577D+00 0.13311490D-01 0.15601051D+06 0.15601051D+06 0.15601051D+06 0.11062079D+01  1  2  6  2  7  2       -1 0.114906006143D-02 0.100000000000D+01
0.259708683885D-06 0.000000000000D+00 0.000000000000D+00 0.189318356023D-06 0.000000000000D+00  7 1 21 23 -11 11 23 1 2 0.29405577D+00 0.14537471D-01 0.17514257D+06 0.17514257D+06 0.17514257D+06 0.11022798D+01  1  2 12  4  7  2       -1 0.568086833610D-04 0.100000000000D+01
-.103685932615D-05 0.000000000000D+00 -.236282969960D-06 0.189318356023D-06 0.000000000000D+00  7 1 21 23 -11 11 23 1 2 0.29405577D+00 0.15035862D-01 0.15601051D+06 0.15601051D+06 0.15601051D+06 0.11062079D+01  1  2  5  4  7  2       -1 -.216381297216D-03 0.100000000000D+01
  </mgrwgt>
  </event>
  <event>
  8     66 0.56006291E-06 0.17167506E+03 0.75467711E-02 0.10150119E+00
        1 -1    0    0  501    0 0.00000000E+00 0.00000000E+00 0.41986711E+03 0.41986724E+03 0.32000000E+00 0.0000E+00 0.9000E+01
       -1 -1    0    0    0  501 0.00000000E+00 0.00000000E+00 -.13837446E+03 0.13837483E+03 0.32000000E+00 0.0000E+00 0.9000E+01
       25  2    1    2    0    0 -.79599757E+02 -.44056498E+02 0.29032504E+03 0.42911483E+03 0.30261164E+03 0.0000E+00 0.0000E+00
       23  2    1    2    0    0 0.79599757E+02 0.44056498E+02 -.88323855E+01 0.12912723E+03 0.91207101E+02 0.0000E+00 0.0000E+00
       23  1    3    3    0    0 0.24720571E+02 0.16562975E+02 -.63342872E+01 0.96129149E+02 0.91188000E+02 0.0000E+00 0.9000E+01
      -13  1    4    4    0    0 0.82322354E+02 0.44252844E+02 0.23747874E+02 0.96432655E+02 0.10565837E+00 0.0000E+00 0.9000E+01
       13  1    4    4    0    0 -.27225972E+01 -.19634594E+00 -.32580259E+02 0.32694580E+02 0.10565837E+00 0.0000E+00 0.9000E+01
       23  1    3    3    0    0 -.10432033E+03 -.60619473E+02 0.29665933E+03 0.33298568E+03 0.91188000E+02 0.0000E+00 0.9000E+01
#aMCatNLO 1  0  0  2  1 0.16984526D+03 0.00000000D+00  -5  7  0 0.00000000D+00 0.00000000D+00 0.00000000D+00 0.00000000D+00 0.00000000D+00
  <mgrwgt>
 0.1864361031D-03    3    2    0
 0.241037384017247D+03 0.000000000000000D+00 0.000000000000000D+00 0.241037384017247D+03
 0.241037384017247D+03 0.000000000000000D+00 0.000000000000000D+00 -.241037384017247D+03
 0.115016074178839D+03 0.247204919050245D+02 0.165629292056597D+02 -.634666261243980D+02
 0.978022018337260D+02 0.823225204665934D+02 0.442529321012781D+02 -.288088755072435D+02
 0.568844990643719D+02 -.272267969692910D+01 -.196388121930919D+00 -.568189640945523D+02
 0.212371992957557D+03 -.104320332674689D+03 -.606194731850068D+02 0.149094465726194D+03
 0.000000000000000D+00 0.000000000000000D+00 0.000000000000000D+00 0.000000000000000D+00
 0.451040639920084D+03 0.000000000000000D+00 0.000000000000000D+00 0.451040639920084D+03
 0.292452832121879D+03 0.000000000000000D+00 0.000000000000000D+00 -.292452832121879D+03
 0.114297453057818D+03 0.158819512559042D+02 -.216427221992789D+02 -.634666261243980D+02
 0.819675570318562D+02 0.753935689112139D+02 0.143017084506989D+02 -.288088755072435D+02
 0.605954155066905D+02 -.725076407513462D+01 -.197695756144936D+02 -.568189640945523D+02
 0.254259416569100D+03 -.122305929647349D+03 -.138364371978403D+03 0.149094465726194D+03
 0.232373629876497D+03 0.382811735553656D+02 0.165474961341477D+03 0.158587807798204D+03
0.155834101375D-05 0.000000000000D+00 0.000000000000D+00 0.113114952863D-07 0.000000000000D+00  7 1 -1 23 -13 13 23 21 0 0.64594978D-01 0.21288416D-01 0.29472327D+05 0.29472327D+05 0.29472327D+05 0.11680516D+01  1  2  2  2  7  2       -1 0.182721755363D-03 0.100000000000D+01
-.744528040591D-07 0.000000000000D+00 -.598443981340D-08 0.113114952863D-07 0.000000000000D+00  7 1 -1 23 -13 13 23 21 2 0.64594978D-01 0.21288416D-01 0.29472327D+05 0.29472327D+05 0.29472327D+05 0.11680516D+01  1  2  3  2  7  2       -1 -.119105799063D-04 0.100000000000D+01
0.976711194679D-07 0.000000000000D+00 0.000000000000D+00 0.113114952863D-07 0.000000000000D+00  7 1 -1 23 -13 13 23 21 2 0.64594978D-01 0.21288416D-01 0.29472327D+05 0.29472327D+05 0.29472327D+05 0.11680516D+01  1  2 15  2  7  2       -1 0.156249275990D-04 0.100000000000D+01
  </mgrwgt>
  </event>
  <event>
  9     66 0.56006291E-06 0.29461732E+03 0.75467711E-02 0.99756252E-01
        1 -1    0    0  501    0 0.00000000E+00 0.00000000E+00 0.26180994E+03 0.26181014E+03 0.32000000E+00 0.0000E+00 0.9000E+01
       -1 -1    0    0    0  502 0.00000000E+00 0.00000000E+00 -.67032985E+03 0.67032993E+03 0.32000000E+00 0.0000E+00 0.9000E+01
       25  2    1    2    0    0 -.10130087E+03 0.19068182E+03 -.16784445E+03 0.40577177E+03 0.29976249E+03 0.0000E+00 0.0000E+00
       23  2    1    2    0    0 0.15972780E+03 -.20967327E+03 -.32101184E+03 0.42523038E+03 0.91084701E+02 0.0000E+00 0.0000E+00
       23  1    3    3    0    0 -.34872572E+02 0.18051834E+03 -.20149076E+03 0.28760519E+03 0.91188000E+02 0.0000E+00 0.9000E+01
      -13  1    4    4    0    0 0.11480900E+03 -.97702833E+02 -.12875155E+03 0.19825217E+03 0.10565837E+00 0.0000E+00 0.9000E+01
       13  1    4    4    0    0 0.44918804E+02 -.11197044E+03 -.19226029E+03 0.22697821E+03 0.10565837E+00 0.0000E+00 0.9000E+01
       23  1    3    3    0    0 -.66428300E+02 0.10163474E+02 0.33646312E+02 0.11816658E+03 0.91188000E+02 0.0000E+00 0.9000E+01
       21  1    1    2  501  502 -.58426931E+02 0.18991456E+02 0.80336377E+02 0.10113791E+03 0.75000000E+00 0.0000E+00 0.9000E+01
#aMCatNLO 2  0  0  2  1 0.61435996D+02 0.00000000D+00  -5  7  0 0.00000000D+00 0.00000000D+00 0.00000000D+00 0.00000000D+00 0.00000000D+00
  <mgrwgt>
 0.3702565479D-05    1    2    0
 0.334592933040598D+03 0.000000000000000D+00 0.000000000000000D+00 0.334592933040598D+03
 0.334592933040598D+03 0.000000000000000D+00 0.000000000000000D+00 -.334592933040598D+03
 0.218125214659410D+03 -.534831009669552D+02 0.186567624437186D+03 -.399429261451550D+02
 0.139338750324779D+03 0.102139166950303D+03 -.935845018961180D+02 -.149939628392455D+02
 0.134313619112709D+03 0.329328473699611D+02 -.108074497688163D+03 -.726324913018413D+02
 0.177408281984297D+03 -.815889133533086D+02 0.150913751470949D+02 0.127569380286242D+03
 0.000000000000000D+00 -.000000000000000D+00 0.000000000000000D+00 0.000000000000000D+00
 0.514213444522284D+03 0.000000000000000D+00 0.000000000000000D+00 0.514213444522284D+03
 0.341294788932984D+03 0.000000000000000D+00 0.000000000000000D+00 -.341294788932984D+03
 0.209078111330135D+03 -.348725725842028D+02 0.180518341521571D+03 -.399429261451550D+02
 0.151498470338106D+03 0.114809092535198D+03 -.977028140045400D+02 -.149939628392455D+02
 0.140820995451964D+03 0.449187104050228D+02 -.111970457813298D+03 -.726324913018413D+02
 0.170602500995876D+03 -.664282997528543D+02 0.101634741784980D+02 0.127569380286242D+03
 0.183508155339187D+03 -.584269306031639D+02 0.189914561177688D+02 0.172918655589300D+03
0.238302389377D-06 0.000000000000D+00 0.000000000000D+00 0.388984334208D-06 0.744707298479D-09  7 1 -1 23 -13 13 23 21 2 0.40278384D-01 0.10312746D+00 0.10606013D+06 0.10606013D+06 0.10606013D+06 0.11196312D+01  1  2  1  2  7  2       -1 0.370256547885D-05 0.100000000000D+01
  </mgrwgt>
  </event>
  <event>
  9     66 -.56006291E-06 0.19253341E+03 0.75467711E-02 0.10653599E+00
        1 -1    0    0  502    0 0.00000000E+00 0.00000000E+00 0.13230658E+03 0.13230697E+03 0.32000000E+00 0.0000E+00 0.9000E+01
       -1 -1    0    0    0  501 0.00000000E+00 0.00000000E+00 -.41032202E+03 0.41032214E+03 0.32000000E+00 0.0000E+00 0.9000E+01
       25  2    1    2    0    0 0.70981217E+02 0.40897777E+02 -.26224646E+03 0.40696447E+03 0.30022643E+03 0.0000E+00 0.0000E+00
       23  2    1    2    0    0 -.77622292E+02 -.34639215E+02 -.10817868E+02 0.12525554E+03 0.91360984E+02 0.0000E+00 0.0000E+00
       23  1    3    3    0    0 0.10625861E+03 0.72559293E+02 -.26009228E+03 0.30416934E+03 0.91188000E+02 0.0000E+00 0.9000E+01
      -11  1    4    4    0    0 -.49976810E+02 -.66032954E+02 -.10016334E+02 0.83416782E+02 0.51099893E-03 0.0000E+00 0.9000E+01
       11  1    4    4    0    0 -.27645481E+02 0.31393739E+02 -.80153408E+00 0.41838761E+02 0.51099893E-03 0.0000E+00 0.9000E+01
       23  1    3    3    0    0 -.35277395E+02 -.31661516E+02 -.21541845E+01 0.10279513E+03 0.91188000E+02 0.0000E+00 0.9000E+01
       21  1    1    2  502  501 0.66410753E+01 -.62585621E+01 -.49511009E+01 0.10409101E+02 0.75000000E+00 0.0000E+00 0.9000E+01
#aMCatNLO 2  0  0  1  2 0.91254304D+01 0.00000000D+00  -5  7  0 0.00000000D+00 0.00000000D+00 0.00000000D+00 0.00000000D+00 0.00000000D+00
  <mgrwgt>
 -.3381468108D-04    3    2    0
 0.228369622734596D+03 0.000000000000000D+00 0.000000000000000D+00 0.228369622734596D+03
 0.228369622734596D+03 0.000000000000000D+00 0.000000000000000D+00 -.228369622734596D+03
 0.199489406497662D+03 0.109154643677171D+03 0.698300667118947D+02 -.121201474856999D+03
 0.913920782587236D+02 -.486495121830809D+02 -.672838024262397D+02 0.381919738147122D+02
 0.474416868862909D+02 -.269497599937419D+02 0.307380896248322D+02 0.240747572596768D+02
 0.118416073826516D+03 -.335553715003480D+02 -.332843539104871D+02 0.589347437826103D+02
 0.000000000000000D+00 0.000000000000000D+00 -.000000000000000D+00 0.000000000000000D+00
 0.233210401439514D+03 0.000000000000000D+00 0.000000000000000D+00 0.233210401439514D+03
 0.232756698010666D+03 0.000000000000000D+00 0.000000000000000D+00 -.232756698010666D+03
 0.198898950153722D+03 0.106258611515528D+03 0.725592929922363D+02 -.121201474856999D+03
 0.911957206290680D+02 -.499768103560175D+02 -.660329540746892D+02 0.381919738147122D+02
 0.482642043844493D+02 -.276454814789491D+02 0.313937388908779D+02 0.240747572596768D+02
 0.118471522061802D+03 -.352773949604541D+02 -.316615156889597D+02 0.589347437826103D+02
 0.913670222113831D+01 0.664107527989260D+01 -.625856211946519D+01 0.453703428848126D+00
-.851798144181D-06 0.000000000000D+00 0.000000000000D+00 0.128153500106D-06 0.000000000000D+00  7 1 -1 23 -11 11 23 21 2 0.20541159D-01 0.61932590D-01 0.38857814D+05 0.38857814D+05 0.38857814D+05 0.11570526D+01  1  2 13  1  7  1        1 -.957816798347D-04 0.100000000000D+01
-.161517210407D-05 0.000000000000D+00 0.000000000000D+00 0.128153500106D-06 0.000000000000D+00  7 1 -1 23 -11 11 23 21 2 0.19931075D-01 0.61932590D-01 0.37069115D+05 0.37069115D+05 0.37069115D+05 0.11589049D+01  1  2  8  1  7  1        1 -.189402059352D-03 0.100000000000D+01
0.228864209658D-05 0.000000000000D+00 0.000000000000D+00 0.128153500106D-06 0.109943276699D-07  7 1 -1 23 -11 11 23 21 2 0.20353556D-01 0.63122340D-01 0.38857814D+05 0.38857814D+05 0.38857814D+05 0.11570526D+01  1  2  1  1  7  1        1 0.251369058108D-03 0.100000000000D+01
  </mgrwgt>
  </event>
  <event>
  8     66 0.56006291E-06 0.24744363E+03 0.75467711E-02 0.93947287E-01
        1 -1    0    0  501    0 0.00000000E+00 0.00000000E+00 0.96305752E+03 0.96305757E+03 0.32000000E+00 0.0000E+00 0.9000E+01
       -1 -1    0    0    0  501 0.00000000E+00 0.00000000E+00 -.28784585E+03 0.28784603E+03 0.32000000E+00 0.0000E+00 0.9000E+01
       25  2    1    2    0    0 0.42903222E+03 -.21371017E+02 0.61477818E+03 0.80783199E+03 0.30019152E+03 0.0000E+00 0.0000E+00
       23  2    1    2    0    0 -.42903222E+03 0.21371017E+02 0.60433490E+02 0.44307161E+03 0.90193574E+02 0.0000E+00 0.0000E+00
       23  1    3    3    0    0 0.32403531E+03 0.76400552E+02 0.47819225E+03 0.58976183E+03 0.91188000E+02 0.0000E+00 0.9000E+01
      -13  1    4    4    0    0 -.10507577E+02 -.14453307E+01 0.19157643E+02 0.21898051E+02 0.10565837E+00 0.0000E+00 0.9000E+01
       13  1    4    4    0    0 -.41852464E+03 0.22816348E+02 0.41275847E+02 0.42117356E+03 0.10565837E+00 0.0000E+00 0.9000E+01
       23  1    3    3    0    0 0.10499691E+03 -.97771569E+02 0.13658592E+03 0.21807016E+03 0.91188000E+02 0.0000E+00 0.9000E+01
#aMCatNLO 1  0  0  1  2 0.11009562D+03 0.00000000D+00  -5  7  0 0.00000000D+00 0.00000000D+00 0.00000000D+00 0.00000000D+00 0.00000000D+00
  <mgrwgt>
 0.3059856076D-03    9    2    0
 0.526509503695558D+03 0.000000000000000D+00 0.000000000000000D+00 0.526509503695558D+03
 0.526509503695558D+03 0.000000000000000D+00 0.000000000000000D+00 -.526509503695558D+03
 0.393966492202764D+03 0.324035312801288D+03 0.764005516666044D+02 0.189890540568403D+03
 0.137283573624989D+02 -.105070172758760D+02 -.144536402052634D+01 0.871672568600668D+01
 0.473854940964688D+03 -.418525204260381D+03 0.228163811897712D+02 -.221030701996029D+03
 0.171469216861165D+03 0.104996908734969D+03 -.977715688358493D+02 0.224234357416192D+02
 0.000000000000000D+00 0.000000000000000D+00 -.000000000000000D+00 0.000000000000000D+00
 0.803802254908850D+03 0.000000000000000D+00 0.000000000000000D+00 0.803802254908850D+03
 0.540421677397318D+03 0.000000000000000D+00 0.000000000000000D+00 -.540421677397318D+03
 0.368453106078228D+03 0.287754321603659D+03 0.926362404016451D+02 0.189890540568403D+03
 0.147441741723158D+02 -.118619295424519D+02 -.839042828704734D+00 0.871672568600668D+01
 0.517353177361365D+03 -.465693473671463D+03 0.439241104730578D+02 -.221030701996029D+03
 0.158208285292620D+03 0.893086622881748D+02 -.907511022581500D+02 0.224234357416192D+02
 0.285465189401640D+03 0.100492419322081D+03 -.449702057878481D+02 0.263380577511531D+03
0.268771563100D-04 0.000000000000D+00 0.000000000000D+00 0.147805998340D-05 0.000000000000D+00  7 1 -1 23 -13 13 23 21 0 0.14816271D+00 0.44283995D-01 0.22322420D+06 0.22322420D+06 0.22322420D+06 0.10941797D+01  1  2  2  1  7  1        1 0.264108303774D-03 0.100000000000D+01
-.147188040088D-05 0.000000000000D+00 -.103215357148D-06 0.147805998340D-05 0.000000000000D+00  7 1 -1 23 -13 13 23 21 2 0.14816271D+00 0.44283995D-01 0.22322420D+06 0.22322420D+06 0.22322420D+06 0.10941797D+01  1  2  3  1  7  1        1 -.173160403104D-04 0.100000000000D+01
0.171873518386D-05 0.000000000000D+00 0.000000000000D+00 0.147805998340D-05 0.000000000000D+00  7 1 -1 23 -13 13 23 21 2 0.14816271D+00 0.44283995D-01 0.22322420D+06 0.22322420D+06 0.22322420D+06 0.10941797D+01  1  2 15  1  7  1        1 0.202201807353D-04 0.100000000000D+01
0.884302198883D-04 0.000000000000D+00 0.000000000000D+00 0.147805998340D-05 0.000000000000D+00  7 1 -1 23 -13 13 23 21 2 0.22731565D+00 0.44283995D-01 0.28201973D+06 0.28201973D+06 0.28201973D+06 0.10865433D+01  1  2 12  1  7  1        1 0.437278990750D-03 0.100000000000D+01
-.855207509337D-04 0.000000000000D+00 0.000000000000D+00 0.147805998340D-05 0.000000000000D+00  7 1 -1 23 -13 13 23 21 2 0.14816271D+00 0.44283995D-01 0.22322420D+06 0.22322420D+06 0.22322420D+06 0.10941797D+01  1  2  4  1  7  1        1 -.100611487840D-02 0.100000000000D+01
-.963790782305D-04 0.000000000000D+00 -.101239977269D-04 0.147805998340D-05 0.000000000000D+00  7 1 -1 23 -13 13 23 21 2 0.22827978D+00 0.44283995D-01 0.22322420D+06 0.22322420D+06 0.22322420D+06 0.10941797D+01  1  2  5  1  7  1        1 -.483698297984D-03 0.100000000000D+01
0.928246850229D-04 0.000000000000D+00 0.924660131170D-05 0.147805998340D-05 0.000000000000D+00  7 1 -1 23 -13 13 23 21 2 0.14816271D+00 0.44283995D-01 0.22322420D+06 0.22322420D+06 0.22322420D+06 0.10941797D+01  1  2  6  1  7  1        1 0.109204252377D-02 0.100000000000D+01
0.442551078008D-05 0.000000000000D+00 0.000000000000D+00 0.147805998340D-05 0.000000000000D+00  7 21 -1 23 -13 13 23 -1 2 0.22731565D+00 0.44283995D-01 0.28201973D+06 0.28201973D+06 0.28201973D+06 0.10865433D+01  1  2 12  3  7  1        1 0.173667773194D-04 0.100000000000D+01
-.447604613055D-05 0.000000000000D+00 -.510397181675D-06 0.147805998340D-05 0.000000000000D+00  7 21 -1 23 -13 13 23 -1 2 0.22827978D+00 0.44283995D-01 0.22322420D+06 0.22322420D+06 0.22322420D+06 0.10941797D+01  1  2  5  3  7  1        1 -.179019520904D-04 0.100000000000D+01
  </mgrwgt>
  </event>
  <event>
  8     66 0.56006291E-06 0.15273174E+03 0.75467711E-02 0.10264930E+00
        1 -1    0    0  501    0 0.00000000E+00 0.00000000E+00 0.52101157E+03 0.52101167E+03 0.32000000E+00 0.0000E+00 0.9000E+01
       -1 -1    0    0    0  501 0.00000000E+00 0.00000000E+00 -.47267550E+03 0.47267560E+03 0.32000000E+00 0.0000E+00 0.9000E+01
       25  2    1    2    0    0 -.14391133E+03 -.31950033E+02 0.44750462E+03 0.55818974E+03 0.29930606E+03 0.0000E+00 0.0000E+00
       23  2    1    2    0    0 0.14391133E+03 0.31950033E+02 -.39916855E+03 0.43549754E+03 0.92689254E+02 0.0000E+00 0.0000E+00
       23  1    3    3    0    0 -.17235630E+03 -.41119744E+01 0.40593846E+03 0.45036084E+03 0.91188000E+02 0.0000E+00 0.9000E+01
      -11  1    4    4    0    0 0.89154213E+02 -.25154507E+02 -.25066210E+03 0.26723157E+03 0.51099893E-03 0.0000E+00 0.9000E+01
       11  1    4    4    0    0 0.54757117E+02 0.57104539E+02 -.14850644E+03 0.16826596E+03 0.51099893E-03 0.0000E+00 0.9000E+01
       23  1    3    3    0    0 0.28444970E+02 -.27838058E+02 0.41566165E+02 0.10782890E+03 0.91188000E+02 0.0000E+00 0.9000E+01
#aMCatNLO 1  0  0  2  1 0.55841823D+02 0.00000000D+00  -5  7  0 0.00000000D+00 0.00000000D+00 0.00000000D+00 0.00000000D+00 0.00000000D+00
  <mgrwgt>
 0.1987145622D-03    6    2    0
 0.496255483844808D+03 0.000000000000000D+00 0.000000000000000D+00 0.496255483844808D+03
 0.496255483844808D+03 0.000000000000000D+00 0.000000000000000D+00 -.496255483844808D+03
 0.431125072824634D+03 -.172356300300151D+03 -.411197439526234D+01 0.384486637592859D+03
 0.279755734473601D+03 0.891542130536720D+02 -.251545067781924D+02 -.263973574538040D+03
 0.175697771052738D+03 0.547571171188218D+02 0.571045394650380D+02 -.156877138073786D+03
 0.105932389338644D+03 0.284449701276576D+02 -.278380582915833D+02 0.363640750189671D+02
 0.000000000000000D+00 0.000000000000000D+00 0.000000000000000D+00 0.000000000000000D+00
 0.527518315295607D+03 0.000000000000000D+00 0.000000000000000D+00 0.527518315295607D+03
 0.522618690598071D+03 0.000000000000000D+00 0.000000000000000D+00 -.522618690598071D+03
 0.441050516799510D+03 -.195535012738010D+03 -.120992285373193D+02 0.384486637592859D+03
 0.275916835437847D+03 0.743868028431505D+02 -.302432734078172D+02 -.263973574538040D+03
 0.172016180804980D+03 0.455163612473871D+02 0.539202268847887D+02 -.156877138073786D+03
 0.105097112669489D+03 0.228367047724453D+02 -.297706350388149D+02 0.363640750189671D+02
 0.560563601818535D+02 0.527951438750267D+02 0.181929100991627D+02 0.489962469753590D+01
0.137454192263D-04 0.000000000000D+00 0.000000000000D+00 0.375814906509D-06 0.000000000000D+00  7 1 -1 23 -11 11 23 21 0 0.80155642D-01 0.72719323D-01 0.54354566D+05 0.54354566D+05 0.54354566D+05 0.11441190D+01  1  2  2  2  7  2       -1 0.143681519080D-03 0.100000000000D+01
-.233754785614D-06 0.000000000000D+00 -.527860290810D-07 0.375814906509D-06 0.000000000000D+00  7 1 -1 23 -11 11 23 21 2 0.80155642D-01 0.72719323D-01 0.54354566D+05 0.54354566D+05 0.54354566D+05 0.11441190D+01  1  2  3  2  7  2       -1 -.319849635896D-05 0.100000000000D+01
0.808554144316D-06 0.000000000000D+00 0.000000000000D+00 0.375814906509D-06 0.000000000000D+00  7 1 -1 23 -11 11 23 21 2 0.80155642D-01 0.72719323D-01 0.54354566D+05 0.54354566D+05 0.54354566D+05 0.11441190D+01  1  2 15  2  7  2       -1 0.110635488374D-04 0.100000000000D+01
0.194568663264D-04 0.000000000000D+00 0.000000000000D+00 0.375814906509D-06 0.000000000000D+00  7 1 -1 23 -11 11 23 21 2 0.80155642D-01 0.78745054D-01 0.67964936D+05 0.67964936D+05 0.67964936D+05 0.11357505D+01  1  2 12  2  7  2       -1 0.222737325452D-03 0.100000000000D+01
-.145525442446D-04 0.000000000000D+00 0.000000000000D+00 0.375814906509D-06 0.000000000000D+00  7 1 -1 23 -11 11 23 21 2 0.80155642D-01 0.72719323D-01 0.54354566D+05 0.54354566D+05 0.54354566D+05 0.11441190D+01  1  2  4  2  7  2       -1 -.199124307371D-03 0.100000000000D+01
0.258752317319D-06 0.000000000000D+00 0.000000000000D+00 0.375814906509D-06 0.000000000000D+00  7 1 21 23 -11 11 23 1 2 0.80155642D-01 0.78745054D-01 0.67964936D+05 0.67964936D+05 0.67964936D+05 0.11357505D+01  1  2 12  4  7  2       -1 0.235549725999D-04 0.100000000000D+01
  </mgrwgt>
  </event>
  <event>
  8     66 0.56006291E-06 0.12508222E+03 0.75467711E-02 0.10380377E+00
        1 -1    0    0  501    0 0.00000000E+00 0.00000000E+00 0.19879719E+04 0.19879719E+04 0.32000000E+00 0.0000E+00 0.9000E+01
       -1 -1    0    0    0  501 0.00000000E+00 0.00000000E+00 -.27284307E+02 0.27286183E+02 0.32000000E+00 0.0000E+00 0.9000E+01
       25  2    1    2    0    0 0.33527378E+02 -.10749547E+03 0.12538507E+04 0.12940269E+04 0.29947394E+03 0.0000E+00 0.0000E+00
       23  2    1    2    0    0 -.33527378E+02 0.10749547E+03 0.70683690E+03 0.72123123E+03 0.88750893E+02 0.0000E+00 0.0000E+00
       23  1    3    3    0    0 0.13612028E+03 -.59692712E+02 0.70768568E+03 0.72885268E+03 0.91188000E+02 0.0000E+00 0.9000E+01
      -13  1    4    4    0    0 -.33113313E+02 0.45960816E+00 0.24042116E+03 0.24269126E+03 0.10565837E+00 0.0000E+00 0.9000E+01
       13  1    4    4    0    0 -.41406476E+00 0.10703586E+03 0.46641574E+03 0.47853997E+03 0.10565837E+00 0.0000E+00 0.9000E+01
       23  1    3    3    0    0 -.10259290E+03 -.47802759E+02 0.54616499E+03 0.56517419E+03 0.91188000E+02 0.0000E+00 0.9000E+01
#aMCatNLO 1  0  0  2  1 0.18397052D+02 0.00000000D+00  -5  7  0 0.00000000D+00 0.00000000D+00 0.00000000D+00 0.00000000D+00 0.00000000D+00
  <mgrwgt>
 0.9633079150D-04    9    2    0
 0.232899874798297D+03 0.000000000000000D+00 0.000000000000000D+00 0.232899874798297D+03
 0.232899874798297D+03 0.000000000000000D+00 0.000000000000000D+00 -.232899874798297D+03
 0.174486424594901D+03 0.136120278229907D+03 -.596927153838567D+02 -.618955641599475D+01
 0.379877828530039D+02 -.331133583803311D+02 0.459460008672139D+00 0.186109118358873D+02
 0.107097617315317D+03 -.414020961635838D+00 0.107036016655587D+03 0.360823499321823D+01
 0.146227924833372D+03 -.102592898887940D+03 -.478027612804026D+02 -.160295904131107D+02
 0.000000000000000D+00 0.000000000000000D+00 -.000000000000000D+00 -.000000000000000D+00
 0.240198342142481D+03 0.000000000000000D+00 0.000000000000000D+00 0.240198342142481D+03
 0.244970483277618D+03 0.000000000000000D+00 0.000000000000000D+00 -.244970483277618D+03
 0.169078701060683D+03 0.131150657873798D+03 -.550776736891730D+02 -.618955641599475D+01
 0.389880818535360D+02 -.342268032430618D+02 0.149346142085605D+01 0.186109118358873D+02
 0.110069805787449D+03 -.355531664604405D+01 0.109953183263909D+03 0.360823499321823D+01
 0.148026320839238D+03 -.106849244424686D+03 -.438501027850867D+02 -.160295904131107D+02
 0.190059158791926D+02 0.134807064399934D+02 -.125188682105052D+02 -.477214113513730D+01
0.137636824965D-05 0.000000000000D+00 0.000000000000D+00 0.190083744903D-07 0.000000000000D+00  7 1 -1 23 -13 13 23 21 0 0.30584197D+00 0.41977320D-02 0.52871634D+05 0.52871634D+05 0.52871634D+05 0.11451682D+01  1  2  2  2  7  2       -1 0.116276742627D-03 0.100000000000D+01
-.764496764568D-07 0.000000000000D+00 -.528561648474D-08 0.190083744903D-07 0.000000000000D+00  7 1 -1 23 -13 13 23 21 2 0.30584197D+00 0.41977320D-02 0.52871634D+05 0.52871634D+05 0.52871634D+05 0.11451682D+01  1  2  3  2  7  2       -1 -.846978601303D-05 0.100000000000D+01
0.904742906189D-07 0.000000000000D+00 0.000000000000D+00 0.190083744903D-07 0.000000000000D+00  7 1 -1 23 -13 13 23 21 2 0.30584197D+00 0.41977320D-02 0.52871634D+05 0.52871634D+05 0.52871634D+05 0.11451682D+01  1  2 15  2  7  2       -1 0.100235595066D-04 0.100000000000D+01
0.316978326987D-05 0.000000000000D+00 0.000000000000D+00 0.190083744903D-07 0.000000000000D+00  7 1 -1 23 -13 13 23 21 2 0.30584197D+00 0.44783095D-02 0.57309557D+05 0.57309557D+05 0.57309557D+05 0.11421194D+01  1  2 12  2  7  2       -1 0.317422789879D-03 0.100000000000D+01
-.284795919930D-05 0.000000000000D+00 0.000000000000D+00 0.190083744903D-07 0.000000000000D+00  7 1 -1 23 -13 13 23 21 2 0.30584197D+00 0.41977320D-02 0.52871634D+05 0.52871634D+05 0.52871634D+05 0.11451682D+01  1  2  4  2  7  2       -1 -.315522656339D-03 0.100000000000D+01
-.117671888704D-04 0.000000000000D+00 -.214278978620D-05 0.190083744903D-07 0.000000000000D+00  7 1 -1 23 -13 13 23 21 2 0.30584197D+00 0.45769233D-02 0.52871634D+05 0.52871634D+05 0.52871634D+05 0.11451682D+01  1  2  5  2  7  2       -1 -.114875530608D-02 0.100000000000D+01
0.119159025329D-04 0.000000000000D+00 0.213480145776D-05 0.190083744903D-07 0.000000000000D+00  7 1 -1 23 -13 13 23 21 2 0.30584197D+00 0.41977320D-02 0.52871634D+05 0.52871634D+05 0.52871634D+05 0.11451682D+01  1  2  6  2  7  2       -1 0.132015136339D-02 0.100000000000D+01
0.377174398831D-07 0.000000000000D+00 0.000000000000D+00 0.190083744903D-07 0.000000000000D+00  7 1 21 23 -13 13 23 1 2 0.30584197D+00 0.44783095D-02 0.57309557D+05 0.57309557D+05 0.57309557D+05 0.11421194D+01  1  2 12  4  7  2       -1 0.607896214111D-04 0.100000000000D+01
-.163005894658D-06 0.000000000000D+00 -.306629559603D-07 0.190083744903D-07 0.000000000000D+00  7 1 21 23 -13 13 23 1 2 0.30584197D+00 0.45769233D-02 0.52871634D+05 0.52871634D+05 0.52871634D+05 0.11451682D+01  1  2  5  4  7  2       -1 -.255585536874D-03 0.100000000000D+01
  </mgrwgt>
  </event>
  <event>
  8     66 0.56006291E-06 0.16360940E+03 0.75467711E-02 0.10112148E+00
        3 -1    0    0  501    0 0.00000000E+00 0.00000000E+00 0.17219158E+04 0.17219159E+04 0.50000000E+00 0.0000E+00 0.9000E+01
       -3 -1    0    0    0  501 0.00000000E+00 0.00000000E+00 -.59485727E+02 0.59487828E+02 0.50000000E+00 0.0000E+00 0.9000E+01
       25  2    1    2    0    0 -.14638054E+03 -.81262173E+02 0.14748234E+04 0.15147134E+04 0.30202951E+03 0.0000E+00 0.0000E+00
       23  2    1    2    0    0 0.14638054E+03 0.81262173E+02 0.18760667E+03 0.26669029E+03 0.88863073E+02 0.0000E+00 0.0000E+00
       23  1    3    3    0    0 -.18888233E+03 -.77482468E+02 0.74052851E+03 0.77354883E+03 0.91188000E+02 0.0000E+00 0.9000E+01
      -11  1    4    4    0    0 0.13507264E+03 0.38127992E+02 0.11483646E+03 0.18134435E+03 0.51099893E-03 0.0000E+00 0.9000E+01
       11  1    4    4    0    0 0.11307905E+02 0.43134181E+02 0.72770207E+02 0.85345939E+02 0.51099893E-03 0.0000E+00 0.9000E+01
       23  1    3    3    0    0 0.42501781E+02 -.37797051E+01 0.73429492E+03 0.74116460E+03 0.91188000E+02 0.0000E+00 0.9000E+01
#aMCatNLO 1  0  0  2  1 0.74966243D+02 0.00000000D+00  -5  7  0 0.00000000D+00 0.00000000D+00 0.00000000D+00 0.00000000D+00 0.00000000D+00
  <mgrwgt>
 0.5903062880D-05    9    2    0
 0.320048981012134D+03 0.000000000000000D+00 0.000000000000000D+00 0.320048981012134D+03
 0.320048981012134D+03 0.000000000000000D+00 0.000000000000000D+00 -.320048981012134D+03
 0.229536557671719D+03 -.188882326012572D+03 -.774824681368235D+02 0.518817310359711D+02
 0.206437024446925D+03 0.135072639909379D+03 0.381279924131314D+02 -.151386535745276D+03
 0.485241213022501D+02 0.113079048055115D+02 0.431341808717218D+02 -.191354142257377D+02
 0.155600258603374D+03 0.425017812976819D+02 -.377970514802970D+01 0.118640218935042D+03
 0.000000000000000D+00 0.000000000000000D+00 0.000000000000000D+00 -.000000000000000D+00
 0.333749796081311D+03 0.000000000000000D+00 0.000000000000000D+00 0.333749796081311D+03
 0.444267474245602D+03 0.000000000000000D+00 0.000000000000000D+00 -.444267474245602D+03
 0.244807552968238D+03 -.194949386602069D+03 -.104491670933550D+03 0.518817310359711D+02
 0.200024042082061D+03 0.129873831992115D+03 0.149840571800286D+02 -.151386535745276D+03
 0.436366043933590D+02 0.101291303794670D+02 0.378865396037657D+02 -.191354142257377D+02
 0.156004715859599D+03 0.385162226754727D+02 -.215225246728351D+02 0.118640218935042D+03
 0.133544355023656D+03 0.164302015550137D+02 0.731435988225903D+02 -.110517678164291D+03
0.425784632244D-05 0.000000000000D+00 0.000000000000D+00 0.133072170064D-07 0.000000000000D+00  7 3 -3 23 -11 11 23 21 0 0.26491029D+00 0.91518175D-02 0.64825324D+05 0.64825324D+05 0.64825324D+05 0.11375059D+01  1  2  2  2  7  2       -3 0.542217813183D-05 0.100000000000D+01
-.221497779125D-06 0.000000000000D+00 -.163512509949D-07 0.133072170064D-07 0.000000000000D+00  7 3 -3 23 -11 11 23 21 2 0.26491029D+00 0.91518175D-02 0.64825324D+05 0.64825324D+05 0.64825324D+05 0.11375059D+01  1  2  3  2  7  2       -3 -.364972819158D-06 0.100000000000D+01
0.269100131896D-06 0.000000000000D+00 0.000000000000D+00 0.133072170064D-07 0.000000000000D+00  7 3 -3 23 -11 11 23 21 2 0.26491029D+00 0.91518175D-02 0.64825324D+05 0.64825324D+05 0.64825324D+05 0.11375059D+01  1  2 15  2  7  2       -3 0.443409564473D-06 0.100000000000D+01
0.805837800751D-05 0.000000000000D+00 0.000000000000D+00 0.133072170064D-07 0.000000000000D+00  7 3 -3 23 -11 11 23 21 2 0.26491029D+00 0.12842120D-01 0.85692894D+05 0.85692894D+05 0.85692894D+05 0.11272666D+01  1  2 12  2  7  2       -3 0.742262905462D-05 0.100000000000D+01
-.850064662734D-05 0.000000000000D+00 0.000000000000D+00 0.133072170064D-07 0.000000000000D+00  7 3 -3 23 -11 11 23 21 2 0.26491029D+00 0.91518175D-02 0.64825324D+05 0.64825324D+05 0.64825324D+05 0.11375059D+01  1  2  4  2  7  2       -3 -.140069348618D-04 0.100000000000D+01
-.986802796762D-05 0.000000000000D+00 -.188218609136D-05 0.133072170064D-07 0.000000000000D+00  7 3 -3 23 -11 11 23 21 2 0.26491029D+00 0.13249569D-01 0.64825324D+05 0.64825324D+05 0.64825324D+05 0.11375059D+01  1  2  5  2  7  2       -3 -.886127436120D-05 0.100000000000D+01
0.999434202686D-05 0.000000000000D+00 0.176030399878D-05 0.133072170064D-07 0.000000000000D+00  7 3 -3 23 -11 11 23 21 2 0.26491029D+00 0.91518175D-02 0.64825324D+05 0.64825324D+05 0.64825324D+05 0.11375059D+01  1  2  6  2  7  2       -3 0.164681704691D-04 0.100000000000D+01
0.340027514112D-06 0.000000000000D+00 0.000000000000D+00 0.133072170064D-07 0.000000000000D+00  7 3 21 23 -11 11 23 3 2 0.26491029D+00 0.12842120D-01 0.85692894D+05 0.85692894D+05 0.85692894D+05 0.11272666D+01  1  2 12  4  7  2       -3 0.545624918390D-05 0.100000000000D+01
-.386115093035D-06 0.000000000000D+00 -.846436330967D-07 0.133072170064D-07 0.000000000000D+00  7 3 21 23 -11 11 23 3 2 0.26491029D+00 0.13249569D-01 0.64825324D+05 0.64825324D+05 0.64825324D+05 0.11375059D+01  1  2  5  4  7  2       -3 -.607639148196D-05 0.100000000000D+01
  </mgrwgt>
  </event>
  <event>
  8     66 0.56006291E-06 0.18928317E+03 0.75467711E-02 0.94102458E-01
        1 -1    0    0  501    0 0.00000000E+00 0.00000000E+00 0.12230979E+04 0.12230980E+04 0.32000000E+00 0.0000E+00 0.9000E+01
       -1 -1    0    0    0  501 0.00000000E+00 0.00000000E+00 -.16967957E+03 0.16967988E+03 0.32000000E+00 0.0000E+00 0.9000E+01
       25  2    1    2    0    0 0.24415164E+03 -.13656083E+03 0.10157516E+04 0.10957980E+04 0.30126897E+03 0.0000E+00 0.0000E+00
       23  2    1    2    0    0 -.24415164E+03 0.13656083E+03 0.37666751E+02 0.29697987E+03 0.92300478E+02 0.0000E+00 0.0000E+00
       23  1    3    3    0    0 -.21171349E+02 0.10764607E+02 0.23013279E+03 0.24867741E+03 0.91188000E+02 0.0000E+00 0.9000E+01
      -13  1    4    4    0    0 -.24549174E+03 0.11667722E+03 0.24107049E+02 0.27287530E+03 0.10565837E+00 0.0000E+00 0.9000E+01
       13  1    4    4    0    0 0.13400994E+01 0.19883615E+02 0.13559702E+02 0.24104578E+02 0.10565837E+00 0.0000E+00 0.9000E+01
       23  1    3    3    0    0 0.26532299E+03 -.14732544E+03 0.78561884E+03 0.84712058E+03 0.91188000E+02 0.0000E+00 0.9000E+01
#aMCatNLO 1  0  0  1  2 0.28912018D+03 0.00000000D+00  -5  7  0 0.00000000D+00 0.00000000D+00 0.00000000D+00 0.00000000D+00 0.00000000D+00
  <mgrwgt>
 0.4008958838D-03    8    2    0
 0.455560069916017D+03 0.000000000000000D+00 0.000000000000000D+00 0.455560069916017D+03
 0.455560069916017D+03 0.000000000000000D+00 0.000000000000000D+00 -.455560069916017D+03
 0.114064303510880D+03 -.211713490917450D+02 0.107646066413122D+02 0.642752768404420D+02
 0.389257450891922D+03 -.245492060568253D+03 0.116677344698323D+03 -.278642079569792D+03
 0.211693753005171D+02 0.134042278332181D+01 0.198834879356001D+02 -.714091204895720D+01
 0.386629010128715D+03 0.265322986876677D+03 -.147325439275236D+03 0.221507714778308D+03
 0.000000000000000D+00 0.000000000000000D+00 -.000000000000000D+00 0.000000000000000D+00
 0.752137235018974D+03 0.000000000000000D+00 0.000000000000000D+00 0.752137235018974D+03
 0.554161779919807D+03 0.000000000000000D+00 0.000000000000000D+00 -.554161779919807D+03
 0.126932322842727D+03 -.487119552885306D+02 0.359499295868991D+02 0.642752768404420D+02
 0.490858646688669D+03 -.346069945070892D+03 0.208653769773475D+03 -.278642079569792D+03
 0.261536982504535D+02 -.406756218480176D+01 0.248289799459745D+02 -.714091204895720D+01
 0.311947787259500D+03 0.185491045798583D+03 -.743207565511671D+02 0.221507714778308D+03
 0.350406559897433D+03 0.213358416745642D+03 -.195111922755181D+03 0.197975455099167D+03
0.155862216480D-04 0.000000000000D+00 0.000000000000D+00 0.274409784701D-06 0.000000000000D+00  7 1 -1 23 -13 13 23 21 0 0.18816894D+00 0.26104576D-01 0.12350057D+06 0.12350057D+06 0.12350057D+06 0.11142763D+01  1  2  2  1  7  1        1 0.247835926481D-03 0.100000000000D+01
-.794989958287D-06 0.000000000000D+00 -.598551950748D-07 0.274409784701D-06 0.000000000000D+00  7 1 -1 23 -13 13 23 21 2 0.18816894D+00 0.26104576D-01 0.12350057D+06 0.12350057D+06 0.12350057D+06 0.11142763D+01  1  2  3  1  7  1        1 -.156953435616D-04 0.100000000000D+01
0.985939919779D-06 0.000000000000D+00 0.000000000000D+00 0.274409784701D-06 0.000000000000D+00  7 1 -1 23 -13 13 23 21 2 0.18816894D+00 0.26104576D-01 0.12350057D+06 0.12350057D+06 0.12350057D+06 0.11142763D+01  1  2 15  1  7  1        1 0.194652342595D-04 0.100000000000D+01
0.503150791100D-06 0.000000000000D+00 0.000000000000D+00 0.274409784701D-06 0.000000000000D+00  7 1 -1 23 -13 13 23 21 2 0.32015538D+00 0.26104576D-01 0.27430868D+06 0.27430868D+06 0.27430868D+06 0.10874403D+01  1  2 12  1  7  1        1 0.245087226223D-05 0.100000000000D+01
-.717575205989D-05 0.000000000000D+00 -.476209350975D-05 0.274409784701D-06 0.000000000000D+00  7 1 -1 23 -13 13 23 21 2 0.33779732D+00 0.26104576D-01 0.12350057D+06 0.12350057D+06 0.12350057D+06 0.11142763D+01  1  2  5  1  7  1        1 -.320079546657D-04 0.100000000000D+01
0.907664387976D-05 0.000000000000D+00 0.404900687660D-05 0.274409784701D-06 0.000000000000D+00  7 1 -1 23 -13 13 23 21 2 0.18816894D+00 0.26104576D-01 0.12350057D+06 0.12350057D+06 0.12350057D+06 0.11142763D+01  1  2  6  1  7  1        1 0.179198545332D-03 0.100000000000D+01
0.297972025262D-07 0.000000000000D+00 0.000000000000D+00 0.274409784701D-06 0.000000000000D+00  7 21 -1 23 -13 13 23 -1 2 0.32015538D+00 0.26104576D-01 0.27430868D+06 0.27430868D+06 0.27430868D+06 0.10874403D+01  1  2 12  3  7  1        1 0.689161978285D-07 0.100000000000D+01
-.208627785724D-06 0.000000000000D+00 -.305775513910D-06 0.274409784701D-06 0.000000000000D+00  7 21 -1 23 -13 13 23 -1 2 0.33779732D+00 0.26104576D-01 0.12350057D+06 0.12350057D+06 0.12350057D+06 0.11142763D+01  1  2  5  3  7  1        1 -.420312460842D-06 0.100000000000D+01
  </mgrwgt>
  </event>
  <event>
  7     66 0.56006291E-06 0.36920847E+03 0.75467711E-02 0.95409374E-01
        1 -1    0    0  501    0 0.00000000E+00 0.00000000E+00 0.77127587E+03 0.77127594E+03 0.32000000E+00 0.0000E+00 0.9000E+01
       -1 -1    0    0    0  501 0.00000000E+00 0.00000000E+00 -.11650903E+04 0.11650903E+04 0.32000000E+00 0.0000E+00 0.9000E+01
       23  2    1    2    0    0 0.18845946E+03 -.37654554E+03 0.64273674E+03 0.77379630E+03 0.91360176E+02 0.0000E+00 0.0000E+00
       23  1    1    2    0    0 -.16920735E+03 0.12640287E+03 -.29279839E+03 0.37236402E+03 0.91188000E+02 0.0000E+00 0.9000E+01
      -13  1    3    3    0    0 0.40465511E+02 -.64225435E+02 0.18709872E+03 0.20191163E+03 0.10565837E+00 0.0000E+00 0.9000E+01
       13  1    3    3    0    0 0.14799395E+03 -.31232011E+03 0.45563802E+03 0.57188467E+03 0.10565837E+00 0.0000E+00 0.9000E+01
       23  1    1    2    0    0 -.19252109E+02 0.25014267E+03 -.74375278E+03 0.79020596E+03 0.91188000E+02 0.0000E+00 0.9000E+01
#aMCatNLO 1  0  0  1  2 0.16364699D+02 0.00000000D+00  -5  7  0 0.00000000D+00 0.00000000D+00 0.00000000D+00 0.00000000D+00 0.00000000D+00
  <mgrwgt>
 0.5311185587D-03    9    2    0
 0.947948383734078D+03 0.000000000000000D+00 0.000000000000000D+00 0.947948383734078D+03
 0.947948383734078D+03 0.000000000000000D+00 0.000000000000000D+00 -.947948383734078D+03
 0.319492552448106D+03 -.169207346081843D+03 0.126402869958476D+03 -.221701213853253D+03
 0.245085046665834D+03 0.404653672078845D+02 -.642251034998483D+02 0.233032981005606D+03
 0.678737443127942D+03 0.147994093598254D+03 -.312320440213951D+03 0.584155978817688D+03
 0.652581725226274D+03 -.192521147242953D+02 0.250142673755324D+03 -.595487745970041D+03
 0.000000000000000D+00 0.000000000000000D+00 -.000000000000000D+00 0.000000000000000D+00
 0.985928921881069D+03 0.000000000000000D+00 0.000000000000000D+00 0.985928921881069D+03
 0.949748104209130D+03 0.000000000000000D+00 0.000000000000000D+00 -.949748104209130D+03
 0.321295483648417D+03 -.171692879065529D+03 0.127615295020049D+03 -.221701213853253D+03
 0.244537207809192D+03 0.385661865202150D+02 -.632986968589788D+02 0.233032981005606D+03
 0.676432711252621D+03 0.142737565811409D+03 -.309756343874269D+03 0.584155978817688D+03
 0.653701990540260D+03 -.243190184095883D+02 0.252614272826006D+03 -.595487745970041D+03
 0.397096328397091D+02 0.147081451434931D+02 -.717452711280740D+01 0.361808176719382D+02
0.253763881525D-03 0.000000000000D+00 0.000000000000D+00 0.168435850984D-07 0.000000000000D+00  7 1 -1 23 -13 13 23 21 0 0.11865783D+00 0.17924467D+00 0.21091643D+06 0.21091643D+06 0.21091643D+06 0.10960571D+01  1  2  2  1  7  1        1 0.153000571420D-03 0.100000000000D+01
-.509586842881D-05 0.000000000000D+00 -.974520122622D-06 0.168435850984D-07 0.000000000000D+00  7 1 -1 23 -13 13 23 21 2 0.11865783D+00 0.17924467D+00 0.21091643D+06 0.21091643D+06 0.21091643D+06 0.10960571D+01  1  2  3  1  7  1        1 -.369103223018D-05 0.100000000000D+01
0.158509815995D-04 0.000000000000D+00 0.000000000000D+00 0.168435850984D-07 0.000000000000D+00  7 1 -1 23 -13 13 23 21 2 0.11865783D+00 0.17924467D+00 0.21091643D+06 0.21091643D+06 0.21091643D+06 0.10960571D+01  1  2 15  1  7  1        1 0.114811606267D-04 0.100000000000D+01
0.280698661909D-02 0.000000000000D+00 0.000000000000D+00 0.168435850984D-07 0.000000000000D+00  7 1 -1 23 -13 13 23 21 2 0.12352213D+00 0.17924467D+00 0.21797957D+06 0.21797957D+06 0.21797957D+06 0.10949655D+01  1  2 12  1  7  1        1 0.190002242728D-02 0.100000000000D+01
-.284497983601D-02 0.000000000000D+00 0.000000000000D+00 0.168435850984D-07 0.000000000000D+00  7 1 -1 23 -13 13 23 21 2 0.11865783D+00 0.17924467D+00 0.21091643D+06 0.21091643D+06 0.21091643D+06 0.10960571D+01  1  2  4  1  7  1        1 -.206067178061D-02 0.100000000000D+01
-.121544517159D-01 0.000000000000D+00 -.805517337369D-03 0.168435850984D-07 0.000000000000D+00  7 1 -1 23 -13 13 23 21 2 0.12352300D+00 0.17924467D+00 0.21091643D+06 0.21091643D+06 0.21091643D+06 0.10960571D+01  1  2  5  1  7  1        1 -.826207592850D-02 0.100000000000D+01
0.121776370543D-01 0.000000000000D+00 0.804867439213D-03 0.168435850984D-07 0.000000000000D+00  7 1 -1 23 -13 13 23 21 2 0.11865783D+00 0.17924467D+00 0.21091643D+06 0.21091643D+06 0.21091643D+06 0.10960571D+01  1  2  6  1  7  1        1 0.882048888876D-02 0.100000000000D+01
0.634963367674D-04 0.000000000000D+00 0.000000000000D+00 0.168435850984D-07 0.000000000000D+00  7 21 -1 23 -13 13 23 -1 2 0.12352213D+00 0.17924467D+00 0.21797957D+06 0.21797957D+06 0.21797957D+06 0.10949655D+01  1  2 12  3  7  1        1 0.753379538695D-04 0.100000000000D+01
-.861486906827D-04 0.000000000000D+00 -.571943960147D-05 0.168435850984D-07 0.000000000000D+00  7 21 -1 23 -13 13 23 -1 2 0.12352300D+00 0.17924467D+00 0.21091643D+06 0.21091643D+06 0.21091643D+06 0.10960571D+01  1  2  5  3  7  1        1 -.102773701965D-03 0.100000000000D+01
  </mgrwgt>
  </event>
  <event>
  8     66 0.56006291E-06 0.30622430E+03 0.75467711E-02 0.86218760E-01
        1 -1    0    0  501    0 0.00000000E+00 0.00000000E+00 0.57583678E+03 0.57583687E+03 0.32000000E+00 0.0000E+00 0.9000E+01
       -1 -1    0    0    0  501 0.00000000E+00 0.00000000E+00 -.54875329E+03 0.54875339E+03 0.32000000E+00 0.0000E+00 0.9000E+01
       25  2    1    2    0    0 0.18223341E+03 0.16312934E+03 -.44217271E+03 0.58755135E+03 0.29979940E+03 0.0000E+00 0.0000E+00
       23  2    1    2    0    0 -.18223341E+03 -.16312934E+03 0.46925620E+03 0.53703891E+03 0.91592641E+02 0.0000E+00 0.0000E+00
       23  1    3    3    0    0 0.43146159E+02 0.17167984E+03 -.33436755E+03 0.38916894E+03 0.91188000E+02 0.0000E+00 0.9000E+01
      -11  1    4    4    0    0 -.86990826E+02 -.99912589E+02 0.33770531E+03 0.36275999E+03 0.51099893E-03 0.0000E+00 0.9000E+01
       11  1    4    4    0    0 -.95242580E+02 -.63216755E+02 0.13155089E+03 0.17427892E+03 0.51099893E-03 0.0000E+00 0.9000E+01
       23  1    3    3    0    0 0.13908725E+03 -.85504950E+01 -.10780517E+03 0.19838241E+03 0.91188000E+02 0.0000E+00 0.9000E+01
#aMCatNLO 1  0  0  1  2 0.10715399D+04 0.00000000D+00  -5  7  0 0.00000000D+00 0.00000000D+00 0.00000000D+00 0.00000000D+00 0.00000000D+00
  <mgrwgt>
 0.2740315533D-03    3    2    0
 0.562132042228282D+03 0.000000000000000D+00 0.000000000000000D+00 0.562132042228282D+03
 0.562132042228282D+03 0.000000000000000D+00 0.000000000000000D+00 -.562132042228282D+03
 0.397336751441702D+03 0.431461589710098D+02 0.171679839257854D+03 -.343839620260218D+03
 0.354729920969159D+03 -.869908263881566D+02 -.999125888403366D+02 0.329064412457977D+03
 0.171160428090102D+03 -.952425800684487D+02 -.632167554304338D+02 0.127390678303951D+03
 0.201036983955602D+03 0.139087247485595D+03 -.855049498708333D+01 -.112615470501709D+03
 0.000000000000000D+00 -.000000000000000D+00 0.000000000000000D+00 -.000000000000000D+00
 0.116362933672404D+04 0.000000000000000D+00 0.000000000000000D+00 0.116362933672404D+04
 0.151815034071931D+04 0.000000000000000D+00 0.000000000000000D+00 -.151815034071931D+04
 0.584315600876558D+03 0.435785668764078D+03 0.158033656297913D+03 -.343839620260218D+03
 0.410488300693311D+03 0.219079756266410D+03 -.110550069443756D+03 0.329064412457977D+03
 0.147821242758473D+03 0.323431243606005D+02 -.676509955470978D+02 0.127390678303951D+03
 0.410490291987973D+03 0.383684807186374D+03 -.170514811792038D+02 -.112615470501709D+03
 0.112866424112704D+04 -.107089335657746D+04 0.372188898721445D+02 -.354521003995268D+03
0.397487547744D-04 0.000000000000D+00 0.000000000000D+00 0.242642369722D-05 0.000000000000D+00  7 1 -1 23 -11 11 23 21 0 0.88590288D-01 0.84423598D-01 0.93773325D+05 0.93773325D+05 0.93773325D+05 0.11240205D+01  1  2  2  1  7  1        1 0.263317457040D-03 0.100000000000D+01
-.121763945758D-05 0.000000000000D+00 -.152645684421D-06 0.242642369722D-05 0.000000000000D+00  7 1 -1 23 -11 11 23 21 2 0.88590288D-01 0.84423598D-01 0.93773325D+05 0.93773325D+05 0.93773325D+05 0.11240205D+01  1  2  3  1  7  1        1 -.101911522417D-04 0.100000000000D+01
0.249776029769D-05 0.000000000000D+00 0.000000000000D+00 0.242642369722D-05 0.000000000000D+00  7 1 -1 23 -11 11 23 21 2 0.88590288D-01 0.84423598D-01 0.93773325D+05 0.93773325D+05 0.93773325D+05 0.11240205D+01  1  2 15  1  7  1        1 0.209052485107D-04 0.100000000000D+01
  </mgrwgt>
  </event>
  <event>
  8     66 0.56006291E-06 0.74284171E+02 0.75467711E-02 0.10607913E+00
        3 -1    0    0  501    0 0.00000000E+00 0.00000000E+00 0.15345544E+03 0.15345625E+03 0.50000000E+00 0.0000E+00 0.9000E+01
       -3 -1    0    0    0  501 0.00000000E+00 0.00000000E+00 -.35732139E+03 0.35732174E+03 0.50000000E+00 0.0000E+00 0.9000E+01
       25  2    1    2    0    0 0.83635848E+02 0.36337530E+02 -.77357299E+02 0.32345348E+03 0.30053724E+03 0.0000E+00 0.0000E+00
       23  2    1    2    0    0 -.83635848E+02 -.36337530E+02 -.12650865E+03 0.18732450E+03 0.10378179E+03 0.0000E+00 0.0000E+00
       23  1    3    3    0    0 0.39779812E+01 -.68486430E+02 0.44222057E+02 0.12238079E+03 0.91188000E+02 0.0000E+00 0.9000E+01
      -11  1    4    4    0    0 -.81085318E+02 -.29501197E+02 -.14428048E+03 0.16811308E+03 0.51099893E-03 0.0000E+00 0.9000E+01
       11  1    4    4    0    0 -.25505302E+01 -.68363338E+01 0.17771835E+02 0.19211423E+02 0.51099893E-03 0.0000E+00 0.9000E+01
       23  1    3    3    0    0 0.79657867E+02 0.10482396E+03 -.12157936E+03 0.20107270E+03 0.91188000E+02 0.0000E+00 0.9000E+01
#aMCatNLO 1  0  0  1  2 0.33541458D+02 0.00000000D+00  -5  7  0 0.00000000D+00 0.00000000D+00 0.00000000D+00 0.00000000D+00 0.00000000D+00
  <mgrwgt>
 0.3543247883D-04    6    2    0
 0.234164914228843D+03 0.000000000000000D+00 0.000000000000000D+00 0.234164914228843D+03
 0.234164914228843D+03 0.000000000000000D+00 0.000000000000000D+00 -.234164914228843D+03
 0.152723101740070D+03 0.397798198180882D+01 -.684864296260818D+02 0.101503098856794D+03
 0.120544496111457D+03 -.810853191167573D+02 -.295011972325344D+02 -.841773480714720D+02
 0.286888487946958D+02 -.255053087015252D+01 -.683633397029989D+01 0.277454388195941D+02
 0.166373381811462D+03 0.796578680051010D+02 0.104823960828916D+03 -.450711896049160D+02
 0.000000000000000D+00 0.000000000000000D+00 0.000000000000000D+00 -.000000000000000D+00
 0.251351650670829D+03 0.000000000000000D+00 0.000000000000000D+00 0.251351650670829D+03
 0.251721243426516D+03 0.000000000000000D+00 0.000000000000000D+00 -.251721243426516D+03
 0.156479022425713D+03 -.362746675341831D+01 -.765140217393354D+02 0.101503098856794D+03
 0.126381077032429D+03 -.871589507033097D+02 -.359119480929253D+02 -.841773480714720D+02
 0.292433917190428D+02 -.397549095583373D+01 -.834038701749647D+01 0.277454388195941D+02
 0.157425908978159D+03 0.716933725694779D+02 0.964173929890839D+02 -.450711896049160D+02
 0.335434939420013D+02 0.230685358430839D+02 0.243489638606734D+02 -.369592755686307D+00
0.104992393867D-05 0.000000000000D+00 0.000000000000D+00 0.245639939709D-08 0.000000000000D+00  7 3 -3 23 -11 11 23 21 0 0.23608618D-01 0.54972610D-01 0.33827601D+05 0.33827601D+05 0.33827601D+05 0.11625281D+01  1  2  2  1  7  1        3 0.234441514990D-04 0.100000000000D+01
-.541925879722D-07 0.000000000000D+00 -.403198437581D-08 0.245639939709D-08 0.000000000000D+00  7 3 -3 23 -11 11 23 21 2 0.23608618D-01 0.54972610D-01 0.33827601D+05 0.33827601D+05 0.33827601D+05 0.11625281D+01  1  2  3  1  7  1        3 -.163539801141D-05 0.100000000000D+01
0.685944130453D-07 0.000000000000D+00 0.000000000000D+00 0.245639939709D-08 0.000000000000D+00  7 3 -3 23 -11 11 23 21 2 0.23608618D-01 0.54972610D-01 0.33827601D+05 0.33827601D+05 0.33827601D+05 0.11625281D+01  1  2 15  1  7  1        3 0.207000940324D-05 0.100000000000D+01
0.139869903049D-05 0.000000000000D+00 0.000000000000D+00 0.245639939709D-08 0.000000000000D+00  7 3 -3 23 -11 11 23 21 2 0.26163085D-01 0.54972610D-01 0.41407347D+05 0.41407347D+05 0.41407347D+05 0.11545690D+01  1  2 12  1  7  1        3 0.348230169495D-04 0.100000000000D+01
-.109548561201D-05 0.000000000000D+00 0.000000000000D+00 0.245639939709D-08 0.000000000000D+00  7 3 -3 23 -11 11 23 21 2 0.23608618D-01 0.54972610D-01 0.33827601D+05 0.33827601D+05 0.33827601D+05 0.11625281D+01  1  2  4  1  7  1        3 -.330590410691D-04 0.100000000000D+01
0.232533388385D-07 0.000000000000D+00 0.000000000000D+00 0.245639939709D-08 0.000000000000D+00  7 21 -3 23 -11 11 23 -3 2 0.26163085D-01 0.54972610D-01 0.41407347D+05 0.41407347D+05 0.41407347D+05 0.11545690D+01  1  2 12  3  7  1        3 0.978974005439D-05 0.100000000000D+01
  </mgrwgt>
  </event>
  <event>
  8     66 0.56006291E-06 0.21072133E+03 0.75467711E-02 0.98948701E-01
        1 -1    0    0  501    0 0.00000000E+00 0.00000000E+00 0.75567332E+03 0.75567339E+03 0.32000000E+00 0.0000E+00 0.9000E+01
       -1 -1    0    0    0  501 0.00000000E+00 0.00000000E+00 -.66205600E+02 0.66206374E+02 0.32000000E+00 0.0000E+00 0.9000E+01
       25  2    1    2    0    0 -.44296003E+02 -.84429956E+02 0.48487169E+03 0.57804999E+03 0.29991781E+03 0.0000E+00 0.0000E+00
       23  2    1    2    0    0 0.44296003E+02 0.84429956E+02 0.20459603E+03 0.24382977E+03 0.92210982E+02 0.0000E+00 0.0000E+00
       23  1    3    3    0    0 -.83597896E+02 0.54201570E+02 0.14726589E+03 0.19982220E+03 0.91188000E+02 0.0000E+00 0.9000E+01
      -13  1    4    4    0    0 -.11000091E+02 0.48917044E+02 0.15075094E+03 0.15887019E+03 0.10565837E+00 0.0000E+00 0.9000E+01
       13  1    4    4    0    0 0.55296095E+02 0.35512912E+02 0.53845092E+02 0.84959579E+02 0.10565837E+00 0.0000E+00 0.9000E+01
       23  1    3    3    0    0 0.39301893E+02 -.13863153E+03 0.33760579E+03 0.37822779E+03 0.91188000E+02 0.0000E+00 0.9000E+01
#aMCatNLO 1  0  0  2  2 0.21797525D+03 0.00000000D+00  -5  7  0 0.00000000D+00 0.00000000D+00 0.00000000D+00 0.00000000D+00 0.00000000D+00
  <mgrwgt>
 0.1592274909D-03    5    2    0
 0.223674208263167D+03 0.000000000000000D+00 0.000000000000000D+00 0.223674208263167D+03
 0.223674208263167D+03 0.000000000000000D+00 0.000000000000000D+00 -.223674208263167D+03
 0.140147458509335D+03 -.835978963243236D+02 0.542015595407165D+02 -.374117823169069D+02
 0.595381049623834D+02 -.110001719562219D+02 0.489170664209476D+02 0.321076746622039D+02
 0.731021141639433D+02 0.552961823122288D+02 0.355129023253228D+02 -.320169499697121D+02
 0.174560738890671D+03 0.393018859683167D+02 -.138631528286987D+03 0.373210576244151D+02
 0.000000000000000D+00 0.000000000000000D+00 -.000000000000000D+00 -.000000000000000D+00
 0.286433406762176D+03 0.000000000000000D+00 0.000000000000000D+00 0.286433406762176D+03
 0.564564235366159D+03 0.000000000000000D+00 0.000000000000000D+00 -.564564235366159D+03
 0.186140137638403D+03 -.909060936149598D+02 0.129109798944867D+03 -.374117823169069D+02
 0.904730787081273D+02 -.143601259937316D+02 0.833562354005819D+02 0.321076746622039D+02
 0.959244479069041D+02 0.515103213798616D+02 0.743175713558017D+02 -.320169499697121D+02
 0.125090527017711D+03 0.325902898319567D+02 -.698383868086375D+02 0.373210576244151D+02
 0.353369450857190D+03 0.211656083968731D+02 -.216945218892613D+03 -.278130828603983D+03
0.112088771597D-05 0.000000000000D+00 0.000000000000D+00 0.889963146795D-07 0.000000000000D+00  7 1 -1 23 -13 13 23 21 0 0.11625750D+00 0.10185542D-01 0.44403478D+05 0.44403478D+05 0.44403478D+05 0.11518578D+01  1  2  2  2  7  2       -1 0.181254082755D-03 0.100000000000D+01
-.620021068358D-07 0.000000000000D+00 -.430450396583D-08 0.889963146795D-07 0.000000000000D+00  7 1 -1 23 -13 13 23 21 2 0.11625750D+00 0.10185542D-01 0.44403478D+05 0.44403478D+05 0.44403478D+05 0.11518578D+01  1  2  3  2  7  2       -1 -.133023950695D-04 0.100000000000D+01
0.726253373129D-07 0.000000000000D+00 0.000000000000D+00 0.889963146795D-07 0.000000000000D+00  7 1 -1 23 -13 13 23 21 2 0.11625750D+00 0.10185542D-01 0.44403478D+05 0.44403478D+05 0.44403478D+05 0.11518578D+01  1  2 15  2  7  2       -1 0.155815822768D-04 0.100000000000D+01
-.359662862793D-06 0.000000000000D+00 -.365004922980D-06 0.889963146795D-07 0.000000000000D+00  7 1 -1 23 -13 13 23 21 2 0.11625750D+00 0.32416212D-01 0.44403478D+05 0.44403478D+05 0.44403478D+05 0.11518578D+01  1  2  5  2  7  2       -1 -.123630738061D-04 0.100000000000D+01
-.318936743375D-07 0.000000000000D+00 -.486148160571D-07 0.889963146795D-07 0.000000000000D+00  7 1 21 23 -13 13 23 1 2 0.11625750D+00 0.32416212D-01 0.44403478D+05 0.44403478D+05 0.44403478D+05 0.11518578D+01  1  2  5  4  7  2       -1 -.119427052120D-04 0.100000000000D+01
  </mgrwgt>
  </event>
  <event>
  8     66 0.56006291E-06 0.21851352E+03 0.75467711E-02 0.97118178E-01
        3 -1    0    0  501    0 0.00000000E+00 0.00000000E+00 0.12257347E+03 0.12257449E+03 0.50000000E+00 0.0000E+00 0.9000E+01
       -3 -1    0    0    0  501 0.00000000E+00 0.00000000E+00 -.56428344E+03 0.56428366E+03 0.50000000E+00 0.0000E+00 0.9000E+01
       25  2    1    2    0    0 -.11157635E+03 0.16819446E+01 -.44450007E+03 0.54500751E+03 0.29495891E+03 0.0000E+00 0.0000E+00
       23  2    1    2    0    0 0.11157635E+03 -.16819446E+01 0.27900989E+01 0.14185064E+03 0.87531176E+02 0.0000E+00 0.0000E+00
       23  1    3    3    0    0 0.49616958E+02 -.29480139E+02 -.26103911E+03 0.28246697E+03 0.91188000E+02 0.0000E+00 0.9000E+01
      -11  1    4    4    0    0 0.11796889E+03 -.22004269E+02 -.19768444E+01 0.12001981E+03 0.51099893E-03 0.0000E+00 0.9000E+01
       11  1    4    4    0    0 -.63925337E+01 0.20322324E+02 0.47669433E+01 0.21830829E+02 0.51099893E-03 0.0000E+00 0.9000E+01
       23  1    3    3    0    0 -.16119331E+03 0.31162084E+02 -.18346097E+03 0.26254054E+03 0.91188000E+02 0.0000E+00 0.9000E+01
#aMCatNLO 1  0  0  1  2 0.31068676D+03 0.00000000D+00  -5  7  0 0.00000000D+00 0.00000000D+00 0.00000000D+00 0.00000000D+00 0.00000000D+00
  <mgrwgt>
 0.1581352804D-03    3    2    0
 0.262995444214873D+03 0.000000000000000D+00 0.000000000000000D+00 0.262995444214873D+03
 0.262995444214873D+03 0.000000000000000D+00 0.000000000000000D+00 -.262995444214873D+03
 0.149643583876317D+03 0.496169584922672D+02 -.294801393262456D+02 -.103667881557549D+03
 0.155066167149359D+03 0.117968887616619D+03 -.220042688581990D+02 0.982072802846438D+02
 0.325106187748662D+02 -.639253363686660D+01 0.203223242667350D+02 0.245576664857206D+02
 0.188770518629205D+03 -.161193312472019D+03 0.311620839177097D+02 -.190970652128153D+02
 0.000000000000000D+00 0.000000000000000D+00 -.000000000000000D+00 -.000000000000000D+00
 0.418046105683021D+03 0.000000000000000D+00 0.000000000000000D+00 0.418046105683021D+03
 0.519762426626596D+03 0.000000000000000D+00 0.000000000000000D+00 -.519762426626596D+03
 0.140614484553142D+03 -.260417592994188D+02 -.565500027470652D+01 -.103667881557549D+03
 0.109729532334053D+03 0.489471952720476D+02 -.269147438223484D+00 0.982072802846438D+02
 0.449654038001495D+02 -.265874469405427D+02 0.266817582042571D+02 0.245576664857206D+02
 0.315585558704487D+03 -.292658853905488D+03 0.725609457615255D+02 -.190970652128153D+02
 0.326913552917784D+03 0.296340864873402D+03 -.933185562528527D+02 -.101716320943575D+03
0.130142698116D-04 0.000000000000D+00 0.000000000000D+00 0.816043520633D-09 0.000000000000D+00  7 3 -3 23 -11 11 23 21 0 0.18857552D-01 0.86812933D-01 0.47748157D+05 0.47748157D+05 0.47748157D+05 0.11490599D+01  1  2  2  1  7  1        3 0.155924532412D-03 0.100000000000D+01
-.692834429190D-06 0.000000000000D+00 -.499782228125D-07 0.816043520633D-09 0.000000000000D+00  7 3 -3 23 -11 11 23 21 2 0.18857552D-01 0.86812933D-01 0.47748157D+05 0.47748157D+05 0.47748157D+05 0.11490599D+01  1  2  3  1  7  1        3 -.109599724690D-04 0.100000000000D+01
0.832586818577D-06 0.000000000000D+00 0.000000000000D+00 0.816043520633D-09 0.000000000000D+00  7 3 -3 23 -11 11 23 21 2 0.18857552D-01 0.86812933D-01 0.47748157D+05 0.47748157D+05 0.47748157D+05 0.11490599D+01  1  2 15  1  7  1        3 0.131707204856D-04 0.100000000000D+01
  </mgrwgt>
  </event>
  <event>
  8     66 0.56006291E-06 0.20075694E+03 0.75467711E-02 0.99127587E-01
        1 -1    0    0  501    0 0.00000000E+00 0.00000000E+00 0.68014084E+03 0.68014091E+03 0.32000000E+00 0.0000E+00 0.9000E+01
       -1 -1    0    0    0  501 0.00000000E+00 0.00000000E+00 -.17171730E+03 0.17171760E+03 0.32000000E+00 0.0000E+00 0.9000E+01
       25  2    1    2    0    0 0.26339013E+03 -.17055478E+02 0.34994036E+03 0.53086669E+03 0.29949280E+03 0.0000E+00 0.0000E+00
       23  2    1    2    0    0 -.26339013E+03 0.17055478E+02 0.15848318E+03 0.32099182E+03 0.90849211E+02 0.0000E+00 0.0000E+00
       23  1    3    3    0    0 0.23585392E+03 0.75873950E+02 0.25784861E+03 0.36903263E+03 0.91188000E+02 0.0000E+00 0.9000E+01
      -11  1    4    4    0    0 -.27872655E+02 -.41876406E+01 -.10786758E+02 0.30179056E+02 0.51099893E-03 0.0000E+00 0.9000E+01
       11  1    4    4    0    0 -.23551748E+03 0.21243118E+02 0.16926993E+03 0.29081276E+03 0.51099893E-03 0.0000E+00 0.9000E+01
       23  1    3    3    0    0 0.27536214E+02 -.92929428E+02 0.92091750E+02 0.16183406E+03 0.91188000E+02 0.0000E+00 0.9000E+01
#aMCatNLO 1  0  0  2  1 0.22387783D+02 0.00000000D+00  -5  7  0 0.00000000D+00 0.00000000D+00 0.00000000D+00 0.00000000D+00 0.00000000D+00
  <mgrwgt>
 0.1567240512D-03    9    2    0
 0.341748604489742D+03 0.000000000000000D+00 0.000000000000000D+00 0.341748604489742D+03
 0.341748604489742D+03 0.000000000000000D+00 0.000000000000000D+00 -.341748604489742D+03
 0.268131728730171D+03 0.235853919041266D+03 0.758739497009863D+02 0.468555785096927D+02
 0.456366565373762D+02 -.278726553094265D+02 -.418764061620032D+01 -.358926618124358D+02
 0.236534264350140D+03 -.235517478045034D+03 0.212431184239084D+02 -.535776694124471D+01
 0.133194559361797D+03 0.275362143131940D+02 -.929294275086945D+02 -.560514975601215D+01
 0.000000000000000D+00 0.000000000000000D+00 0.000000000000000D+00 -.000000000000000D+00
 0.349436301205039D+03 0.000000000000000D+00 0.000000000000000D+00 0.349436301205039D+03
 0.358629136932338D+03 0.000000000000000D+00 0.000000000000000D+00 -.358629136932338D+03
 0.261677200078344D+03 0.230686212073641D+03 0.689066906655582D+02 0.468555785096927D+02
 0.463151803089920D+02 -.287695449655249D+02 -.539685441245103D+01 -.358926618124358D+02
 0.240697913528335D+03 -.240172356278860D+03 0.149672706181752D+02 -.535776694124471D+01
 0.135173469923919D+03 0.249185775399773D+02 -.964586046802946D+02 -.560514975601215D+01
 0.242016742977867D+02 0.133371116307670D+02 0.179814978090122D+02 -.919283572729847D+01
0.276077658702D-05 0.000000000000D+00 0.000000000000D+00 0.455969199751D-06 0.000000000000D+00  7 1 -1 23 -11 11 23 21 0 0.10463708D+00 0.26418075D-01 0.10947550D+06 0.10947550D+06 0.10947550D+06 0.11185098D+01  1  2  2  2  7  2       -1 0.115952351277D-03 0.100000000000D+01
-.153181349820D-06 0.000000000000D+00 -.106021090233D-07 0.455969199751D-06 0.000000000000D+00  7 1 -1 23 -11 11 23 21 2 0.10463708D+00 0.26418075D-01 0.10947550D+06 0.10947550D+06 0.10947550D+06 0.11185098D+01  1  2  3  2  7  2       -1 -.804884955724D-05 0.100000000000D+01
0.172456517217D-06 0.000000000000D+00 0.000000000000D+00 0.455969199751D-06 0.000000000000D+00  7 1 -1 23 -11 11 23 21 2 0.10463708D+00 0.26418075D-01 0.10947550D+06 0.10947550D+06 0.10947550D+06 0.11185098D+01  1  2 15  2  7  2       -1 0.906165511586D-05 0.100000000000D+01
0.793706092704D-05 0.000000000000D+00 0.000000000000D+00 0.455969199751D-06 0.000000000000D+00  7 1 -1 23 -11 11 23 21 2 0.10463708D+00 0.28009236D-01 0.11723869D+06 0.11723869D+06 0.11723869D+06 0.11160977D+01  1  2 12  2  7  2       -1 0.376642803344D-03 0.100000000000D+01
-.752165535337D-05 0.000000000000D+00 0.000000000000D+00 0.455969199751D-06 0.000000000000D+00  7 1 -1 23 -11 11 23 21 2 0.10463708D+00 0.26418075D-01 0.10947550D+06 0.10947550D+06 0.10947550D+06 0.11185098D+01  1  2  4  2  7  2       -1 -.395222214924D-03 0.100000000000D+01
-.322399377183D-04 0.000000000000D+00 -.522215117149D-05 0.455969199751D-06 0.000000000000D+00  7 1 -1 23 -11 11 23 21 2 0.10463708D+00 0.28302336D-01 0.10947550D+06 0.10947550D+06 0.10947550D+06 0.11185098D+01  1  2  5  2  7  2       -1 -.151172493463D-02 0.100000000000D+01
0.325348456765D-04 0.000000000000D+00 0.520978178758D-05 0.455969199751D-06 0.000000000000D+00  7 1 -1 23 -11 11 23 21 2 0.10463708D+00 0.26418075D-01 0.10947550D+06 0.10947550D+06 0.10947550D+06 0.11185098D+01  1  2  6  2  7  2       -1 0.170952977322D-02 0.100000000000D+01
0.975287384942D-07 0.000000000000D+00 0.000000000000D+00 0.455969199751D-06 0.000000000000D+00  7 1 21 23 -11 11 23 1 2 0.10463708D+00 0.28009236D-01 0.11723869D+06 0.11723869D+06 0.11723869D+06 0.11160977D+01  1  2 12  4  7  2       -1 0.511638873553D-04 0.100000000000D+01
-.368160205748D-06 0.000000000000D+00 -.610129682599D-07 0.455969199751D-06 0.000000000000D+00  7 1 21 23 -11 11 23 1 2 0.10463708D+00 0.28302336D-01 0.10947550D+06 0.10947550D+06 0.10947550D+06 0.11185098D+01  1  2  5  4  7  2       -1 -.190630420003D-03 0.100000000000D+01
  </mgrwgt>
  </event>
  <event>
  8     66 0.56006291E-06 0.66446502E+02 0.75467711E-02 0.10956490E+00
        1 -1    0    0  501    0 0.00000000E+00 0.00000000E+00 0.13914628E+03 0.13914665E+03 0.32000000E+00 0.0000E+00 0.9000E+01
       -1 -1    0    0    0  501 0.00000000E+00 0.00000000E+00 -.40102066E+03 0.40102078E+03 0.32000000E+00 0.0000E+00 0.9000E+01
       25  2    1    2    0    0 -.12488439E+01 -.45664685E+02 -.30471124E+03 0.43008657E+03 0.30006448E+03 0.0000E+00 0.0000E+00
       23  2    1    2    0    0 0.12488439E+01 0.45664685E+02 0.42836861E+02 0.11008087E+03 0.90531636E+02 0.0000E+00 0.0000E+00
       23  1    3    3    0    0 0.42967571E+02 -.50631151E+01 0.56444587E+01 0.10108886E+03 0.91188000E+02 0.0000E+00 0.9000E+01
      -11  1    4    4    0    0 -.22307513E+02 0.39106232E+02 -.14864844E+02 0.47411878E+02 0.51099893E-03 0.0000E+00 0.9000E+01
       11  1    4    4    0    0 0.23556357E+02 0.65584531E+01 0.57701705E+02 0.62668988E+02 0.51099893E-03 0.0000E+00 0.9000E+01
       23  1    3    3    0    0 -.44216415E+02 -.40601570E+02 -.31035570E+03 0.32899770E+03 0.91188000E+02 0.0000E+00 0.9000E+01
#aMCatNLO 1  0  0  1  2 0.41073106D+02 0.00000000D+00  -5  7  0 0.00000000D+00 0.00000000D+00 0.00000000D+00 0.00000000D+00 0.00000000D+00
  <mgrwgt>
 0.1419320998D-03    9    2    0
 0.236221647001653D+03 0.000000000000000D+00 0.000000000000000D+00 0.236221647001653D+03
 0.236221647001653D+03 0.000000000000000D+00 0.000000000000000D+00 -.236221647001653D+03
 0.118708535536281D+03 0.429675713126029D+02 -.506311513751048D+01 0.624869406017707D+02
 0.459687557584019D+02 -.223075131353634D+02 0.391062322665325D+02 0.928460885590847D+01
 0.103636446697530D+03 0.235563570198983D+02 0.655845310701644D+01 0.100710465299710D+03
 0.204129556011093D+03 -.442164151971378D+02 -.406015702360384D+02 -.172482014757389D+03
 0.000000000000000D+00 0.000000000000000D+00 -.000000000000000D+00 0.000000000000000D+00
 0.262645096173687D+03 0.000000000000000D+00 0.000000000000000D+00 0.262645096173687D+03
 0.253630875352066D+03 0.000000000000000D+00 0.000000000000000D+00 -.253630875352066D+03
 0.117052182754808D+03 0.382769882728548D+02 0.402697984295153D+01 0.624869406017707D+02
 0.500527434837019D+02 -.242179111824210D+02 0.428084798445170D+02 0.928460885590847D+01
 0.103594954694517D+03 0.194333796905172D+02 0.145485590722609D+02 0.100710465299710D+03
 0.203525451692305D+03 -.523269252051750D+02 -.248838426767357D+02 -.172482014757389D+03
 0.420506389004208D+02 0.188344684242239D+02 -.365001760829937D+02 0.901422082162102D+01
0.123228950178D-05 0.000000000000D+00 0.000000000000D+00 0.314093102773D-06 0.000000000000D+00  7 1 -1 23 -11 11 23 21 0 0.21407158D-01 0.61695524D-01 0.19540995D+05 0.19540995D+05 0.19540995D+05 0.11850140D+01  1  2  2  1  7  1        1 0.987391163376D-04 0.100000000000D+01
-.455498831158D-07 0.000000000000D+00 -.473231615613D-08 0.314093102773D-06 0.000000000000D+00  7 1 -1 23 -11 11 23 21 2 0.21407158D-01 0.61695524D-01 0.19540995D+05 0.19540995D+05 0.19540995D+05 0.11850140D+01  1  2  3  1  7  1        1 -.512519856937D-05 0.100000000000D+01
0.764168757311D-07 0.000000000000D+00 0.000000000000D+00 0.314093102773D-06 0.000000000000D+00  7 1 -1 23 -11 11 23 21 2 0.21407158D-01 0.61695524D-01 0.19540995D+05 0.19540995D+05 0.19540995D+05 0.11850140D+01  1  2 15  1  7  1        1 0.859830224321D-05 0.100000000000D+01
0.150438927243D-05 0.000000000000D+00 0.000000000000D+00 0.314093102773D-06 0.000000000000D+00  7 1 -1 23 -11 11 23 21 2 0.24517163D-01 0.61695524D-01 0.25848669D+05 0.25848669D+05 0.25848669D+05 0.11733853D+01  1  2 12  1  7  1        1 0.139665987504D-03 0.100000000000D+01
-.144259141574D-05 0.000000000000D+00 0.000000000000D+00 0.314093102773D-06 0.000000000000D+00  7 1 -1 23 -11 11 23 21 2 0.21407158D-01 0.61695524D-01 0.19540995D+05 0.19540995D+05 0.19540995D+05 0.11850140D+01  1  2  4  1  7  1        1 -.162318033646D-03 0.100000000000D+01
-.325709255058D-05 0.000000000000D+00 -.108938107316D-05 0.314093102773D-06 0.000000000000D+00  7 1 -1 23 -11 11 23 21 2 0.25462626D-01 0.61695524D-01 0.19540995D+05 0.19540995D+05 0.19540995D+05 0.11850140D+01  1  2  5  1  7  1        1 -.294005535554D-03 0.100000000000D+01
0.341081859832D-05 0.000000000000D+00 0.107319033955D-05 0.314093102773D-06 0.000000000000D+00  7 1 -1 23 -11 11 23 21 2 0.21407158D-01 0.61695524D-01 0.19540995D+05 0.19540995D+05 0.19540995D+05 0.11850140D+01  1  2  6  1  7  1        1 0.383779746614D-03 0.100000000000D+01
0.316102905668D-07 0.000000000000D+00 0.000000000000D+00 0.314093102773D-06 0.000000000000D+00  7 21 -1 23 -11 11 23 -1 2 0.24517163D-01 0.61695524D-01 0.25848669D+05 0.25848669D+05 0.25848669D+05 0.11733853D+01  1  2 12  3  7  1        1 0.223081064320D-04 0.100000000000D+01
-.736575295997D-07 0.000000000000D+00 -.279116142901D-07 0.314093102773D-06 0.000000000000D+00  7 21 -1 23 -11 11 23 -1 2 0.25462626D-01 0.61695524D-01 0.19540995D+05 0.19540995D+05 0.19540995D+05 0.11850140D+01  1  2  5  3  7  1        1 -.497103915283D-04 0.100000000000D+01
  </mgrwgt>
  </event>
  <event>
  8     66 0.56006291E-06 0.88967340E+03 0.75467711E-02 0.87911401E-01
        1 -1    0    0  501    0 0.00000000E+00 0.00000000E+00 0.18664880E+04 0.18664880E+04 0.32000000E+00 0.0000E+00 0.9000E+01
       -1 -1    0    0    0  501 0.00000000E+00 0.00000000E+00 -.43915974E+03 0.43915986E+03 0.32000000E+00 0.0000E+00 0.9000E+01
       25  2    1    2    0    0 0.75636505E+03 -.41844421E+03 0.53959463E+03 0.10633587E+04 0.30395004E+03 0.0000E+00 0.0000E+00
       23  2    1    2    0    0 -.75636505E+03 0.41844421E+03 0.88773364E+03 0.12422892E+04 0.89598582E+02 0.0000E+00 0.0000E+00
       23  1    3    3    0    0 0.23848465E+03 -.26309623E+03 0.24461846E+03 0.44073574E+03 0.91188000E+02 0.0000E+00 0.9000E+01
      -13  1    4    4    0    0 -.35035577E+03 0.19088647E+03 0.34636009E+03 0.52834850E+03 0.10565837E+00 0.0000E+00 0.9000E+01
       13  1    4    4    0    0 -.40600928E+03 0.22755774E+03 0.54137355E+03 0.71394075E+03 0.10565837E+00 0.0000E+00 0.9000E+01
       23  1    3    3    0    0 0.51788040E+03 -.15534798E+03 0.29497618E+03 0.62262292E+03 0.91188000E+02 0.0000E+00 0.9000E+01
#aMCatNLO 1  0  0  2  2 0.11009885D+03 0.00000000D+00  -5  7  0 0.00000000D+00 0.00000000D+00 0.00000000D+00 0.00000000D+00 0.00000000D+00
  <mgrwgt>
 0.2874764240D-03    3    2    0
 0.905365432537993D+03 0.000000000000000D+00 0.000000000000000D+00 0.905365432537993D+03
 0.905365432537993D+03 0.000000000000000D+00 0.000000000000000D+00 -.905365432537993D+03
 0.368376448917740D+03 0.238484650947773D+03 -.263096230862464D+03 -.359360729842367D+02
 0.399736849719104D+03 -.350355694353790D+03 0.190886422677601D+03 0.245521912377613D+02
 0.482334750302575D+03 -.406009352944605D+03 0.227557791619686D+03 0.126572778053271D+03
 0.560282816136566D+03 0.517880396350622D+03 -.155347983434823D+03 -.115188896306795D+03
 0.000000000000000D+00 0.000000000000000D+00 0.000000000000000D+00 0.000000000000000D+00
 0.215853499477556D+04 0.000000000000000D+00 0.000000000000000D+00 0.215853499477556D+04
 0.909458939026343D+03 0.000000000000000D+00 0.000000000000000D+00 -.909458939026343D+03
 0.354922949356365D+03 0.216521016335170D+03 -.263594948319344D+03 -.359360729842367D+02
 0.421508996562860D+03 -.375293560661843D+03 0.190320170803331D+03 0.245521912377613D+02
 0.507591892212830D+03 -.436069362840051D+03 0.226875233748310D+03 0.126572778053271D+03
 0.530051138988940D+03 0.484771428400097D+03 -.156099772498311D+03 -.115188896306795D+03
 0.125391895668091D+04 0.110070478766627D+03 0.249931626601340D+01 0.124907605574922D+04
0.288087561391D-03 0.000000000000D+00 0.000000000000D+00 0.626545765436D-07 0.000000000000D+00  7 1 -1 23 -13 13 23 21 0 0.28715201D+00 0.67563049D-01 0.79151876D+06 0.79151876D+06 0.79151876D+06 0.10546907D+01  1  2  2  2  7  2       -1 0.284627154460D-03 0.100000000000D+01
-.159989157619D-04 0.000000000000D+00 -.110633209094D-05 0.626545765436D-07 0.000000000000D+00  7 1 -1 23 -13 13 23 21 2 0.28715201D+00 0.67563049D-01 0.79151876D+06 0.79151876D+06 0.79151876D+06 0.10546907D+01  1  2  3  2  7  2       -1 -.175829844225D-04 0.100000000000D+01
0.185914917589D-04 0.000000000000D+00 0.000000000000D+00 0.626545765436D-07 0.000000000000D+00  7 1 -1 23 -13 13 23 21 2 0.28715201D+00 0.67563049D-01 0.79151876D+06 0.79151876D+06 0.79151876D+06 0.10546907D+01  1  2 15  2  7  2       -1 0.204322539635D-04 0.100000000000D+01
  </mgrwgt>
  </event>
  <event>
  8     66 0.56006291E-06 0.24270813E+03 0.75467711E-02 0.96302854E-01
        1 -1    0    0  501    0 0.00000000E+00 0.00000000E+00 0.99290641E+03 0.99290646E+03 0.32000000E+00 0.0000E+00 0.9000E+01
       -1 -1    0    0    0  501 0.00000000E+00 0.00000000E+00 -.12147717E+03 0.12147759E+03 0.32000000E+00 0.0000E+00 0.9000E+01
       25  2    1    2    0    0 -.77026640E+02 0.14953826E+03 0.16036533E+03 0.37803520E+03 0.29815899E+03 0.0000E+00 0.0000E+00
       23  2    1    2    0    0 0.77026640E+02 -.14953826E+03 0.71106391E+03 0.73634886E+03 0.91120564E+02 0.0000E+00 0.0000E+00
       23  1    3    3    0    0 0.44968842E+02 0.27168319E+02 -.25592700E+02 0.10830767E+03 0.91188000E+02 0.0000E+00 0.9000E+01
      -11  1    4    4    0    0 0.23919645E+02 0.22133646E+01 0.17660604E+03 0.17823227E+03 0.51099893E-03 0.0000E+00 0.9000E+01
       11  1    4    4    0    0 0.53106995E+02 -.15175162E+03 0.53445787E+03 0.55811658E+03 0.51099893E-03 0.0000E+00 0.9000E+01
       23  1    3    3    0    0 -.12199548E+03 0.12236994E+03 0.18595803E+03 0.26972753E+03 0.91188000E+02 0.0000E+00 0.9000E+01
#aMCatNLO 1  0  0  2  1 0.27949125D+03 0.00000000D+00  -5  7  0 0.00000000D+00 0.00000000D+00 0.00000000D+00 0.00000000D+00 0.00000000D+00
  <mgrwgt>
 0.2884771649D-03    5    2    0
 0.347297747964783D+03 0.000000000000000D+00 0.000000000000000D+00 0.347297747964783D+03
 0.347297747964783D+03 0.000000000000000D+00 0.000000000000000D+00 -.347297747964783D+03
 0.205873162211873D+03 0.449688422075374D+02 0.271683191320296D+02 -.176941214083011D+03
 0.643821222025882D+02 0.239196453593423D+02 0.221336458102222D+01 0.597328154570314D+02
 0.224899252123726D+03 0.531069948318854D+02 -.151751620742976D+03 0.157260186657709D+03
 0.199440959391379D+03 -.121995482398765D+03 0.122369937029924D+03 -.400517880317296D+02
 0.000000000000000D+00 -.000000000000000D+00 -.000000000000000D+00 -.000000000000000D+00
 0.452945625555778D+03 0.000000000000000D+00 0.000000000000000D+00 0.452945625555778D+03
 0.622859263446574D+03 0.000000000000000D+00 0.000000000000000D+00 -.622859263446574D+03
 0.241358675066271D+03 0.130724431631201D+03 0.392643403010330D+02 -.176941214083011D+03
 0.790535532524214D+02 0.514230784062518D+02 0.609278644251878D+01 0.597328154570314D+02
 0.255054441689746D+03 0.145136918639482D+03 -.138770590421339D+03 0.157260186657709D+03
 0.173251073466232D+03 -.505327145740966D+02 0.132449923165081D+03 -.400517880317296D+02
 0.327087145527682D+03 -.276751714102838D+03 -.390364594872946D+02 -.169913637890796D+03
0.688702942637D-05 0.000000000000D+00 0.000000000000D+00 0.858046806372D-07 0.000000000000D+00  7 1 -1 23 -11 11 23 21 0 0.15275487D+00 0.18688832D-01 0.58907238D+05 0.58907238D+05 0.58907238D+05 0.11410850D+01  1  2  2  2  7  2       -1 0.279574168350D-03 0.100000000000D+01
-.322883100132D-06 0.000000000000D+00 -.264480063937D-07 0.858046806372D-07 0.000000000000D+00  7 1 -1 23 -11 11 23 21 2 0.15275487D+00 0.18688832D-01 0.58907238D+05 0.58907238D+05 0.58907238D+05 0.11410850D+01  1  2  3  2  7  2       -1 -.170665750633D-04 0.100000000000D+01
0.424777280313D-06 0.000000000000D+00 0.000000000000D+00 0.858046806372D-07 0.000000000000D+00  7 1 -1 23 -11 11 23 21 2 0.15275487D+00 0.18688832D-01 0.58907238D+05 0.58907238D+05 0.58907238D+05 0.11410850D+01  1  2 15  2  7  2       -1 0.224523777697D-04 0.100000000000D+01
-.553633485340D-06 0.000000000000D+00 -.210887878061D-05 0.858046806372D-07 0.000000000000D+00  7 1 -1 23 -11 11 23 21 2 0.15275487D+00 0.43225223D-01 0.58907238D+05 0.58907238D+05 0.58907238D+05 0.11410850D+01  1  2  5  2  7  2       -1 -.732389185835D-05 0.100000000000D+01
0.828145501478D-07 0.000000000000D+00 -.192564259792D-06 0.858046806372D-07 0.000000000000D+00  7 1 21 23 -11 11 23 1 2 0.15275487D+00 0.43225223D-01 0.58907238D+05 0.58907238D+05 0.58907238D+05 0.11410850D+01  1  2  5  4  7  2       -1 0.108410856989D-04 0.100000000000D+01
  </mgrwgt>
  </event>
  <event>
  8     66 0.56006291E-06 0.48694329E+03 0.75467711E-02 0.90192065E-01
        1 -1    0    0  501    0 0.00000000E+00 0.00000000E+00 0.13957167E+04 0.13957167E+04 0.32000000E+00 0.0000E+00 0.9000E+01
       -1 -1    0    0    0  501 0.00000000E+00 0.00000000E+00 -.27328236E+03 0.27328255E+03 0.32000000E+00 0.0000E+00 0.9000E+01
       25  2    1    2    0    0 -.27427500E+01 0.44006876E+03 0.10919206E+04 0.12151340E+04 0.30098492E+03 0.0000E+00 0.0000E+00
       23  2    1    2    0    0 0.27427500E+01 -.44006876E+03 0.30513706E+02 0.45386528E+03 0.10674536E+03 0.0000E+00 0.0000E+00
       23  1    3    3    0    0 -.61568510E+02 0.49195406E+02 0.34059700E+03 0.36129273E+03 0.91188000E+02 0.0000E+00 0.9000E+01
      -11  1    4    4    0    0 0.33849982E+02 -.36329679E+03 0.51308566E+02 0.36846024E+03 0.51099893E-03 0.0000E+00 0.9000E+01
       11  1    4    4    0    0 -.31107232E+02 -.76771969E+02 -.20794860E+02 0.85405043E+02 0.51099893E-03 0.0000E+00 0.9000E+01
       23  1    3    3    0    0 0.58825760E+02 0.39087336E+03 0.75132358E+03 0.85384122E+03 0.91188000E+02 0.0000E+00 0.9000E+01
#aMCatNLO 1  0  0  1  2 0.44729989D+03 0.00000000D+00  -5  7  0 0.00000000D+00 0.00000000D+00 0.00000000D+00 0.00000000D+00 0.00000000D+00
  <mgrwgt>
 0.2666119017D-03    3    2    0
 0.617596088424602D+03 0.000000000000000D+00 0.000000000000000D+00 0.617596088424602D+03
 0.617596088424602D+03 0.000000000000000D+00 0.000000000000000D+00 -.617596088424602D+03
 0.178676278313336D+03 -.615685104713029D+02 0.491954061872762D+02 0.131905616318331D+03
 0.451241012096606D+03 0.338499818814318D+02 -.363296792354956D+03 -.265495895239825D+03
 0.134296361565880D+03 -.311072318566141D+02 -.767719694250590D+02 -.105706752701284D+03
 0.470978524873382D+03 0.588257604464852D+02 0.390873355592738D+03 0.239297031622778D+03
 0.000000000000000D+00 -.000000000000000D+00 -.000000000000000D+00 -.000000000000000D+00
 0.843358692086386D+03 0.000000000000000D+00 0.000000000000000D+00 0.843358692086386D+03
 0.925023212372591D+03 0.000000000000000D+00 0.000000000000000D+00 -.925023212372591D+03
 0.167991941357786D+03 -.738332559879645D+00 0.500640016965285D+02 0.131905616318331D+03
 0.490295720925414D+03 0.199062261894305D+03 -.360937722409418D+03 -.265495895239825D+03
 0.131170212720828D+03 0.154744218026576D+02 -.761068289212631D+02 -.105706752701284D+03
 0.524230409234362D+03 0.233455948867691D+03 0.393366904069013D+03 0.239297031622778D+03
 0.454693620220587D+03 -.447254300004774D+03 -.638635443486030D+01 -.816645202862048D+02
0.499811040249D-04 0.000000000000D+00 0.000000000000D+00 0.640536458154D-08 0.000000000000D+00  7 1 -1 23 -11 11 23 21 0 0.21472566D+00 0.42043457D-01 0.23711377D+06 0.23711377D+06 0.23711377D+06 0.10921924D+01  1  2  2  1  7  1        1 0.262750937768D-03 0.100000000000D+01
-.258599508267D-05 0.000000000000D+00 -.191940599783D-06 0.640536458154D-08 0.000000000000D+00  7 1 -1 23 -11 11 23 21 2 0.21472566D+00 0.42043457D-01 0.23711377D+06 0.23711377D+06 0.23711377D+06 0.10921924D+01  1  2  3  1  7  1        1 -.162167710649D-04 0.100000000000D+01
0.320168076391D-05 0.000000000000D+00 0.000000000000D+00 0.640536458154D-08 0.000000000000D+00  7 1 -1 23 -11 11 23 21 2 0.21472566D+00 0.42043457D-01 0.23711377D+06 0.23711377D+06 0.23711377D+06 0.10921924D+01  1  2 15  1  7  1        1 0.200777349962D-04 0.100000000000D+01
  </mgrwgt>
  </event>
  <event>
  8     66 0.56006291E-06 0.45053311E+03 0.75467711E-02 0.85343900E-01
        1 -1    0    0  501    0 0.00000000E+00 0.00000000E+00 0.42567287E+04 0.42567287E+04 0.32000000E+00 0.0000E+00 0.9000E+01
       -1 -1    0    0    0  501 0.00000000E+00 0.00000000E+00 -.10555126E+04 0.10555126E+04 0.32000000E+00 0.0000E+00 0.9000E+01
       25  2    1    2    0    0 0.93011874E+03 -.45931100E+03 -.69168648E+03 0.12824718E+04 0.30036028E+03 0.0000E+00 0.0000E+00
       23  2    1    2    0    0 -.93011874E+03 0.45931100E+03 0.38929026E+04 0.40297696E+04 0.90909667E+02 0.0000E+00 0.0000E+00
       23  1    3    3    0    0 0.52897060E+03 -.31231879E+03 -.27650452E+03 0.67979624E+03 0.91188000E+02 0.0000E+00 0.9000E+01
      -11  1    4    4    0    0 -.46618118E+03 0.26547099E+03 0.21355080E+04 0.22018616E+04 0.51099893E-03 0.0000E+00 0.9000E+01
       11  1    4    4    0    0 -.46393756E+03 0.19384001E+03 0.17573946E+04 0.18279080E+04 0.51099893E-03 0.0000E+00 0.9000E+01
       23  1    3    3    0    0 0.40114814E+03 -.14699220E+03 -.41518195E+03 0.60267557E+03 0.91188000E+02 0.0000E+00 0.9000E+01
#aMCatNLO 1  0  0  1  2 0.36262249D+03 0.00000000D+00  -5  7  0 0.00000000D+00 0.00000000D+00 0.00000000D+00 0.00000000D+00 0.00000000D+00
  <mgrwgt>
 0.4444469599D-04    9    2    0
 0.211967708009453D+04 0.000000000000000D+00 0.000000000000000D+00 0.211967708009453D+04
 0.211967708009453D+04 0.000000000000000D+00 0.000000000000000D+00 -.211967708009453D+04
 0.106063147242966D+04 0.528970598896528D+03 -.312318794687272D+03 -.859808667642085D+03
 0.114654192744102D+04 -.466181182229747D+03 0.265470989729799D+03 0.101329099982528D+04
 0.963469560952685D+03 -.463937558304229D+03 0.193840006917319D+03 0.821864702122779D+03
 0.106871119936569D+04 0.401148141637448D+03 -.146992201959845D+03 -.975347034305976D+03
 0.000000000000000D+00 -.000000000000000D+00 0.000000000000000D+00 0.000000000000000D+00
 0.235054423244170D+04 0.000000000000000D+00 0.000000000000000D+00 0.235054423244170D+04
 0.227474956260092D+04 0.000000000000000D+00 0.000000000000000D+00 -.227474956260092D+04
 0.109360470309935D+04 0.533896800795992D+03 -.404152516315771D+03 -.859808667642085D+03
 0.112591766655103D+04 -.460984632800513D+03 0.168597478766949D+03 0.101329099982528D+04
 0.948305383092489D+03 -.459565804887549D+03 0.112342253782303D+03 0.821864702122779D+03
 0.108700699917942D+04 0.406077732554645D+03 -.238889101289402D+03 -.975347034305976D+03
 0.370459043120332D+03 -.194240956625744D+02 0.362101885055921D+03 0.757946698407740D+02
0.153817883005D-01 0.000000000000D+00 0.000000000000D+00 0.284046733860D-04 0.000000000000D+00  7 1 -1 23 -11 11 23 21 0 0.65488134D+00 0.16238656D+00 0.10995097D+07 0.10995097D+07 0.10995097D+07 0.10451324D+01  1  2  2  1  7  1        1 0.236066081957D-04 0.100000000000D+01
-.339844788868D-03 0.000000000000D+00 -.590701171918D-04 0.284046733860D-04 0.000000000000D+00  7 1 -1 23 -11 11 23 21 2 0.65488134D+00 0.16238656D+00 0.10995097D+07 0.10995097D+07 0.10995097D+07 0.10451324D+01  1  2  3  1  7  1        1 -.569704997994D-06 0.100000000000D+01
0.941414177995D-03 0.000000000000D+00 0.000000000000D+00 0.284046733860D-04 0.000000000000D+00  7 1 -1 23 -11 11 23 21 2 0.65488134D+00 0.16238656D+00 0.10995097D+07 0.10995097D+07 0.10995097D+07 0.10451324D+01  1  2 15  1  7  1        1 0.157815679379D-05 0.100000000000D+01
0.914886906586D-02 0.000000000000D+00 0.000000000000D+00 0.284046733860D-04 0.000000000000D+00  7 1 -1 23 -11 11 23 21 2 0.74798079D+00 0.16238656D+00 0.15403813D+07 0.15403813D+07 0.15403813D+07 0.10355979D+01  1  2 12  1  7  1        1 0.286017542996D-05 0.100000000000D+01
-.926436465150D-02 0.000000000000D+00 0.000000000000D+00 0.284046733860D-04 0.000000000000D+00  7 1 -1 23 -11 11 23 21 2 0.65488134D+00 0.16238656D+00 0.10995097D+07 0.10995097D+07 0.10995097D+07 0.10451324D+01  1  2  4  1  7  1        1 -.155304863222D-04 0.100000000000D+01
-.243787734782D-01 0.000000000000D+00 -.703001110976D-02 0.284046733860D-04 0.000000000000D+00  7 1 -1 23 -11 11 23 21 2 0.73394927D+00 0.16238656D+00 0.10995097D+07 0.10995097D+07 0.10995097D+07 0.10451324D+01  1  2  5  1  7  1        1 -.107131978516D-04 0.100000000000D+01
0.257810804491D-01 0.000000000000D+00 0.779284981719D-02 0.284046733860D-04 0.000000000000D+00  7 1 -1 23 -11 11 23 21 2 0.65488134D+00 0.16238656D+00 0.10995097D+07 0.10995097D+07 0.10995097D+07 0.10451324D+01  1  2  6  1  7  1        1 0.432185835024D-04 0.100000000000D+01
0.189043471144D-03 0.000000000000D+00 0.000000000000D+00 0.284046733860D-04 0.000000000000D+00  7 21 -1 23 -11 11 23 -1 2 0.74798079D+00 0.16238656D+00 0.15403813D+07 0.15403813D+07 0.15403813D+07 0.10355979D+01  1  2 12  3  7  1        1 0.234468796665D-08 0.100000000000D+01
-.413335881021D-03 0.000000000000D+00 -.127719732432D-03 0.284046733860D-04 0.000000000000D+00  7 21 -1 23 -11 11 23 -1 2 0.73394927D+00 0.16238656D+00 0.10995097D+07 0.10995097D+07 0.10995097D+07 0.10451324D+01  1  2  5  3  7  1        1 -.778344882130D-08 0.100000000000D+01
  </mgrwgt>
  </event>
  <event>
  8     66 0.56006291E-06 0.19246796E+03 0.75467711E-02 0.90620387E-01
        1 -1    0    0  501    0 0.00000000E+00 0.00000000E+00 0.11563242E+04 0.11563242E+04 0.32000000E+00 0.0000E+00 0.9000E+01
       -1 -1    0    0    0  501 0.00000000E+00 0.00000000E+00 -.11091274E+03 0.11091320E+03 0.32000000E+00 0.0000E+00 0.9000E+01
       25  2    1    2    0    0 -.19584727E+02 -.16271797E+02 0.11132407E+04 0.11532672E+04 0.30012011E+03 0.0000E+00 0.0000E+00
       23  2    1    2    0    0 0.19584727E+02 0.16271797E+02 -.67829212E+02 0.11397025E+03 0.87977744E+02 0.0000E+00 0.0000E+00
       23  1    3    3    0    0 -.23204641E+02 -.12658709E+03 0.55779113E+03 0.57966279E+03 0.91188000E+02 0.0000E+00 0.9000E+01
      -11  1    4    4    0    0 -.24911382E+02 -.15520654E+02 -.35332005E+01 0.29562665E+02 0.51099893E-03 0.0000E+00 0.9000E+01
       11  1    4    4    0    0 0.44496109E+02 0.31792451E+02 -.64296012E+02 0.84407587E+02 0.51099893E-03 0.0000E+00 0.9000E+01
       23  1    3    3    0    0 0.36199134E+01 0.11031529E+03 0.55544954E+03 0.57360440E+03 0.91188000E+02 0.0000E+00 0.9000E+01
#aMCatNLO 1  0  0  2  2 0.67450375D+03 0.00000000D+00  -5  7  0 0.00000000D+00 0.00000000D+00 0.00000000D+00 0.00000000D+00 0.00000000D+00
  <mgrwgt>
 0.2278431893D-03    5    2    0
 0.358122049041214D+03 0.000000000000000D+00 0.000000000000000D+00 0.358122049041214D+03
 0.358122049041214D+03 0.000000000000000D+00 0.000000000000000D+00 -.358122049041214D+03
 0.211449061848415D+03 -.232046405689683D+02 -.126587088206990D+03 0.140828648249976D+03
 0.574616453173326D+02 -.249113821424909D+02 -.155206540715104D+02 -.494001317763245D+02
 0.243185587944009D+03 0.444961093214129D+02 0.317924506153669D+02 -.236956887477025D+03
 0.204147802972672D+03 0.361991339004635D+01 0.110315291663133D+03 0.145528371003373D+03
 0.000000000000000D+00 0.000000000000000D+00 -.000000000000000D+00 -.000000000000000D+00
 0.791964996211260D+03 0.000000000000000D+00 0.000000000000000D+00 0.791964996211260D+03
 0.871003938391670D+03 0.000000000000000D+00 0.000000000000000D+00 -.871003938391670D+03
 0.173196212567919D+03 -.345511772192986D+02 0.255965757224828D+02 0.140828648249976D+03
 0.660992530415351D+02 -.285562683663085D+02 0.333658173902878D+02 -.494001317763245D+02
 0.360786803034504D+03 0.266797072339982D+02 0.270752181788008D+03 -.236956887477025D+03
 0.383767779009708D+03 -.137228336601696D+02 0.342922198073388D+03 0.145528371003373D+03
 0.679118886949264D+03 0.501505720117786D+02 -.672636772974167D+03 -.790389421804100D+02
0.507547426544D-05 0.000000000000D+00 0.000000000000D+00 0.138611823233D-06 0.000000000000D+00  7 1 -1 23 -11 11 23 21 0 0.17789607D+00 0.17063537D-01 0.37043917D+05 0.37043917D+05 0.37043917D+05 0.11589317D+01  1  2  2  2  7  2       -1 0.182588171799D-03 0.100000000000D+01
-.149783206157D-06 0.000000000000D+00 -.194911575823D-07 0.138611823233D-06 0.000000000000D+00  7 1 -1 23 -11 11 23 21 2 0.17789607D+00 0.17063537D-01 0.37043917D+05 0.37043917D+05 0.37043917D+05 0.11589317D+01  1  2  3  2  7  2       -1 -.723727104789D-05 0.100000000000D+01
0.317573753183D-06 0.000000000000D+00 0.000000000000D+00 0.138611823233D-06 0.000000000000D+00  7 1 -1 23 -11 11 23 21 2 0.17789607D+00 0.17063537D-01 0.37043917D+05 0.37043917D+05 0.37043917D+05 0.11589317D+01  1  2 15  2  7  2       -1 0.153446263333D-04 0.100000000000D+01
0.651780561282D-05 0.000000000000D+00 -.227919771262D-05 0.138611823233D-06 0.000000000000D+00  7 1 -1 23 -11 11 23 21 2 0.17789607D+00 0.96419893D-01 0.37043917D+05 0.37043917D+05 0.37043917D+05 0.11589317D+01  1  2  5  2  7  2       -1 0.151088956794D-04 0.100000000000D+01
0.126353999431D-05 0.000000000000D+00 -.483387005453D-06 0.138611823233D-06 0.000000000000D+00  7 1 21 23 -11 11 23 1 2 0.17789607D+00 0.96419893D-01 0.37043917D+05 0.37043917D+05 0.37043917D+05 0.11589317D+01  1  2  5  4  7  2       -1 0.220387665156D-04 0.100000000000D+01
  </mgrwgt>
  </event>
  <event>
  9     66 -.56006291E-06 0.15905200E+03 0.75467711E-02 0.10849783E+00
        1 -1    0    0  502    0 0.00000000E+00 0.00000000E+00 0.14029324E+03 0.14029361E+03 0.32000000E+00 0.0000E+00 0.9000E+01
       -1 -1    0    0    0  501 0.00000000E+00 0.00000000E+00 -.34776600E+03 0.34776615E+03 0.32000000E+00 0.0000E+00 0.9000E+01
       25  2    1    2    0    0 -.62419709E+02 -.14451777E+02 -.18884189E+03 0.35483366E+03 0.29349718E+03 0.0000E+00 0.0000E+00
       23  2    1    2    0    0 0.42498795E+02 0.30553413E+02 -.12063515E+02 0.10677240E+03 0.92277611E+02 0.0000E+00 0.0000E+00
       23  1    3    3    0    0 -.87139409E+02 -.15082640E+02 0.17176381E+02 0.12818363E+03 0.91188000E+02 0.0000E+00 0.9000E+01
      -13  1    4    4    0    0 0.54337148E+02 -.10359928E+02 -.27108581E+02 0.61601462E+02 0.10565837E+00 0.0000E+00 0.9000E+01
       13  1    4    4    0    0 -.11838353E+02 0.40913341E+02 0.15045066E+02 0.45170934E+02 0.10565837E+00 0.0000E+00 0.9000E+01
       23  1    3    3    0    0 0.24719700E+02 0.63086332E+00 -.20601827E+03 0.22665004E+03 0.91188000E+02 0.0000E+00 0.9000E+01
       21  1    1    2  502  501 0.19920914E+02 -.16101636E+02 -.65673626E+01 0.26453700E+02 0.75000000E+00 0.0000E+00 0.9000E+01
#aMCatNLO 2  0  0  1  2 0.25614556D+02 0.00000000D+00  -5  7  0 0.00000000D+00 0.00000000D+00 0.00000000D+00 0.00000000D+00 0.00000000D+00
  <mgrwgt>
 -.2507978831D-03    2    2    0
 0.207401222155913D+03 0.000000000000000D+00 0.000000000000000D+00 0.207401222155913D+03
 0.207401222155913D+03 0.000000000000000D+00 0.000000000000000D+00 -.207401222155913D+03
 0.147366676796284D+03 -.799894291367381D+02 -.208619319934225D+02 0.810441676239635D+02
 0.584342504122147D+02 0.570662686370911D+02 -.125655615606575D+02 -.330556715395353D+00
 0.553980850332715D+02 -.913118509887040D+01 0.387254327566450D+02 0.385475050016770D+02
 0.153603432070056D+03 0.320543455985174D+02 -.529793920256500D+01 -.119261115910245D+03
 0.000000000000000D+00 0.000000000000000D+00 -.000000000000000D+00 0.000000000000000D+00
 0.223641603266365D+03 0.000000000000000D+00 0.000000000000000D+00 0.223641603266365D+03
 0.218147998705168D+03 0.000000000000000D+00 0.000000000000000D+00 -.218147998705168D+03
 0.150679066909314D+03 -.871394522854816D+02 -.150827255556370D+02 0.810441676239635D+02
 0.553171794122613D+02 0.543374078040673D+02 -.103598833738947D+02 -.330556715395353D+00
 0.574453610570704D+02 -.118382636892189D+02 0.409135048357799D+02 0.385475050016770D+02
 0.152150949448685D+03 0.247193946661257D+02 0.630740295034768D+00 -.119261115910245D+03
 0.261970451442018D+02 0.199209135045076D+02 -.161016362012830D+02 0.549360456119702D+01
-.105165765274D-04 0.000000000000D+00 0.000000000000D+00 0.657010707395D-09 0.000000000000D+00  7 1 -1 23 -13 13 23 21 2 0.22067846D-01 0.50865532D-01 0.29761663D+05 0.29761663D+05 0.29761663D+05 0.11676575D+01  1  2 13  1  7  1        1 -.156758756622D-02 0.100000000000D+01
0.939522642035D-05 0.000000000000D+00 0.000000000000D+00 0.657010707395D-09 0.731226408546D-11  7 1 -1 23 -13 13 23 21 2 0.21583089D-01 0.53501198D-01 0.29761663D+05 0.29761663D+05 0.29761663D+05 0.11676575D+01  1  2  1  1  7  1        1 0.131678968314D-02 0.100000000000D+01
  </mgrwgt>
  </event>
  <event>
  8     66 0.56006291E-06 0.61060084E+03 0.75467711E-02 0.82622153E-01
        1 -1    0    0  501    0 0.00000000E+00 0.00000000E+00 0.28831576E+04 0.28831576E+04 0.32000000E+00 0.0000E+00 0.9000E+01
       -1 -1    0    0    0  501 0.00000000E+00 0.00000000E+00 -.13870844E+03 0.13870881E+03 0.32000000E+00 0.0000E+00 0.9000E+01
       25  2    1    2    0    0 -.38135314E+03 0.45079270E+03 0.15769149E+04 0.17102559E+04 0.29944989E+03 0.0000E+00 0.0000E+00
       23  2    1    2    0    0 0.38135314E+03 -.45079270E+03 0.11675342E+04 0.13116105E+04 0.92421476E+02 0.0000E+00 0.0000E+00
       23  1    3    3    0    0 -.16466304E+03 0.26589550E+03 0.53612848E+03 0.62734626E+03 0.91188000E+02 0.0000E+00 0.9000E+01
      -13  1    4    4    0    0 0.26461384E+03 -.36780816E+03 0.84856356E+03 0.96195814E+03 0.10565837E+00 0.0000E+00 0.9000E+01
       13  1    4    4    0    0 0.11673930E+03 -.82984537E+02 0.31897066E+03 0.34965238E+03 0.10565837E+00 0.0000E+00 0.9000E+01
       23  1    3    3    0    0 -.21669010E+03 0.18489720E+03 0.10407865E+04 0.10829096E+04 0.91188000E+02 0.0000E+00 0.9000E+01
#aMCatNLO 1  0  0  1  2 0.14917563D+04 0.00000000D+00  -5  7  0 0.00000000D+00 0.00000000D+00 0.00000000D+00 0.00000000D+00 0.00000000D+00
  <mgrwgt>
 0.1732197571D-03    3    2    0
 0.632391387927993D+03 0.000000000000000D+00 0.000000000000000D+00 0.632391387927993D+03
 0.632391387927993D+03 0.000000000000000D+00 0.000000000000000D+00 -.632391387927993D+03
 0.335535281274737D+03 -.164663036266247D+03 0.265895501205133D+03 -.803389106384231D+02
 0.457050783585306D+03 0.264614034295971D+03 -.367808534825589D+03 -.599309047070562D+02
 0.143268494053195D+03 0.116739106440274D+03 -.829841649741064D+02 0.338685390103744D+01
 0.328928216942749D+03 -.216690104469998D+03 0.184897198594563D+03 0.136882961444442D+03
 0.000000000000000D+00 -.000000000000000D+00 0.000000000000000D+00 -.000000000000000D+00
 0.135613441943391D+04 0.000000000000000D+00 0.000000000000000D+00 0.135613441943391D+04
 0.244868313902538D+04 0.000000000000000D+00 0.000000000000000D+00 -.244868313902538D+04
 0.153226863614489D+03 -.720491293962586D+02 0.593110679368190D+02 -.803389106384231D+02
 0.123027776476471D+04 0.584340286973291D+03 -.108098940520035D+04 -.599309047070562D+02
 0.367177281703047D+03 0.213461772122130D+03 -.298733589109045D+03 0.338685390103744D+01
 0.205081959001621D+03 -.115502299277459D+03 -.408121586265923D+02 0.136882961444442D+03
 0.184905368937543D+04 -.610250630421703D+03 0.136122408499917D+04 -.109254871959147D+04
0.109775994769D-03 0.000000000000D+00 0.000000000000D+00 0.478629903076D-06 0.000000000000D+00  7 1 -1 23 -13 13 23 21 0 0.44356274D+00 0.21339789D-01 0.37283338D+06 0.37283338D+06 0.37283338D+06 0.10776365D+01  1  2  2  1  7  1        1 0.171841303540D-03 0.100000000000D+01
-.608954910372D-05 0.000000000000D+00 -.421568724598D-06 0.478629903076D-06 0.000000000000D+00  7 1 -1 23 -13 13 23 21 2 0.44356274D+00 0.21339789D-01 0.37283338D+06 0.37283338D+06 0.37283338D+06 0.10776365D+01  1  2  3  1  7  1        1 -.110700589605D-04 0.100000000000D+01
0.684782516107D-05 0.000000000000D+00 0.000000000000D+00 0.478629903076D-06 0.000000000000D+00  7 1 -1 23 -13 13 23 21 2 0.44356274D+00 0.21339789D-01 0.37283338D+06 0.37283338D+06 0.37283338D+06 0.10776365D+01  1  2 15  1  7  1        1 0.124485125241D-04 0.100000000000D+01
  </mgrwgt>
  </event>
  <event>
  7     66 0.56006291E-06 0.32443978E+03 0.75467711E-02 0.88114053E-01
        3 -1    0    0  501    0 0.00000000E+00 0.00000000E+00 0.10898731E+04 0.10898732E+04 0.50000000E+00 0.0000E+00 0.9000E+01
       -3 -1    0    0    0  501 0.00000000E+00 0.00000000E+00 -.11655329E+03 0.11655436E+03 0.50000000E+00 0.0000E+00 0.9000E+01
       23  2    1    2    0    0 -.18278858E+02 -.24725177E+03 0.60460819E+03 0.65999053E+03 0.92568252E+02 0.0000E+00 0.0000E+00
       23  1    1    2    0    0 0.49220621E+02 -.27408312E+02 0.62981927E+02 0.12432160E+03 0.91188000E+02 0.0000E+00 0.9000E+01
      -13  1    3    3    0    0 0.90680806E+01 -.22922579E+02 0.15741603E+02 0.29248657E+02 0.10565837E+00 0.0000E+00 0.9000E+01
       13  1    3    3    0    0 -.27346939E+02 -.22432920E+03 0.58886659E+03 0.63074188E+03 0.10565837E+00 0.0000E+00 0.9000E+01
       23  1    1    2    0    0 -.30941763E+02 0.27466009E+03 0.30572969E+03 0.42211545E+03 0.91188000E+02 0.0000E+00 0.9000E+01
#aMCatNLO 1  0  0  1  2 0.81444793D+03 0.00000000D+00  -5  7  0 0.00000000D+00 0.00000000D+00 0.00000000D+00 0.00000000D+00 0.00000000D+00
  <mgrwgt>
 0.1803889692D-04    5    2    0
 0.356411296509694D+03 0.000000000000000D+00 0.000000000000000D+00 0.356411296509694D+03
 0.356411296509694D+03 0.000000000000000D+00 0.000000000000000D+00 -.356411296509694D+03
 0.124411527263405D+03 0.492205095859433D+02 -.274079170213476D+02 -.631595146645687D+02
 0.280077594046428D+02 0.906812616313651D+01 -.229223408366579D+02 -.132954866524653D+02
 0.263444614021859D+03 -.273470024746609D+02 -.224329681229562D+03 0.135393501440137D+03
 0.296958692329482D+03 -.309416332744189D+02 0.274659939087567D+03 -.589385001231032D+02
 0.000000000000000D+00 0.000000000000000D+00 0.000000000000000D+00 0.000000000000000D+00
 0.103006401429798D+04 0.000000000000000D+00 0.000000000000000D+00 0.103006401429798D+04
 0.880359748180147D+03 0.000000000000000D+00 0.000000000000000D+00 -.880359748180147D+03
 0.135860313257250D+03 -.683393659956101D+02 -.385146743074932D+02 -.631595146645687D+02
 0.346746741813256D+02 -.192443454387641D+02 -.255972309613506D+02 -.132954866524653D+02
 0.455223131791507D+03 -.351955652466476D+03 -.254997878780871D+03 0.135393501440137D+03
 0.456573381060142D+03 -.371297841680162D+03 0.242503952371054D+03 -.589385001231032D+02
 0.828092262187906D+03 0.810837205581012D+03 0.766058316786613D+02 0.149704266117836D+03
0.693037357459D-05 0.000000000000D+00 0.000000000000D+00 0.705784800928D-08 0.000000000000D+00  7 3 -3 23 -13 13 23 21 0 0.16767288D+00 0.17931367D-01 0.10526117D+06 0.10526117D+06 0.10526117D+06 0.11198992D+01  1  2  2  1  7  1        3 0.178305152078D-04 0.100000000000D+01
-.380885645405D-06 0.000000000000D+00 -.266144593357D-07 0.705784800928D-08 0.000000000000D+00  7 3 -3 23 -13 13 23 21 2 0.16767288D+00 0.17931367D-01 0.10526117D+06 0.10526117D+06 0.10526117D+06 0.11198992D+01  1  2  3  1  7  1        3 -.122902229083D-05 0.100000000000D+01
0.435525286747D-06 0.000000000000D+00 0.000000000000D+00 0.705784800928D-08 0.000000000000D+00  7 3 -3 23 -13 13 23 21 2 0.16767288D+00 0.17931367D-01 0.10526117D+06 0.10526117D+06 0.10526117D+06 0.11198992D+01  1  2 15  1  7  1        3 0.140533068676D-05 0.100000000000D+01
0.234489745938D-05 0.000000000000D+00 -.227321160169D-05 0.705784800928D-08 0.000000000000D+00  7 3 -3 23 -13 13 23 21 2 0.64749921D+00 0.17931367D-01 0.10526117D+06 0.10526117D+06 0.10526117D+06 0.11198992D+01  1  2  5  1  7  1        3 0.272153189617D-07 0.100000000000D+01
0.415773195897D-06 0.000000000000D+00 -.364799253356D-06 0.705784800928D-08 0.000000000000D+00  7 21 -3 23 -13 13 23 -3 2 0.64749921D+00 0.17931367D-01 0.10526117D+06 0.10526117D+06 0.10526117D+06 0.11198992D+01  1  2  5  3  7  1        3 0.485800116163D-08 0.100000000000D+01
  </mgrwgt>
  </event>
  <event>
  8     66 0.56006291E-06 0.19465424E+03 0.75467711E-02 0.92263830E-01
        1 -1    0    0  501    0 0.00000000E+00 0.00000000E+00 0.76536424E+03 0.76536431E+03 0.32000000E+00 0.0000E+00 0.9000E+01
       -1 -1    0    0    0  501 0.00000000E+00 0.00000000E+00 -.61731705E+02 0.61732535E+02 0.32000000E+00 0.0000E+00 0.9000E+01
       25  2    1    2    0    0 -.77206254E+02 -.30987899E+02 0.45844755E+03 0.55311276E+03 0.29805790E+03 0.0000E+00 0.0000E+00
       23  2    1    2    0    0 0.77206254E+02 0.30987899E+02 0.24518499E+03 0.27398408E+03 0.89613308E+02 0.0000E+00 0.0000E+00
       23  1    3    3    0    0 0.58778355E+02 0.50495702E+02 0.24029076E+03 0.26843921E+03 0.91188000E+02 0.0000E+00 0.9000E+01
      -11  1    4    4    0    0 0.95594566E+01 0.14100335E+02 0.17222737E+03 0.17306782E+03 0.51099893E-03 0.0000E+00 0.9000E+01
       11  1    4    4    0    0 0.67646797E+02 0.16887564E+02 0.72957619E+02 0.10091627E+03 0.51099893E-03 0.0000E+00 0.9000E+01
       23  1    3    3    0    0 -.13598461E+03 -.81483601E+02 0.21815679E+03 0.28467354E+03 0.91188000E+02 0.0000E+00 0.9000E+01
#aMCatNLO 1  0  0  2  1 0.55629424D+03 0.00000000D+00  -5  7  0 0.00000000D+00 0.00000000D+00 0.00000000D+00 0.00000000D+00 0.00000000D+00
  <mgrwgt>
 0.1913998162D-03    5    2    0
 0.217365154208905D+03 0.000000000000000D+00 0.000000000000000D+00 0.217365154208905D+03
 0.217365154208905D+03 0.000000000000000D+00 0.000000000000000D+00 -.217365154208905D+03
 0.121796958411333D+03 0.587783543802115D+02 0.504957017430143D+02 0.226834057426733D+02
 0.505119247094985D+02 0.955945668292487D+01 0.141003353258931D+02 0.475526221094347D+02
 0.739128870280741D+02 0.676467972643185D+02 0.168875637132078D+02 -.245323435598270D+02
 0.188508538268904D+03 -.135984608327455D+03 -.814836007821153D+02 -.457036842922810D+02
 0.000000000000000D+00 -.000000000000000D+00 -.000000000000000D+00 -.000000000000000D+00
 0.515839990897352D+03 0.000000000000000D+00 0.000000000000000D+00 0.515839990897352D+03
 0.828127915397366D+03 0.000000000000000D+00 0.000000000000000D+00 -.828127915397366D+03
 0.296773346395772D+03 0.205162700216477D+03 0.192750868560279D+03 0.226834057426733D+02
 0.103379847459055D+03 0.633792000802948D+02 0.664019426549913D+02 0.475526221094347D+02
 0.197175161392995D+03 0.162452965251882D+03 0.109019459137748D+03 -.245323435598270D+02
 0.108684198151119D+03 -.320489879346430D+02 0.195202253631559D+02 -.457036842922810D+02
 0.637955352895777D+03 -.398945877614010D+03 -.387692495716175D+03 -.312287924500014D+03
0.951053821441D-06 0.000000000000D+00 0.000000000000D+00 0.537915042091D-08 0.000000000000D+00  7 1 -1 23 -11 11 23 21 0 0.11774841D+00 0.94972544D-02 0.37890274D+05 0.37890274D+05 0.37890274D+05 0.11580426D+01  1  2  2  2  7  2       -1 0.167586901165D-03 0.100000000000D+01
-.520539956486D-07 0.000000000000D+00 -.365229709255D-08 0.537915042091D-08 0.000000000000D+00  7 1 -1 23 -11 11 23 21 2 0.11774841D+00 0.94972544D-02 0.37890274D+05 0.37890274D+05 0.37890274D+05 0.11580426D+01  1  2  3  2  7  2       -1 -.123009341699D-04 0.100000000000D+01
0.617698189683D-07 0.000000000000D+00 0.000000000000D+00 0.537915042091D-08 0.000000000000D+00  7 1 -1 23 -11 11 23 21 2 0.11774841D+00 0.94972544D-02 0.37890274D+05 0.37890274D+05 0.37890274D+05 0.11580426D+01  1  2 15  2  7  2       -1 0.145968905432D-04 0.100000000000D+01
0.137942881092D-05 0.000000000000D+00 -.617805564256D-06 0.537915042091D-08 0.000000000000D+00  7 1 -1 23 -11 11 23 21 2 0.11774841D+00 0.84636901D-01 0.37890274D+05 0.37890274D+05 0.37890274D+05 0.11580426D+01  1  2  5  2  7  2       -1 0.832561665656D-05 0.100000000000D+01
0.277035175969D-06 0.000000000000D+00 -.162652330107D-06 0.537915042091D-08 0.000000000000D+00  7 1 21 23 -11 11 23 1 2 0.11774841D+00 0.84636901D-01 0.37890274D+05 0.37890274D+05 0.37890274D+05 0.11580426D+01  1  2  5  4  7  2       -1 0.131913420384D-04 0.100000000000D+01
  </mgrwgt>
  </event>
  <event>
  8     66 0.56006291E-06 0.38009222E+03 0.75467711E-02 0.95879139E-01
        3 -1    0    0  501    0 0.00000000E+00 0.00000000E+00 0.27293908E+03 0.27293954E+03 0.50000000E+00 0.0000E+00 0.9000E+01
       -3 -1    0    0    0  501 0.00000000E+00 0.00000000E+00 -.57280896E+03 0.57280918E+03 0.50000000E+00 0.0000E+00 0.9000E+01
       25  2    1    2    0    0 0.20561892E+03 -.26018431E+03 -.17645697E+03 0.48096150E+03 0.30035294E+03 0.0000E+00 0.0000E+00
       23  2    1    2    0    0 -.20561892E+03 0.26018431E+03 -.12341291E+03 0.36478722E+03 0.88678957E+02 0.0000E+00 0.0000E+00
       23  1    3    3    0    0 0.21155224E+03 -.15393306E+03 -.19611193E+03 0.33944790E+03 0.91188000E+02 0.0000E+00 0.9000E+01
      -13  1    4    4    0    0 -.15776823E+03 0.13049854E+03 -.81123186E+02 0.22023094E+03 0.10565837E+00 0.0000E+00 0.9000E+01
       13  1    4    4    0    0 -.47850683E+02 0.12968577E+03 -.42289721E+02 0.14455628E+03 0.10565837E+00 0.0000E+00 0.9000E+01
       23  1    3    3    0    0 -.59333190E+01 -.10625125E+03 0.19654954E+02 0.14151361E+03 0.91188000E+02 0.0000E+00 0.9000E+01
#aMCatNLO 1  0  0  2  1 0.12621436D+03 0.00000000D+00  -5  7  0 0.00000000D+00 0.00000000D+00 0.00000000D+00 0.00000000D+00 0.00000000D+00
  <mgrwgt>
 0.5358145994D-05    4    2    0
 0.395401364403521D+03 0.000000000000000D+00 0.000000000000000D+00 0.395401364403521D+03
 0.395401364403521D+03 0.000000000000000D+00 0.000000000000000D+00 -.395401364403521D+03
 0.288668155291652D+03 0.211552236958269D+03 -.153933058364915D+03 -.810204734364180D+02
 0.204771308839793D+03 -.157768390551175D+03 0.130498538965741D+03 -.324887590722479D+01
 0.138564015270006D+03 -.478505274130940D+02 0.129685767485047D+03 0.958723452564307D+01
 0.158799249405591D+03 -.593331899400027D+01 -.106251248085872D+03 0.746821148179997D+02
 0.000000000000000D+00 -.000000000000000D+00 -.000000000000000D+00 0.000000000000000D+00
 0.562449379569812D+03 0.000000000000000D+00 0.000000000000000D+00 0.562449379569812D+03
 0.424982550510773D+03 0.000000000000000D+00 0.000000000000000D+00 -.424982550510773D+03
 0.314461537379907D+03 0.255916483844265D+03 -.136063379820807D+03 -.810204734364180D+02
 0.191788076981598D+03 -.128598779584733D+03 0.142247900395599D+03 -.324887590722479D+01
 0.140967094581465D+03 -.272891335363706D+02 0.137967785659276D+03 0.958723452564307D+01
 0.153594767353284D+03 0.170453627946706D+02 -.969955594231956D+02 0.746821148179997D+02
 0.186620453784331D+03 -.117073933517832D+03 -.471567468108723D+02 0.137466829059039D+03
0.229059778812D-05 0.000000000000D+00 0.000000000000D+00 0.229354309682D-07 0.000000000000D+00  7 3 -3 23 -13 13 23 21 0 0.41990680D-01 0.88124508D-01 0.14447010D+06 0.14447010D+06 0.14447010D+06 0.11088416D+01  1  2  2  2  7  2       -3 0.610608588383D-05 0.100000000000D+01
-.127014177850D-06 0.000000000000D+00 -.879649863462D-08 0.229354309682D-07 0.000000000000D+00  7 3 -3 23 -13 13 23 21 2 0.41990680D-01 0.88124508D-01 0.14447010D+06 0.14447010D+06 0.14447010D+06 0.11088416D+01  1  2  3  2  7  2       -3 -.416298893996D-06 0.100000000000D+01
0.149871094308D-06 0.000000000000D+00 0.000000000000D+00 0.229354309682D-07 0.000000000000D+00  7 3 -3 23 -13 13 23 21 2 0.41990680D-01 0.88124508D-01 0.14447010D+06 0.14447010D+06 0.14447010D+06 0.11088416D+01  1  2 15  2  7  2       -3 0.491214223943D-06 0.100000000000D+01
-.251055865821D-06 0.000000000000D+00 0.000000000000D+00 0.229354309682D-07 0.000000000000D+00  7 3 -3 23 -13 13 23 21 2 0.41990680D-01 0.88124508D-01 0.14447010D+06 0.14447010D+06 0.14447010D+06 0.11088416D+01  1  2  4  2  7  2       -3 -.822855220117D-06 0.100000000000D+01
  </mgrwgt>
  </event>
  <event>
  8     66 0.56006291E-06 0.39210045E+03 0.75467711E-02 0.95137518E-01
        3 -1    0    0  501    0 0.00000000E+00 0.00000000E+00 0.11772434E+04 0.11772435E+04 0.50000000E+00 0.0000E+00 0.9000E+01
       -3 -1    0    0    0  501 0.00000000E+00 0.00000000E+00 -.15160161E+03 0.15160244E+03 0.50000000E+00 0.0000E+00 0.9000E+01
       25  2    1    2    0    0 -.30323092E+03 0.19958761E+03 0.53627683E+03 0.71245044E+03 0.29699931E+03 0.0000E+00 0.0000E+00
       23  2    1    2    0    0 0.30323092E+03 -.19958761E+03 0.48936491E+03 0.61639546E+03 0.93172648E+02 0.0000E+00 0.0000E+00
       23  1    3    3    0    0 -.10982565E+03 0.13645877E+03 0.41277131E+03 0.45757849E+03 0.91188000E+02 0.0000E+00 0.9000E+01
      -13  1    4    4    0    0 0.73079276E+02 -.60382360E+02 0.19998074E+03 0.22131181E+03 0.10565837E+00 0.0000E+00 0.9000E+01
       13  1    4    4    0    0 0.23015164E+03 -.13920525E+03 0.28938417E+03 0.39508364E+03 0.10565837E+00 0.0000E+00 0.9000E+01
       23  1    3    3    0    0 -.19340527E+03 0.63128835E+02 0.12350552E+03 0.25487195E+03 0.91188000E+02 0.0000E+00 0.9000E+01
#aMCatNLO 1  0  0  2  2 0.16262360D+03 0.00000000D+00  -5  7  0 0.00000000D+00 0.00000000D+00 0.00000000D+00 0.00000000D+00 0.00000000D+00
  <mgrwgt>
 0.2459509937D-04    4    2    0
 0.422460187767559D+03 0.000000000000000D+00 0.000000000000000D+00 0.422460187767559D+03
 0.422460187767559D+03 0.000000000000000D+00 0.000000000000000D+00 -.422460187767559D+03
 0.218595528341611D+03 -.109825651276854D+03 0.136458771009984D+03 0.937341122698022D+02
 0.105312312595842D+03 0.730790747074364D+02 -.603822583440911D+02 0.458706322330175D+02
 0.270085778102568D+03 0.230151842155846D+03 -.139205347411173D+03 -.244607509630117D+02
 0.250926756495096D+03 -.193405265586429D+03 0.631288347452803D+02 -.115143993539808D+03
 0.000000000000000D+00 -.000000000000000D+00 0.000000000000000D+00 0.000000000000000D+00
 0.779189661027708D+03 0.000000000000000D+00 0.000000000000000D+00 0.779189661027708D+03
 0.449159922575102D+03 0.000000000000000D+00 0.000000000000000D+00 -.449159922575102D+03
 0.189153117124443D+03 -.818814578314399D+02 0.109421174524329D+03 0.937341122698022D+02
 0.125435132897285D+03 0.888928642211329D+02 -.756829991085587D+02 0.458706322330175D+02
 0.325509149178893D+03 0.270969684343984D+03 -.178698931244746D+03 -.244607509630117D+02
 0.220330910657466D+03 -.161108615284884D+03 0.318799887051456D+02 -.115143993539808D+03
 0.367921273744721D+03 -.116872475448793D+03 0.113080767123830D+03 0.330029738452606D+03
0.205328179117D-04 0.000000000000D+00 0.000000000000D+00 0.120866712771D-07 0.000000000000D+00  7 3 -3 23 -13 13 23 21 0 0.18111443D+00 0.23323397D-01 0.15374276D+06 0.15374276D+06 0.15374276D+06 0.11067082D+01  1  2  2  2  7  2       -3 0.256215168908D-04 0.100000000000D+01
-.113299829279D-05 0.000000000000D+00 -.788514271962D-07 0.120866712771D-07 0.000000000000D+00  7 3 -3 23 -13 13 23 21 2 0.18111443D+00 0.23323397D-01 0.15374276D+06 0.15374276D+06 0.15374276D+06 0.11067082D+01  1  2  3  2  7  2       -3 -.173161692197D-05 0.100000000000D+01
0.129046784592D-05 0.000000000000D+00 0.000000000000D+00 0.120866712771D-07 0.000000000000D+00  7 3 -3 23 -13 13 23 21 2 0.18111443D+00 0.23323397D-01 0.15374276D+06 0.15374276D+06 0.15374276D+06 0.11067082D+01  1  2 15  2  7  2       -3 0.197228537190D-05 0.100000000000D+01
-.829055330075D-06 0.000000000000D+00 0.000000000000D+00 0.120866712771D-07 0.000000000000D+00  7 3 -3 23 -13 13 23 21 2 0.18111443D+00 0.23323397D-01 0.15374276D+06 0.15374276D+06 0.15374276D+06 0.11067082D+01  1  2  4  2  7  2       -3 -.126708596821D-05 0.100000000000D+01
  </mgrwgt>
  </event>
  <event>
  8     66 0.56006291E-06 0.20225402E+03 0.75467711E-02 0.10529245E+00
        1 -1    0    0  501    0 0.00000000E+00 0.00000000E+00 0.28348651E+03 0.28348669E+03 0.32000000E+00 0.0000E+00 0.9000E+01
       -1 -1    0    0    0  501 0.00000000E+00 0.00000000E+00 -.16643186E+03 0.16643217E+03 0.32000000E+00 0.0000E+00 0.9000E+01
       25  2    1    2    0    0 0.11971018E+02 0.81636207E+02 0.11093805E+03 0.32795650E+03 0.29738937E+03 0.0000E+00 0.0000E+00
       23  2    1    2    0    0 -.11971018E+02 -.81636207E+02 0.61165908E+01 0.12196236E+03 0.89608202E+02 0.0000E+00 0.0000E+00
       23  1    3    3    0    0 0.94133000E+02 0.11564681E+03 0.96812685E+02 0.19980779E+03 0.91188000E+02 0.0000E+00 0.9000E+01
      -11  1    4    4    0    0 0.22656725E+02 -.52199490E+02 0.36214759E+02 0.67450891E+02 0.51099893E-03 0.0000E+00 0.9000E+01
       11  1    4    4    0    0 -.34627743E+02 -.29436717E+02 -.30098169E+02 0.54511473E+02 0.51099893E-03 0.0000E+00 0.9000E+01
       23  1    3    3    0    0 -.82161982E+02 -.34010606E+02 0.14125367E+02 0.12814870E+03 0.91188000E+02 0.0000E+00 0.9000E+01
#aMCatNLO 1  0  0  2  1 0.24257053D+02 0.00000000D+00  -5  7  0 0.00000000D+00 0.00000000D+00 0.00000000D+00 0.00000000D+00 0.00000000D+00
  <mgrwgt>
 0.2391254985D-03    4    2    0
 0.217212563624677D+03 0.000000000000000D+00 0.000000000000000D+00 0.217212563624677D+03
 0.217212563624677D+03 0.000000000000000D+00 0.000000000000000D+00 -.217212563624677D+03
 0.180848011704344D+03 0.941329995770862D+02 0.115646813508400D+03 0.464278462712641D+02
 0.600985547676612D+02 0.226567250282142D+02 -.521994897110421D+02 0.193319003221174D+02
 0.645654873587746D+02 -.346277427562941D+02 -.294367175602162D+02 -.458595818642088D+02
 0.128913073418574D+03 -.821619818490062D+02 -.340106062371418D+02 -.199001647291728D+02
 0.000000000000000D+00 0.000000000000000D+00 0.000000000000000D+00 0.000000000000000D+00
 0.282130990528927D+03 0.000000000000000D+00 0.000000000000000D+00 0.282130990528927D+03
 0.219828721219307D+03 0.000000000000000D+00 0.000000000000000D+00 -.219828721219307D+03
 0.174936409518678D+03 0.843276404311309D+02 0.114108720881519D+03 0.464278462712641D+02
 0.593940443380708D+02 0.193635289813279D+02 -.527160685005787D+02 0.193319003221174D+02
 0.668309299758077D+02 -.382490060427205D+02 -.300047577796451D+02 -.458595818642088D+02
 0.133940438504478D+03 -.894061806768283D+02 -.351469489900057D+02 -.199001647291728D+02
 0.668578894111992D+02 0.239640173070900D+02 0.375905438871068D+01 0.623022693096194D+02
0.176416135714D-05 0.000000000000D+00 0.000000000000D+00 0.269501841547D-08 0.000000000000D+00  7 1 -1 23 -11 11 23 21 0 0.43613346D-01 0.25604940D-01 0.40906687D+05 0.40906687D+05 0.40906687D+05 0.11550432D+01  1  2  2  2  7  2       -1 0.257246524445D-03 0.100000000000D+01
-.974022841721D-07 0.000000000000D+00 -.677484412575D-08 0.269501841547D-08 0.000000000000D+00  7 1 -1 23 -11 11 23 21 2 0.43613346D-01 0.25604940D-01 0.40906687D+05 0.40906687D+05 0.40906687D+05 0.11550432D+01  1  2  3  2  7  2       -1 -.189485855131D-04 0.100000000000D+01
0.110883249739D-06 0.000000000000D+00 0.000000000000D+00 0.269501841547D-08 0.000000000000D+00  7 1 -1 23 -11 11 23 21 2 0.43613346D-01 0.25604940D-01 0.40906687D+05 0.40906687D+05 0.40906687D+05 0.11550432D+01  1  2 15  2  7  2       -1 0.215711649630D-04 0.100000000000D+01
-.106629307176D-06 0.000000000000D+00 0.000000000000D+00 0.269501841547D-08 0.000000000000D+00  7 1 -1 23 -11 11 23 21 2 0.43613346D-01 0.25604940D-01 0.40906687D+05 0.40906687D+05 0.40906687D+05 0.11550432D+01  1  2  4  2  7  2       -1 -.207436053723D-04 0.100000000000D+01
  </mgrwgt>
  </event>
  <event>
  8     66 0.56006291E-06 0.79088207E+02 0.75467711E-02 0.10745165E+00
        1 -1    0    0  501    0 0.00000000E+00 0.00000000E+00 0.13344168E+03 0.13344206E+03 0.32000000E+00 0.0000E+00 0.9000E+01
       -1 -1    0    0    0  501 0.00000000E+00 0.00000000E+00 -.34070141E+03 0.34070156E+03 0.32000000E+00 0.0000E+00 0.9000E+01
       25  2    1    2    0    0 0.40478654E+02 -.32277873E+02 -.20940564E+03 0.36845458E+03 0.29871001E+03 0.0000E+00 0.0000E+00
       23  2    1    2    0    0 -.40478654E+02 0.32277873E+02 0.21459156E+01 0.10568904E+03 0.92115069E+02 0.0000E+00 0.0000E+00
       23  1    3    3    0    0 0.48622954E+02 0.78831093E+02 -.21508749E+02 0.13174373E+03 0.91188000E+02 0.0000E+00 0.9000E+01
      -11  1    4    4    0    0 -.48835771E+02 0.13999057E+02 -.36209849E+02 0.62386371E+02 0.51099893E-03 0.0000E+00 0.9000E+01
       11  1    4    4    0    0 0.83571176E+01 0.18278816E+02 0.38355765E+02 0.43302670E+02 0.51099893E-03 0.0000E+00 0.9000E+01
       23  1    3    3    0    0 -.81443001E+01 -.11110897E+03 -.18789690E+03 0.23671085E+03 0.91188000E+02 0.0000E+00 0.9000E+01
#aMCatNLO 1  0  0  2  1 0.23122290D+02 0.00000000D+00  -5  7  0 0.00000000D+00 0.00000000D+00 0.00000000D+00 0.00000000D+00 0.00000000D+00
  <mgrwgt>
 0.1704493773D-03    9    2    0
 0.213222640974596D+03 0.000000000000000D+00 0.000000000000000D+00 0.213222640974596D+03
 0.213222640974596D+03 0.000000000000000D+00 0.000000000000000D+00 -.213222640974596D+03
 0.136025779210508D+03 0.486229538893262D+02 0.788310924011362D+02 0.401151902867954D+02
 0.517657417531608D+02 -.488357709649715D+02 0.139990569983784D+02 -.993910945044543D+01
 0.667876779867661D+02 0.835711685582207D+01 0.182788161655191D+02 0.636917373629363D+02
 0.171866082998757D+03 -.814429978017675D+01 -.111108965565034D+03 -.938678181992863D+02
 0.000000000000000D+00 -.000000000000000D+00 -.000000000000000D+00 -.000000000000000D+00
 0.218240636589963D+03 0.000000000000000D+00 0.000000000000000D+00 0.218240636589963D+03
 0.241945155334152D+03 0.000000000000000D+00 0.000000000000000D+00 -.241945155334152D+03
 0.141247412388147D+03 0.525181857662940D+02 0.852536910310548D+02 0.401151902867954D+02
 0.511176559918470D+02 -.473904285999326D+02 0.163821895529129D+02 -.993910945044543D+01
 0.679681831087845D+02 0.102502148604334D+02 0.214002243473044D+02 0.636917373629363D+02
 0.166738427249049D+03 -.338746384375693D+01 -.103265723125824D+03 -.938678181992863D+02
 0.331141131862879D+02 -.119905081830378D+02 -.197703818054484D+02 -.237045187441885D+02
0.111299109320D-05 0.000000000000D+00 0.000000000000D+00 0.245269073837D-07 0.000000000000D+00  7 1 -1 23 -11 11 23 21 0 0.20529530D-01 0.52415642D-01 0.29729583D+05 0.29729583D+05 0.29729583D+05 0.11677010D+01  1  2  2  2  7  2       -1 0.126540218434D-03 0.100000000000D+01
-.584415839452D-07 0.000000000000D+00 -.427417885516D-08 0.245269073837D-07 0.000000000000D+00  7 1 -1 23 -11 11 23 21 2 0.20529530D-01 0.52415642D-01 0.29729583D+05 0.29729583D+05 0.29729583D+05 0.11677010D+01  1  2  3  2  7  2       -1 -.905987357037D-05 0.100000000000D+01
0.730152820635D-07 0.000000000000D+00 0.000000000000D+00 0.245269073837D-07 0.000000000000D+00  7 1 -1 23 -11 11 23 21 2 0.20529530D-01 0.52415642D-01 0.29729583D+05 0.29729583D+05 0.29729583D+05 0.11677010D+01  1  2 15  2  7  2       -1 0.113191528967D-04 0.100000000000D+01
0.354561948281D-05 0.000000000000D+00 0.000000000000D+00 0.245269073837D-07 0.000000000000D+00  7 1 -1 23 -11 11 23 21 2 0.20529530D-01 0.60038229D-01 0.34267581D+05 0.34267581D+05 0.34267581D+05 0.11620143D+01  1  2 12  2  7  2       -1 0.426049510386D-03 0.100000000000D+01
-.360419622727D-05 0.000000000000D+00 0.000000000000D+00 0.245269073837D-07 0.000000000000D+00  7 1 -1 23 -11 11 23 21 2 0.20529530D-01 0.52415642D-01 0.29729583D+05 0.29729583D+05 0.29729583D+05 0.11677010D+01  1  2  4  2  7  2       -1 -.558738486153D-03 0.100000000000D+01
-.615477197033D-05 0.000000000000D+00 -.102950458956D-05 0.245269073837D-07 0.000000000000D+00  7 1 -1 23 -11 11 23 21 2 0.20529530D-01 0.60495127D-01 0.29729583D+05 0.29729583D+05 0.29729583D+05 0.11677010D+01  1  2  5  2  7  2       -1 -.736200268590D-03 0.100000000000D+01
0.624853029515D-05 0.000000000000D+00 0.101901552441D-05 0.245269073837D-07 0.000000000000D+00  7 1 -1 23 -11 11 23 21 2 0.20529530D-01 0.52415642D-01 0.29729583D+05 0.29729583D+05 0.29729583D+05 0.11677010D+01  1  2  6  2  7  2       -1 0.968674882730D-03 0.100000000000D+01
0.745588105077D-07 0.000000000000D+00 0.000000000000D+00 0.245269073837D-07 0.000000000000D+00  7 1 21 23 -11 11 23 1 2 0.20529530D-01 0.60038229D-01 0.34267581D+05 0.34267581D+05 0.34267581D+05 0.11620143D+01  1  2 12  4  7  2       -1 0.805975589821D-04 0.100000000000D+01
-.128736243361D-06 0.000000000000D+00 -.226351813928D-07 0.245269073837D-07 0.000000000000D+00  7 1 21 23 -11 11 23 1 2 0.20529530D-01 0.60495127D-01 0.29729583D+05 0.29729583D+05 0.29729583D+05 0.11677010D+01  1  2  5  4  7  2       -1 -.138733317856D-03 0.100000000000D+01
  </mgrwgt>
  </event>
  <event>
  8     66 0.56006291E-06 0.49536451E+03 0.75467711E-02 0.87479953E-01
        1 -1    0    0  501    0 0.00000000E+00 0.00000000E+00 0.16244921E+04 0.16244921E+04 0.32000000E+00 0.0000E+00 0.9000E+01
       -1 -1    0    0    0  501 0.00000000E+00 0.00000000E+00 -.33975360E+03 0.33975375E+03 0.32000000E+00 0.0000E+00 0.9000E+01
       25  2    1    2    0    0 0.28172090E+03 0.64674272E+03 0.76879419E+03 0.10855711E+04 0.29962848E+03 0.0000E+00 0.0000E+00
       23  2    1    2    0    0 -.28172090E+03 -.64674272E+03 0.51594433E+03 0.87867483E+03 0.90708825E+02 0.0000E+00 0.0000E+00
       23  1    3    3    0    0 0.25446883E+03 0.31530951E+03 0.35037444E+03 0.54337094E+03 0.91188000E+02 0.0000E+00 0.9000E+01
      -13  1    4    4    0    0 -.15145382E+03 -.45230174E+03 0.35623854E+03 0.59533271E+03 0.10565837E+00 0.0000E+00 0.9000E+01
       13  1    4    4    0    0 -.13026708E+03 -.19444097E+03 0.15970578E+03 0.28334211E+03 0.10565837E+00 0.0000E+00 0.9000E+01
       23  1    3    3    0    0 0.27252074E+02 0.33143320E+03 0.41841975E+03 0.54220013E+03 0.91188000E+02 0.0000E+00 0.9000E+01
#aMCatNLO 1  0  0  2  1 0.44481220D+03 0.00000000D+00  -5  7  0 0.00000000D+00 0.00000000D+00 0.00000000D+00 0.00000000D+00 0.00000000D+00
  <mgrwgt>
 0.5459087662D-04    9    2    0
 0.742918042316365D+03 0.000000000000000D+00 0.000000000000000D+00 0.742918042316365D+03
 0.742918042316365D+03 0.000000000000000D+00 0.000000000000000D+00 -.742918042316365D+03
 0.415371921897865D+03 0.254468828833198D+03 0.315309513423597D+03 -.664138946011589D+01
 0.478994253489507D+03 -.151453850872198D+03 -.452302093483571D+03 -.438182857073555D+02
 0.236481618054017D+03 -.130267051959684D+03 -.194440623810799D+03 -.338658332725868D+02
 0.354988291191342D+03 0.272520739986834D+02 0.331433203870773D+03 0.843255084400581D+02
 0.000000000000000D+00 0.000000000000000D+00 0.000000000000000D+00 -.000000000000000D+00
 0.885427498035537D+03 0.000000000000000D+00 0.000000000000000D+00 0.885427498035537D+03
 0.122544549833244D+04 0.000000000000000D+00 0.000000000000000D+00 -.122544549833244D+04
 0.337468127765618D+03 0.251937479449969D+03 0.205067999229688D+03 -.664138946011589D+01
 0.636407864364347D+03 -.155204278953625D+03 -.615635086278344D+03 -.438182857073555D+02
 0.305940415060760D+03 -.132090891804002D+03 -.273869748615518D+03 -.338658332725868D+02
 0.271172555180007D+03 0.251466707686449D+02 0.239741854740538D+03 0.843255084400581D+02
 0.559884033997240D+03 0.102110205390118D+02 0.444694980923636D+03 -.340018000296898D+03
0.217596542729D-04 0.000000000000D+00 0.000000000000D+00 0.610374431123D-06 0.000000000000D+00  7 1 -1 23 -13 13 23 21 0 0.24992188D+00 0.52269798D-01 0.54108979D+06 0.54108979D+06 0.54108979D+06 0.10660947D+01  1  2  2  2  7  2       -1 0.520655562922D-04 0.100000000000D+01
-.120872517498D-05 0.000000000000D+00 -.835628018565D-07 0.610374431123D-06 0.000000000000D+00  7 1 -1 23 -13 13 23 21 2 0.24992188D+00 0.52269798D-01 0.54108979D+06 0.54108979D+06 0.54108979D+06 0.10660947D+01  1  2  3  2  7  2       -1 -.328713598506D-05 0.100000000000D+01
0.133185931818D-05 0.000000000000D+00 0.000000000000D+00 0.610374431123D-06 0.000000000000D+00  7 1 -1 23 -13 13 23 21 2 0.24992188D+00 0.52269798D-01 0.54108979D+06 0.54108979D+06 0.54108979D+06 0.10660947D+01  1  2 15  2  7  2       -1 0.362200008937D-05 0.100000000000D+01
0.503236332743D-05 0.000000000000D+00 0.000000000000D+00 0.610374431123D-06 0.000000000000D+00  7 1 -1 23 -13 13 23 21 2 0.24992188D+00 0.88547796D-01 0.97901218D+06 0.97901218D+06 0.97901218D+06 0.10484777D+01  1  2 12  2  7  2       -1 0.450558071811D-05 0.100000000000D+01
-.123625539652D-04 0.000000000000D+00 0.000000000000D+00 0.610374431123D-06 0.000000000000D+00  7 1 -1 23 -13 13 23 21 2 0.24992188D+00 0.52269798D-01 0.54108979D+06 0.54108979D+06 0.54108979D+06 0.10660947D+01  1  2  4  2  7  2       -1 -.336200460182D-04 0.100000000000D+01
-.130798706092D-04 0.000000000000D+00 -.679734545762D-05 0.610374431123D-06 0.000000000000D+00  7 1 -1 23 -13 13 23 21 2 0.24992188D+00 0.99807505D-01 0.54108979D+06 0.54108979D+06 0.54108979D+06 0.10660947D+01  1  2  5  2  7  2       -1 -.965939910817D-05 0.100000000000D+01
0.153599218561D-04 0.000000000000D+00 0.558722500940D-05 0.610374431123D-06 0.000000000000D+00  7 1 -1 23 -13 13 23 21 2 0.24992188D+00 0.52269798D-01 0.54108979D+06 0.54108979D+06 0.54108979D+06 0.10660947D+01  1  2  6  2  7  2       -1 0.417714075174D-04 0.100000000000D+01
0.296034018629D-06 0.000000000000D+00 0.000000000000D+00 0.610374431123D-06 0.000000000000D+00  7 1 21 23 -13 13 23 1 2 0.24992188D+00 0.88547796D-01 0.97901218D+06 0.97901218D+06 0.97901218D+06 0.10484777D+01  1  2 12  4  7  2       -1 0.186460946835D-05 0.100000000000D+01
-.528432620235D-06 0.000000000000D+00 -.477452315856D-06 0.610374431123D-06 0.000000000000D+00  7 1 21 23 -13 13 23 1 2 0.24992188D+00 0.99807505D-01 0.54108979D+06 0.54108979D+06 0.54108979D+06 0.10660947D+01  1  2  5  4  7  2       -1 -.267169635804D-05 0.100000000000D+01
  </mgrwgt>
  </event>
  <event>
  9     66 0.56006291E-06 0.28420191E+03 0.75467711E-02 0.10050623E+00
        3 -1    0    0  502    0 0.00000000E+00 0.00000000E+00 0.24345006E+04 0.24345006E+04 0.50000000E+00 0.0000E+00 0.9000E+01
       -3 -1    0    0    0  501 0.00000000E+00 0.00000000E+00 -.45828454E+02 0.45831182E+02 0.50000000E+00 0.0000E+00 0.9000E+01
       25  2    1    2    0    0 -.12163062E+03 -.20889691E+03 0.14948595E+04 0.15436334E+04 0.29961153E+03 0.0000E+00 0.0000E+00
       23  2    1    2    0    0 0.79361795E+02 0.20148275E+03 0.79379413E+03 0.82785966E+03 0.91372320E+02 0.0000E+00 0.0000E+00
       23  1    3    3    0    0 -.83245205E+02 -.20379071E+03 0.13309461E+04 0.13521069E+04 0.91188000E+02 0.0000E+00 0.9000E+01
      -11  1    4    4    0    0 0.21220066E+02 -.28002060E+01 0.10079748E+03 0.10304497E+03 0.51099893E-03 0.0000E+00 0.9000E+01
       11  1    4    4    0    0 0.58141729E+02 0.20428296E+03 0.69299664E+03 0.72481469E+03 0.51099893E-03 0.0000E+00 0.9000E+01
       23  1    3    3    0    0 -.38385410E+02 -.51062013E+01 0.16391347E+03 0.19152647E+03 0.91188000E+02 0.0000E+00 0.9000E+01
       21  1    1    2  502  501 0.42268820E+02 0.74141604E+01 0.10001845E+03 0.10883876E+03 0.75000000E+00 0.0000E+00 0.9000E+01
#aMCatNLO 2  0  0  1  1 0.42914134D+02 0.00000000D+00  -5  7  0 0.00000000D+00 0.00000000D+00 0.00000000D+00 0.00000000D+00 0.00000000D+00
  <mgrwgt>
 0.1432128455D-05    1    2    0
 0.309920163447901D+03 0.000000000000000D+00 0.000000000000000D+00 0.309920163447901D+03
 0.309920163447901D+03 0.000000000000000D+00 0.000000000000000D+00 -.309920163447901D+03
 0.250722518135184D+03 -.659128140712973D+02 -.200750520966974D+03 0.995050703669866D+02
 0.234835901578667D+02 0.227696349639426D+02 -.252840394545544D+01 0.516041701803833D+01
 0.220759845279148D+03 0.729423501826544D+02 0.206879057306441D+03 -.248068233658152D+02
 0.124874373323602D+03 -.297991710752997D+02 -.360013239401178D+01 -.798586640192097D+02
 0.000000000000000D+00 0.000000000000000D+00 0.000000000000000D+00 -.000000000000000D+00
 0.324582284994874D+03 0.000000000000000D+00 0.000000000000000D+00 0.324582284994874D+03
 0.343736638301352D+03 0.000000000000000D+00 0.000000000000000D+00 -.343736638301352D+03
 0.258218758536214D+03 -.832452049314900D+02 -.203790708186509D+03 0.995050703669866D+02
 0.220173174139057D+02 0.212200661813016D+02 -.280020598631502D+01 0.516041701803833D+01
 0.213839577358808D+03 0.581417289596315D+02 0.204282955023359D+03 -.248068233658152D+02
 0.127248459986774D+03 -.383854101799265D+02 -.510620126819776D+01 -.798586640192097D+02
 0.469948100005244D+02 0.422688199704834D+02 0.741416041766321D+01 -.191543533064787D+02
0.501516333662D-05 0.000000000000D+00 0.000000000000D+00 0.350329440506D-06 0.129125359031D-08  7 3 -3 23 -11 11 23 21 2 0.37453537D+00 0.70506813D-02 0.94267400D+05 0.94267400D+05 0.94267400D+05 0.11238321D+01  1  2  1  1  7  1        3 0.143212845461D-05 0.100000000000D+01
  </mgrwgt>
  </event>
  <event>
  8     66 0.56006291E-06 0.14499883E+03 0.75467711E-02 0.10690773E+00
        1 -1    0    0  501    0 0.00000000E+00 0.00000000E+00 0.32939463E+02 0.32941018E+02 0.32000000E+00 0.0000E+00 0.9000E+01
       -1 -1    0    0    0  501 0.00000000E+00 0.00000000E+00 -.12305547E+04 0.12305548E+04 0.32000000E+00 0.0000E+00 0.9000E+01
       25  2    1    2    0    0 0.65259760E+01 -.42114905E+01 -.10313813E+04 0.10742255E+04 0.30025443E+03 0.0000E+00 0.0000E+00
       23  2    1    2    0    0 -.65259760E+01 0.42114905E+01 -.16623394E+03 0.18927026E+03 0.90161983E+02 0.0000E+00 0.0000E+00
       23  1    3    3    0    0 -.19516345E+02 -.63232890E+02 -.87400716E+03 0.88123949E+03 0.91188000E+02 0.0000E+00 0.9000E+01
      -11  1    4    4    0    0 -.25118233E+02 0.26559926E+02 -.23165490E+02 0.43278115E+02 0.51099893E-03 0.0000E+00 0.9000E+01
       11  1    4    4    0    0 0.18592257E+02 -.22348436E+02 -.14306845E+03 0.14599215E+03 0.51099893E-03 0.0000E+00 0.9000E+01
       23  1    3    3    0    0 0.26042321E+02 0.59021400E+02 -.15737416E+03 0.19298602E+03 0.91188000E+02 0.0000E+00 0.9000E+01
#aMCatNLO 1  0  0  2  1 0.85284944D+02 0.00000000D+00  -5  7  0 0.00000000D+00 0.00000000D+00 0.00000000D+00 0.00000000D+00 0.00000000D+00
  <mgrwgt>
 0.6584017939D-03    4    2    0
 0.201332610852680D+03 0.000000000000000D+00 0.000000000000000D+00 0.201332610852680D+03
 0.201332610852680D+03 0.000000000000000D+00 0.000000000000000D+00 -.201332610852680D+03
 0.165691183537913D+03 -.195163443976900D+02 -.632328900717493D+02 -.121486751840351D+03
 0.669001712572505D+02 -.251182332657266D+02 0.265599266353253D+02 0.560292563665103D+02
 0.325816533336775D+02 0.185922569051748D+02 -.223484359029483D+02 -.147118839656833D+02
 0.137492213576519D+03 0.260423207582417D+02 0.590213993393723D+02 0.801693794395242D+02
 0.000000000000000D+00 -.000000000000000D+00 -.000000000000000D+00 0.000000000000000D+00
 0.346940908128401D+03 0.000000000000000D+00 0.000000000000000D+00 0.346940908128401D+03
 0.218682275203757D+03 0.000000000000000D+00 0.000000000000000D+00 -.218682275203757D+03
 0.156683170301020D+03 0.322478923784678D+01 -.382744611096088D+02 -.121486751840351D+03
 0.689593404512073D+02 -.155343464750160D+02 0.370782570528274D+02 0.560292563665103D+02
 0.324577829354255D+02 0.231803095655755D+02 -.173130410877915D+02 -.147118839656833D+02
 0.153497571370772D+03 0.465695044726407D+02 0.815500148754087D+02 0.801693794395242D+02
 0.154025318273734D+03 -.574402568010469D+02 -.630407697308358D+02 0.128258632924644D+03
0.190442309074D-04 0.000000000000D+00 0.000000000000D+00 0.646526488534D-07 0.000000000000D+00  7 1 -1 23 -11 11 23 21 0 0.50677325D-02 0.18931623D+00 0.21024661D+05 0.21024661D+05 0.21024661D+05 0.11819376D+01  1  2  2  2  7  2       -1 0.707682954461D-03 0.100000000000D+01
-.919421520629D-06 0.000000000000D+00 -.731348611456D-07 0.646526488534D-07 0.000000000000D+00  7 1 -1 23 -11 11 23 21 2 0.50677325D-02 0.18931623D+00 0.21024661D+05 0.21024661D+05 0.21024661D+05 0.11819376D+01  1  2  3  2  7  2       -1 -.477286391406D-04 0.100000000000D+01
0.121051710612D-05 0.000000000000D+00 0.000000000000D+00 0.646526488534D-07 0.000000000000D+00  7 1 -1 23 -11 11 23 21 2 0.50677325D-02 0.18931623D+00 0.21024661D+05 0.21024661D+05 0.21024661D+05 0.11819376D+01  1  2 15  2  7  2       -1 0.628398757643D-04 0.100000000000D+01
-.124042413191D-05 0.000000000000D+00 0.000000000000D+00 0.646526488534D-07 0.000000000000D+00  7 1 -1 23 -11 11 23 21 2 0.50677325D-02 0.18931623D+00 0.21024661D+05 0.21024661D+05 0.21024661D+05 0.11819376D+01  1  2  4  2  7  2       -1 -.643923972248D-04 0.100000000000D+01
  </mgrwgt>
  </event>
  <event>
  8     66 0.56006291E-06 0.19674310E+03 0.75467711E-02 0.10208741E+00
        1 -1    0    0  501    0 0.00000000E+00 0.00000000E+00 0.10146885E+03 0.10146935E+03 0.32000000E+00 0.0000E+00 0.9000E+01
       -1 -1    0    0    0  501 0.00000000E+00 0.00000000E+00 -.78205514E+03 0.78205520E+03 0.32000000E+00 0.0000E+00 0.9000E+01
       25  2    1    2    0    0 0.18680576E+03 -.11723051E+02 -.45943417E+03 0.57980170E+03 0.30009405E+03 0.0000E+00 0.0000E+00
       23  2    1    2    0    0 -.18680576E+03 0.11723051E+02 -.22115211E+03 0.30372285E+03 0.91134474E+02 0.0000E+00 0.0000E+00
       23  1    3    3    0    0 0.22363513E+03 0.34413126E+02 -.29621756E+03 0.38374084E+03 0.91188000E+02 0.0000E+00 0.9000E+01
      -13  1    4    4    0    0 -.16127132E+03 0.94544291E+01 -.12514013E+03 0.20434747E+03 0.10565837E+00 0.0000E+00 0.9000E+01
       13  1    4    4    0    0 -.25534432E+02 0.22686222E+01 -.96011981E+02 0.99375377E+02 0.10565837E+00 0.0000E+00 0.9000E+01
       23  1    3    3    0    0 -.36829376E+02 -.46136177E+02 -.16321661E+03 0.19606086E+03 0.91188000E+02 0.0000E+00 0.9000E+01
#aMCatNLO 1  0  0  2  1 0.42705233D+01 0.00000000D+00  -5  7  0 0.00000000D+00 0.00000000D+00 0.00000000D+00 0.00000000D+00 0.00000000D+00
  <mgrwgt>
 0.2194267832D-03   11    2    0
 0.281699284406099D+03 0.000000000000000D+00 0.000000000000000D+00 0.281699284406099D+03
 0.281699284406099D+03 0.000000000000000D+00 0.000000000000000D+00 -.281699284406099D+03
 0.243953128573168D+03 0.223635132890859D+03 0.344131254221249D+02 -.970428877312029D+00
 0.169289481736770D+03 -.161271507782057D+03 0.945443880215469D+01 0.506067484762899D+02
 0.398581951197885D+02 -.255342502730755D+02 0.226861251988147D+01 -.305209956985959D+02
 0.110297763382470D+03 -.368293748357261D+02 -.461361767441610D+02 -.191153239003819D+02
 0.000000000000000D+00 -.000000000000000D+00 -.000000000000000D+00 -.000000000000000D+00
 0.281858309034039D+03 0.000000000000000D+00 0.000000000000000D+00 0.281858309034039D+03
 0.311915265099360D+03 0.000000000000000D+00 0.000000000000000D+00 -.311915265099360D+03
 0.245674022843808D+03 0.225478479843581D+03 0.346263996320950D+02 -.970428877312029D+00
 0.168088255003623D+03 -.160001349006881D+03 0.960139546102578D+01 0.506067484762899D+02
 0.396690512005228D+02 -.252348463149030D+02 0.230325339014566D+01 -.305209956985959D+02
 0.109983424671410D+03 -.360000608249199D+02 -.460402255776101D+02 -.191153239003819D+02
 0.303588204140363D+02 -.424222369687794D+01 -.490822905656309D+00 -.300569560653210D+02
0.445232335663D-05 0.000000000000D+00 0.000000000000D+00 0.488119130213D-06 0.000000000000D+00  7 1 -1 23 -13 13 23 21 0 0.15610636D-01 0.12031622D+00 0.72836067D+05 0.72836067D+05 0.72836067D+05 0.11331962D+01  1  2  2  2  7  2       -1 0.133389091687D-03 0.100000000000D+01
-.246798919426D-06 0.000000000000D+00 -.170980940131D-07 0.488119130213D-06 0.000000000000D+00  7 1 -1 23 -13 13 23 21 2 0.15610636D-01 0.12031622D+00 0.72836067D+05 0.72836067D+05 0.72836067D+05 0.11331962D+01  1  2  3  2  7  2       -1 -.949482843915D-05 0.100000000000D+01
0.298069171618D-06 0.000000000000D+00 0.000000000000D+00 0.488119130213D-06 0.000000000000D+00  7 1 -1 23 -13 13 23 21 2 0.15610636D-01 0.12031622D+00 0.72836067D+05 0.72836067D+05 0.72836067D+05 0.11331962D+01  1  2 15  2  7  2       -1 0.114672935120D-04 0.100000000000D+01
0.752854499276D-04 0.000000000000D+00 0.000000000000D+00 0.488119130213D-06 0.000000000000D+00  7 1 -1 23 -13 13 23 21 2 0.15610636D-01 0.13325358D+00 0.73951660D+05 0.73951660D+05 0.73951660D+05 0.11326377D+01  1  2 12  2  7  2       -1 0.224075736219D-02 0.100000000000D+01
-.475730822029D-03 0.000000000000D+00 0.000000000000D+00 0.488119130213D-06 0.000000000000D+00  7 1 -1 23 -13 13 23 21 2 0.15610636D-01 0.12031622D+00 0.72836067D+05 0.72836067D+05 0.72836067D+05 0.11331962D+01  1  2  4  2  7  2       -1 -.183022784252D-01 0.100000000000D+01
-.495552060960D-03 0.000000000000D+00 -.523308820337D-05 0.488119130213D-06 0.000000000000D+00  7 1 -1 23 -13 13 23 21 2 0.15610636D-01 0.13325304D+00 0.72836067D+05 0.72836067D+05 0.72836067D+05 0.11331962D+01  1  2  5  2  7  2       -1 -.147683934028D-01 0.100000000000D+01
0.493537678114D-03 0.000000000000D+00 0.520591622131D-05 0.488119130213D-06 0.000000000000D+00  7 1 -1 23 -13 13 23 21 2 0.15610636D-01 0.12031622D+00 0.72836067D+05 0.72836067D+05 0.72836067D+05 0.11331962D+01  1  2  6  2  7  2       -1 0.189873423792D-01 0.100000000000D+01
0.402665077651D-03 0.000000000000D+00 0.000000000000D+00 0.488119130213D-06 0.184049274669D-06  7 1 -1 23 -13 13 23 21 2 0.15619449D-01 0.13322173D+00 0.73951660D+05 0.73951660D+05 0.73951660D+05 0.11326377D+01  1  2 11  2  7  2       -1 0.119832466112D-01 0.100000000000D+01
0.124614846552D-05 0.000000000000D+00 0.000000000000D+00 0.488119130213D-06 0.000000000000D+00  7 1 21 23 -13 13 23 1 2 0.15610636D-01 0.13325358D+00 0.73951660D+05 0.73951660D+05 0.73951660D+05 0.11326377D+01  1  2 12  4  7  2       -1 0.247081302260D-03 0.100000000000D+01
-.817926460693D-05 0.000000000000D+00 -.865542264271D-07 0.488119130213D-06 0.000000000000D+00  7 1 21 23 -13 13 23 1 2 0.15610636D-01 0.13325304D+00 0.72836067D+05 0.72836067D+05 0.72836067D+05 0.11331962D+01  1  2  5  4  7  2       -1 -.162459988283D-02 0.100000000000D+01
0.666244463964D-05 0.000000000000D+00 0.000000000000D+00 0.488119130213D-06 0.304400410771D-08  7 1 21 23 -13 13 23 1 2 0.15619449D-01 0.13322173D+00 0.73951660D+05 0.73951660D+05 0.73951660D+05 0.11326377D+01  1  2 11  4  7  2       -1 0.132090928249D-02 0.100000000000D+01
  </mgrwgt>
  </event>
  <event>
  8     66 0.56006291E-06 0.33315925E+03 0.75467711E-02 0.98887795E-01
        1 -1    0    0  501    0 0.00000000E+00 0.00000000E+00 0.12122058E+04 0.12122058E+04 0.32000000E+00 0.0000E+00 0.9000E+01
       -1 -1    0    0    0  501 0.00000000E+00 0.00000000E+00 -.10043527E+03 0.10043578E+03 0.32000000E+00 0.0000E+00 0.9000E+01
       25  2    1    2    0    0 -.25051716E+03 -.69642217E+02 0.47174896E+03 0.61663668E+03 0.30014134E+03 0.0000E+00 0.0000E+00
       23  2    1    2    0    0 0.25051716E+03 0.69642217E+02 0.64002154E+03 0.69600491E+03 0.84772567E+02 0.0000E+00 0.0000E+00
       23  1    3    3    0    0 -.17735569E+03 -.15406529E+03 0.31969266E+03 0.40707469E+03 0.91188000E+02 0.0000E+00 0.9000E+01
      -13  1    4    4    0    0 0.42197482E+02 -.15647700E+02 0.15291792E+03 0.15940320E+03 0.10565837E+00 0.0000E+00 0.9000E+01
       13  1    4    4    0    0 0.20831968E+03 0.85289917E+02 0.48710361E+03 0.53660171E+03 0.10565837E+00 0.0000E+00 0.9000E+01
       23  1    3    3    0    0 -.73161471E+02 0.84423076E+02 0.15205630E+03 0.20956199E+03 0.91188000E+02 0.0000E+00 0.9000E+01
#aMCatNLO 1  0  0  2  2 0.31260490D+02 0.00000000D+00  -5  7  0 0.00000000D+00 0.00000000D+00 0.00000000D+00 0.00000000D+00 0.00000000D+00
  <mgrwgt>
 0.5170035956D-03    4    2    0
 0.348924888207910D+03 0.000000000000000D+00 0.000000000000000D+00 0.348924888207910D+03
 0.348924888207910D+03 0.000000000000000D+00 0.000000000000000D+00 -.348924888207910D+03
 0.256385124103857D+03 -.177355689180707D+03 -.154065292758843D+03 -.471903125664426D+02
 0.562147392981659D+02 0.421972238073951D+02 -.156478559377010D+02 0.336843557436137D+02
 0.233314532367185D+03 0.208319937035926D+03 0.852900731613437D+02 0.613520844568357D+02
 0.151935380646613D+03 -.731614716626136D+02 0.844230755352002D+02 -.478461276340068D+02
 0.000000000000000D+00 0.000000000000000D+00 -.000000000000000D+00 0.000000000000000D+00
 0.437536254176477D+03 0.000000000000000D+00 0.000000000000000D+00 0.437536254176477D+03
 0.352042758881362D+03 0.000000000000000D+00 0.000000000000000D+00 -.352042758881362D+03
 0.253542885792478D+03 -.181971834457260D+03 -.143624752240407D+03 -.471903125664426D+02
 0.548656582016787D+02 0.411916637238437D+02 -.133735360956965D+02 0.336843557436137D+02
 0.233269262599892D+03 0.204096167132226D+03 0.948431608954137D+02 0.613520844568357D+02
 0.156871782696022D+03 -.759569618117421D+02 0.907457595978339D+02 -.478461276340068D+02
 0.910294237677677D+02 0.126409654129326D+02 -.285906321571442D+02 0.854934952951144D+02
0.145375479712D-04 0.000000000000D+00 0.000000000000D+00 0.219469002135D-07 0.000000000000D+00  7 1 -1 23 -13 13 23 21 0 0.18649324D+00 0.15451623D-01 0.11099509D+06 0.11099509D+06 0.11099509D+06 0.11180232D+01  1  2  2  2  7  2       -1 0.548210632928D-03 0.100000000000D+01
-.805542314412D-06 0.000000000000D+00 -.558280120337D-07 0.219469002135D-07 0.000000000000D+00  7 1 -1 23 -13 13 23 21 2 0.18649324D+00 0.15451623D-01 0.11099509D+06 0.11099509D+06 0.11099509D+06 0.11180232D+01  1  2  3  2  7  2       -1 -.379704971060D-04 0.100000000000D+01
0.930377034510D-06 0.000000000000D+00 0.000000000000D+00 0.219469002135D-07 0.000000000000D+00  7 1 -1 23 -13 13 23 21 2 0.18649324D+00 0.15451623D-01 0.11099509D+06 0.11099509D+06 0.11099509D+06 0.11180232D+01  1  2 15  2  7  2       -1 0.438547769178D-04 0.100000000000D+01
-.786890552856D-06 0.000000000000D+00 0.000000000000D+00 0.219469002135D-07 0.000000000000D+00  7 1 -1 23 -13 13 23 21 2 0.18649324D+00 0.15451623D-01 0.11099509D+06 0.11099509D+06 0.11099509D+06 0.11180232D+01  1  2  4  2  7  2       -1 -.370913171480D-04 0.100000000000D+01
  </mgrwgt>
  </event>
  <event>
  8     66 0.56006291E-06 0.26256877E+03 0.75467711E-02 0.90527101E-01
        1 -1    0    0  501    0 0.00000000E+00 0.00000000E+00 0.18058251E+04 0.18058251E+04 0.32000000E+00 0.0000E+00 0.9000E+01
       -1 -1    0    0    0  501 0.00000000E+00 0.00000000E+00 -.17362561E+03 0.17362590E+03 0.32000000E+00 0.0000E+00 0.9000E+01
       25  2    1    2    0    0 -.47998090E+03 -.81649409E+01 0.53918660E+03 0.78201938E+03 0.30063896E+03 0.0000E+00 0.0000E+00
       23  2    1    2    0    0 0.47998090E+03 0.81649409E+01 0.10930129E+04 0.11974317E+04 0.93365143E+02 0.0000E+00 0.0000E+00
       23  1    3    3    0    0 -.18727627E+03 0.11222739E+03 0.24071889E+03 0.33753255E+03 0.91188000E+02 0.0000E+00 0.9000E+01
      -13  1    4    4    0    0 0.42669118E+02 -.17853637E+01 0.18063017E+03 0.18561011E+03 0.10565837E+00 0.0000E+00 0.9000E+01
       13  1    4    4    0    0 0.43731179E+03 0.99503045E+01 0.91238273E+03 0.10118216E+04 0.10565837E+00 0.0000E+00 0.9000E+01
       23  1    3    3    0    0 -.29270463E+03 -.12039233E+03 0.29846771E+03 0.44448683E+03 0.91188000E+02 0.0000E+00 0.9000E+01
#aMCatNLO 1  0  0  1  2 0.35874348D+03 0.00000000D+00  -5  7  0 0.00000000D+00 0.00000000D+00 0.00000000D+00 0.00000000D+00 0.00000000D+00
  <mgrwgt>
 0.6809111017D-03    8    2    0
 0.559944466142037D+03 0.000000000000000D+00 0.000000000000000D+00 0.559944466142037D+03
 0.559944466142037D+03 0.000000000000000D+00 0.000000000000000D+00 -.559944466142037D+03
 0.245763578067072D+03 -.187276270719487D+03 0.112227388440549D+03 -.664612418597870D+02
 0.648109595888100D+02 0.426686121895826D+02 -.178537868426062D+01 0.487510250106717D+02
 0.458671526016903D+03 0.437312291960254D+03 0.995031955039116D+01 0.137980140672448D+03
 0.350642868611289D+03 -.292704633430350D+03 -.120392329306679D+03 -.120269923823333D+03
 0.000000000000000D+00 0.000000000000000D+00 0.000000000000000D+00 0.000000000000000D+00
 0.103978069254870D+04 0.000000000000000D+00 0.000000000000000D+00 0.103978069254870D+04
 0.659184986133647D+03 0.000000000000000D+00 0.000000000000000D+00 -.659184986133647D+03
 0.270832211225383D+03 -.240712286500240D+03 0.517236285609536D+02 -.664612418597870D+02
 0.594356847724588D+02 0.298166962692309D+02 -.163371603520433D+02 0.487510250106717D+02
 0.386507168671269D+03 0.349888075574809D+03 -.890371090324104D+02 0.137980140672448D+03
 0.459170558126028D+03 -.376470711179201D+03 -.215237773528542D+03 -.120269923823333D+03
 0.523020055887210D+03 0.237478225835402D+03 0.268888414352042D+03 0.380595706415054D+03
0.637986533079D-04 0.000000000000D+00 0.000000000000D+00 0.355144316292D-06 0.000000000000D+00  7 1 -1 23 -13 13 23 21 0 0.27781927D+00 0.26711657D-01 0.27358622D+06 0.27358622D+06 0.27358622D+06 0.10875257D+01  1  2  2  1  7  1        1 0.385408060490D-03 0.100000000000D+01
-.352435386922D-05 0.000000000000D+00 -.245003627274D-06 0.355144316292D-06 0.000000000000D+00  7 1 -1 23 -13 13 23 21 2 0.27781927D+00 0.26711657D-01 0.27358622D+06 0.27358622D+06 0.27358622D+06 0.10875257D+01  1  2  3  1  7  1        1 -.251807037723D-04 0.100000000000D+01
0.399749399480D-05 0.000000000000D+00 0.000000000000D+00 0.355144316292D-06 0.000000000000D+00  7 1 -1 23 -13 13 23 21 2 0.27781927D+00 0.26711657D-01 0.27358622D+06 0.27358622D+06 0.27358622D+06 0.10875257D+01  1  2 15  1  7  1        1 0.285611819499D-04 0.100000000000D+01
0.945029943376D-05 0.000000000000D+00 0.000000000000D+00 0.355144316292D-06 0.000000000000D+00  7 1 -1 23 -13 13 23 21 2 0.52216588D+00 0.26711657D-01 0.53251485D+06 0.53251485D+06 0.53251485D+06 0.10665820D+01  1  2 12  1  7  1        1 0.459341170244D-05 0.100000000000D+01
-.382684979107D-04 0.000000000000D+00 -.165992006411D-04 0.355144316292D-06 0.000000000000D+00  7 1 -1 23 -13 13 23 21 2 0.53557372D+00 0.26711657D-01 0.27358622D+06 0.27358622D+06 0.27358622D+06 0.10875257D+01  1  2  5  1  7  1        1 -.172579043038D-04 0.100000000000D+01
0.426674638326D-04 0.000000000000D+00 0.135697005109D-04 0.355144316292D-06 0.000000000000D+00  7 1 -1 23 -13 13 23 21 2 0.27781927D+00 0.26711657D-01 0.27358622D+06 0.27358622D+06 0.27358622D+06 0.10875257D+01  1  2  6  1  7  1        1 0.304849287942D-03 0.100000000000D+01
0.648891688234D-06 0.000000000000D+00 0.000000000000D+00 0.355144316292D-06 0.000000000000D+00  7 21 -1 23 -13 13 23 -1 2 0.52216588D+00 0.26711657D-01 0.53251485D+06 0.53251485D+06 0.53251485D+06 0.10665820D+01  1  2 12  3  7  1        1 0.458116722184D-07 0.100000000000D+01
-.176197813164D-05 0.000000000000D+00 -.118193738756D-05 0.355144316292D-06 0.000000000000D+00  7 21 -1 23 -13 13 23 -1 2 0.53557372D+00 0.26711657D-01 0.27358622D+06 0.27358622D+06 0.27358622D+06 0.10875257D+01  1  2  5  3  7  1        1 -.108044012258D-06 0.100000000000D+01
  </mgrwgt>
  </event>
  <event>
  8     66 0.56006291E-06 0.21669238E+03 0.75467711E-02 0.96394525E-01
        3 -1    0    0  501    0 0.00000000E+00 0.00000000E+00 0.81936618E+02 0.81938143E+02 0.50000000E+00 0.0000E+00 0.9000E+01
       -3 -1    0    0    0  501 0.00000000E+00 0.00000000E+00 -.97108863E+03 0.97108876E+03 0.50000000E+00 0.0000E+00 0.9000E+01
       25  2    1    2    0    0 -.10434631E+03 0.94399057E+02 -.79060401E+03 0.85790411E+03 0.30190302E+03 0.0000E+00 0.0000E+00
       23  2    1    2    0    0 0.10434631E+03 -.94399057E+02 -.98548008E+02 0.19512280E+03 0.92530328E+02 0.0000E+00 0.0000E+00
       23  1    3    3    0    0 0.31124980E+02 0.63110486E+01 -.86085767E+02 0.12936230E+03 0.91188000E+02 0.0000E+00 0.9000E+01
      -11  1    4    4    0    0 0.10175164E+02 -.42607022E+02 0.71470786E+01 0.44384378E+02 0.51099893E-03 0.0000E+00 0.9000E+01
       11  1    4    4    0    0 0.94171144E+02 -.51792035E+02 -.10569509E+03 0.15073842E+03 0.51099893E-03 0.0000E+00 0.9000E+01
       23  1    3    3    0    0 -.13547129E+03 0.88088009E+02 -.70451824E+03 0.72854181E+03 0.91188000E+02 0.0000E+00 0.9000E+01
#aMCatNLO 1  0  0  1  1 0.31421835D+03 0.00000000D+00  -5  7  0 0.00000000D+00 0.00000000D+00 0.00000000D+00 0.00000000D+00 0.00000000D+00
  <mgrwgt>
 0.4312706165D-04    5    2    0
 0.282079048049025D+03 0.000000000000000D+00 0.000000000000000D+00 0.282079048049025D+03
 0.282079048049025D+03 0.000000000000000D+00 0.000000000000000D+00 -.282079048049025D+03
 0.105783553389652D+03 0.311249802115230D+02 0.631104862981779D+01 0.432008691552115D+02
 0.941097618242629D+02 0.101751645044548D+02 -.426070222057236D+02 0.832931867362977D+02
 0.114777419044041D+03 0.941711437047143D+02 -.517920352305412D+02 0.402894117906412D+02
 0.249487361840094D+03 -.135471288420692D+03 0.880880088064471D+02 -.166783467682150D+03
 0.000000000000000D+00 0.000000000000000D+00 0.000000000000000D+00 0.000000000000000D+00
 0.584704182405278D+03 0.000000000000000D+00 0.000000000000000D+00 0.584704182405278D+03
 0.417155121291000D+03 0.000000000000000D+00 0.000000000000000D+00 -.417155121291000D+03
 0.103398084136901D+03 -.222648381012193D+02 -.372482855208688D+01 0.432008691552115D+02
 0.106536623027206D+03 -.410361853969852D+02 -.522334048039902D+02 0.832931867362977D+02
 0.851609652583238D+02 0.431404980999274D+02 -.613844501888201D+02 0.402894117906412D+02
 0.350665528347810D+03 -.288649426549246D+03 0.592945603589161D+02 -.166783467682150D+03
 0.356098102926037D+03 0.308809951947523D+03 0.580481231859812D+02 0.167549061114278D+03
0.696794794423D-05 0.000000000000D+00 0.000000000000D+00 0.143728438838D-07 0.000000000000D+00  7 3 -3 23 -11 11 23 21 0 0.12605761D-01 0.14939838D+00 0.46955588D+05 0.46955588D+05 0.46955588D+05 0.11497029D+01  1  2  2  1  7  1        3 0.371438992292D-04 0.100000000000D+01
-.354376978491D-06 0.000000000000D+00 -.267587548087D-07 0.143728438838D-07 0.000000000000D+00  7 3 -3 23 -11 11 23 21 2 0.12605761D-01 0.14939838D+00 0.46955588D+05 0.46955588D+05 0.46955588D+05 0.11497029D+01  1  2  3  1  7  1        3 -.249700473596D-05 0.100000000000D+01
0.455201669453D-06 0.000000000000D+00 0.000000000000D+00 0.143728438838D-07 0.000000000000D+00  7 3 -3 23 -11 11 23 21 2 0.12605761D-01 0.14939838D+00 0.46955588D+05 0.46955588D+05 0.46955588D+05 0.11497029D+01  1  2 15  1  7  1        3 0.320743387249D-05 0.100000000000D+01
0.113991715415D-05 0.000000000000D+00 -.245256734997D-05 0.143728438838D-07 0.000000000000D+00  7 3 -3 23 -11 11 23 21 2 0.38549378D-01 0.14939838D+00 0.46955588D+05 0.46955588D+05 0.46955588D+05 0.11497029D+01  1  2  5  1  7  1        3 0.110897437320D-05 0.100000000000D+01
0.263525967570D-06 0.000000000000D+00 -.313055350840D-06 0.143728438838D-07 0.000000000000D+00  7 21 -3 23 -11 11 23 -3 2 0.38549378D-01 0.14939838D+00 0.46955588D+05 0.46955588D+05 0.46955588D+05 0.11497029D+01  1  2  5  3  7  1        3 0.416375890985D-05 0.100000000000D+01
  </mgrwgt>
  </event>
  <event>
  8     66 0.56006291E-06 0.61445396E+03 0.75467711E-02 0.89084958E-01
        1 -1    0    0  501    0 0.00000000E+00 0.00000000E+00 0.16500169E+04 0.16500169E+04 0.32000000E+00 0.0000E+00 0.9000E+01
       -1 -1    0    0    0  501 0.00000000E+00 0.00000000E+00 -.46776924E+03 0.46776935E+03 0.32000000E+00 0.0000E+00 0.9000E+01
       25  2    1    2    0    0 -.53767638E+03 0.47762111E+03 0.11540190E+04 0.13923357E+04 0.29936752E+03 0.0000E+00 0.0000E+00
       23  2    1    2    0    0 0.53767638E+03 -.47762111E+03 0.28228578E+02 0.72545056E+03 0.90905727E+02 0.0000E+00 0.0000E+00
       23  1    3    3    0    0 -.42202936E+03 0.22590050E+03 0.71309097E+03 0.86368617E+03 0.91188000E+02 0.0000E+00 0.9000E+01
      -13  1    4    4    0    0 0.21472212E+03 -.18166678E+03 -.32803223E+02 0.28316862E+03 0.10565837E+00 0.0000E+00 0.9000E+01
       13  1    4    4    0    0 0.32295426E+03 -.29595433E+03 0.61031801E+02 0.44228194E+03 0.10565837E+00 0.0000E+00 0.9000E+01
       23  1    3    3    0    0 -.11564702E+03 0.25172061E+03 0.44092808E+03 0.52864952E+03 0.91188000E+02 0.0000E+00 0.9000E+01
#aMCatNLO 1  0  0  2  1 0.17492152D+03 0.00000000D+00  -5  7  0 0.00000000D+00 0.00000000D+00 0.00000000D+00 0.00000000D+00 0.00000000D+00
  <mgrwgt>
 0.1710040732D-03    9    2    0
 0.878537016270319D+03 0.000000000000000D+00 0.000000000000000D+00 0.878537016270319D+03
 0.878537016270319D+03 0.000000000000000D+00 0.000000000000000D+00 -.878537016270319D+03
 0.561190120488576D+03 -.422029360929731D+03 0.225900497483671D+03 0.278351008153114D+03
 0.363372193145172D+03 0.214721974927000D+03 -.181666621039115D+03 -.230067518426247D+03
 0.492013533867484D+03 0.322954403696505D+03 -.295954484806940D+03 -.224028376694702D+03
 0.340498185039407D+03 -.115647017693774D+03 0.251720608362384D+03 0.175744886967835D+03
 0.000000000000000D+00 -.000000000000000D+00 -.000000000000000D+00 -.000000000000000D+00
 0.910969501375839D+03 0.000000000000000D+00 0.000000000000000D+00 0.910969501375839D+03
 0.115519928040014D+04 0.000000000000000D+00 0.000000000000000D+00 -.115519928040014D+04
 0.583130589671244D+03 -.417627321673483D+03 0.282549411109475D+03 0.278351008153114D+03
 0.348793440926262D+03 0.217461574979939D+03 -.146411286469365D+03 -.230067518426247D+03
 0.467561971412719D+03 0.326645754386984D+03 -.248451272260464D+03 -.224028376694702D+03
 0.366273521125172D+03 -.112928167315451D+03 0.286708919751144D+03 0.175744886967835D+03
 0.300409258640584D+03 -.135518403779894D+02 -.174395772130790D+03 -.244229779024304D+03
0.108868301730D-03 0.000000000000D+00 0.000000000000D+00 0.321327643462D-05 0.000000000000D+00  7 1 -1 23 -13 13 23 21 0 0.25384876D+00 0.71964510D-01 0.56118417D+06 0.56118417D+06 0.56118417D+06 0.10649850D+01  1  2  2  2  7  2       -1 0.135407189892D-03 0.100000000000D+01
-.586149510279D-05 0.000000000000D+00 -.418082944324D-06 0.321327643462D-05 0.000000000000D+00  7 1 -1 23 -13 13 23 21 2 0.25384876D+00 0.71964510D-01 0.56118417D+06 0.56118417D+06 0.56118417D+06 0.10649850D+01  1  2  3  2  7  2       -1 -.826867062412D-05 0.100000000000D+01
0.689165649752D-05 0.000000000000D+00 0.000000000000D+00 0.321327643462D-05 0.000000000000D+00  7 1 -1 23 -13 13 23 21 2 0.25384876D+00 0.71964510D-01 0.56118417D+06 0.56118417D+06 0.56118417D+06 0.10649850D+01  1  2 15  2  7  2       -1 0.972189460765D-05 0.100000000000D+01
0.232436318557D-03 0.000000000000D+00 0.000000000000D+00 0.321327643462D-05 0.000000000000D+00  7 1 -1 23 -13 13 23 21 2 0.25384876D+00 0.95650793D-01 0.70664106D+06 0.70664106D+06 0.70664106D+06 0.10580523D+01  1  2 12  2  7  2       -1 0.175623827918D-03 0.100000000000D+01
-.238106749618D-03 0.000000000000D+00 0.000000000000D+00 0.321327643462D-05 0.000000000000D+00  7 1 -1 23 -13 13 23 21 2 0.25384876D+00 0.71964510D-01 0.56118417D+06 0.56118417D+06 0.56118417D+06 0.10649850D+01  1  2  4  2  7  2       -1 -.335891483562D-03 0.100000000000D+01
-.303673912580D-03 0.000000000000D+00 -.532557258472D-04 0.321327643462D-05 0.000000000000D+00  7 1 -1 23 -13 13 23 21 2 0.25384876D+00 0.96668134D-01 0.56118417D+06 0.56118417D+06 0.56118417D+06 0.10649850D+01  1  2  5  2  7  2       -1 -.230517807040D-03 0.100000000000D+01
0.308113493545D-03 0.000000000000D+00 0.510179693517D-04 0.321327643462D-05 0.000000000000D+00  7 1 -1 23 -13 13 23 21 2 0.25384876D+00 0.71964510D-01 0.56118417D+06 0.56118417D+06 0.56118417D+06 0.10649850D+01  1  2  6  2  7  2       -1 0.434648318951D-03 0.100000000000D+01
0.864700562778D-05 0.000000000000D+00 0.000000000000D+00 0.321327643462D-05 0.000000000000D+00  7 1 21 23 -13 13 23 1 2 0.25384876D+00 0.95650793D-01 0.70664106D+06 0.70664106D+06 0.70664106D+06 0.10580523D+01  1  2 12  4  7  2       -1 0.450789760855D-04 0.100000000000D+01
-.104360254466D-04 0.000000000000D+00 -.203430285486D-05 0.321327643462D-05 0.000000000000D+00  7 1 21 23 -13 13 23 1 2 0.25384876D+00 0.96668134D-01 0.56118417D+06 0.56118417D+06 0.56118417D+06 0.10649850D+01  1  2  5  4  7  2       -1 -.547981730086D-04 0.100000000000D+01
  </mgrwgt>
  </event>
  <event>
  8     66 0.56006291E-06 0.91050374E+03 0.75467711E-02 0.80918394E-01
        1 -1    0    0  501    0 0.00000000E+00 0.00000000E+00 0.81249997E+03 0.81250003E+03 0.32000000E+00 0.0000E+00 0.9000E+01
       -1 -1    0    0    0  501 0.00000000E+00 0.00000000E+00 -.11986402E+04 0.11986402E+04 0.32000000E+00 0.0000E+00 0.9000E+01
       25  2    1    2    0    0 0.94230597E+02 -.88457446E+03 -.56998516E+03 0.10982061E+04 0.29970344E+03 0.0000E+00 0.0000E+00
       23  2    1    2    0    0 -.94230597E+02 0.88457446E+03 0.18384493E+03 0.91293418E+03 0.91095953E+02 0.0000E+00 0.0000E+00
       23  1    3    3    0    0 -.60691866E+02 -.29701724E+03 -.12876814E+03 0.34175902E+03 0.91188000E+02 0.0000E+00 0.9000E+01
      -11  1    4    4    0    0 -.18771571E+02 0.29699337E+03 0.10367015E+03 0.31512685E+03 0.51099893E-03 0.0000E+00 0.9000E+01
       11  1    4    4    0    0 -.75459026E+02 0.58758109E+03 0.80174782E+02 0.59780732E+03 0.51099893E-03 0.0000E+00 0.9000E+01
       23  1    3    3    0    0 0.15492246E+03 -.58755722E+03 -.44121702E+03 0.75644707E+03 0.91188000E+02 0.0000E+00 0.9000E+01
#aMCatNLO 1  0  0  2  1 0.16672017D+04 0.00000000D+00  -5  7  0 0.00000000D+00 0.00000000D+00 0.00000000D+00 0.00000000D+00 0.00000000D+00
  <mgrwgt>
 0.3019349030D-03    3    2    0
 0.986861299563570D+03 0.000000000000000D+00 0.000000000000000D+00 0.986861299563570D+03
 0.986861299563570D+03 0.000000000000000D+00 0.000000000000000D+00 -.986861299563570D+03
 0.323045786541075D+03 -.606918656188977D+02 -.297017240287609D+03 -.643473797257680D+02
 0.341383089975884D+03 -.187715712872772D+02 0.296993372231718D+03 0.167287115712244D+03
 0.624825945830700D+03 -.754590256453285D+02 0.587581088708257D+03 0.198650099985644D+03
 0.684467776779480D+03 0.154922462551503D+03 -.587557220652365D+03 -.301589835972120D+03
 0.000000000000000D+00 0.000000000000000D+00 -.000000000000000D+00 0.000000000000000D+00
 0.421515788709372D+04 0.000000000000000D+00 0.000000000000000D+00 0.421515788709372D+04
 0.152951888324837D+04 0.000000000000000D+00 0.000000000000000D+00 -.152951888324837D+04
 0.429089593832131D+03 -.331530836106996D+03 -.248494160139926D+03 -.643473797257680D+02
 0.506723993180962D+03 -.324169316506878D+03 0.351707947617625D+03 0.167287115712244D+03
 0.968174784903657D+03 -.649088041321734D+03 0.690351552842501D+03 0.198650099985644D+03
 0.679641344927183D+03 -.336284200234569D+03 -.499553414462694D+03 -.301589835972120D+03
 0.316104705349815D+04 0.164107239417018D+04 -.294011925857505D+03 0.268563900384535D+04
0.651392863633D-03 0.000000000000D+00 0.000000000000D+00 0.772470546100D-05 0.000000000000D+00  7 1 -1 23 -11 11 23 21 0 0.12500000D+00 0.18440619D+00 0.82901707D+06 0.82901707D+06 0.82901707D+06 0.10533283D+01  1  2  2  2  7  2       -1 0.299294712858D-03 0.100000000000D+01
-.359031387495D-04 0.000000000000D+00 -.250152011203D-05 0.772470546100D-05 0.000000000000D+00  7 1 -1 23 -11 11 23 21 2 0.12500000D+00 0.18440619D+00 0.82901707D+06 0.82901707D+06 0.82901707D+06 0.10533283D+01  1  2  3  2  7  2       -1 -.183027346926D-04 0.100000000000D+01
0.410822070018D-04 0.000000000000D+00 0.000000000000D+00 0.772470546100D-05 0.000000000000D+00  7 1 -1 23 -11 11 23 21 2 0.12500000D+00 0.18440619D+00 0.82901707D+06 0.82901707D+06 0.82901707D+06 0.10533283D+01  1  2 15  2  7  2       -1 0.209429248118D-04 0.100000000000D+01
  </mgrwgt>
  </event>
  <event>
  8     66 0.56006291E-06 0.27153752E+03 0.75467711E-02 0.10127682E+00
        1 -1    0    0  501    0 0.00000000E+00 0.00000000E+00 0.36729422E+03 0.36729436E+03 0.32000000E+00 0.0000E+00 0.9000E+01
       -1 -1    0    0    0  501 0.00000000E+00 0.00000000E+00 -.33335463E+03 0.33335479E+03 0.32000000E+00 0.0000E+00 0.9000E+01
       25  2    1    2    0    0 0.51466344E+02 0.18646902E+03 0.22179287E+03 0.42010578E+03 0.29979544E+03 0.0000E+00 0.0000E+00
       23  2    1    2    0    0 -.51466344E+02 -.18646902E+03 -.18785328E+03 0.28054337E+03 0.77435437E+02 0.0000E+00 0.0000E+00
       23  1    3    3    0    0 0.92097684E+02 0.21004516E+03 0.19371897E+03 0.31375666E+03 0.91188000E+02 0.0000E+00 0.9000E+01
      -11  1    4    4    0    0 -.42630583E+02 -.16609741E+03 -.19255768E+03 0.25784525E+03 0.51099893E-03 0.0000E+00 0.9000E+01
       11  1    4    4    0    0 -.88357605E+01 -.20371613E+02 0.47043934E+01 0.22698119E+02 0.51099893E-03 0.0000E+00 0.9000E+01
       23  1    3    3    0    0 -.40631340E+02 -.23576133E+02 0.28073905E+02 0.10634912E+03 0.91188000E+02 0.0000E+00 0.9000E+01
#aMCatNLO 1  0  0  2  2 0.34827822D+02 0.00000000D+00  -5  7  0 0.00000000D+00 0.00000000D+00 0.00000000D+00 0.00000000D+00 0.00000000D+00
  <mgrwgt>
 0.8849446882D-03    4    2    0
 0.349913323834217D+03 0.000000000000000D+00 0.000000000000000D+00 0.349913323834217D+03
 0.349913323834217D+03 0.000000000000000D+00 0.000000000000000D+00 -.349913323834217D+03
 0.304730599352538D+03 0.920976841642368D+02 0.210045155910404D+03 0.178730344060306D+03
 0.267486794647065D+03 -.426305834171560D+02 -.166097410381487D+03 -.205288745265389D+03
 0.224966459810439D+02 -.883576054553123D+01 -.203716127445060D+02 0.360912872676131D+01
 0.105112607687786D+03 -.406313402015496D+02 -.235761327844105D+02 0.229492724783220D+02
 0.000000000000000D+00 -.000000000000000D+00 -.000000000000000D+00 0.000000000000000D+00
 0.690103096365429D+03 0.000000000000000D+00 0.000000000000000D+00 0.690103096365429D+03
 0.351238902907038D+03 0.000000000000000D+00 0.000000000000000D+00 -.351238902907038D+03
 0.311012349950578D+03 0.107279659101722D+03 0.212037660175932D+03 0.178730344060306D+03
 0.264638674497357D+03 -.295103105089700D+02 -.164375486860859D+03 -.205288745265389D+03
 0.219565784832453D+02 -.773970619286497D+01 -.202277649920278D+02 0.360912872676131D+01
 0.103085135692136D+03 -.354979433423369D+02 -.229024183842256D+02 0.229492724783220D+02
 0.340649260649150D+03 -.345316990575501D+02 -.453198993881990D+01 0.338864193458391D+03
0.276585341741D-04 0.000000000000D+00 0.000000000000D+00 0.100795416663D-07 0.000000000000D+00  7 1 -1 23 -11 11 23 21 0 0.56506826D-01 0.51285351D-01 0.73732625D+05 0.73732625D+05 0.73732625D+05 0.11327466D+01  1  2  2  2  7  2       -1 0.881298310506D-03 0.100000000000D+01
-.141644573784D-05 0.000000000000D+00 -.106216053888D-06 0.100795416663D-07 0.000000000000D+00  7 1 -1 23 -11 11 23 21 2 0.56506826D-01 0.51285351D-01 0.73732625D+05 0.73732625D+05 0.73732625D+05 0.11327466D+01  1  2  3  2  7  2       -1 -.579107618949D-04 0.100000000000D+01
0.175316565284D-05 0.000000000000D+00 0.000000000000D+00 0.100795416663D-07 0.000000000000D+00  7 1 -1 23 -11 11 23 21 2 0.56506826D-01 0.51285351D-01 0.73732625D+05 0.73732625D+05 0.73732625D+05 0.11327466D+01  1  2 15  2  7  2       -1 0.716774077338D-04 0.100000000000D+01
-.247532760340D-06 0.000000000000D+00 0.000000000000D+00 0.100795416663D-07 0.000000000000D+00  7 1 -1 23 -11 11 23 21 2 0.56506826D-01 0.51285351D-01 0.73732625D+05 0.73732625D+05 0.73732625D+05 0.11327466D+01  1  2  4  2  7  2       -1 -.101202681912D-04 0.100000000000D+01
  </mgrwgt>
  </event>
  <event>
  8     66 0.56006291E-06 0.68643246E+03 0.75467711E-02 0.86323781E-01
        1 -1    0    0  501    0 0.00000000E+00 0.00000000E+00 0.13012645E+04 0.13012646E+04 0.32000000E+00 0.0000E+00 0.9000E+01
       -1 -1    0    0    0  501 0.00000000E+00 0.00000000E+00 -.37127677E+03 0.37127691E+03 0.32000000E+00 0.0000E+00 0.9000E+01
       25  2    1    2    0    0 -.37588922E+03 0.54199956E+03 0.48439599E+03 0.87122887E+03 0.29890476E+03 0.0000E+00 0.0000E+00
       23  2    1    2    0    0 0.37588922E+03 -.54199956E+03 0.44559176E+03 0.80131259E+03 0.92160895E+02 0.0000E+00 0.0000E+00
       23  1    3    3    0    0 -.54274964E+02 0.47552356E+02 0.27281561E+02 0.11944259E+03 0.91188000E+02 0.0000E+00 0.9000E+01
      -11  1    4    4    0    0 0.25068395E+03 -.35000636E+03 0.23724489E+03 0.49156081E+03 0.51099893E-03 0.0000E+00 0.9000E+01
       11  1    4    4    0    0 0.12520527E+03 -.19199320E+03 0.20834687E+03 0.30975178E+03 0.51099893E-03 0.0000E+00 0.9000E+01
       23  1    3    3    0    0 -.32161425E+03 0.49444720E+03 0.45711443E+03 0.75178628E+03 0.91188000E+02 0.0000E+00 0.9000E+01
#aMCatNLO 1  0  0  1  2 0.69565810D+03 0.00000000D+00  -5  7  0 0.00000000D+00 0.00000000D+00 0.00000000D+00 0.00000000D+00 0.00000000D+00
  <mgrwgt>
 0.2218276039D-03    5    2    0
 0.695075131299025D+03 0.000000000000000D+00 0.000000000000000D+00 0.695075131299025D+03
 0.695075131299025D+03 0.000000000000000D+00 0.000000000000000D+00 -.695075131299025D+03
 0.125454908001169D+03 -.542749641942009D+02 0.475523557469115D+02 -.470816771389795D+02
 0.432702144838334D+03 0.250683948156826D+03 -.350006359000311D+03 -.434079824864650D+02
 0.233293243071545D+03 0.125205270565127D+03 -.191993197808985D+03 0.434510009163437D+02
 0.598699966687004D+03 -.321614254527753D+03 0.494447201062384D+03 0.470386587091007D+02
 0.000000000000000D+00 -.000000000000000D+00 -.000000000000000D+00 0.000000000000000D+00
 0.126483194043738D+04 0.000000000000000D+00 0.000000000000000D+00 0.126483194043738D+04
 0.102537976887597D+04 0.000000000000000D+00 0.000000000000000D+00 -.102537976887597D+04
 0.125107226683223D+03 -.164906790492985D+00 0.715531642060558D+02 -.470816771389795D+02
 0.527513443547120D+03 0.458046966806542D+03 -.258029371155151D+03 -.434079824864650D+02
 0.279192016307386D+03 0.235878843962310D+03 -.142903336070771D+03 0.434510009163437D+02
 0.622683357355678D+03 -.578508496576319D+02 0.611440885093954D+03 0.470386587091007D+02
 0.735715665419939D+03 -.635910054320727D+03 -.282061342074088D+03 0.239452171561416D+03
0.666203664546D-04 0.000000000000D+00 0.000000000000D+00 0.616191261496D-06 0.000000000000D+00  7 1 -1 23 -11 11 23 21 0 0.20019455D+00 0.57119517D-01 0.47118952D+06 0.47118952D+06 0.47118952D+06 0.10703368D+01  1  2  2  1  7  1        1 0.226081936479D-03 0.100000000000D+01
-.370042697651D-05 0.000000000000D+00 -.255839748731D-06 0.616191261496D-06 0.000000000000D+00  7 1 -1 23 -11 11 23 21 2 0.20019455D+00 0.57119517D-01 0.47118952D+06 0.47118952D+06 0.47118952D+06 0.10703368D+01  1  2  3  1  7  1        1 -.143863816280D-04 0.100000000000D+01
0.407846415905D-05 0.000000000000D+00 0.000000000000D+00 0.616191261496D-06 0.000000000000D+00  7 1 -1 23 -11 11 23 21 2 0.20019455D+00 0.57119517D-01 0.47118952D+06 0.47118952D+06 0.47118952D+06 0.10703368D+01  1  2 15  1  7  1        1 0.158561004502D-04 0.100000000000D+01
-.154060050385D-04 0.000000000000D+00 -.184691851809D-04 0.616191261496D-06 0.000000000000D+00  7 1 -1 23 -11 11 23 21 2 0.42974230D+00 0.57119517D-01 0.47118952D+06 0.47118952D+06 0.47118952D+06 0.10703368D+01  1  2  5  1  7  1        1 -.571258001142D-05 0.100000000000D+01
-.118915853454D-06 0.000000000000D+00 -.152700242949D-05 0.616191261496D-06 0.000000000000D+00  7 21 -1 23 -11 11 23 -1 2 0.42974230D+00 0.57119517D-01 0.47118952D+06 0.47118952D+06 0.47118952D+06 0.10703368D+01  1  2  5  3  7  1        1 -.114714261544D-07 0.100000000000D+01
  </mgrwgt>
  </event>
  <event>
  8     66 0.56006291E-06 0.71530377E+03 0.75467711E-02 0.86372329E-01
        1 -1    0    0  501    0 0.00000000E+00 0.00000000E+00 0.15500405E+04 0.15500405E+04 0.32000000E+00 0.0000E+00 0.9000E+01
       -1 -1    0    0    0  501 0.00000000E+00 0.00000000E+00 -.59568518E+03 0.59568527E+03 0.32000000E+00 0.0000E+00 0.9000E+01
       25  2    1    2    0    0 -.30024681E+03 -.63166751E+03 0.11808835E+04 0.14048940E+04 0.30014886E+03 0.0000E+00 0.0000E+00
       23  2    1    2    0    0 0.30024681E+03 0.63166751E+03 -.22652823E+03 0.74083175E+03 0.91458434E+02 0.0000E+00 0.0000E+00
       23  1    3    3    0    0 -.10757754E+03 -.19257710E+03 0.20870880E+03 0.31707015E+03 0.91188000E+02 0.0000E+00 0.9000E+01
      -13  1    4    4    0    0 0.12050563E+02 0.84877500E+02 -.11972454E+02 0.86560712E+02 0.10565837E+00 0.0000E+00 0.9000E+01
       13  1    4    4    0    0 0.28819625E+03 0.54679001E+03 -.21455578E+03 0.65427103E+03 0.10565837E+00 0.0000E+00 0.9000E+01
       23  1    3    3    0    0 -.19266927E+03 -.43909041E+03 0.97217472E+03 0.10878239E+04 0.91188000E+02 0.0000E+00 0.9000E+01
#aMCatNLO 1  0  0  1  2 0.70027571D+03 0.00000000D+00  -5  7  0 0.00000000D+00 0.00000000D+00 0.00000000D+00 0.00000000D+00 0.00000000D+00
  <mgrwgt>
 0.3265814191D-03    3    2    0
 0.960903878676055D+03 0.000000000000000D+00 0.000000000000000D+00 0.960903878676055D+03
 0.960903878676055D+03 0.000000000000000D+00 0.000000000000000D+00 -.960903878676055D+03
 0.250370122615935D+03 -.107577539695139D+03 -.192577098423639D+03 0.755716949035220D+02
 0.102590719358135D+03 0.120501945038808D+02 0.848768832018908D+02 -.563521357960002D+02
 0.837050706831012D+03 0.288196616684058D+03 0.546790625715171D+03 -.564461342846586D+03
 0.731796208547028D+03 -.192669271492800D+03 -.439090410493422D+03 0.545241783739064D+03
 0.000000000000000D+00 -.000000000000000D+00 -.000000000000000D+00 -.000000000000000D+00
 0.116349615836502D+04 0.000000000000000D+00 0.000000000000000D+00 0.116349615836502D+04
 0.189349910083118D+04 0.000000000000000D+00 0.000000000000000D+00 -.189349910083118D+04
 0.186165263136312D+03 -.672237110357014D+02 -.126933626193415D+03 0.755716949035220D+02
 0.137836236251335D+03 0.342755363396998D+02 0.121030791221858D+03 -.563521357960002D+02
 0.111561968337567D+04 0.468703693376069D+03 0.840421036256644D+03 -.564461342846586D+03
 0.605795920409707D+03 -.690207303897267D+02 -.237951637696730D+03 0.545241783739064D+03
 0.101157815602317D+04 -.366734788290341D+03 -.596566563588356D+03 -.730002942466167D+03
0.364478695282D-03 0.000000000000D+00 0.000000000000D+00 0.811847647560D-05 0.000000000000D+00  7 1 -1 23 -13 13 23 21 0 0.23846777D+00 0.91643883D-01 0.51165948D+06 0.51165948D+06 0.51165948D+06 0.10678036D+01  1  2  2  1  7  1        1 0.322209466742D-03 0.100000000000D+01
-.181038674153D-04 0.000000000000D+00 -.139969415933D-05 0.811847647560D-05 0.000000000000D+00  7 1 -1 23 -13 13 23 21 2 0.23846777D+00 0.91643883D-01 0.51165948D+06 0.51165948D+06 0.51165948D+06 0.10678036D+01  1  2  3  1  7  1        1 -.182482096450D-04 0.100000000000D+01
0.224412379257D-04 0.000000000000D+00 0.000000000000D+00 0.811847647560D-05 0.000000000000D+00  7 1 -1 23 -13 13 23 21 2 0.23846777D+00 0.91643883D-01 0.51165948D+06 0.51165948D+06 0.51165948D+06 0.10678036D+01  1  2 15  1  7  1        1 0.226201620331D-04 0.100000000000D+01
  </mgrwgt>
  </event>
  <event>
  8     66 0.56006291E-06 0.34027187E+03 0.75467711E-02 0.87619107E-01
        1 -1    0    0  501    0 0.00000000E+00 0.00000000E+00 0.81539807E+03 0.81539813E+03 0.32000000E+00 0.0000E+00 0.9000E+01
       -1 -1    0    0    0  501 0.00000000E+00 0.00000000E+00 -.28642889E+03 0.28642907E+03 0.32000000E+00 0.0000E+00 0.9000E+01
       25  2    1    2    0    0 0.17815556E+03 0.24771295E+03 0.63496020E+03 0.76626081E+03 0.30146321E+03 0.0000E+00 0.0000E+00
       23  2    1    2    0    0 -.17815556E+03 -.24771295E+03 -.10599103E+03 0.33556638E+03 0.90937288E+02 0.0000E+00 0.0000E+00
       23  1    3    3    0    0 0.12172525E+03 0.72300273E+02 0.10659294E+03 0.19930296E+03 0.91188000E+02 0.0000E+00 0.9000E+01
      -13  1    4    4    0    0 -.88254510E+02 -.14776526E+03 -.14019837E+02 0.17268467E+03 0.10565837E+00 0.0000E+00 0.9000E+01
       13  1    4    4    0    0 -.89901053E+02 -.99947694E+02 -.91971190E+02 0.16288171E+03 0.10565837E+00 0.0000E+00 0.9000E+01
       23  1    3    3    0    0 0.56430317E+02 0.17541268E+03 0.52836726E+03 0.56695785E+03 0.91188000E+02 0.0000E+00 0.9000E+01
#aMCatNLO 1  0  0  1  2 0.88991876D+03 0.00000000D+00  -5  7  0 0.00000000D+00 0.00000000D+00 0.00000000D+00 0.00000000D+00 0.00000000D+00
  <mgrwgt>
 0.2690101530D-03    3    2    0
 0.483273935260119D+03 0.000000000000000D+00 0.000000000000000D+00 0.483273935260119D+03
 0.483273935260119D+03 0.000000000000000D+00 0.000000000000000D+00 -.483273935260119D+03
 0.168861833915055D+03 0.121725245865134D+03 0.723002729348523D+02 0.124379524751591D+02
 0.204526539085044D+03 -.882545078605071D+02 -.147765320789936D+03 -.110488266364592D+03
 0.236012588837112D+03 -.899010553536807D+02 -.999476295304211D+02 -.193985086249277D+03
 0.357146908683027D+03 0.564303173490543D+02 0.175412677385504D+03 0.292035400138710D+03
 0.000000000000000D+00 0.000000000000000D+00 0.000000000000000D+00 -.000000000000000D+00
 0.761840144693795D+03 0.000000000000000D+00 0.000000000000000D+00 0.761840144693795D+03
 0.254394390406379D+04 0.000000000000000D+00 0.000000000000000D+00 -.254394390406379D+04
 0.121051454686694D+03 0.728047240387619D+02 -.297148588021216D+02 0.124379524751591D+02
 0.435824720644381D+03 -.196308601997498D+03 -.373093102190710D+03 -.110488266364592D+03
 0.439581400669776D+03 -.203902074999380D+03 -.337676676628117D+03 -.193985086249277D+03
 0.317380385848365D+03 -.573907061499266D+02 -.619410194515213D+02 0.292035400138710D+03
 0.199194608690837D+04 0.384796659108043D+03 0.802425657072470D+03 -.178210375936999D+04
0.198752600941D-04 0.000000000000D+00 0.000000000000D+00 0.231573740349D-06 0.000000000000D+00  7 1 -1 23 -13 13 23 21 0 0.12544588D+00 0.44066002D-01 0.11578495D+06 0.11578495D+06 0.11578495D+06 0.11165358D+01  1  2  2  1  7  1        1 0.264561302793D-03 0.100000000000D+01
-.938932869153D-06 0.000000000000D+00 -.763262320373D-07 0.231573740349D-06 0.000000000000D+00  7 1 -1 23 -13 13 23 21 2 0.12544588D+00 0.44066002D-01 0.11578495D+06 0.11578495D+06 0.11578495D+06 0.11165358D+01  1  2  3  1  7  1        1 -.155809284296D-04 0.100000000000D+01
0.120702804404D-05 0.000000000000D+00 0.000000000000D+00 0.231573740349D-06 0.000000000000D+00  7 1 -1 23 -13 13 23 21 2 0.12544588D+00 0.44066002D-01 0.11578495D+06 0.11578495D+06 0.11578495D+06 0.11165358D+01  1  2 15  1  7  1        1 0.200297786824D-04 0.100000000000D+01
  </mgrwgt>
  </event>
  <event>
  8     66 0.56006291E-06 0.75178406E+02 0.75467711E-02 0.10361554E+00
        1 -1    0    0  501    0 0.00000000E+00 0.00000000E+00 0.82979549E+03 0.82979555E+03 0.32000000E+00 0.0000E+00 0.9000E+01
       -1 -1    0    0    0  501 0.00000000E+00 0.00000000E+00 -.95924792E+02 0.95925326E+02 0.32000000E+00 0.0000E+00 0.9000E+01
       25  2    1    2    0    0 -.10444139E+03 0.57293034E+02 0.70192910E+03 0.77228674E+03 0.29921874E+03 0.0000E+00 0.0000E+00
       23  2    1    2    0    0 0.10444139E+03 -.57293034E+02 0.31941601E+02 0.15343414E+03 0.91275802E+02 0.0000E+00 0.0000E+00
       23  1    3    3    0    0 -.74814060E+02 -.36088742E+02 0.10953902E+03 0.16496542E+03 0.91188000E+02 0.0000E+00 0.9000E+01
      -11  1    4    4    0    0 0.67413427E+02 -.53715550E+02 0.61527166E+02 0.10590336E+03 0.51099893E-03 0.0000E+00 0.9000E+01
       11  1    4    4    0    0 0.37027966E+02 -.35774843E+01 -.29585565E+02 0.47530772E+02 0.51099893E-03 0.0000E+00 0.9000E+01
       23  1    3    3    0    0 -.29627332E+02 0.93381776E+02 0.59239008E+03 0.60732132E+03 0.91188000E+02 0.0000E+00 0.9000E+01
#aMCatNLO 1  0  0  2  1 0.10292445D+03 0.00000000D+00  -5  7  0 0.00000000D+00 0.00000000D+00 0.00000000D+00 0.00000000D+00 0.00000000D+00
  <mgrwgt>
 0.1381844761D-03    9    2    0
 0.282131592262644D+03 0.000000000000000D+00 0.000000000000000D+00 0.282131592262644D+03
 0.282131592262644D+03 0.000000000000000D+00 0.000000000000000D+00 -.282131592262644D+03
 0.128175036475048D+03 -.748140603166430D+02 -.360887417203728D+02 -.348431877324367D+02
 0.937221717713810D+02 0.674134266859672D+02 -.537155500192816D+02 -.367955849270811D+02
 0.116456662819903D+03 0.370279656547470D+02 -.357748427329386D+01 -.110355270290520D+03
 0.225909313458957D+03 -.296273320240713D+02 0.933817760129482D+02 0.181994042950038D+03
 0.000000000000000D+00 0.000000000000000D+00 0.000000000000000D+00 -.000000000000000D+00
 0.333376592911944D+03 0.000000000000000D+00 0.000000000000000D+00 0.333376592911944D+03
 0.343630737377400D+03 0.000000000000000D+00 0.000000000000000D+00 -.343630737377400D+03
 0.142759553758104D+03 -.869328870804449D+02 -.573904544128534D+02 -.348431877324367D+02
 0.977042851046969D+02 0.588509759966948D+02 -.687660881680085D+02 -.367955849270811D+02
 0.115605518716142D+03 0.266478906187572D+02 -.218229283622791D+02 -.110355270290520D+03
 0.217503988270567D+03 -.494610822432709D+02 0.585192553235882D+02 0.181994042950038D+03
 0.103433984439835D+03 0.508951027082639D+02 0.894602156195528D+02 -.102541444654560D+02
0.149835600300D-05 0.000000000000D+00 0.000000000000D+00 0.150603862520D-06 0.000000000000D+00  7 1 -1 23 -11 11 23 21 0 0.12766089D+00 0.14757706D-01 0.36211395D+05 0.36211395D+05 0.36211395D+05 0.11598285D+01  1  2  2  2  7  2       -1 0.118685179211D-03 0.100000000000D+01
-.675457695170D-07 0.000000000000D+00 -.575408157772D-08 0.150603862520D-06 0.000000000000D+00  7 1 -1 23 -11 11 23 21 2 0.12766089D+00 0.14757706D-01 0.36211395D+05 0.36211395D+05 0.36211395D+05 0.11598285D+01  1  2  3  2  7  2       -1 -.719726020503D-05 0.100000000000D+01
0.918107505661D-07 0.000000000000D+00 0.000000000000D+00 0.150603862520D-06 0.000000000000D+00  7 1 -1 23 -11 11 23 21 2 0.12766089D+00 0.14757706D-01 0.36211395D+05 0.36211395D+05 0.36211395D+05 0.11598285D+01  1  2 15  2  7  2       -1 0.978278678544D-05 0.100000000000D+01
0.428878417680D-06 0.000000000000D+00 0.000000000000D+00 0.150603862520D-06 0.000000000000D+00  7 1 -1 23 -11 11 23 21 2 0.12766089D+00 0.19059741D-01 0.58909736D+05 0.58909736D+05 0.58909736D+05 0.11410834D+01  1  2 12  2  7  2       -1 0.295130227134D-04 0.100000000000D+01
-.708435442596D-06 0.000000000000D+00 0.000000000000D+00 0.150603862520D-06 0.000000000000D+00  7 1 -1 23 -11 11 23 21 2 0.12766089D+00 0.14757706D-01 0.36211395D+05 0.36211395D+05 0.36211395D+05 0.11598285D+01  1  2  4  2  7  2       -1 -.754865072274D-04 0.100000000000D+01
-.104012283314D-05 0.000000000000D+00 -.666595759407D-06 0.150603862520D-06 0.000000000000D+00  7 1 -1 23 -11 11 23 21 2 0.12766089D+00 0.21230661D-01 0.36211395D+05 0.36211395D+05 0.36211395D+05 0.11598285D+01  1  2  5  2  7  2       -1 -.626227493519D-04 0.100000000000D+01
0.124132864691D-05 0.000000000000D+00 0.624817889815D-06 0.150603862520D-06 0.000000000000D+00  7 1 -1 23 -11 11 23 21 2 0.12766089D+00 0.14757706D-01 0.36211395D+05 0.36211395D+05 0.36211395D+05 0.11598285D+01  1  2  6  2  7  2       -1 0.132268317255D-03 0.100000000000D+01
0.147624229879D-07 0.000000000000D+00 0.000000000000D+00 0.150603862520D-06 0.000000000000D+00  7 1 21 23 -11 11 23 1 2 0.12766089D+00 0.19059741D-01 0.58909736D+05 0.58909736D+05 0.58909736D+05 0.11410834D+01  1  2 12  4  7  2       -1 0.125990308726D-04 0.100000000000D+01
-.262693628833D-07 0.000000000000D+00 -.296049988776D-07 0.150603862520D-06 0.000000000000D+00  7 1 21 23 -11 11 23 1 2 0.12766089D+00 0.21230661D-01 0.36211395D+05 0.36211395D+05 0.36211395D+05 0.11598285D+01  1  2  5  4  7  2       -1 -.193573439809D-04 0.100000000000D+01
  </mgrwgt>
  </event>
  <event>
  8     66 0.56006291E-06 0.75916156E+03 0.75467711E-02 0.84731893E-01
        1 -1    0    0  501    0 0.00000000E+00 0.00000000E+00 0.90234058E+03 0.90234064E+03 0.32000000E+00 0.0000E+00 0.9000E+01
       -1 -1    0    0    0  501 0.00000000E+00 0.00000000E+00 -.11726787E+04 0.11726788E+04 0.32000000E+00 0.0000E+00 0.9000E+01
       25  2    1    2    0    0 0.16033322E+03 0.72922212E+03 -.81574825E+03 0.11459135E+04 0.30033471E+03 0.0000E+00 0.0000E+00
       23  2    1    2    0    0 -.16033322E+03 -.72922212E+03 0.54541012E+03 0.92910588E+03 0.91070811E+02 0.0000E+00 0.0000E+00
       23  1    3    3    0    0 0.11825164E+03 0.48242085E+03 -.36793202E+03 0.62482201E+03 0.91188000E+02 0.0000E+00 0.9000E+01
      -11  1    4    4    0    0 -.22418287E+02 -.13511895E+03 0.59614336E+02 0.14937730E+03 0.51099893E-03 0.0000E+00 0.9000E+01
       11  1    4    4    0    0 -.13791493E+03 -.59410317E+03 0.48579578E+03 0.77972858E+03 0.51099893E-03 0.0000E+00 0.9000E+01
       23  1    3    3    0    0 0.42081584E+02 0.24680127E+03 -.44781623E+03 0.52109151E+03 0.91188000E+02 0.0000E+00 0.9000E+01
#aMCatNLO 1  0  0  2  1 0.95832317D+03 0.00000000D+00  -5  7  0 0.00000000D+00 0.00000000D+00 0.00000000D+00 0.00000000D+00 0.00000000D+00
  <mgrwgt>
 0.1528821563D-03    5    2    0
 0.102866695031139D+04 0.000000000000000D+00 0.000000000000000D+00 0.102866695031139D+04
 0.102866695031139D+04 0.000000000000000D+00 0.000000000000000D+00 -.102866695031139D+04
 0.581846114522138D+03 0.118251636295025D+03 0.482420848162814D+03 -.288991912364220D+03
 0.158494849610587D+03 -.224182867225181D+02 -.135118946445293D+03 0.797553012973046D+02
 0.850265987329714D+03 -.137914933907795D+03 -.594103173764763D+03 0.592429860099588D+03
 0.466726949160342D+03 0.420815843352885D+02 0.246801272047241D+03 -.383193249032673D+03
 0.000000000000000D+00 0.000000000000000D+00 0.000000000000000D+00 -.000000000000000D+00
 0.138302575313766D+04 0.000000000000000D+00 0.000000000000000D+00 0.138302575313766D+04
 0.205970699938158D+04 0.000000000000000D+00 0.000000000000000D+00 -.205970699938158D+04
 0.413703592317072D+03 0.101968387414006D+03 0.262529109830335D+03 -.288991912364220D+03
 0.238385123914157D+03 -.289096706688943D+02 -.222779689739348D+03 0.797553012973046D+02
 0.121871208004626D+04 -.171755217892624D+03 -.105108807434950D+04 0.592429860099588D+03
 0.398782002948929D+03 0.279252869860683D+02 0.556322458156176D+02 -.383193249032673D+03
 0.117314995329281D+04 0.707712141614440D+02 0.955706408442892D+03 -.676681246243922D+03
0.353550180404D-03 0.000000000000D+00 0.000000000000D+00 0.120755099781D-04 0.000000000000D+00  7 1 -1 23 -11 11 23 21 0 0.13882164D+00 0.18041212D+00 0.57632627D+06 0.57632627D+06 0.57632627D+06 0.10641770D+01  1  2  2  2  7  2       -1 0.150829063836D-03 0.100000000000D+01
-.174374908462D-04 0.000000000000D+00 -.135772578465D-05 0.120755099781D-04 0.000000000000D+00  7 1 -1 23 -11 11 23 21 2 0.13882164D+00 0.18041212D+00 0.57632627D+06 0.57632627D+06 0.57632627D+06 0.10641770D+01  1  2  3  2  7  2       -1 -.842453062618D-05 0.100000000000D+01
0.220300026537D-04 0.000000000000D+00 0.000000000000D+00 0.120755099781D-04 0.000000000000D+00  7 1 -1 23 -11 11 23 21 2 0.13882164D+00 0.18041212D+00 0.57632627D+06 0.57632627D+06 0.57632627D+06 0.10641770D+01  1  2 15  2  7  2       -1 0.106432991815D-04 0.100000000000D+01
-.511511571212D-04 0.000000000000D+00 -.907025748129D-04 0.120755099781D-04 0.000000000000D+00  7 1 -1 23 -11 11 23 21 2 0.13882164D+00 0.40503106D+00 0.57632627D+06 0.57632627D+06 0.57632627D+06 0.10641770D+01  1  2  5  2  7  2       -1 -.269019990160D-06 0.100000000000D+01
0.124138150476D-05 0.000000000000D+00 -.796375568399D-05 0.120755099781D-04 0.000000000000D+00  7 1 21 23 -11 11 23 1 2 0.13882164D+00 0.40503106D+00 0.57632627D+06 0.57632627D+06 0.57632627D+06 0.10641770D+01  1  2  5  4  7  2       -1 0.103343849917D-06 0.100000000000D+01
  </mgrwgt>
  </event>
  <event>
  8     66 0.56006291E-06 0.25139389E+03 0.75467711E-02 0.94829743E-01
        1 -1    0    0  501    0 0.00000000E+00 0.00000000E+00 0.41296127E+03 0.41296140E+03 0.32000000E+00 0.0000E+00 0.9000E+01
       -1 -1    0    0    0  501 0.00000000E+00 0.00000000E+00 -.50453273E+03 0.50453283E+03 0.32000000E+00 0.0000E+00 0.9000E+01
       25  2    1    2    0    0 -.12863203E+02 0.39910907E+03 -.93643736E+02 0.50814220E+03 0.29997640E+03 0.0000E+00 0.0000E+00
       23  2    1    2    0    0 0.12863203E+02 -.39910907E+03 0.20722806E+01 0.40935203E+03 0.90062627E+02 0.0000E+00 0.0000E+00
       23  1    3    3    0    0 0.55201641E+02 0.35665067E+03 -.36827039E+02 0.37405668E+03 0.91188000E+02 0.0000E+00 0.9000E+01
      -11  1    4    4    0    0 0.25766383E+02 -.20347458E+03 0.41780577E+02 0.20931179E+03 0.51099893E-03 0.0000E+00 0.9000E+01
       11  1    4    4    0    0 -.12903180E+02 -.19563449E+03 -.39708296E+02 0.20004024E+03 0.51099893E-03 0.0000E+00 0.9000E+01
       23  1    3    3    0    0 -.68064844E+02 0.42458403E+02 -.56816696E+02 0.13408552E+03 0.91188000E+02 0.0000E+00 0.9000E+01
#aMCatNLO 1  0  0  2  1 0.84101349D+02 0.00000000D+00  -5  7  0 0.00000000D+00 0.00000000D+00 0.00000000D+00 0.00000000D+00 0.00000000D+00
  <mgrwgt>
 0.2188016320D-03    9    2    0
 0.456456550601923D+03 0.000000000000000D+00 0.000000000000000D+00 0.456456550601923D+03
 0.456456550601923D+03 0.000000000000000D+00 0.000000000000000D+00 -.456456550601923D+03
 0.372239745744228D+03 0.552016409799888D+02 0.356650665378115D+03 0.508612024740046D+00
 0.214553026570083D+03 0.257663830171115D+02 -.203474575357880D+03 0.629856483615795D+02
 0.197061051168552D+03 -.129031803038834D+02 -.195634493292980D+03 -.198421485656001D+02
 0.129059277720982D+03 -.680648436932169D+02 0.424584032727447D+02 -.436521118207195D+02
 0.000000000000000D+00 0.000000000000000D+00 -.000000000000000D+00 -.000000000000000D+00
 0.468224691433209D+03 0.000000000000000D+00 0.000000000000000D+00 0.468224691433209D+03
 0.638176566575066D+03 0.000000000000000D+00 0.000000000000000D+00 -.638176566575066D+03
 0.403583156363360D+03 0.443883789354146D+02 0.390632213066852D+03 0.508612024740046D+00
 0.196879393484392D+03 0.200319215058613D+02 -.185453567773814D+03 0.629856483615795D+02
 0.181081823718417D+03 -.181736588954968D+02 -.179071589437964D+03 -.198421485656001D+02
 0.135234425953468D+03 -.717485156585575D+02 0.540346393839090D+02 -.436521118207195D+02
 0.189622458488638D+03 0.255018741127785D+02 -.801416952389837D+02 -.169951875141856D+03
0.138311159873D-04 0.000000000000D+00 0.000000000000D+00 0.817418023618D-06 0.000000000000D+00  7 1 -1 23 -11 11 23 21 0 0.63532521D-01 0.77620437D-01 0.20018971D+06 0.20018971D+06 0.20018971D+06 0.10977938D+01  1  2  2  2  7  2       -1 0.168082972017D-03 0.100000000000D+01
-.768022259436D-06 0.000000000000D+00 -.531151272076D-07 0.817418023618D-06 0.000000000000D+00  7 1 -1 23 -11 11 23 21 2 0.63532521D-01 0.77620437D-01 0.20018971D+06 0.20018971D+06 0.20018971D+06 0.10977938D+01  1  2  3  2  7  2       -1 -.112481686441D-04 0.100000000000D+01
0.906026491840D-06 0.000000000000D+00 0.000000000000D+00 0.817418023618D-06 0.000000000000D+00  7 1 -1 23 -11 11 23 21 2 0.63532521D-01 0.77620437D-01 0.20018971D+06 0.20018971D+06 0.20018971D+06 0.10977938D+01  1  2 15  2  7  2       -1 0.132693273548D-04 0.100000000000D+01
0.433186705295D-04 0.000000000000D+00 0.000000000000D+00 0.817418023618D-06 0.000000000000D+00  7 1 -1 23 -11 11 23 21 2 0.63532521D-01 0.10922111D+00 0.24118089D+06 0.24118089D+06 0.24118089D+06 0.10916344D+01  1  2 12  2  7  2       -1 0.298116677573D-03 0.100000000000D+01
-.425507652801D-04 0.000000000000D+00 0.000000000000D+00 0.817418023618D-06 0.000000000000D+00  7 1 -1 23 -11 11 23 21 2 0.63532521D-01 0.77620437D-01 0.20018971D+06 0.20018971D+06 0.20018971D+06 0.10977938D+01  1  2  4  2  7  2       -1 -.623182698058D-03 0.100000000000D+01
-.506803746383D-04 0.000000000000D+00 -.594928393782D-05 0.817418023618D-06 0.000000000000D+00  7 1 -1 23 -11 11 23 21 2 0.63532521D-01 0.10988193D+00 0.20018971D+06 0.20018971D+06 0.20018971D+06 0.10977938D+01  1  2  5  2  7  2       -1 -.350239960233D-03 0.100000000000D+01
0.500372965320D-04 0.000000000000D+00 0.560716289962D-05 0.817418023618D-06 0.000000000000D+00  7 1 -1 23 -11 11 23 21 2 0.63532521D-01 0.77620437D-01 0.20018971D+06 0.20018971D+06 0.20018971D+06 0.10977938D+01  1  2  6  2  7  2       -1 0.732827653065D-03 0.100000000000D+01
0.183859569151D-05 0.000000000000D+00 0.000000000000D+00 0.817418023618D-06 0.000000000000D+00  7 1 21 23 -11 11 23 1 2 0.63532521D-01 0.10922111D+00 0.24118089D+06 0.24118089D+06 0.24118089D+06 0.10916344D+01  1  2 12  4  7  2       -1 0.859470761227D-04 0.100000000000D+01
-.201182579421D-05 0.000000000000D+00 -.255715881237D-06 0.817418023618D-06 0.000000000000D+00  7 1 21 23 -11 11 23 1 2 0.63532521D-01 0.10988193D+00 0.20018971D+06 0.20018971D+06 0.20018971D+06 0.10977938D+01  1  2  5  4  7  2       -1 -.947712471503D-04 0.100000000000D+01
  </mgrwgt>
  </event>
  <event>
  8     66 0.56006291E-06 0.82767451E+02 0.75467711E-02 0.10412466E+00
        1 -1    0    0  501    0 0.00000000E+00 0.00000000E+00 0.31032862E+04 0.31032862E+04 0.32000000E+00 0.0000E+00 0.9000E+01
       -1 -1    0    0    0  501 0.00000000E+00 0.00000000E+00 -.41333302E+02 0.41334540E+02 0.32000000E+00 0.0000E+00 0.9000E+01
       25  2    1    2    0    0 -.34070568E+01 -.14388257E+03 0.28566562E+04 0.28762166E+04 0.30236331E+03 0.0000E+00 0.0000E+00
       23  2    1    2    0    0 0.34070568E+01 0.14388257E+03 0.20529667E+03 0.26840411E+03 0.95813582E+02 0.0000E+00 0.0000E+00
       23  1    3    3    0    0 -.38040267E+02 -.11570780E+03 0.25198575E+04 0.25244470E+04 0.91188000E+02 0.0000E+00 0.9000E+01
      -13  1    4    4    0    0 -.60281431E+01 0.97188577E+02 0.57421578E+02 0.11304515E+03 0.10565837E+00 0.0000E+00 0.9000E+01
       13  1    4    4    0    0 0.94351999E+01 0.46693995E+02 0.14787509E+03 0.15535896E+03 0.10565837E+00 0.0000E+00 0.9000E+01
       23  1    3    3    0    0 0.34633210E+02 -.28174771E+02 0.33679866E+03 0.35176962E+03 0.91188000E+02 0.0000E+00 0.9000E+01
#aMCatNLO 1  0  0  1  2 0.59846850D+02 0.00000000D+00  -5  7  0 0.00000000D+00 0.00000000D+00 0.00000000D+00 0.00000000D+00 0.00000000D+00
  <mgrwgt>
 0.3758134424D-03    9    2    0
 0.358149462350758D+03 0.000000000000000D+00 0.000000000000000D+00 0.358149462350758D+03
 0.358149462350758D+03 0.000000000000000D+00 0.000000000000000D+00 -.358149462350758D+03
 0.310964199772508D+03 -.380402648752567D+02 -.115707803029372D+03 0.271197575141247D+03
 0.250820071600864D+03 -.602816079863598D+01 0.971886442523213D+02 -.231146570434528D+03
 0.499208701365135D+02 0.943521769743231D+01 0.466939319365692D+02 -.149246997454471D+02
 0.104593783191631D+03 0.346332079764603D+02 -.281747731595180D+02 -.251263049612718D+02
 0.000000000000000D+00 0.000000000000000D+00 -.000000000000000D+00 0.000000000000000D+00
 0.406230541447448D+03 0.000000000000000D+00 0.000000000000000D+00 0.406230541447448D+03
 0.378516499440905D+03 0.000000000000000D+00 0.000000000000000D+00 -.378516499440905D+03
 0.310365491436717D+03 -.609787812450282D+02 -.103657852602364D+03 0.271197575141247D+03
 0.255916148459817D+03 -.247360661884396D+02 0.107016190589946D+03 -.231146570434528D+03
 0.512112277074976D+02 0.570157947810084D+01 0.486552687000320D+02 -.149246997454471D+02
 0.101301814507894D+03 0.270318658788331D+02 -.241816729093272D+02 -.251263049612718D+02
 0.659523587764282D+02 0.529814020765338D+02 -.278319337782871D+02 0.277140420065424D+02
0.253946629550D-04 0.000000000000D+00 0.000000000000D+00 0.607266284582D-08 0.000000000000D+00  7 1 -1 23 -13 13 23 21 0 0.47742874D+00 0.63590660D-02 0.39739872D+05 0.39739872D+05 0.39739872D+05 0.11561735D+01  1  2  2  1  7  1        1 0.202078199263D-03 0.100000000000D+01
-.821982617093D-06 0.000000000000D+00 -.975221923156D-07 0.607266284582D-08 0.000000000000D+00  7 1 -1 23 -13 13 23 21 2 0.47742874D+00 0.63590660D-02 0.39739872D+05 0.39739872D+05 0.39739872D+05 0.11561735D+01  1  2  3  1  7  1        1 -.874350724497D-05 0.100000000000D+01
0.153305133779D-05 0.000000000000D+00 0.000000000000D+00 0.607266284582D-08 0.000000000000D+00  7 1 -1 23 -13 13 23 21 2 0.47742874D+00 0.63590660D-02 0.39739872D+05 0.39739872D+05 0.39739872D+05 0.11561735D+01  1  2 15  1  7  1        1 0.163072128293D-04 0.100000000000D+01
0.252310510095D-04 0.000000000000D+00 0.000000000000D+00 0.607266284582D-08 0.000000000000D+00  7 1 -1 23 -13 13 23 21 2 0.55372906D+00 0.63590660D-02 0.54693994D+05 0.54693994D+05 0.54693994D+05 0.11438833D+01  1  2 12  1  7  1        1 0.106068841753D-03 0.100000000000D+01
-.263212469624D-04 0.000000000000D+00 0.000000000000D+00 0.607266284582D-08 0.000000000000D+00  7 1 -1 23 -13 13 23 21 2 0.47742874D+00 0.63590660D-02 0.39739872D+05 0.39739872D+05 0.39739872D+05 0.11561735D+01  1  2  4  1  7  1        1 -.279981606335D-03 0.100000000000D+01
-.536825103940D-04 0.000000000000D+00 -.145272742404D-04 0.607266284582D-08 0.000000000000D+00  7 1 -1 23 -13 13 23 21 2 0.54924442D+00 0.63590660D-02 0.39739872D+05 0.39739872D+05 0.39739872D+05 0.11561735D+01  1  2  5  1  7  1        1 -.247953897258D-03 0.100000000000D+01
0.553156892518D-04 0.000000000000D+00 0.143858028972D-04 0.607266284582D-08 0.000000000000D+00  7 1 -1 23 -13 13 23 21 2 0.47742874D+00 0.63590660D-02 0.39739872D+05 0.39739872D+05 0.39739872D+05 0.11561735D+01  1  2  6  1  7  1        1 0.588398245506D-03 0.100000000000D+01
0.570130285109D-06 0.000000000000D+00 0.000000000000D+00 0.607266284582D-08 0.000000000000D+00  7 21 -1 23 -13 13 23 -1 2 0.55372906D+00 0.63590660D-02 0.54693994D+05 0.54693994D+05 0.54693994D+05 0.11438833D+01  1  2 12  3  7  1        1 0.307400479407D-06 0.100000000000D+01
-.106932747107D-05 0.000000000000D+00 -.313508304782D-06 0.607266284582D-08 0.000000000000D+00  7 21 -1 23 -13 13 23 -1 2 0.54924442D+00 0.63590660D-02 0.39739872D+05 0.39739872D+05 0.39739872D+05 0.11561735D+01  1  2  5  3  7  1        1 -.667446567722D-06 0.100000000000D+01
  </mgrwgt>
  </event>
  <event>
  9     66 0.56006291E-06 0.41524284E+03 0.75467711E-02 0.94711741E-01
        1 -1    0    0  502    0 0.00000000E+00 0.00000000E+00 0.97536025E+03 0.97536030E+03 0.32000000E+00 0.0000E+00 0.9000E+01
       -1 -1    0    0    0  501 0.00000000E+00 0.00000000E+00 -.26683200E+03 0.26683219E+03 0.32000000E+00 0.0000E+00 0.9000E+01
       25  2    1    2    0    0 0.21181824E+03 -.25112492E+03 0.27323009E+03 0.52277632E+03 0.30118053E+03 0.0000E+00 0.0000E+00
       23  2    1    2    0    0 -.35004438E+03 0.19669318E+03 0.38192253E+03 0.56155926E+03 0.90910421E+02 0.0000E+00 0.0000E+00
       23  1    3    3    0    0 0.14856655E+03 -.73055191E+01 0.77007886E+02 0.19071145E+03 0.91188000E+02 0.0000E+00 0.9000E+01
      -13  1    4    4    0    0 -.79139046E+02 0.45517978E+02 0.14440576E+03 0.17084470E+03 0.10565837E+00 0.0000E+00 0.9000E+01
       13  1    4    4    0    0 -.27090534E+03 0.15117520E+03 0.23751677E+03 0.39071457E+03 0.10565837E+00 0.0000E+00 0.9000E+01
       23  1    3    3    0    0 0.63251684E+02 -.24381940E+03 0.19622220E+03 0.33206487E+03 0.91188000E+02 0.0000E+00 0.9000E+01
       21  1    1    2  502  501 0.13822614E+03 0.54431741E+02 0.53375627E+02 0.15785690E+03 0.75000000E+00 0.0000E+00 0.9000E+01
#aMCatNLO 2  0  0  1  2 0.14855733D+03 0.00000000D+00  -5  7  0 0.00000000D+00 0.00000000D+00 0.00000000D+00 0.00000000D+00 0.00000000D+00
  <mgrwgt>
 0.5374648274D-04    1    2    0
 0.425584721467746D+03 0.000000000000000D+00 0.000000000000000D+00 0.425584721467746D+03
 0.425584721467746D+03 0.000000000000000D+00 0.000000000000000D+00 -.425584721467746D+03
 0.207339942255893D+03 0.179857942594349D+03 0.501664184240741D+01 -.479640917878165D+02
 0.965536251825738D+02 -.629032058284749D+02 0.519112054524492D+02 0.516818728460092D+02
 0.280600664372059D+03 -.223290757735605D+03 0.169925477804666D+03 0.181723657144081D+01
 0.266675211124965D+03 0.106336020969731D+03 -.226853325099522D+03 -.553501762963351D+01
 0.000000000000000D+00 0.000000000000000D+00 0.000000000000000D+00 -.000000000000000D+00
 0.484478853103597D+03 0.000000000000000D+00 0.000000000000000D+00 0.484478853103597D+03
 0.537188665044536D+03 0.000000000000000D+00 0.000000000000000D+00 -.537188665044536D+03
 0.180945286845222D+03 0.148566553359425D+03 -.730551910343562D+01 -.479640917878165D+02
 0.104908707262706D+03 -.791387867577694D+02 0.455178350668114D+02 0.516818728460092D+02
 0.310237213865527D+03 -.270905595069151D+03 0.151175345471798D+03 0.181723657144081D+01
 0.267945077114374D+03 0.632516843059024D+02 -.243819402464476D+03 -.553501762963351D+01
 0.157631233060303D+03 0.138226144161593D+03 0.544317410293023D+02 -.527098119409383D+02
0.412130755825D-05 0.000000000000D+00 0.000000000000D+00 0.255792932434D-06 0.752036044380D-10  7 1 -1 23 -13 13 23 21 2 0.15005517D+00 0.41051022D-01 0.24623669D+06 0.24623669D+06 0.24623669D+06 0.10909550D+01  1  2  1  1  7  1        1 0.537464827388D-04 0.100000000000D+01
  </mgrwgt>
  </event>
  <event>
  9     66 0.56006291E-06 0.28605403E+03 0.75467711E-02 0.10034782E+00
        1 -1    0    0  502    0 0.00000000E+00 0.00000000E+00 0.18790908E+04 0.18790908E+04 0.32000000E+00 0.0000E+00 0.9000E+01
       -1 -1    0    0    0  501 0.00000000E+00 0.00000000E+00 -.17469255E+03 0.17469285E+03 0.32000000E+00 0.0000E+00 0.9000E+01
       25  2    1    2    0    0 0.35300800E+02 0.22853478E+03 0.16733931E+04 0.17157035E+04 0.29986652E+03 0.0000E+00 0.0000E+00
       23  2    1    2    0    0 -.13363997E+01 -.26121758E+03 -.85030830E+01 0.27657231E+03 0.90462853E+02 0.0000E+00 0.0000E+00
       23  1    3    3    0    0 -.75737729E+01 0.41295681E+02 0.17062227E+03 0.19796440E+03 0.91188000E+02 0.0000E+00 0.9000E+01
      -13  1    4    4    0    0 0.57338880E+01 -.14840045E+03 0.39637286E+02 0.15370978E+03 0.10565837E+00 0.0000E+00 0.9000E+01
       13  1    4    4    0    0 -.70702878E+01 -.11281713E+03 -.48140369E+02 0.12286253E+03 0.10565837E+00 0.0000E+00 0.9000E+01
       23  1    3    3    0    0 0.42874573E+02 0.18723910E+03 0.15027708E+04 0.15177391E+04 0.91188000E+02 0.0000E+00 0.9000E+01
       21  1    1    2  502  501 -.33964400E+02 0.32682805E+02 0.39508197E+02 0.61507775E+02 0.75000000E+00 0.0000E+00 0.9000E+01
#aMCatNLO 2  0  0  1  2 0.47135403D+02 0.00000000D+00  -5  7  0 0.00000000D+00 0.00000000D+00 0.00000000D+00 0.00000000D+00 0.00000000D+00
  <mgrwgt>
 0.1104896293D-03    2    2    0
 0.546599165729622D+03 0.000000000000000D+00 0.000000000000000D+00 0.546599165729622D+03
 0.546599165729622D+03 0.000000000000000D+00 0.000000000000000D+00 -.546599165729622D+03
 0.102396139626275D+03 -.107293464468396D+02 0.443321839495505D+02 0.944757415692058D+01
 0.215144448539462D+03 -.101576600509608D+01 -.141905514810724D+03 -.161706298031571D+03
 0.294070648744296D+03 -.162471717571208D+02 -.103986493255872D+03 -.274591305549051D+03
 0.481587094549210D+03 0.279922842090565D+02 0.201559824117045D+03 0.426850029423702D+03
 0.000000000000000D+00 -.000000000000000D+00 0.000000000000000D+00 -.000000000000000D+00
 0.562216184274943D+03 0.000000000000000D+00 0.000000000000000D+00 0.562216184274943D+03
 0.583868566202439D+03 0.000000000000000D+00 0.000000000000000D+00 -.583868566202439D+03
 0.100832550890202D+03 -.757377290271496D+01 0.412956811493978D+02 0.944757415692058D+01
 0.219555260093602D+03 0.573390549411565D+01 -.148400497773687D+03 -.161706298031571D+03
 0.296947922896709D+03 -.707030522308445D+01 -.112817084759312D+03 -.274591305549051D+03
 0.476878293700880D+03 0.428745727994853D+02 0.187239095937010D+03 0.426850029423702D+03
 0.518707228959892D+02 -.339644001678015D+02 0.326828054465916D+02 -.216523819274966D+02
-.200479197516D-06 0.000000000000D+00 0.000000000000D+00 0.194683366478D-05 0.000000000000D+00  7 1 -1 23 -13 13 23 21 2 0.28105932D+00 0.25160150D-01 0.81826906D+05 0.81826906D+05 0.81826906D+05 0.11289408D+01  1  2  8  1  7  1        1 -.173643659845D-05 0.100000000000D+01
0.158957542208D-04 0.000000000000D+00 0.000000000000D+00 0.194683366478D-05 0.590520928259D-08  7 1 -1 23 -13 13 23 21 2 0.28908953D+00 0.26875674D-01 0.96629298D+05 0.96629298D+05 0.96629298D+05 0.11229461D+01  1  2  1  1  7  1        1 0.112226065882D-03 0.100000000000D+01
  </mgrwgt>
  </event>
  <event>
  8     66 0.56006291E-06 0.68074728E+02 0.75467711E-02 0.10272139E+00
        1 -1    0    0  501    0 0.00000000E+00 0.00000000E+00 0.63220912E+03 0.63220920E+03 0.32000000E+00 0.0000E+00 0.9000E+01
       -1 -1    0    0    0  501 0.00000000E+00 0.00000000E+00 -.11495948E+03 0.11495993E+03 0.32000000E+00 0.0000E+00 0.9000E+01
       25  2    1    2    0    0 -.14696854E+03 -.72772462E+01 0.23703289E+03 0.40869697E+03 0.29865685E+03 0.0000E+00 0.0000E+00
       23  2    1    2    0    0 0.14696854E+03 0.72772462E+01 0.28021675E+03 0.33847216E+03 0.11995526E+03 0.0000E+00 0.0000E+00
       23  1    3    3    0    0 -.61672438E+02 -.12025735E+03 0.13608180E+03 0.21236485E+03 0.91188000E+02 0.0000E+00 0.9000E+01
      -11  1    4    4    0    0 0.76442131E+02 -.14852489E+02 0.40816322E+02 0.87920236E+02 0.51099893E-03 0.0000E+00 0.9000E+01
       11  1    4    4    0    0 0.70526412E+02 0.22129735E+02 0.23940043E+03 0.25055192E+03 0.51099893E-03 0.0000E+00 0.9000E+01
       23  1    3    3    0    0 -.85296106E+02 0.11298010E+03 0.10095108E+03 0.19633212E+03 0.91188000E+02 0.0000E+00 0.9000E+01
#aMCatNLO 1  0  0  2  1 0.33549111D+02 0.00000000D+00  -5  7  0 0.00000000D+00 0.00000000D+00 0.00000000D+00 0.00000000D+00 0.00000000D+00
  <mgrwgt>
 0.1592482922D-03    9    2    0
 0.269589742633273D+03 0.000000000000000D+00 0.000000000000000D+00 0.269589742633273D+03
 0.269589742633273D+03 0.000000000000000D+00 0.000000000000000D+00 -.269589742633273D+03
 0.163738044298611D+03 -.616724393826222D+02 -.120257349715653D+03 -.151517611747863D+02
 0.826794399278875D+02 0.764421313770923D+02 -.148524874279087D+02 -.277829795831968D+02
 0.117539478777045D+03 0.705264152766096D+02 0.221297337579888D+02 0.913883400834654D+02
 0.175222522263003D+03 -.852961072710797D+02 0.112980103385573D+03 -.484535993254823D+02
 0.000000000000000D+00 -.000000000000000D+00 0.000000000000000D+00 -.000000000000000D+00
 0.281895027327350D+03 0.000000000000000D+00 0.000000000000000D+00 0.281895027327350D+03
 0.293989920423091D+03 0.000000000000000D+00 0.000000000000000D+00 -.293989920423091D+03
 0.167985654405367D+03 -.557615117635523D+02 -.128705115209710D+03 -.151517611747863D+02
 0.863233970479951D+02 0.794535639056840D+02 -.191563594158931D+02 -.277829795831968D+02
 0.119154407498637D+03 0.747440229878405D+02 0.161020231875772D+02 0.913883400834654D+02
 0.166758773257188D+03 -.792024012959167D+02 0.104271115154718D+03 -.484535993254823D+02
 0.356627155412544D+02 -.192336738340555D+02 0.274883362833075D+02 -.120948930957409D+02
0.137571437400D-05 0.000000000000D+00 0.000000000000D+00 0.218468700250D-09 0.000000000000D+00  7 1 -1 23 -11 11 23 21 0 0.97262982D-01 0.17686115D-01 0.58373935D+05 0.58373935D+05 0.58373935D+05 0.11414268D+01  1  2  2  2  7  2       -1 0.123356852412D-03 0.100000000000D+01
-.753125591836D-07 0.000000000000D+00 -.528310543006D-08 0.218468700250D-09 0.000000000000D+00  7 1 -1 23 -11 11 23 21 2 0.97262982D-01 0.17686115D-01 0.58373935D+05 0.58373935D+05 0.58373935D+05 0.11414268D+01  1  2  3  2  7  2       -1 -.879829487577D-05 0.100000000000D+01
0.884698121863D-07 0.000000000000D+00 0.000000000000D+00 0.218468700250D-09 0.000000000000D+00  7 1 -1 23 -11 11 23 21 2 0.97262982D-01 0.17686115D-01 0.58373935D+05 0.58373935D+05 0.58373935D+05 0.11414268D+01  1  2 15  2  7  2       -1 0.103353743872D-04 0.100000000000D+01
0.248893552572D-05 0.000000000000D+00 0.000000000000D+00 0.218468700250D-09 0.000000000000D+00  7 1 -1 23 -11 11 23 21 2 0.97262982D-01 0.19662304D-01 0.67237343D+05 0.67237343D+05 0.67237343D+05 0.11361492D+01  1  2 12  2  7  2       -1 0.243412661282D-03 0.100000000000D+01
-.233743369031D-05 0.000000000000D+00 0.000000000000D+00 0.218468700250D-09 0.000000000000D+00  7 1 -1 23 -11 11 23 21 2 0.97262982D-01 0.17686115D-01 0.58373935D+05 0.58373935D+05 0.58373935D+05 0.11414268D+01  1  2  4  2  7  2       -1 -.273067747038D-03 0.100000000000D+01
-.671568810286D-05 0.000000000000D+00 -.144798037103D-05 0.218468700250D-09 0.000000000000D+00  7 1 -1 23 -11 11 23 21 2 0.97262982D-01 0.20130919D-01 0.58373935D+05 0.58373935D+05 0.58373935D+05 0.11414268D+01  1  2  5  2  7  2       -1 -.638887344271D-03 0.100000000000D+01
0.685765902702D-05 0.000000000000D+00 0.143592738166D-05 0.218468700250D-09 0.000000000000D+00  7 1 -1 23 -11 11 23 21 2 0.97262982D-01 0.17686115D-01 0.58373935D+05 0.58373935D+05 0.58373935D+05 0.11414268D+01  1  2  6  2  7  2       -1 0.801137379095D-03 0.100000000000D+01
0.424779889598D-07 0.000000000000D+00 0.000000000000D+00 0.218468700250D-09 0.000000000000D+00  7 1 21 23 -11 11 23 1 2 0.97262982D-01 0.19662304D-01 0.67237343D+05 0.67237343D+05 0.67237343D+05 0.11361492D+01  1  2 12  4  7  2       -1 0.509837766051D-04 0.100000000000D+01
-.128080386405D-06 0.000000000000D+00 -.292754447520D-07 0.218468700250D-09 0.000000000000D+00  7 1 21 23 -11 11 23 1 2 0.97262982D-01 0.20130919D-01 0.58373935D+05 0.58373935D+05 0.58373935D+05 0.11414268D+01  1  2  5  4  7  2       -1 -.149224365396D-03 0.100000000000D+01
  </mgrwgt>
  </event>
  <event>
  8     66 0.56006291E-06 0.20954359E+03 0.75467711E-02 0.88772716E-01
        1 -1    0    0  501    0 0.00000000E+00 0.00000000E+00 0.23511842E+03 0.23511863E+03 0.32000000E+00 0.0000E+00 0.9000E+01
       -1 -1    0    0    0  501 0.00000000E+00 0.00000000E+00 -.59752268E+03 0.59752276E+03 0.32000000E+00 0.0000E+00 0.9000E+01
       25  2    1    2    0    0 0.31654754E+02 -.12550224E+03 -.51713055E+03 0.61126747E+03 0.29911717E+03 0.0000E+00 0.0000E+00
       23  2    1    2    0    0 -.31654754E+02 0.12550224E+03 0.15472629E+03 0.22137392E+03 0.91177590E+02 0.0000E+00 0.0000E+00
       23  1    3    3    0    0 -.24747692E+02 0.24839052E+02 -.51677697E+02 0.11052268E+03 0.91188000E+02 0.0000E+00 0.9000E+01
      -13  1    4    4    0    0 0.91513721E+01 0.50730102E+02 0.86418641E+01 0.52268383E+02 0.10565837E+00 0.0000E+00 0.9000E+01
       13  1    4    4    0    0 -.40806127E+02 0.74772136E+02 0.14608443E+03 0.16910554E+03 0.10565837E+00 0.0000E+00 0.9000E+01
       23  1    3    3    0    0 0.56402446E+02 -.15034129E+03 -.46545285E+03 0.50074479E+03 0.91188000E+02 0.0000E+00 0.9000E+01
#aMCatNLO 1  0  0  1  2 0.81206487D+03 0.00000000D+00  -5  7  0 0.00000000D+00 0.00000000D+00 0.00000000D+00 0.00000000D+00 0.00000000D+00
  <mgrwgt>
 0.2444561219D-03    3    2    0
 0.374818238056814D+03 0.000000000000000D+00 0.000000000000000D+00 0.374818238056814D+03
 0.374818238056814D+03 0.000000000000000D+00 0.000000000000000D+00 -.374818238056814D+03
 0.977774456181151D+02 -.247476919389311D+02 0.248390518665307D+02 -.396872443878442D+01
 0.622334578748243D+02 0.915143906974179D+01 0.507300696621113D+02 0.348670972994266D+02
 0.258453389751383D+03 -.408061935805876D+02 0.747721681363252D+02 0.244012565478987D+03
 0.331172182869306D+03 0.564024464497769D+02 -.150341289664967D+03 -.274910938339629D+03
 0.000000000000000D+00 -.000000000000000D+00 -.000000000000000D+00 -.000000000000000D+00
 0.644350153937623D+03 0.000000000000000D+00 0.000000000000000D+00 0.644350153937623D+03
 0.234916917090730D+04 0.000000000000000D+00 0.000000000000000D+00 -.234916917090730D+04
 0.129720655491221D+03 0.672288570184056D+02 0.630612965883183D+02 -.396872443878442D+01
 0.121992697930213D+03 0.836333180656477D+02 0.816821399299423D+02 0.348670972994266D+02
 0.371295006370025D+03 0.213798499400245D+03 0.180576995483598D+03 0.244012565478987D+03
 0.482163211843773D+03 0.385230609787323D+03 -.136917776645383D+02 -.274910938339629D+03
 0.188834775320969D+04 -.749891284271621D+03 -.311628654337320D+03 -.170481901696967D+04
0.125892920989D-04 0.000000000000D+00 0.000000000000D+00 0.527516266931D-06 0.000000000000D+00  7 1 -1 23 -13 13 23 21 0 0.36172087D-01 0.91926589D-01 0.43908515D+05 0.43908515D+05 0.43908515D+05 0.11522915D+01  1  2  2  1  7  1        1 0.235286817568D-03 0.100000000000D+01
-.411848187788D-06 0.000000000000D+00 -.483461964964D-07 0.527516266931D-06 0.000000000000D+00  7 1 -1 23 -13 13 23 21 2 0.36172087D-01 0.91926589D-01 0.43908515D+05 0.43908515D+05 0.43908515D+05 0.11522915D+01  1  2  3  1  7  1        1 -.102201707796D-04 0.100000000000D+01
0.781348995361D-06 0.000000000000D+00 0.000000000000D+00 0.527516266931D-06 0.000000000000D+00  7 1 -1 23 -13 13 23 21 2 0.36172087D-01 0.91926589D-01 0.43908515D+05 0.43908515D+05 0.43908515D+05 0.11522915D+01  1  2 15  1  7  1        1 0.193894750731D-04 0.100000000000D+01
  </mgrwgt>
  </event>
  <event>
  8     66 0.56006291E-06 0.20811438E+03 0.75467711E-02 0.10563234E+00
        1 -1    0    0  501    0 0.00000000E+00 0.00000000E+00 0.10597071E+04 0.10597072E+04 0.32000000E+00 0.0000E+00 0.9000E+01
       -1 -1    0    0    0  501 0.00000000E+00 0.00000000E+00 -.63429393E+02 0.63430200E+02 0.32000000E+00 0.0000E+00 0.9000E+01
       25  2    1    2    0    0 0.59763117E+02 -.53627542E+02 0.36346619E+03 0.47762576E+03 0.29928440E+03 0.0000E+00 0.0000E+00
       23  2    1    2    0    0 -.59763117E+02 0.53627542E+02 0.63281155E+03 0.64551162E+03 0.98930543E+02 0.0000E+00 0.0000E+00
       23  1    3    3    0    0 0.47052825E+02 -.13748823E+03 0.27767845E+03 0.32640091E+03 0.91188000E+02 0.0000E+00 0.9000E+01
      -13  1    4    4    0    0 -.83631327E+02 0.41621805E+02 0.56420481E+03 0.57188604E+03 0.10565837E+00 0.0000E+00 0.9000E+01
       13  1    4    4    0    0 0.23868209E+02 0.12005737E+02 0.68606743E+02 0.73625577E+02 0.10565837E+00 0.0000E+00 0.9000E+01
       23  1    3    3    0    0 0.12710292E+02 0.83860690E+02 0.85787740E+02 0.15122485E+03 0.91188000E+02 0.0000E+00 0.9000E+01
#aMCatNLO 1  0  0  2  2 0.36230280D+01 0.00000000D+00  -5  7  0 0.00000000D+00 0.00000000D+00 0.00000000D+00 0.00000000D+00 0.00000000D+00
  <mgrwgt>
 0.1594621827D-03    6    2    0
 0.259262531279777D+03 0.000000000000000D+00 0.000000000000000D+00 0.259262531279777D+03
 0.259262531279777D+03 0.000000000000000D+00 0.000000000000000D+00 -.259262531279777D+03
 0.173469420449800D+03 0.470528775358626D+02 -.137488279209922D+03 -.256785568651959D+02
 0.154673343961920D+03 -.836313277866863D+02 0.416219412571631D+02 0.123277160702961D+03
 0.276555653705213D+02 0.238681083802603D+02 0.120056927399147D+02 0.714192132035079D+01
 0.162726732777313D+03 0.127103418705633D+02 0.838606452128438D+02 -.104740525158116D+03
 0.000000000000000D+00 -.000000000000000D+00 -.000000000000000D+00 0.000000000000000D+00
 0.263967108169884D+03 0.000000000000000D+00 0.000000000000000D+00 0.263967108169884D+03
 0.259967329353321D+03 0.000000000000000D+00 0.000000000000000D+00 -.259967329353321D+03
 0.172926965231139D+03 0.478067295461510D+02 -.136541613757394D+03 -.256785568651959D+02
 0.154540606115669D+03 -.829583947899491D+02 0.424669909634484D+02 0.123277160702961D+03
 0.278257500323659D+02 0.239888506942071D+02 0.121573174297897D+02 0.714192132035079D+01
 0.163244398400413D+03 0.134197430152988D+02 0.847514905598604D+02 -.104740525158116D+03
 0.539671774361952D+01 -.225692846570779D+01 -.283418519570418D+01 0.399977881656310D+01
0.137758292801D-05 0.000000000000D+00 0.000000000000D+00 0.388334937254D-08 0.000000000000D+00  7 1 -1 23 -13 13 23 21 0 0.16303193D+00 0.97584339D-02 0.43311594D+05 0.43311594D+05 0.43311594D+05 0.11528218D+01  1  2  2  2  7  2       -1 0.136993666279D-03 0.100000000000D+01
-.720387499185D-07 0.000000000000D+00 -.529028116948D-08 0.388334937254D-08 0.000000000000D+00  7 1 -1 23 -13 13 23 21 2 0.16303193D+00 0.97584339D-02 0.43311594D+05 0.43311594D+05 0.43311594D+05 0.11528218D+01  1  2  3  2  7  2       -1 -.952079602730D-05 0.100000000000D+01
0.864935915222D-07 0.000000000000D+00 0.000000000000D+00 0.388334937254D-08 0.000000000000D+00  7 1 -1 23 -13 13 23 21 2 0.16303193D+00 0.97584339D-02 0.43311594D+05 0.43311594D+05 0.43311594D+05 0.11528218D+01  1  2 15  2  7  2       -1 0.114311789625D-04 0.100000000000D+01
-.179092502576D-05 0.000000000000D+00 0.000000000000D+00 0.388334937254D-08 0.000000000000D+00  7 1 -1 23 -13 13 23 21 2 0.16303193D+00 0.97584339D-02 0.43311594D+05 0.43311594D+05 0.43311594D+05 0.11528218D+01  1  2  4  2  7  2       -1 -.236692500768D-03 0.100000000000D+01
0.178481775603D-05 0.000000000000D+00 0.000000000000D+00 0.388334937254D-08 0.209477414406D-08  7 1 -1 23 -13 13 23 21 2 0.16599031D+00 0.97849619D-02 0.44086372D+05 0.44086372D+05 0.44086372D+05 0.11521350D+01  1  2 11  2  7  2       -1 0.227248199420D-03 0.100000000000D+01
0.164896655498D-07 0.000000000000D+00 0.000000000000D+00 0.388334937254D-08 0.107217767981D-11  7 1 21 23 -13 13 23 1 2 0.16599031D+00 0.97849619D-02 0.44086372D+05 0.44086372D+05 0.44086372D+05 0.11521350D+01  1  2 11  4  7  2       -1 0.300024348822D-04 0.100000000000D+01
  </mgrwgt>
  </event>
  <event>
  8     66 0.56006291E-06 0.23108818E+03 0.75467711E-02 0.95293594E-01
        1 -1    0    0  501    0 0.00000000E+00 0.00000000E+00 0.63911198E+03 0.63911206E+03 0.32000000E+00 0.0000E+00 0.9000E+01
       -1 -1    0    0    0  501 0.00000000E+00 0.00000000E+00 -.37774734E+03 0.37774747E+03 0.32000000E+00 0.0000E+00 0.9000E+01
       25  2    1    2    0    0 0.12575497E+03 0.40004294E+03 0.11897221E+01 0.51554791E+03 0.29989925E+03 0.0000E+00 0.0000E+00
       23  2    1    2    0    0 -.12575497E+03 -.40004294E+03 0.26017492E+03 0.50131162E+03 0.88168482E+02 0.0000E+00 0.0000E+00
       23  1    3    3    0    0 -.40811401E+02 0.72095259E+02 -.50366156E+02 0.13309883E+03 0.91188000E+02 0.0000E+00 0.9000E+01
      -13  1    4    4    0    0 -.11619399E+03 -.23931617E+03 0.14176019E+03 0.30144525E+03 0.10565837E+00 0.0000E+00 0.9000E+01
       13  1    4    4    0    0 -.95609749E+01 -.16072677E+03 0.11841472E+03 0.19986637E+03 0.10565837E+00 0.0000E+00 0.9000E+01
       23  1    3    3    0    0 0.16656637E+03 0.32794769E+03 0.51555878E+02 0.38244908E+03 0.91188000E+02 0.0000E+00 0.9000E+01
#aMCatNLO 1  0  0  2  1 0.13952230D+02 0.00000000D+00  -5  7  0 0.00000000D+00 0.00000000D+00 0.00000000D+00 0.00000000D+00 0.00000000D+00
  <mgrwgt>
 0.1081198796D-03    9    2    0
 0.491348100304950D+03 0.000000000000000D+00 0.000000000000000D+00 0.491348100304950D+03
 0.491348100304950D+03 0.000000000000000D+00 0.000000000000000D+00 -.491348100304950D+03
 0.151121722678778D+03 -.408114010026796D+02 0.720952591910267D+02 -.875170090426915D+02
 0.274221586657538D+03 -.116194147008775D+03 -.239316285352657D+03 0.665140162288101D+02
 0.175320165131913D+03 -.956082187732449D+01 -.160726659183869D+03 0.693735685582306D+02
 0.382032726141670D+03 0.166566369888779D+03 0.327947685345500D+03 -.483705757443491D+02
 0.000000000000000D+00 -.000000000000000D+00 0.000000000000000D+00 -.000000000000000D+00
 0.495019932368160D+03 0.000000000000000D+00 0.000000000000000D+00 0.495019932368160D+03
 0.504832739505608D+03 0.000000000000000D+00 0.000000000000000D+00 -.504832739505608D+03
 0.149960830800726D+03 -.397339855938446D+02 0.702494337877073D+02 -.875170090426915D+02
 0.276352053829431D+03 -.114223934795866D+03 -.242691648024006D+03 0.665140162288101D+02
 0.177240215415860D+03 -.829919451912298D+01 -.162888076041467D+03 0.693735685582306D+02
 0.379242141816601D+03 0.169290570489638D+03 0.323280591639980D+03 -.483705757443491D+02
 0.170574300111510D+02 -.703345558080445D+01 0.120496986377846D+02 -.981280713744736D+01
0.466972539686D-05 0.000000000000D+00 0.000000000000D+00 0.945327275652D-07 0.000000000000D+00  7 1 -1 23 -13 13 23 21 0 0.98324936D-01 0.58114991D-01 0.21585447D+06 0.21585447D+06 0.21585447D+06 0.10952899D+01  1  2  2  2  7  2       -1 0.536565034586D-04 0.100000000000D+01
-.258440960676D-06 0.000000000000D+00 -.179329750909D-07 0.945327275652D-07 0.000000000000D+00  7 1 -1 23 -13 13 23 21 2 0.98324936D-01 0.58114991D-01 0.21585447D+06 0.21585447D+06 0.21585447D+06 0.10952899D+01  1  2  3  2  7  2       -1 -.356246419492D-05 0.100000000000D+01
0.295296072930D-06 0.000000000000D+00 0.000000000000D+00 0.945327275652D-07 0.000000000000D+00  7 1 -1 23 -13 13 23 21 2 0.98324936D-01 0.58114991D-01 0.21585447D+06 0.21585447D+06 0.21585447D+06 0.10952899D+01  1  2 15  2  7  2       -1 0.407049131826D-05 0.100000000000D+01
0.948326194654D-05 0.000000000000D+00 0.000000000000D+00 0.945327275652D-07 0.000000000000D+00  7 1 -1 23 -13 13 23 21 2 0.98324936D-01 0.59923182D-01 0.22240609D+06 0.22240609D+06 0.22240609D+06 0.10943010D+01  1  2 12  2  7  2       -1 0.123090093170D-03 0.100000000000D+01
-.946223806750D-05 0.000000000000D+00 0.000000000000D+00 0.945327275652D-07 0.000000000000D+00  7 1 -1 23 -13 13 23 21 2 0.98324936D-01 0.58114991D-01 0.21585447D+06 0.21585447D+06 0.21585447D+06 0.10952899D+01  1  2  4  2  7  2       -1 -.130431663120D-03 0.100000000000D+01
-.146493930676D-03 0.000000000000D+00 -.175593382202D-04 0.945327275652D-07 0.000000000000D+00  7 1 -1 23 -13 13 23 21 2 0.98324936D-01 0.60057290D-01 0.21585447D+06 0.21585447D+06 0.21585447D+06 0.10952899D+01  1  2  5  2  7  2       -1 -.189857356639D-02 0.100000000000D+01
0.147001238007D-03 0.000000000000D+00 0.175498535667D-04 0.945327275652D-07 0.000000000000D+00  7 1 -1 23 -13 13 23 21 2 0.98324936D-01 0.58114991D-01 0.21585447D+06 0.21585447D+06 0.21585447D+06 0.10952899D+01  1  2  6  2  7  2       -1 0.202632990390D-02 0.100000000000D+01
0.249458030669D-06 0.000000000000D+00 0.000000000000D+00 0.945327275652D-07 0.000000000000D+00  7 1 21 23 -13 13 23 1 2 0.98324936D-01 0.59923182D-01 0.22240609D+06 0.22240609D+06 0.22240609D+06 0.10943010D+01  1  2 12  4  7  2       -1 0.275150885406D-04 0.100000000000D+01
-.853261964250D-06 0.000000000000D+00 -.103093732941D-06 0.945327275652D-07 0.000000000000D+00  7 1 21 23 -13 13 23 1 2 0.98324936D-01 0.60057290D-01 0.21585447D+06 0.21585447D+06 0.21585447D+06 0.10952899D+01  1  2  5  4  7  2       -1 -.939745070956D-04 0.100000000000D+01
  </mgrwgt>
  </event>
  <event>
  8     66 0.56006291E-06 0.36311509E+03 0.75467711E-02 0.92191974E-01
        1 -1    0    0  501    0 0.00000000E+00 0.00000000E+00 0.17440455E+03 0.17440484E+03 0.32000000E+00 0.0000E+00 0.9000E+01
       -1 -1    0    0    0  501 0.00000000E+00 0.00000000E+00 -.19204048E+04 0.19204048E+04 0.32000000E+00 0.0000E+00 0.9000E+01
       25  2    1    2    0    0 -.43295213E+03 -.20271522E+03 -.48900216E+03 0.74687679E+03 0.30026791E+03 0.0000E+00 0.0000E+00
       23  2    1    2    0    0 0.43295213E+03 0.20271522E+03 -.12569981E+04 0.13479329E+04 0.91311770E+02 0.0000E+00 0.0000E+00
       23  1    3    3    0    0 -.55334724E+02 0.21144319E+02 -.14762616E+03 0.18335144E+03 0.91188000E+02 0.0000E+00 0.9000E+01
      -11  1    4    4    0    0 0.20420620E+03 0.54774377E+02 -.62258110E+03 0.65750105E+03 0.51099893E-03 0.0000E+00 0.9000E+01
       11  1    4    4    0    0 0.22874593E+03 0.14794084E+03 -.63441701E+03 0.69043185E+03 0.51099893E-03 0.0000E+00 0.9000E+01
       23  1    3    3    0    0 -.37761741E+03 -.22385953E+03 -.34137599E+03 0.56352535E+03 0.91188000E+02 0.0000E+00 0.9000E+01
#aMCatNLO 1  0  0  2  1 0.19088300D+03 0.00000000D+00  -5  7  0 0.00000000D+00 0.00000000D+00 0.00000000D+00 0.00000000D+00 0.00000000D+00
  <mgrwgt>
 0.1206664079D-03    7    2    0
 0.578729355311058D+03 0.000000000000000D+00 0.000000000000000D+00 0.578729355311058D+03
 0.578729355311058D+03 0.000000000000000D+00 0.000000000000000D+00 -.578729355311058D+03
 0.109145184095560D+03 -.553347241261102D+02 0.211443186334225D+02 0.940244450498196D+01
 0.250819140537956D+03 0.204206201308125D+03 0.547743769570248D+02 -.134943826225857D+03
 0.292564255995087D+03 0.228745928914967D+03 0.147940838729787D+03 -.106689512730704D+03
 0.504930129993512D+03 -.377617406096982D+03 -.223859534320234D+03 0.232230894451579D+03
 0.000000000000000D+00 -.000000000000000D+00 -.000000000000000D+00 -.000000000000000D+00
 0.599741110919437D+03 0.000000000000000D+00 0.000000000000000D+00 0.599741110919437D+03
 0.127690783743270D+04 0.000000000000000D+00 0.000000000000000D+00 -.127690783743270D+04
 0.108604889357160D+03 -.456699757963297D+02 0.361333363581950D+02 0.940244450498196D+01
 0.280048500201662D+03 0.227768545342359D+03 0.913171176798290D+02 -.134943826225857D+03
 0.337463581202273D+03 0.256709457885213D+03 0.191309358745013D+03 -.106689512730704D+03
 0.446975943210827D+03 -.335367442708992D+03 -.158334242974344D+03 0.232230894451579D+03
 0.703556034380210D+03 -.103440584722251D+03 -.160425569808693D+03 -.677166726513259D+03
0.239602635666D-03 0.000000000000D+00 0.000000000000D+00 0.138360963697D-05 0.000000000000D+00  7 1 -1 23 -11 11 23 21 0 0.26831493D-01 0.29544692D+00 0.27088778D+06 0.27088778D+06 0.27088778D+06 0.10878470D+01  1  2  2  2  7  2       -1 0.119486856801D-03 0.100000000000D+01
-.131290475858D-04 0.000000000000D+00 -.920137209782D-06 0.138360963697D-05 0.000000000000D+00  7 1 -1 23 -11 11 23 21 2 0.26831493D-01 0.29544692D+00 0.27088778D+06 0.27088778D+06 0.27088778D+06 0.10878470D+01  1  2  3  2  7  2       -1 -.774813968635D-05 0.100000000000D+01
0.153776877761D-04 0.000000000000D+00 0.000000000000D+00 0.138360963697D-05 0.000000000000D+00  7 1 -1 23 -11 11 23 21 2 0.26831493D-01 0.29544692D+00 0.27088778D+06 0.27088778D+06 0.27088778D+06 0.10878470D+01  1  2 15  2  7  2       -1 0.907518021880D-05 0.100000000000D+01
0.577097519459D-03 0.000000000000D+00 0.000000000000D+00 0.138360963697D-05 0.000000000000D+00  7 1 -1 23 -11 11 23 21 2 0.26831493D-01 0.65053325D+00 0.38846447D+06 0.38846447D+06 0.38846447D+06 0.10763450D+01  1  2 12  2  7  2       -1 0.905143006988D-06 0.100000000000D+01
-.637294366708D-03 0.000000000000D+00 -.529451447366D-04 0.138360963697D-05 0.000000000000D+00  7 1 -1 23 -11 11 23 21 2 0.26831493D-01 0.65457702D+00 0.27088778D+06 0.27088778D+06 0.27088778D+06 0.10878470D+01  1  2  5  2  7  2       -1 -.103819943842D-05 0.100000000000D+01
0.493751097633D-04 0.000000000000D+00 0.000000000000D+00 0.138360963697D-05 0.000000000000D+00  7 1 21 23 -11 11 23 1 2 0.26831493D-01 0.65053325D+00 0.38846447D+06 0.38846447D+06 0.38846447D+06 0.10763450D+01  1  2 12  4  7  2       -1 0.483314967426D-06 0.100000000000D+01
-.516393942183D-04 0.000000000000D+00 -.456755397163D-05 0.138360963697D-05 0.000000000000D+00  7 1 21 23 -11 11 23 1 2 0.26831493D-01 0.65457702D+00 0.27088778D+06 0.27088778D+06 0.27088778D+06 0.10878470D+01  1  2  5  4  7  2       -1 -.497747945537D-06 0.100000000000D+01
  </mgrwgt>
  </event>
  <event>
  8     66 0.56006291E-06 0.36264831E+03 0.75467711E-02 0.95773866E-01
        1 -1    0    0  501    0 0.00000000E+00 0.00000000E+00 0.42253969E+03 0.42253981E+03 0.32000000E+00 0.0000E+00 0.9000E+01
       -1 -1    0    0    0  501 0.00000000E+00 0.00000000E+00 -.38916742E+03 0.38916755E+03 0.32000000E+00 0.0000E+00 0.9000E+01
       25  2    1    2    0    0 0.29707135E+03 0.12934156E+02 0.19062005E+03 0.46337422E+03 0.29993496E+03 0.0000E+00 0.0000E+00
       23  2    1    2    0    0 -.29707135E+03 -.12934156E+02 -.15724779E+03 0.34833315E+03 0.90501011E+02 0.0000E+00 0.0000E+00
       23  1    3    3    0    0 0.15181854E+03 0.11951185E+03 0.13923448E+03 0.25501656E+03 0.91188000E+02 0.0000E+00 0.9000E+01
      -11  1    4    4    0    0 -.15969827E+03 0.36338432E+02 -.68521882E+02 0.17753666E+03 0.51099893E-03 0.0000E+00 0.9000E+01
       11  1    4    4    0    0 -.13737308E+03 -.49272588E+02 -.88725903E+02 0.17079648E+03 0.51099893E-03 0.0000E+00 0.9000E+01
       23  1    3    3    0    0 0.14525281E+03 -.10657770E+03 0.51385572E+02 0.20835766E+03 0.91188000E+02 0.0000E+00 0.9000E+01
#aMCatNLO 1  0  0  1  1 0.16462985D+03 0.00000000D+00  -5  7  0 0.00000000D+00 0.00000000D+00 0.00000000D+00 0.00000000D+00 0.00000000D+00
  <mgrwgt>
 0.1021058252D-03    4    2    0
 0.405510522061779D+03 0.000000000000000D+00 0.000000000000000D+00 0.405510522061779D+03
 0.405510522061779D+03 0.000000000000000D+00 0.000000000000000D+00 -.405510522061779D+03
 0.249503078059070D+03 0.151818540846757D+03 0.119511853593641D+03 0.128858768125122D+03
 0.180506473220322D+03 -.159698269714843D+03 0.363384316274922D+02 -.758852285453392D+02
 0.174591951036553D+03 -.137373084901117D+03 -.492725877253019D+02 -.958289987965702D+02
 0.206419541807614D+03 0.145252813769202D+03 -.106577697495831D+03 0.428554592167878D+02
 0.000000000000000D+00 -.000000000000000D+00 0.000000000000000D+00 -.000000000000000D+00
 0.441147852337572D+03 0.000000000000000D+00 0.000000000000000D+00 0.441147852337572D+03
 0.661368322095573D+03 0.000000000000000D+00 0.000000000000000D+00 -.661368322095573D+03
 0.244063109357029D+03 0.170906004434654D+03 0.737435117856422D+02 0.128858768125122D+03
 0.164901967154909D+03 -.146340444165387D+03 0.430874246822698D+01 -.758852285453392D+02
 0.176650481363240D+03 -.123789643997165D+03 -.818432623651227D+02 -.958289987965702D+02
 0.241945994469279D+03 0.162592252867647D+03 -.148154587571462D+03 0.428554592167878D+02
 0.274954622088689D+03 -.633681691397484D+02 0.151945595682716D+03 -.220220469758001D+03
0.570468485930D-05 0.000000000000D+00 0.000000000000D+00 0.359954528737D-06 0.000000000000D+00  7 1 -1 23 -11 11 23 21 0 0.65006125D-01 0.59871930D-01 0.13151379D+06 0.13151379D+06 0.13151379D+06 0.11120879D+01  1  2  2  1  7  1        1 0.112308038874D-03 0.100000000000D+01
-.312117983818D-06 0.000000000000D+00 -.219074919377D-07 0.359954528737D-06 0.000000000000D+00  7 1 -1 23 -11 11 23 21 2 0.65006125D-01 0.59871930D-01 0.13151379D+06 0.13151379D+06 0.13151379D+06 0.11120879D+01  1  2  3  1  7  1        1 -.759934553089D-05 0.100000000000D+01
0.363875153439D-06 0.000000000000D+00 0.000000000000D+00 0.359954528737D-06 0.000000000000D+00  7 1 -1 23 -11 11 23 21 2 0.65006125D-01 0.59871930D-01 0.13151379D+06 0.13151379D+06 0.13151379D+06 0.11120879D+01  1  2 15  1  7  1        1 0.885951199373D-05 0.100000000000D+01
-.470779352507D-06 0.000000000000D+00 0.000000000000D+00 0.359954528737D-06 0.000000000000D+00  7 1 -1 23 -11 11 23 21 2 0.65006125D-01 0.59871930D-01 0.13151379D+06 0.13151379D+06 0.13151379D+06 0.11120879D+01  1  2  4  1  7  1        1 -.114623801062D-04 0.100000000000D+01
  </mgrwgt>
  </event>
  <event>
  8     66 0.56006291E-06 0.31352192E+03 0.75467711E-02 0.84799419E-01
        1 -1    0    0  501    0 0.00000000E+00 0.00000000E+00 0.16812285E+04 0.16812285E+04 0.32000000E+00 0.0000E+00 0.9000E+01
       -1 -1    0    0    0  501 0.00000000E+00 0.00000000E+00 -.18918575E+03 0.18918602E+03 0.32000000E+00 0.0000E+00 0.9000E+01
       25  2    1    2    0    0 -.18766002E+03 0.13965195E+03 0.15667971E+04 0.16122375E+04 0.29956235E+03 0.0000E+00 0.0000E+00
       23  2    1    2    0    0 0.18766002E+03 -.13965195E+03 -.74754349E+02 0.25817706E+03 0.79675784E+02 0.0000E+00 0.0000E+00
       23  1    3    3    0    0 -.19398282E+03 0.14394286E+01 0.87580974E+03 0.90165923E+03 0.91188000E+02 0.0000E+00 0.9000E+01
      -13  1    4    4    0    0 0.18814966E+03 -.11124550E+03 -.63451872E+02 0.22760054E+03 0.10565837E+00 0.0000E+00 0.9000E+01
       13  1    4    4    0    0 -.48963784E+00 -.28406453E+02 -.11302477E+02 0.30576519E+02 0.10565837E+00 0.0000E+00 0.9000E+01
       23  1    3    3    0    0 0.63227976E+01 0.13821252E+03 0.69098735E+03 0.71057825E+03 0.91188000E+02 0.0000E+00 0.9000E+01
#aMCatNLO 1  0  0  1  2 0.12704465D+04 0.00000000D+00  -5  7  0 0.00000000D+00 0.00000000D+00 0.00000000D+00 0.00000000D+00 0.00000000D+00
  <mgrwgt>
 0.6021502899D-03    3    2    0
 0.563972292937584D+03 0.000000000000000D+00 0.000000000000000D+00 0.563972292937584D+03
 0.563972292937584D+03 0.000000000000000D+00 0.000000000000000D+00 -.563972292937584D+03
 0.336657456271250D+03 -.193982820590800D+03 0.143942861702591D+01 0.259598892293327D+03
 0.461353382715917D+03 0.188149992532974D+03 -.111245640775526D+03 -.406289221444163D+03
 0.656537209080567D+02 -.489969487841115D+00 -.284063076766795D+02 -.591882816370926D+02
 0.264280025979945D+03 0.632279754566665D+01 0.138212519835179D+03 0.205878610787928D+03
 0.000000000000000D+00 -.000000000000000D+00 -.000000000000000D+00 -.000000000000000D+00
 0.128924928507402D+04 0.000000000000000D+00 0.000000000000000D+00 0.128924928507402D+04
 0.176694792399926D+04 0.000000000000000D+00 0.000000000000000D+00 -.176694792399926D+04
 0.288601892863228D+03 0.870133914538614D+02 0.358971419653393D+01 0.259598892293327D+03
 0.905845568375928D+03 0.802579391949464D+03 -.106543802741563D+03 -.406289221444163D+03
 0.980909061875770D+02 0.730980864448382D+02 -.278431850126953D+02 -.591882816370926D+02
 0.406371040168438D+03 0.307718385556104D+03 0.140518908885446D+03 0.205878610787928D+03
 0.135728780147812D+04 -.127040925540427D+04 -.972163532772153D+01 -.477698638925240D+03
0.880446876779D-04 0.000000000000D+00 0.000000000000D+00 0.301802395966D-07 0.000000000000D+00  7 1 -1 23 -13 13 23 21 0 0.25865056D+00 0.29105523D-01 0.98295994D+05 0.98295994D+05 0.98295994D+05 0.11223351D+01  1  2  2  1  7  1        1 0.581425184584D-03 0.100000000000D+01
-.284120401966D-05 0.000000000000D+00 -.338114783382D-06 0.301802395966D-07 0.000000000000D+00  7 1 -1 23 -13 13 23 21 2 0.25865056D+00 0.29105523D-01 0.98295994D+05 0.98295994D+05 0.98295994D+05 0.11223351D+01  1  2  3  1  7  1        1 -.236340515684D-04 0.100000000000D+01
0.533270457515D-05 0.000000000000D+00 0.000000000000D+00 0.301802395966D-07 0.000000000000D+00  7 1 -1 23 -13 13 23 21 2 0.25865056D+00 0.29105523D-01 0.98295994D+05 0.98295994D+05 0.98295994D+05 0.11223351D+01  1  2 15  1  7  1        1 0.443591569124D-04 0.100000000000D+01
  </mgrwgt>
  </event>
  <event>
  8     66 0.56006291E-06 0.64576606E+03 0.75467711E-02 0.85976557E-01
        1 -1    0    0  501    0 0.00000000E+00 0.00000000E+00 0.57757588E+03 0.57757597E+03 0.32000000E+00 0.0000E+00 0.9000E+01
       -1 -1    0    0    0  501 0.00000000E+00 0.00000000E+00 -.75278577E+03 0.75278584E+03 0.32000000E+00 0.0000E+00 0.9000E+01
       25  2    1    2    0    0 0.55801295E+03 -.27459699E+03 -.78241139E+02 0.69473474E+03 0.29958759E+03 0.0000E+00 0.0000E+00
       23  2    1    2    0    0 -.55801295E+03 0.27459699E+03 -.96968750E+02 0.63562707E+03 0.88526137E+02 0.0000E+00 0.0000E+00
       23  1    3    3    0    0 0.11429159E+03 -.12527447E+03 -.10060648E+03 0.21723990E+03 0.91188000E+02 0.0000E+00 0.9000E+01
      -11  1    4    4    0    0 -.43613500E+03 0.20935723E+03 -.37798228E+02 0.48525549E+03 0.51099893E-03 0.0000E+00 0.9000E+01
       11  1    4    4    0    0 -.12187795E+03 0.65239754E+02 -.59170522E+02 0.15037158E+03 0.51099893E-03 0.0000E+00 0.9000E+01
       23  1    3    3    0    0 0.44372136E+03 -.14932252E+03 0.22365341E+02 0.47749484E+03 0.91188000E+02 0.0000E+00 0.9000E+01
#aMCatNLO 1  0  0  2  2 0.80129680D+03 0.00000000D+00  -5  7  0 0.00000000D+00 0.00000000D+00 0.00000000D+00 0.00000000D+00 0.00000000D+00
  <mgrwgt>
 0.3192887506D-03    5    2    0
 0.659386843068390D+03 0.000000000000000D+00 0.000000000000000D+00 0.659386843068390D+03
 0.659386843068390D+03 0.000000000000000D+00 0.000000000000000D+00 -.659386843068390D+03
 0.205782402583645D+03 0.114291590460373D+03 -.125274466253087D+03 -.726284126505575D+02
 0.484497650877963D+03 -.436134999755878D+03 0.209357231456725D+03 0.263398050672362D+02
 0.143831608973639D+03 -.121877950000059D+03 0.652397541239989D+02 -.397123598589765D+02
 0.484662023701534D+03 0.443721359295564D+03 -.149322519327637D+03 0.860009674422977D+02
 0.000000000000000D+00 -.000000000000000D+00 -.000000000000000D+00 -.000000000000000D+00
 0.108879942926255D+04 0.000000000000000D+00 0.000000000000000D+00 0.108879942926255D+04
 0.127755629169727D+04 0.000000000000000D+00 0.000000000000000D+00 -.127755629169727D+04
 0.188540560698423D+03 0.146854191380706D+03 -.197800868111087D+02 -.726284126505575D+02
 0.610312334288278D+03 -.345727227573809D+03 0.502254959325993D+03 0.263398050672362D+02
 0.184336267561912D+03 -.947783372624260D+02 0.153035469087587D+03 -.397123598589765D+02
 0.559937725679253D+03 0.529982845254814D+03 0.130142316828366D+03 0.860009674422977D+02
 0.823228832731959D+03 -.236331471799285D+03 -.765652658430837D+03 -.188756862434718D+03
0.102595584142D-03 0.000000000000D+00 0.000000000000D+00 0.455022047470D-06 0.000000000000D+00  7 1 -1 23 -11 11 23 21 0 0.88857840D-01 0.11581321D+00 0.41701381D+06 0.41701381D+06 0.41701381D+06 0.10741259D+01  1  2  2  2  7  2       -1 0.315083465252D-03 0.100000000000D+01
-.569673534581D-05 0.000000000000D+00 -.393994057143D-06 0.455022047470D-06 0.000000000000D+00  7 1 -1 23 -11 11 23 21 2 0.88857840D-01 0.11581321D+00 0.41701381D+06 0.41701381D+06 0.41701381D+06 0.10741259D+01  1  2  3  2  7  2       -1 -.201852152719D-04 0.100000000000D+01
0.663261810879D-05 0.000000000000D+00 0.000000000000D+00 0.455022047470D-06 0.000000000000D+00  7 1 -1 23 -11 11 23 21 2 0.88857840D-01 0.11581321D+00 0.41701381D+06 0.41701381D+06 0.41701381D+06 0.10741259D+01  1  2 15  2  7  2       -1 0.235013242174D-04 0.100000000000D+01
-.297595064039D-05 0.000000000000D+00 -.284200163364D-04 0.455022047470D-06 0.000000000000D+00  7 1 -1 23 -11 11 23 21 2 0.88857840D-01 0.30395149D+00 0.41701381D+06 0.41701381D+06 0.41701381D+06 0.10741259D+01  1  2  5  2  7  2       -1 -.276074122626D-06 0.100000000000D+01
0.138030466395D-05 0.000000000000D+00 -.304329055942D-05 0.455022047470D-06 0.000000000000D+00  7 1 21 23 -11 11 23 1 2 0.88857840D-01 0.30395149D+00 0.41701381D+06 0.41701381D+06 0.41701381D+06 0.10741259D+01  1  2  5  4  7  2       -1 0.116525056360D-05 0.100000000000D+01
  </mgrwgt>
  </event>
  <event>
  9     66 0.56006291E-06 0.43897371E+03 0.75467711E-02 0.93895122E-01
        1 -1    0    0  501    0 0.00000000E+00 0.00000000E+00 0.95186124E+03 0.95186129E+03 0.32000000E+00 0.0000E+00 0.9000E+01
       21 -1    0    0  502  501 0.00000000E+00 0.00000000E+00 -.32785389E+03 0.32785475E+03 0.75000000E+00 0.0000E+00 0.9000E+01
       25  2    1    2    0    0 -.21099654E+03 0.22893140E+03 0.34433802E+03 0.55269027E+03 0.29994790E+03 0.0000E+00 0.0000E+00
       23  2    1    2    0    0 0.37739363E+03 -.26984194E+03 0.10997286E+03 0.48586471E+03 0.93433688E+02 0.0000E+00 0.0000E+00
       23  1    3    3    0    0 -.23993458E+03 0.11083491E+03 0.23840276E+03 0.36742905E+03 0.91188000E+02 0.0000E+00 0.9000E+01
      -13  1    4    4    0    0 0.36900312E+03 -.26105568E+03 0.87621499E+02 0.46042470E+03 0.10565837E+00 0.0000E+00 0.9000E+01
       13  1    4    4    0    0 0.83905177E+01 -.87862615E+01 0.22351365E+02 0.25440005E+02 0.10565837E+00 0.0000E+00 0.9000E+01
       23  1    3    3    0    0 0.28938043E+02 0.11809648E+03 0.10593526E+03 0.18526122E+03 0.91188000E+02 0.0000E+00 0.9000E+01
        1  1    1    2  502    0 -.16639710E+03 0.40910549E+02 0.16969646E+03 0.24116106E+03 0.32000000E+00 0.0000E+00 0.9000E+01
#aMCatNLO 2  0  0  2  1 0.17135247D+03 0.00000000D+00  -5  7  0 0.00000000D+00 0.00000000D+00 0.00000000D+00 0.00000000D+00 0.00000000D+00
  <mgrwgt>
 0.3909783432D-04    1    2    0
 0.459030609096127D+03 0.000000000000000D+00 0.000000000000000D+00 0.459030609096127D+03
 0.459030609096127D+03 0.000000000000000D+00 0.000000000000000D+00 -.459030609096127D+03
 0.346104410256750D+03 -.297323311194906D+03 0.124944562150912D+03 0.863754390100953D+02
 0.398980407959521D+03 0.290982008165623D+03 -.241873547922493D+03 -.126538625228951D+03
 0.158053912756145D+02 0.540509494570923D+01 -.805205338826110D+01 0.124803757249423D+02
 0.157171008700369D+03 0.936208083573518D+00 0.124981039159842D+03 0.276828104939131D+02
 0.000000000000000D+00 -.000000000000000D+00 0.000000000000000D+00 0.000000000000000D+00
 0.595470858019936D+03 0.000000000000000D+00 0.000000000000000D+00 0.595470858019936D+03
 0.524075754907915D+03 0.000000000000000D+00 0.000000000000000D+00 -.524075754907915D+03
 0.292624242808595D+03 -.239934577752429D+03 0.110834913587193D+03 0.863754390100953D+02
 0.469388860654509D+03 0.369003578431753D+03 -.261056005363343D+03 -.126538625228951D+03
 0.174168180079472D+02 0.839005656249994D+01 -.878593888917258D+01 0.124803757249423D+02
 0.154485528752930D+03 0.289380424582759D+02 0.118096481539093D+03 0.276828104939131D+02
 0.185631162703870D+03 -.166397099700100D+03 0.409105491262294D+02 0.713951031120204D+02
0.469160305844D-06 0.000000000000D+00 0.000000000000D+00 0.576618019084D-06 0.382526889892D-11  7 1 21 23 -13 13 23 1 2 0.14644022D+00 0.50439118D-01 0.28466637D+06 0.28466637D+06 0.28466637D+06 0.10862416D+01  1  2  1  4  7  2       -1 0.390978343232D-04 0.100000000000D+01
  </mgrwgt>
  </event>
  <event>
  9     66 0.56006291E-06 0.19249224E+03 0.75467711E-02 0.10162098E+00
       21 -1    0    0  501  502 0.00000000E+00 0.00000000E+00 0.26421380E+03 0.26421487E+03 0.75000000E+00 0.0000E+00 0.9000E+01
       -1 -1    0    0    0  501 0.00000000E+00 0.00000000E+00 -.73459493E+03 0.73459500E+03 0.32000000E+00 0.0000E+00 0.9000E+01
       25  2    1    2    0    0 0.25391978E+02 0.34659805E+02 -.24326988E+03 0.39093020E+03 0.30298538E+03 0.0000E+00 0.0000E+00
       23  2    1    2    0    0 -.99145521E+02 0.81453817E+02 -.37447902E+03 0.40628770E+03 0.91490993E+02 0.0000E+00 0.0000E+00
       23  1    3    3    0    0 -.32227954E+02 0.12215421E+03 -.75518126E+02 0.17314309E+03 0.91188000E+02 0.0000E+00 0.9000E+01
      -13  1    4    4    0    0 -.59252786E+02 0.65328450E+02 -.33969492E+03 0.35095776E+03 0.10565837E+00 0.0000E+00 0.9000E+01
       13  1    4    4    0    0 -.39892735E+02 0.16125367E+02 -.34784100E+02 0.55329942E+02 0.10565837E+00 0.0000E+00 0.9000E+01
       23  1    3    3    0    0 0.57619932E+02 -.87494400E+02 -.16775175E+03 0.21778711E+03 0.91188000E+02 0.0000E+00 0.9000E+01
       -1  1    1    2    0  502 0.73753543E+02 -.11611362E+03 0.14736776E+03 0.20159196E+03 0.32000000E+00 0.0000E+00 0.9000E+01
#aMCatNLO 2  0  0  1  2 0.13755711D+03 0.00000000D+00  -5  7  0 0.00000000D+00 0.00000000D+00 0.00000000D+00 0.00000000D+00 0.00000000D+00
  <mgrwgt>
 0.9682579018D-04    2    2    0
 0.242394685863514D+03 0.000000000000000D+00 0.000000000000000D+00 0.242394685863514D+03
 0.242394685863514D+03 0.000000000000000D+00 0.000000000000000D+00 -.242394685863514D+03
 0.154336800266701D+03 -.718815820992545D+01 0.827328973024331D+02 0.927803570701126D+02
 0.119614992848391D+03 -.399765009072445D+02 0.349809146295877D+02 -.107172578120577D+03
 0.367324888814536D+02 -.338039363514677D+02 0.653946949694651D+01 0.127986313827121D+02
 0.174105089730482D+03 0.809685954686376D+02 -.124253281428967D+03 0.159358966775257D+01
 0.000000000000000D+00 0.000000000000000D+00 -.000000000000000D+00 0.000000000000000D+00
 0.741881839126037D+03 0.000000000000000D+00 0.000000000000000D+00 0.741881839126037D+03
 0.261619307165611D+03 0.000000000000000D+00 0.000000000000000D+00 -.261619307165611D+03
 0.181338734026034D+03 -.322279510211787D+02 0.122154204303755D+03 0.927803570701126D+02
 0.138797238531653D+03 -.592528200684947D+02 0.653285177922468D+02 -.107172578120577D+03
 0.448916285359669D+02 -.398927059510752D+02 0.161253018341284D+02 0.127986313827121D+02
 0.138899668785697D+03 0.576199343316406D+02 -.874944014458332D+02 0.159358966775257D+01
 0.499573876412297D+03 0.737535427091079D+02 -.116113622484297D+03 0.480262531960426D+03
-.248523216332D-06 0.000000000000D+00 0.000000000000D+00 0.201153644167D-07 0.000000000000D+00  7 21 -1 23 -13 13 23 -1 2 0.39898136D-01 0.10470999D+00 0.79377220D+05 0.79377220D+05 0.79377220D+05 0.11300473D+01  1  2 13  3  7  1        1 -.207731251395D-04 0.100000000000D+01
0.174127012583D-05 0.000000000000D+00 0.000000000000D+00 0.201153644167D-07 0.178785735711D-11  7 21 -1 23 -13 13 23 -1 2 0.40648357D-01 0.11301467D+00 0.79377220D+05 0.79377220D+05 0.79377220D+05 0.11300473D+01  1  2  1  3  7  1        1 0.117598915320D-03 0.100000000000D+01
  </mgrwgt>
  </event>
  <event>
  9     66 0.56006291E-06 0.16595346E+03 0.75467711E-02 0.10265396E+00
        3 -1    0    0  502    0 0.00000000E+00 0.00000000E+00 0.35666037E+03 0.35666072E+03 0.50000000E+00 0.0000E+00 0.9000E+01
       -3 -1    0    0    0  501 0.00000000E+00 0.00000000E+00 -.33971449E+03 0.33971486E+03 0.50000000E+00 0.0000E+00 0.9000E+01
       25  2    1    2    0    0 0.57601484E+02 -.13405819E+03 0.15988224E+03 0.37007844E+03 0.30017693E+03 0.0000E+00 0.0000E+00
       23  2    1    2    0    0 0.78152825E+02 0.40742014E+02 -.81879478E+02 0.15061092E+03 0.90618018E+02 0.0000E+00 0.0000E+00
       23  1    3    3    0    0 0.95510495E+02 -.89946388E+02 -.19143572E+02 0.16091717E+03 0.91188000E+02 0.0000E+00 0.9000E+01
      -13  1    4    4    0    0 0.34756552E+01 0.40897588E+01 0.19064931E+02 0.19806288E+02 0.10565837E+00 0.0000E+00 0.9000E+01
       13  1    4    4    0    0 0.74677170E+02 0.36652255E+02 -.10094441E+03 0.13080463E+03 0.10565837E+00 0.0000E+00 0.9000E+01
       23  1    3    3    0    0 -.37909011E+02 -.44111799E+02 0.17902582E+03 0.20916127E+03 0.91188000E+02 0.0000E+00 0.9000E+01
       21  1    1    2  502  501 -.13575431E+03 0.93316173E+02 -.61056887E+02 0.17568622E+03 0.75000000E+00 0.0000E+00 0.9000E+01
#aMCatNLO 2  0  0  1  2 0.16473354D+03 0.00000000D+00  -5  7  0 0.00000000D+00 0.00000000D+00 0.00000000D+00 0.00000000D+00 0.00000000D+00
  <mgrwgt>
 0.1649856690D-05    1    2    0
 0.243872836070584D+03 0.000000000000000D+00 0.000000000000000D+00 0.243872836070584D+03
 0.243872836070584D+03 0.000000000000000D+00 0.000000000000000D+00 -.243872836070584D+03
 0.131055380131621D+03 0.553336872578786D+02 -.623292479679223D+02 -.437436763389202D+02
 0.179100083001422D+02 -.127096131779711D+01 0.735242578107960D+01 0.162817348514690D+02
 0.142010709493526D+03 0.354627432098215D+02 0.636079783826900D+02 -.121915792828313D+03
 0.196769574215879D+03 -.895254691499030D+02 -.863115619584720D+01 0.149377734315765D+03
 0.000000000000000D+00 -.000000000000000D+00 0.000000000000000D+00 -.000000000000000D+00
 0.306690776673399D+03 0.000000000000000D+00 0.000000000000000D+00 0.306690776673399D+03
 0.395063701865406D+03 0.000000000000000D+00 0.000000000000000D+00 -.395063701865406D+03
 0.165654360834016D+03 0.955104920774540D+02 -.899463873805093D+02 -.437436763389202D+02
 0.171435166815281D+02 0.347555838473527D+01 0.408971494735101D+01 0.162817348514690D+02
 0.147592500127899D+03 0.746772684566692D+02 0.366523004584730D+02 -.121915792828313D+03
 0.184423162584476D+03 -.379090101309812D+02 -.441118010881234D+02 0.149377734315765D+03
 0.186940938310886D+03 -.135754308787877D+03 0.933161730628088D+02 -.883729251920071D+02
0.252149733127D-06 0.000000000000D+00 0.000000000000D+00 0.302629442208D-06 0.841240263109D-10  7 3 -3 23 -13 13 23 21 2 0.54870756D-01 0.52263704D-01 0.67917636D+05 0.67917636D+05 0.67917636D+05 0.11357763D+01  1  2  1  1  7  1        3 0.164985669011D-05 0.100000000000D+01
  </mgrwgt>
  </event>
</LesHouchesEvents>
