<event>
12    1  0.2045212E-008  0.1716803E+04  0.7818608E-02  0.8751839E-01
          2   -1    0    0  501    0  0.00000000000E+00  0.00000000000E+00  0.50453297506E+03  0.50453297506E+03  0.00000000000E+00 0. -1.
         -2   -1    0    0    0  501 -0.00000000000E+00 -0.00000000000E+00 -0.14604653340E+04  0.14604653340E+04  0.00000000000E+00 0.  1.
         23    2    1    2    0    0  0.10896219435E+03 -0.26793238233E+03  0.28313161195E+03  0.41460012326E+03  0.89828899680E+02 0.  0.
        254    2    1    2    0    0 -0.10896219435E+03  0.26793238233E+03 -0.12390639709E+04  0.15503981859E+04  0.88588627336E+03 0.  0.
        -24    2    4    4    0    0 -0.97591579267E+02  0.53804387966E+03 -0.45552500790E+03  0.71777929846E+03  0.93213495254E+02 0.  0.
         24    2    4    4    0    0 -0.11370615083E+02 -0.27011149733E+03 -0.78353896304E+03  0.83261888739E+03  0.78939173837E+02 0.  0.
         11    1    3    3    0    0  0.10630994650E+03 -0.14827076789E+03  0.18493359593E+03  0.25978156255E+03  0.00000000000E+00 0. -1.
        -11    1    3    3    0    0  0.26522478498E+01 -0.11966161444E+03  0.98198016025E+02  0.15481856071E+03  0.00000000000E+00 0.  1.
          4    1    6    6  502    0 -0.33396412944E+01 -0.19239663827E+03 -0.65019975973E+03  0.67807621045E+03  0.00000000000E+00 0. -1.
          1    1    5    5  503    0 -0.10469546790E+03  0.42740250281E+03 -0.32822430835E+03  0.54896742799E+03  0.00000000000E+00 0. -1.
         -2    1    5    5    0  503  0.71038886356E+01  0.11064137685E+03 -0.12730069955E+03  0.16881187047E+03  0.00000000000E+00 0.  1.
         -3    1    6    6    0  502 -0.80309737888E+01 -0.77714859054E+02 -0.13333920330E+03  0.15454267694E+03  0.00000000000E+00 0.  1.
<mgrwt>
<rscale>  0 0.17168027E+04</rscale>
<asrwt>0</asrwt>
<pdfrwt beam="1">  1        2 0.77620459E-01 0.17168027E+04</pdfrwt>
<pdfrwt beam="2">  1       -2 0.22468697E+00 0.17168027E+04</pdfrwt>
<totfact> 0.53427408E+00</totfact>
</mgrwt>
</event>
<event>
11    1  0.2045212E-008  0.1700151E+04  0.7818608E-02  0.8761278E-01
         -3   -1    0    0    0  501 -0.00000000000E+00  0.00000000000E+00  0.14511161229E+04  0.14511161229E+04  0.00000000000E+00 0.  1.
          3   -1    0    0  501    0  0.00000000000E+00 -0.00000000000E+00 -0.49798125515E+03  0.49798125515E+03  0.00000000000E+00 0. -1.
         23    2    1    2    0    0  0.32610879147E+03  0.14276599339E+03 -0.20345806336E+03  0.42201569110E+03  0.99864844929E+02 0.  0.
        254    2    1    2    0    0 -0.32610879147E+03 -0.14276599339E+03  0.11565929312E+04  0.15270816870E+04  0.93141945309E+03 0.  0.
         24    2    4    4    0    0 -0.81683717971E+01 -0.22445055933E+03 -0.72978334896E+02  0.24790431122E+03  0.75405134306E+02 0.  0.
         13    1    3    3    0    0  0.24972746868E+03  0.10229161738E+03 -0.10144312780E+03  0.28830208424E+03  0.00000000000E+00 0. -1.
        -13    1    3    3    0    0  0.76381322790E+02  0.40474376013E+02 -0.10201493556E+03  0.13371360687E+03  0.00000000000E+00 0.  1.
          2    1    5    5  502    0  0.20787097117E+02 -0.19312288248E+03 -0.61107087945E+02  0.20362373963E+03  0.00000000000E+00 0. -1.
          3    1    4    4  503    0 -0.21362867610E+03  0.21380558517E+02  0.57858185592E+03  0.61713151235E+03  0.00000000000E+00 0. -1.
         -4    1    4    4    0  503 -0.10431174356E+03  0.60304007414E+02  0.65098941014E+03  0.66204586342E+03  0.00000000000E+00 0.  1.
         -1    1    5    5    0  502 -0.28955468914E+02 -0.31327676851E+02 -0.11871246951E+02  0.44280571598E+02  0.00000000000E+00 0.  1.
<mgrwt>
<rscale>  0 0.17001513E+04</rscale>
<asrwt>0</asrwt>
<pdfrwt beam="1">  1        3 0.76612501E-01 0.17001513E+04</pdfrwt>
<pdfrwt beam="2">  1       -3 0.22324863E+00 0.17001513E+04</pdfrwt>
<totfact> 0.41979606E-01</totfact>
</mgrwt>
</event>
<event>
11    1  0.2045212E-008  0.1345294E+04  0.7818608E-02  0.8994398E-01
          2   -1    0    0  501    0  0.00000000000E+00  0.00000000000E+00  0.12045648382E+04  0.12045648382E+04  0.00000000000E+00 0. -1.
         -2   -1    0    0    0  501 -0.00000000000E+00 -0.00000000000E+00 -0.37561590242E+03  0.37561590242E+03  0.00000000000E+00 0.  1.
         23    2    1    2    0    0 -0.82733659153E+02  0.26719695372E+03  0.50375050816E+03  0.58340191793E+03  0.91401055495E+02 0.  0.
        254    2    1    2    0    0  0.82733659153E+02 -0.26719695372E+03  0.32519842764E+03  0.99677882269E+03  0.89976382101E+03 0.  0.
         24    2    4    4    0    0 -0.59478659448E+01  0.28374506600E+03 -0.36749318705E+02  0.29696522281E+03  0.79317031869E+02 0.  0.
         13    1    3    3    0    0 -0.93390391495E+02  0.15084673813E+03  0.30649390630E+03  0.35413982864E+03  0.00000000000E+00 0. -1.
        -13    1    3    3    0    0  0.10656732342E+02  0.11635021560E+03  0.19725660185E+03  0.22926208930E+03  0.00000000000E+00 0.  1.
          2    1    5    5  502    0 -0.27043928144E+02  0.32651426087E+02 -0.55290433163E+00  0.42400417193E+02  0.00000000000E+00 0. -1.
          3    1    4    4  503    0  0.28406761774E+02 -0.14624120117E+03 -0.66246738158E+01  0.14912182716E+03  0.00000000000E+00 0. -1.
         -4    1    4    4    0  503  0.60274763324E+02 -0.40470081856E+03  0.36857242016E+03  0.55069177272E+03  0.00000000000E+00 0.  1.
         -1    1    5    5    0  502  0.21096062199E+02  0.25109363992E+03 -0.36196414373E+02  0.25456480562E+03  0.00000000000E+00 0.  1.
<mgrwt>
<rscale>  0 0.13452936E+04</rscale>
<asrwt>0</asrwt>
<pdfrwt beam="1">  1        2 0.18531767E+00 0.13452936E+04</pdfrwt>
<pdfrwt beam="2">  1       -2 0.57787062E-01 0.13452936E+04</pdfrwt>
<totfact> 0.51557986E+01</totfact>
</mgrwt>
</event>
<event>
12    1  0.2045212E-008  0.2309521E+04  0.7818608E-02  0.8474177E-01
         -1   -1    0    0    0  501 -0.00000000000E+00  0.00000000000E+00  0.67387922331E+03  0.67387922331E+03  0.00000000000E+00 0.  1.
          1   -1    0    0  501    0  0.00000000000E+00 -0.00000000000E+00 -0.19787991060E+04  0.19787991060E+04  0.00000000000E+00 0. -1.
         23    2    1    2    0    0  0.69151720943E+03 -0.26654348390E+03 -0.13256740509E+04  0.15224596561E+04  0.10597280465E+03 0.  0.
        254    2    1    2    0    0 -0.69151720943E+03  0.26654348390E+03  0.20754168248E+02  0.11302186732E+04  0.85306625421E+03 0.  0.
        -24    2    4    4    0    0  0.65263483054E+02 -0.17112063350E+03  0.14579232294E+03  0.24352841996E+03  0.67149806156E+02 0.  0.
         24    2    4    4    0    0 -0.75678069248E+03  0.43766411740E+03 -0.12503815469E+03  0.88669025327E+03  0.79486910487E+02 0.  0.
         11    1    3    3    0    0  0.60515734641E+03 -0.25924600062E+03 -0.11181995492E+04  0.12976109334E+04  0.00000000000E+00 0. -1.
        -11    1    3    3    0    0  0.86359863017E+02 -0.72974832807E+01 -0.20747450175E+03  0.22484872265E+03  0.00000000000E+00 0.  1.
          2    1    6    6  502    0 -0.55450485893E+03  0.28436873266E+03 -0.10658142124E+03  0.63221896053E+03  0.00000000000E+00 0. -1.
          3    1    5    5  503    0  0.78174751355E+02 -0.14471449431E+03  0.11337106118E+03  0.19976629878E+03  0.00000000000E+00 0. -1.
         -4    1    5    5    0  503 -0.12911268300E+02 -0.26406139195E+02  0.32421261759E+02  0.43762121182E+02  0.00000000000E+00 0.  1.
         -1    1    6    6    0  502 -0.20227583355E+03  0.15329538474E+03 -0.18456733453E+02  0.25447129274E+03  0.00000000000E+00 0.  1.
<mgrwt>
<rscale>  0 0.23095208E+04</rscale>
<asrwt>0</asrwt>
<pdfrwt beam="1">  1        1 0.30443063E+00 0.23095208E+04</pdfrwt>
<pdfrwt beam="2">  1       -1 0.10367373E+00 0.23095208E+04</pdfrwt>
<totfact> 0.24392178E+00</totfact>
</mgrwt>
</event>
<event>
11    1  0.2045212E-008  0.1464232E+04  0.7818608E-02  0.8908593E-01
          2   -1    0    0  501    0  0.00000000000E+00  0.00000000000E+00  0.16233846073E+04  0.16233846073E+04  0.00000000000E+00 0. -1.
         -2   -1    0    0    0  501 -0.00000000000E+00 -0.00000000000E+00 -0.33017069899E+03  0.33017069899E+03  0.00000000000E+00 0.  1.
         23    2    1    2    0    0  0.44970800178E+03  0.11296590790E+02  0.37227095836E+03  0.59076164131E+03  0.89714829180E+02 0.  0.
        254    2    1    2    0    0 -0.44970800178E+03 -0.11296590790E+02  0.92094294992E+03  0.13627936649E+04  0.89816800010E+03 0.  0.
         24    2    4    4    0    0  0.85036722411E+02  0.30944213993E+03  0.44857687619E+03  0.55731255408E+03  0.79939895929E+02 0.  0.
         13    1    3    3    0    0  0.11341582420E+03  0.14151022213E+02  0.49253314003E+02  0.12445597434E+03  0.00000000000E+00 0. -1.
        -13    1    3    3    0    0  0.33629217757E+03 -0.28544314220E+01  0.32301764436E+03  0.46630566696E+03  0.00000000000E+00 0.  1.
          4    1    5    5  502    0  0.11665437065E+02  0.90758056236E+01  0.31907543455E+01  0.15120634343E+02  0.00000000000E+00 0. -1.
          1    1    4    4  503    0 -0.87363592252E+02 -0.31652602628E+02 -0.93588189945E+00  0.92925563648E+02  0.00000000000E+00 0. -1.
         -2    1    4    4    0  503 -0.44738113194E+03 -0.28908612810E+03  0.47330195563E+03  0.71255554722E+03  0.00000000000E+00 0.  1.
         -3    1    5    5    0  502  0.73371285346E+02  0.30036633431E+03  0.44538612185E+03  0.54219191974E+03  0.00000000000E+00 0.  1.
<mgrwt>
<rscale>  0 0.14642323E+04</rscale>
<asrwt>0</asrwt>
<pdfrwt beam="1">  1        2 0.24975147E+00 0.14642323E+04</pdfrwt>
<pdfrwt beam="2">  1       -2 0.50795493E-01 0.14642323E+04</pdfrwt>
<totfact> 0.38402747E+01</totfact>
</mgrwt>
</event>
<event>
12    1  0.2045212E-008  0.1327944E+04  0.7818608E-02  0.9007694E-01
          1   -1    0    0  501    0  0.00000000000E+00  0.00000000000E+00  0.44866234098E+03  0.44866234098E+03  0.00000000000E+00 0.  1.
         -1   -1    0    0    0  501 -0.00000000000E+00 -0.00000000000E+00 -0.98260664207E+03  0.98260664207E+03  0.00000000000E+00 0. -1.
         23    2    1    2    0    0 -0.75293587047E+01 -0.21217095884E+03  0.15008444770E+03  0.27618031209E+03  0.93150503634E+02 0.  0.
        254    2    1    2    0    0  0.75293587047E+01  0.21217095884E+03 -0.68402874880E+03  0.11550886710E+04  0.90623468350E+03 0.  0.
        -24    2    4    4    0    0  0.25882104778E+03  0.45096636065E+03 -0.58680147729E+03  0.78623906922E+03  0.58965303425E+02 0.  0.
         24    2    4    4    0    0 -0.25129168908E+03 -0.23879540181E+03 -0.97227271509E+02  0.36884960174E+03  0.80163142727E+02 0.  0.
         11    1    3    3    0    0 -0.43168394907E+02 -0.17439387082E+03  0.11100310603E+03  0.21118338488E+03  0.00000000000E+00 0.  1.
        -11    1    3    3    0    0  0.35639036203E+02 -0.37777088017E+02  0.39081341675E+02  0.64996927217E+02  0.00000000000E+00 0. -1.
          2    1    6    6  502    0 -0.96380568918E+02 -0.14686987461E+03 -0.48603208009E+02  0.18226970665E+03  0.00000000000E+00 0. -1.
          1    1    5    5  503    0  0.18117371018E+03  0.36386701071E+03 -0.46318631061E+03  0.61625049540E+03  0.00000000000E+00 0. -1.
         -2    1    5    5    0  503  0.77647337604E+02  0.87099349934E+02 -0.12361516668E+03  0.16998857382E+03  0.00000000000E+00 0.  1.
         -1    1    6    6    0  502 -0.15491112016E+03 -0.91925527198E+02 -0.48624063501E+02  0.18657989509E+03  0.00000000000E+00 0.  1.
<mgrwt>
<rscale>  0 0.13279437E+04</rscale>
<asrwt>0</asrwt>
<pdfrwt beam="1">  1        1 0.69024976E-01 0.13279437E+04</pdfrwt>
<pdfrwt beam="2">  1       -1 0.15117025E+00 0.13279437E+04</pdfrwt>
<totfact> 0.17222287E+01</totfact>
</mgrwt>
</event>
<event>
11    1  0.2045212E-008  0.1332798E+04  0.7818608E-02  0.9003953E-01
          1   -1    0    0  501    0  0.00000000000E+00  0.00000000000E+00  0.10458643362E+04  0.10458643362E+04  0.00000000000E+00 0. -1.
         -1   -1    0    0    0  501 -0.00000000000E+00 -0.00000000000E+00 -0.42461311677E+03  0.42461311677E+03  0.00000000000E+00 0.  1.
         23    2    1    2    0    0  0.31188910112E+01 -0.26530313135E+03 -0.86312563516E+02  0.29299541748E+03  0.89448180830E+02 0.  0.
        254    2    1    2    0    0 -0.31188910112E+01  0.26530313135E+03  0.70756378297E+03  0.11774820355E+04  0.90300717494E+03 0.  0.
         24    2    4    4    0    0  0.81436576003E+02 -0.23977996881E+03  0.20930006773E+03  0.33787841786E+03  0.78923745168E+02 0.  0.
         11    1    3    3    0    0  0.77047867152E+01 -0.13270392854E+03  0.31644327828E+01  0.13296507069E+03  0.00000000000E+00 0.  1.
        -11    1    3    3    0    0 -0.45858957040E+01 -0.13259920281E+03 -0.89476996299E+02  0.16003034679E+03  0.00000000000E+00 0. -1.
          4    1    5    5  502    0 -0.25273079365E+01 -0.34698307893E+01  0.28240008109E+02  0.28564402131E+02  0.00000000000E+00 0. -1.
          3    1    4    4  503    0 -0.51121989921E+02 -0.73937585599E+02  0.31929669331E+02  0.95392495519E+02  0.00000000000E+00 0. -1.
         -4    1    4    4    0  503 -0.33433477093E+02  0.57902068576E+03  0.46633404591E+03  0.74421112213E+03  0.00000000000E+00 0.  1.
         -1    1    5    5    0  502  0.83963883939E+02 -0.23631013802E+03  0.18106005962E+03  0.30931401573E+03  0.00000000000E+00 0.  1.
<mgrwt>
<rscale>  0 0.13327981E+04</rscale>
<asrwt>0</asrwt>
<pdfrwt beam="1">  1        1 0.16090220E+00 0.13327981E+04</pdfrwt>
<pdfrwt beam="2">  1       -1 0.65325095E-01 0.13327981E+04</pdfrwt>
<totfact> 0.32461973E+01</totfact>
</mgrwt>
</event>
<event>
12    1  0.2045212E-008  0.1965621E+04  0.7818608E-02  0.8622865E-01
         -1   -1    0    0    0  501 -0.00000000000E+00  0.00000000000E+00  0.42886444351E+03  0.42886444351E+03  0.00000000000E+00 0.  1.
          1   -1    0    0  501    0  0.00000000000E+00 -0.00000000000E+00 -0.22522643256E+04  0.22522643256E+04  0.00000000000E+00 0. -1.
         23    2    1    2    0    0  0.77243350036E+03 -0.13674111367E+02 -0.64496279640E+03  0.10104347448E+04  0.90337539245E+02 0.  0.
        254    2    1    2    0    0 -0.77243350036E+03  0.13674111367E+02 -0.11784370857E+04  0.16706940243E+04  0.89758791441E+03 0.  0.
        -24    2    4    4    0    0 -0.52647529263E+03  0.25657955837E+03 -0.19696575934E+03  0.62707260926E+03  0.10684214245E+03 0.  0.
         24    2    4    4    0    0 -0.24595820772E+03 -0.24290544700E+03 -0.98147132637E+03  0.10436214151E+04  0.79757114680E+02 0.  0.
         13    1    3    3    0    0  0.59613470766E+03 -0.20257080712E+02 -0.54327465063E+03  0.80680498574E+03  0.00000000000E+00 0.  1.
        -13    1    3    3    0    0  0.17629879269E+03  0.65829693455E+01 -0.10168814576E+03  0.20362975907E+03  0.00000000000E+00 0. -1.
          2    1    6    6  502    0 -0.13742508735E+03 -0.82115077959E+02 -0.47620893072E+03  0.50239773722E+03  0.00000000000E+00 0. -1.
          3    1    5    5  503    0 -0.50887435060E+03  0.26676249265E+03 -0.19452059597E+03  0.60659178567E+03  0.00000000000E+00 0. -1.
         -4    1    5    5    0  503 -0.17600942037E+02 -0.10182934280E+02 -0.24451633686E+01  0.20480823593E+02  0.00000000000E+00 0.  1.
         -1    1    6    6    0  502 -0.10853312037E+03 -0.16079036904E+03 -0.50526239565E+03  0.54122367784E+03  0.00000000000E+00 0.  1.
<mgrwt>
<rscale>  0 0.19656206E+04</rscale>
<asrwt>0</asrwt>
<pdfrwt beam="1">  1        1 0.34650221E+00 0.19656206E+04</pdfrwt>
<pdfrwt beam="2">  1       -1 0.65979145E-01 0.19656206E+04</pdfrwt>
<totfact> 0.43472912E+00</totfact>
</mgrwt>
</event>
<event>
11    1  0.2045212E-008  0.1424335E+04  0.7818608E-02  0.8936390E-01
          1   -1    0    0  501    0  0.00000000000E+00  0.00000000000E+00  0.18625753794E+04  0.18625753794E+04  0.00000000000E+00 0. -1.
         -1   -1    0    0    0  501 -0.00000000000E+00 -0.00000000000E+00 -0.27230166783E+03  0.27230166783E+03  0.00000000000E+00 0.  1.
         23    2    1    2    0    0 -0.28270799796E+02  0.12743493205E+03  0.10730376832E+04  0.10841807504E+04  0.83660803791E+02 0.  0.
        254    2    1    2    0    0  0.28270799796E+02 -0.12743493205E+03  0.51723602838E+03  0.10506962968E+04  0.90520202107E+03 0.  0.
         24    2    4    4    0    0 -0.19698547430E+03  0.61241245843E+02 -0.81470342667E+02  0.23554246974E+03  0.79303663457E+02 0.  0.
         11    1    3    3    0    0 -0.17727934014E+02  0.38544859499E+02  0.12660783075E+03  0.13352725807E+03  0.00000000000E+00 0.  1.
        -11    1    3    3    0    0 -0.10542865781E+02  0.88890072547E+02  0.94642985241E+03  0.95065349236E+03  0.00000000000E+00 0. -1.
          2    1    5    5  502    0 -0.13064945235E+03  0.77393974510E+02 -0.46372490835E+02  0.15877504400E+03  0.00000000000E+00 0. -1.
          3    1    4    4  503    0  0.33731104588E+03 -0.23780496264E+03  0.53942424860E+03  0.67919692425E+03  0.00000000000E+00 0. -1.
         -4    1    4    4    0  503 -0.11205477179E+03  0.49128784756E+02  0.59282122441E+02  0.13595690278E+03  0.00000000000E+00 0.  1.
         -1    1    5    5    0  502 -0.66336021949E+02 -0.16152728667E+02 -0.35097851832E+02  0.76767425739E+02  0.00000000000E+00 0.  1.
<mgrwt>
<rscale>  0 0.14243348E+04</rscale>
<asrwt>0</asrwt>
<pdfrwt beam="1">  1        1 0.28655005E+00 0.14243348E+04</pdfrwt>
<pdfrwt beam="2">  1       -1 0.41892565E-01 0.14243348E+04</pdfrwt>
<totfact> 0.20120085E+01</totfact>
</mgrwt>
</event>
<event>
12    1  0.2045212E-008  0.1133906E+04  0.7818608E-02  0.9172760E-01
          2   -1    0    0  501    0  0.00000000000E+00  0.00000000000E+00  0.33095761561E+03  0.33095761561E+03  0.00000000000E+00 0. -1.
         -2   -1    0    0    0  501 -0.00000000000E+00 -0.00000000000E+00 -0.97122999839E+03  0.97122999839E+03  0.00000000000E+00 0.  1.
         23    2    1    2    0    0  0.60158495601E+02 -0.48388101249E+02 -0.31536776811E+03  0.33710121083E+03  0.90663908161E+02 0.  0.
        254    2    1    2    0    0 -0.60158495601E+02  0.48388101249E+02 -0.32490461468E+03  0.96508640317E+03  0.90546579395E+03 0.  0.
        -24    2    4    4    0    0 -0.37644444931E+03 -0.14448212102E+03 -0.40300120326E+03  0.57780744885E+03  0.94159287431E+02 0.  0.
         24    2    4    4    0    0  0.31628595371E+03  0.19287022227E+03  0.78096588588E+02  0.38727895432E+03  0.81548661287E+02 0.  0.
         11    1    3    3    0    0  0.28296268748E+02  0.30432258887E+01 -0.18073811957E+02  0.33713539232E+02  0.00000000000E+00 0. -1.
        -11    1    3    3    0    0  0.31862226853E+02 -0.51431327137E+02 -0.29729395615E+03  0.30338767160E+03  0.00000000000E+00 0.  1.
          2    1    6    6  502    0  0.27140183839E+03  0.12717355727E+03  0.63931919837E+02  0.30646265991E+03  0.00000000000E+00 0. -1.
          3    1    5    5  503    0 -0.29774703161E+03 -0.14977525484E+03 -0.34653306443E+03  0.48080254423E+03  0.00000000000E+00 0. -1.
         -4    1    5    5    0  503 -0.78697417700E+02  0.52931338168E+01 -0.56468138838E+02  0.97004904629E+02  0.00000000000E+00 0.  1.
         -1    1    6    6    0  502  0.44884115324E+02  0.65696665001E+02  0.14164668751E+02  0.80816294406E+02  0.00000000000E+00 0.  1.
<mgrwt>
<rscale>  0 0.11339065E+04</rscale>
<asrwt>0</asrwt>
<pdfrwt beam="1">  1        2 0.50916556E-01 0.11339065E+04</pdfrwt>
<pdfrwt beam="2">  1       -2 0.14942000E+00 0.11339065E+04</pdfrwt>
<totfact> 0.29477515E+01</totfact>
</mgrwt>
</event>
<event>
11    1  0.2045212E-008  0.1451409E+04  0.7818608E-02  0.8917424E-01
          2   -1    0    0  501    0  0.00000000000E+00  0.00000000000E+00  0.71657488132E+03  0.71657488132E+03  0.00000000000E+00 0. -1.
         -2   -1    0    0    0  501 -0.00000000000E+00 -0.00000000000E+00 -0.73495038482E+03  0.73495038482E+03  0.00000000000E+00 0.  1.
         23    2    1    2    0    0 -0.59513173281E+02 -0.90186380949E+02  0.43055794166E+03  0.45360074904E+03  0.93263590433E+02 0.  0.
        254    2    1    2    0    0  0.59513173281E+02  0.90186380949E+02 -0.44893344516E+03  0.99792451710E+03  0.88466756612E+03 0.  0.
         24    2    4    4    0    0 -0.28157691373E+03  0.27836976035E+03 -0.64928686821E+02  0.40917083927E+03  0.80185781214E+02 0.  0.
         11    1    3    3    0    0 -0.76041705836E+02 -0.38745717276E+02  0.21365796757E+03  0.23007237718E+03  0.00000000000E+00 0. -1.
        -11    1    3    3    0    0  0.16528532555E+02 -0.51440663673E+02  0.21689997409E+03  0.22352837186E+03  0.00000000000E+00 0.  1.
          4    1    5    5  502    0 -0.56667864139E+02  0.28259694471E+02  0.11188484855E+02  0.64304271639E+02  0.00000000000E+00 0. -1.
          1    1    4    4  503    0  0.60644578936E+02 -0.51206193324E+02  0.16428338000E+02  0.81053867758E+02  0.00000000000E+00 0. -1.
         -2    1    4    4    0  503  0.28044550808E+03 -0.13697718607E+03 -0.40043309634E+03  0.50769981008E+03  0.00000000000E+00 0.  1.
         -3    1    5    5    0  502 -0.22490904959E+03  0.25011006588E+03 -0.76117171676E+02  0.34486656763E+03  0.00000000000E+00 0.  1.
<mgrwt>
<rscale>  0 0.14514089E+04</rscale>
<asrwt>0</asrwt>
<pdfrwt beam="1">  1        2 0.11024229E+00 0.14514089E+04</pdfrwt>
<pdfrwt beam="2">  1       -2 0.11306929E+00 0.14514089E+04</pdfrwt>
<totfact> 0.23698453E+01</totfact>
</mgrwt>
</event>
<event>
11    1  0.2045212E-008  0.2012873E+04  0.7818608E-02  0.8600626E-01
         -2   -1    0    0    0  501 -0.00000000000E+00  0.00000000000E+00  0.12000605341E+04  0.12000605341E+04  0.00000000000E+00 0.  1.
          2   -1    0    0  501    0  0.00000000000E+00 -0.00000000000E+00 -0.84405290695E+03  0.84405290695E+03  0.00000000000E+00 0. -1.
         23    2    1    2    0    0  0.67745898418E+03  0.35222769059E+03  0.38535864693E+03  0.86094911119E+03  0.98575169397E+02 0.  0.
        254    2    1    2    0    0 -0.67745898418E+03 -0.35222769059E+03 -0.29351019776E+02  0.11831643299E+04  0.90332791821E+03 0.  0.
         24    2    4    4    0    0  0.23772298364E+02 -0.40639804615E+03  0.64020074564E+02  0.41969447998E+03  0.79500896171E+02 0.  0.
         13    1    3    3    0    0  0.33595727202E+03  0.15099032723E+03  0.13588813696E+03  0.39259515192E+03  0.00000000000E+00 0. -1.
        -13    1    3    3    0    0  0.34150171216E+03  0.20123736336E+03  0.24947050997E+03  0.46835395928E+03  0.00000000000E+00 0.  1.
          4    1    5    5  502    0  0.51069406725E+02 -0.31863887046E+03  0.54819979964E+02  0.32732864872E+03  0.00000000000E+00 0. -1.
          3    1    4    4  503    0 -0.71233987491E+03  0.60202715116E+02 -0.12832040630E+03  0.72630475076E+03  0.00000000000E+00 0. -1.
         -4    1    4    4    0  503  0.11108592366E+02 -0.60323595568E+01  0.34949311962E+02  0.37165099123E+02  0.00000000000E+00 0.  1.
         -3    1    5    5    0  502 -0.27297108361E+02 -0.87759175695E+02  0.92000945997E+01  0.92365831259E+02  0.00000000000E+00 0.  1.
<mgrwt>
<rscale>  0 0.20128732E+04</rscale>
<asrwt>0</asrwt>
<pdfrwt beam="1">  1        2 0.12985429E+00 0.20128732E+04</pdfrwt>
<pdfrwt beam="2">  1       -2 0.18462470E+00 0.20128732E+04</pdfrwt>
<totfact> 0.50102422E+00</totfact>
</mgrwt>
</event>
<event>
12    1  0.2045212E-008  0.1301880E+04  0.7818608E-02  0.9028076E-01
          2   -1    0    0  501    0  0.00000000000E+00  0.00000000000E+00  0.69508906511E+03  0.69508906511E+03  0.00000000000E+00 0. -1.
         -2   -1    0    0    0  501 -0.00000000000E+00 -0.00000000000E+00 -0.60959486213E+03  0.60959486213E+03  0.00000000000E+00 0.  1.
         23    2    1    2    0    0 -0.23072467071E+03 -0.25700184170E+03 -0.80165582002E+02  0.36644878155E+03  0.92597886884E+02 0.  0.
        254    2    1    2    0    0  0.23072467071E+03  0.25700184170E+03  0.16565978498E+03  0.93823514569E+03  0.85648012466E+03 0.  0.
        -24    2    4    4    0    0  0.21793666716E+03 -0.28973370566E+03  0.35855569316E+02  0.37040578675E+03  0.66879099238E+02 0.  0.
         24    2    4    4    0    0  0.12788003544E+02  0.54673554736E+03  0.12980421567E+03  0.56782935894E+03  0.80608651437E+02 0.  0.
         11    1    3    3    0    0 -0.63975198445E+02 -0.22145808920E+02 -0.88934678772E+00  0.67705640877E+02  0.00000000000E+00 0. -1.
        -11    1    3    3    0    0 -0.16674947226E+03 -0.23485603278E+03 -0.79276235215E+02  0.29874314068E+03  0.00000000000E+00 0.  1.
          2    1    6    6  502    0  0.45299781301E+02  0.25810121590E+03  0.70716862276E+02  0.27142067431E+03  0.00000000000E+00 0. -1.
          3    1    5    5  503    0  0.67433841291E+02 -0.14474374778E+03  0.14697166792E+02  0.16035611053E+03  0.00000000000E+00 0. -1.
         -4    1    5    5    0  503  0.15050282587E+03 -0.14498995788E+03  0.21158402524E+02  0.21004967622E+03  0.00000000000E+00 0.  1.
         -1    1    6    6    0  502 -0.32511777757E+02  0.28863433147E+03  0.59087353393E+02  0.29640868463E+03  0.00000000000E+00 0.  1.
<mgrwt>
<rscale>  0 0.13018798E+04</rscale>
<asrwt>0</asrwt>
<pdfrwt beam="1">  1        2 0.10693678E+00 0.13018798E+04</pdfrwt>
<pdfrwt beam="2">  1       -2 0.93783825E-01 0.13018798E+04</pdfrwt>
<totfact> 0.38927527E+01</totfact>
</mgrwt>
</event>
<event>
11    1  0.2045212E-008  0.1105976E+04  0.7818608E-02  0.9199386E-01
          1   -1    0    0  501    0  0.00000000000E+00  0.00000000000E+00  0.13205749585E+04  0.13205749585E+04  0.00000000000E+00 0. -1.
         -1   -1    0    0    0  501 -0.00000000000E+00 -0.00000000000E+00 -0.23156271458E+03  0.23156271458E+03  0.00000000000E+00 0.  1.
         23    2    1    2    0    0  0.89224571329E+02 -0.10456522205E+03  0.43787267545E+02  0.16974811053E+03  0.89454940838E+02 0.  0.
        254    2    1    2    0    0 -0.89224571329E+02  0.10456522205E+03  0.10452249764E+04  0.13823895625E+04  0.89420956247E+03 0.  0.
         24    2    4    4    0    0  0.13895155625E+03 -0.34096240814E+03  0.53091258753E+03  0.65092034000E+03  0.79159425678E+02 0.  0.
         13    1    3    3    0    0  0.85352252724E+02 -0.80685541992E+02 -0.25450230867E+01  0.11748038506E+03  0.00000000000E+00 0.  1.
        -13    1    3    3    0    0  0.38723186045E+01 -0.23879680053E+02  0.46332290631E+02  0.52267725471E+02  0.00000000000E+00 0. -1.
          2    1    5    5  502    0  0.22811441434E+02 -0.84531060277E+01  0.37381635123E+02  0.44600487736E+02  0.00000000000E+00 0. -1.
          1    1    4    4  503    0  0.10693451837E+02  0.55368411228E+02  0.97257481882E+02  0.11242343464E+03  0.00000000000E+00 0. -1.
         -2    1    4    4    0  503 -0.23886957941E+03  0.39015921896E+03  0.41705490695E+03  0.61904578790E+03  0.00000000000E+00 0.  1.
         -1    1    5    5    0  502  0.11614011481E+03 -0.33250930211E+03  0.49353095241E+03  0.60631985226E+03  0.00000000000E+00 0.  1.
<mgrwt>
<rscale>  0 0.11059764E+04</rscale>
<asrwt>0</asrwt>
<pdfrwt beam="1">  1        1 0.20316537E+00 0.11059764E+04</pdfrwt>
<pdfrwt beam="2">  1       -1 0.35625034E-01 0.11059764E+04</pdfrwt>
<totfact> 0.65432863E+01</totfact>
</mgrwt>
</event>
<event>
12    1  0.2045212E-008  0.1669005E+04  0.7818608E-02  0.8779242E-01
         -2   -1    0    0    0  501 -0.00000000000E+00  0.00000000000E+00  0.34303045510E+03  0.34303045510E+03  0.00000000000E+00 0.  1.
          2   -1    0    0  501    0  0.00000000000E+00 -0.00000000000E+00 -0.20301252653E+04  0.20301252653E+04  0.00000000000E+00 0. -1.
         23    2    1    2    0    0 -0.21967208055E+03 -0.19769499118E+03 -0.13278636963E+04  0.13635085556E+04  0.92706271793E+02 0.  0.
        254    2    1    2    0    0  0.21967208055E+03  0.19769499118E+03 -0.35923111390E+03  0.10096471648E+04  0.89610338222E+03 0.  0.
        -24    2    4    4    0    0  0.60257373617E+02 -0.96987712807E+02 -0.58362150243E+03  0.59870091698E+03  0.69218222917E+02 0.  0.
         24    2    4    4    0    0  0.15941470693E+03  0.29468270399E+03  0.22439038853E+03  0.41094624779E+03  0.79213807493E+02 0.  0.
         13    1    3    3    0    0 -0.36236973344E+01 -0.42554592338E+02 -0.14820487140E+03  0.15423588563E+03  0.00000000000E+00 0.  1.
        -13    1    3    3    0    0 -0.21604838321E+03 -0.15514039884E+03 -0.11796588249E+04  0.12092726700E+04  0.00000000000E+00 0. -1.
          4    1    6    6  502    0  0.88715149043E+00  0.51698272667E+01 -0.63365851371E+01  0.82259627360E+01  0.00000000000E+00 0. -1.
          3    1    5    5  503    0  0.31660546089E+02 -0.51470940151E+01 -0.84248015319E+02  0.90147716780E+02  0.00000000000E+00 0. -1.
         -4    1    5    5    0  503  0.28596827528E+02 -0.91840618792E+02 -0.49937348711E+03  0.50855320020E+03  0.00000000000E+00 0.  1.
         -1    1    6    6    0  502  0.15852755544E+03  0.28951287672E+03  0.23072697367E+03  0.40272028506E+03  0.00000000000E+00 0.  1.
<mgrwt>
<rscale>  0 0.16690054E+04</rscale>
<asrwt>0</asrwt>
<pdfrwt beam="1">  1        2 0.31232696E+00 0.16690054E+04</pdfrwt>
<pdfrwt beam="2">  1       -2 0.52773917E-01 0.16690054E+04</pdfrwt>
<totfact> 0.20771046E+01</totfact>
</mgrwt>
</event>
<event>
12    1  0.2045212E-008  0.1633880E+04  0.7818608E-02  0.8800001E-01
         -1   -1    0    0    0  501 -0.00000000000E+00  0.00000000000E+00  0.14324474319E+04  0.14324474319E+04  0.00000000000E+00 0.  1.
          1   -1    0    0  501    0  0.00000000000E+00 -0.00000000000E+00 -0.46590943705E+03  0.46590943705E+03  0.00000000000E+00 0. -1.
         23    2    1    2    0    0 -0.33756591401E+03  0.19044410048E+03 -0.19366192486E+03  0.44249005071E+03  0.89848773656E+02 0.  0.
        254    2    1    2    0    0  0.33756591401E+03 -0.19044410048E+03  0.11601999197E+04  0.14558668183E+04  0.78947111221E+03 0.  0.
        -24    2    4    4    0    0  0.44238772286E+03  0.18164158955E+03  0.68118712070E+03  0.83515426662E+03  0.69037607578E+02 0.  0.
         24    2    4    4    0    0 -0.10482180885E+03 -0.37208569004E+03  0.47901279904E+03  0.62071255163E+03  0.79971480950E+02 0.  0.
         13    1    3    3    0    0 -0.44046345218E+01  0.22775963780E+02 -0.23600182721E+01  0.23317697520E+02  0.00000000000E+00 0.  1.
        -13    1    3    3    0    0 -0.33316127949E+03  0.16766813670E+03 -0.19130190659E+03  0.41917235319E+03  0.00000000000E+00 0. -1.
          4    1    6    6  502    0 -0.15560657289E+02 -0.18876372806E+03  0.20416925569E+03  0.27849410057E+03  0.00000000000E+00 0. -1.
          1    1    5    5  503    0  0.13497500493E+03  0.77654861193E+02  0.26542919205E+03  0.30773557710E+03  0.00000000000E+00 0. -1.
         -2    1    5    5    0  503  0.30741271793E+03  0.10398672836E+03  0.41575792865E+03  0.52741868952E+03  0.00000000000E+00 0.  1.
         -3    1    6    6    0  502 -0.89261151559E+02 -0.18332196198E+03  0.27484354335E+03  0.34221845105E+03  0.00000000000E+00 0.  1.
<mgrwt>
<rscale>  0 0.16338798E+04</rscale>
<asrwt>0</asrwt>
<pdfrwt beam="1">  1        1 0.71678376E-01 0.16338798E+04</pdfrwt>
<pdfrwt beam="2">  1       -1 0.22037653E+00 0.16338798E+04</pdfrwt>
<totfact> 0.51125856E+00</totfact>
</mgrwt>
</event>
<event>
11    1  0.2045212E-008  0.1435501E+04  0.7818608E-02  0.8928515E-01
         -1   -1    0    0    0  501 -0.00000000000E+00  0.00000000000E+00  0.55837361621E+03  0.55837361621E+03  0.00000000000E+00 0.  1.
          1   -1    0    0  501    0  0.00000000000E+00 -0.00000000000E+00 -0.92261840742E+03  0.92261840742E+03  0.00000000000E+00 0. -1.
         23    2    1    2    0    0  0.10487396696E+03  0.40952776351E+03 -0.33750669748E+02  0.43382441519E+03  0.91394624972E+02 0.  0.
        254    2    1    2    0    0 -0.10487396696E+03 -0.40952776351E+03 -0.33049412146E+03  0.10471676084E+04  0.89923417296E+03 0.  0.
         24    2    4    4    0    0 -0.37700973475E+02  0.39498182697E+02  0.26121377872E+03  0.27842382662E+03  0.79408558716E+02 0.  0.
         11    1    3    3    0    0  0.89970231641E+02  0.17517178781E+03 -0.28154808404E+02  0.19892835661E+03  0.00000000000E+00 0. -1.
        -11    1    3    3    0    0  0.14903735314E+02  0.23435597570E+03 -0.55958613437E+01  0.23489605858E+03  0.00000000000E+00 0.  1.
          2    1    5    5  502    0 -0.62633539835E+02  0.31684145404E+02  0.18629744995E+03  0.19908185562E+03  0.00000000000E+00 0. -1.
          3    1    4    4  503    0 -0.85380905888E+02 -0.42256388275E+03 -0.59680121708E+03  0.73622131646E+03  0.00000000000E+00 0. -1.
         -4    1    4    4    0  503  0.18207912408E+02 -0.26462063453E+02  0.50933168908E+01  0.32522465365E+02  0.00000000000E+00 0.  1.
         -1    1    5    5    0  502  0.24932566359E+02  0.78140372927E+01  0.74916328777E+02  0.79341970996E+02  0.00000000000E+00 0.  1.
<mgrwt>
<rscale>  0 0.14355010E+04</rscale>
<asrwt>0</asrwt>
<pdfrwt beam="1">  1        1 0.14194129E+00 0.14355010E+04</pdfrwt>
<pdfrwt beam="2">  1       -1 0.85903634E-01 0.14355010E+04</pdfrwt>
<totfact> 0.22694482E+01</totfact>
</mgrwt>
</event>
<event>
12    1  0.2045212E-008  0.1543475E+04  0.7818608E-02  0.8856047E-01
         -1   -1    0    0    0  501 -0.00000000000E+00  0.00000000000E+00  0.49512836766E+03  0.49512836766E+03  0.00000000000E+00 0.  1.
          1   -1    0    0  501    0  0.00000000000E+00 -0.00000000000E+00 -0.12028769779E+04  0.12028769779E+04  0.00000000000E+00 0. -1.
         23    2    1    2    0    0  0.13889995686E+03  0.41747645483E+03 -0.52295574902E+03  0.68986508453E+03  0.94081512872E+02 0.  0.
        254    2    1    2    0    0 -0.13889995686E+03 -0.41747645483E+03 -0.18479286127E+03  0.10081402611E+04  0.88804200130E+03 0.  0.
        -24    2    4    4    0    0  0.22613507554E+03 -0.38975290199E+02 -0.37041222287E+03  0.44517044543E+03  0.91188623191E+02 0.  0.
         24    2    4    4    0    0 -0.36503503240E+03 -0.37850116463E+03  0.18561936160E+03  0.56296981564E+03  0.77244801865E+02 0.  0.
         11    1    3    3    0    0  0.15495737868E+02  0.66443736498E+02 -0.14093322763E+03  0.15657925362E+03  0.00000000000E+00 0.  1.
        -11    1    3    3    0    0  0.12340421899E+03  0.35103271833E+03 -0.38202252139E+03  0.53328583091E+03  0.00000000000E+00 0. -1.
          4    1    6    6  502    0 -0.27651058087E+03 -0.32639841020E+03  0.16306296725E+03  0.45780296505E+03  0.00000000000E+00 0. -1.
          3    1    5    5  503    0  0.78313537267E+02 -0.58231408595E+02 -0.15668169259E+03  0.18458889419E+03  0.00000000000E+00 0. -1.
         -4    1    5    5    0  503  0.14782153827E+03  0.19256118396E+02 -0.21373053028E+03  0.26058155124E+03  0.00000000000E+00 0.  1.
         -3    1    6    6    0  502 -0.88524451534E+02 -0.52102754425E+02  0.22556394351E+02  0.10516685060E+03  0.00000000000E+00 0.  1.
<mgrwt>
<rscale>  0 0.15434747E+04</rscale>
<asrwt>0</asrwt>
<pdfrwt beam="1">  1        1 0.18505800E+00 0.15434747E+04</pdfrwt>
<pdfrwt beam="2">  1       -1 0.76173594E-01 0.15434747E+04</pdfrwt>
<totfact> 0.17740779E+01</totfact>
</mgrwt>
</event>
<event>
11    1  0.2045212E-008  0.2987615E+04  0.7818608E-02  0.8247276E-01
         -1   -1    0    0    0  501 -0.00000000000E+00  0.00000000000E+00  0.15623029126E+04  0.15623029126E+04  0.00000000000E+00 0.  1.
          1   -1    0    0  501    0  0.00000000000E+00 -0.00000000000E+00 -0.14283152608E+04  0.14283152608E+04  0.00000000000E+00 0. -1.
         23    2    1    2    0    0  0.63405489631E+03  0.86217639363E+03 -0.77452884426E+03  0.13241710710E+04  0.90334652016E+02 0.  0.
        254    2    1    2    0    0 -0.63405489631E+03 -0.86217639363E+03  0.90851649602E+03  0.16664471025E+04  0.89792537359E+03 0.  0.
         24    2    4    4    0    0 -0.15129261817E+02  0.54695009683E+02 -0.11736652084E+03  0.15350520406E+03  0.81046337426E+02 0.  0.
         13    1    3    3    0    0  0.10411043906E+02  0.42528901544E+02 -0.25455524468E+02  0.50646628986E+02  0.00000000000E+00 0.  1.
        -13    1    3    3    0    0  0.62364385240E+03  0.81964749208E+03 -0.74907331979E+03  0.12735244420E+04  0.00000000000E+00 0. -1.
          4    1    5    5  502    0 -0.39749645143E+02  0.23131396076E+02 -0.99608095192E+02  0.10971266290E+03  0.00000000000E+00 0. -1.
          1    1    4    4  503    0 -0.37863873059E+03 -0.53064763089E+03  0.67565684366E+03  0.93886440280E+03  0.00000000000E+00 0. -1.
         -2    1    4    4    0  503 -0.24028690390E+03 -0.38622377242E+03  0.35022617321E+03  0.57407749561E+03  0.00000000000E+00 0.  1.
         -3    1    5    5    0  502  0.24620383326E+02  0.31563613608E+02 -0.17758425651E+02  0.43792541153E+02  0.00000000000E+00 0.  1.
<mgrwt>
<rscale>  0 0.29876152E+04</rscale>
<asrwt>0</asrwt>
<pdfrwt beam="1">  1        1 0.21974081E+00 0.29876152E+04</pdfrwt>
<pdfrwt beam="2">  1       -1 0.24035430E+00 0.29876152E+04</pdfrwt>
<totfact> 0.50422671E-01</totfact>
</mgrwt>
</event>
<event>
12    1  0.2045212E-008  0.1531143E+04  0.7818608E-02  0.8864003E-01
          2   -1    0    0  501    0  0.00000000000E+00  0.00000000000E+00  0.10366062455E+04  0.10366062455E+04  0.00000000000E+00 0.  1.
         -2   -1    0    0    0  501 -0.00000000000E+00 -0.00000000000E+00 -0.56540266483E+03  0.56540266483E+03  0.00000000000E+00 0. -1.
         23    2    1    2    0    0 -0.12406691860E+03 -0.47665194948E+03  0.17052291895E+03  0.52894461393E+03  0.90081393617E+02 0.  0.
        254    2    1    2    0    0  0.12406691860E+03  0.47665194948E+03  0.30068066172E+03  0.10730642964E+04  0.90469245751E+03 0.  0.
        -24    2    4    4    0    0 -0.97857009105E+02 -0.98921142592E+01 -0.26486737401E+03  0.29066232206E+03  0.68234972689E+02 0.  0.
         24    2    4    4    0    0  0.22192392771E+03  0.48654406374E+03  0.56554803573E+03  0.78240197436E+03  0.79579602348E+02 0.  0.
         11    1    3    3    0    0 -0.36980698783E+02 -0.13247767099E+03  0.60488613271E+01  0.13767532138E+03  0.00000000000E+00 0.  1.
        -11    1    3    3    0    0 -0.87086219820E+02 -0.34417427849E+03  0.16447405763E+03  0.39126929255E+03  0.00000000000E+00 0. -1.
          2    1    6    6  502    0  0.58415069898E+01  0.40792518178E+02  0.73068257063E+02  0.83887561256E+02  0.00000000000E+00 0. -1.
          1    1    5    5  503    0 -0.13628213958E+02  0.87845537418E+01 -0.12696327939E+03  0.12799441751E+03  0.00000000000E+00 0. -1.
         -2    1    5    5    0  503 -0.84228795147E+02 -0.18676668001E+02 -0.13790409462E+03  0.16266790455E+03  0.00000000000E+00 0.  1.
         -1    1    6    6    0  502  0.21608242072E+03  0.44575154557E+03  0.49247977867E+03  0.69851441310E+03  0.00000000000E+00 0.  1.
<mgrwt>
<rscale>  0 0.15311433E+04</rscale>
<asrwt>0</asrwt>
<pdfrwt beam="1">  1        2 0.15947788E+00 0.15311433E+04</pdfrwt>
<pdfrwt beam="2">  1       -2 0.86985025E-01 0.15311433E+04</pdfrwt>
<totfact> 0.26303866E+01</totfact>
</mgrwt>
</event>
<event>
11    1  0.2045212E-008  0.1692744E+04  0.7818608E-02  0.8765513E-01
         -2   -1    0    0    0  501 -0.00000000000E+00  0.00000000000E+00  0.81878778073E+03  0.81878778073E+03  0.00000000000E+00 0.  1.
          2   -1    0    0  501    0  0.00000000000E+00 -0.00000000000E+00 -0.87488582019E+03  0.87488582019E+03  0.00000000000E+00 0. -1.
         23    2    1    2    0    0  0.62922662171E+03 -0.40653418059E+02 -0.23065194117E+03  0.67810148540E+03  0.95091874851E+02 0.  0.
        254    2    1    2    0    0 -0.62922662171E+03  0.40653418059E+02  0.17455390172E+03  0.10155721155E+04  0.77674887535E+03 0.  0.
         24    2    4    4    0    0 -0.31506563797E+03 -0.34971328925E+03  0.14835710109E+02  0.47756518615E+03  0.79263281641E+02 0.  0.
         13    1    3    3    0    0  0.11209412931E+03 -0.42207110186E+02 -0.30631317157E+02  0.12363175792E+03  0.00000000000E+00 0. -1.
        -13    1    3    3    0    0  0.51713249240E+03  0.15536921267E+01 -0.20002062402E+03  0.55446972748E+03  0.00000000000E+00 0.  1.
          2    1    5    5  502    0 -0.35529347375E+02 -0.14289984378E+02  0.14449991592E+02  0.40930922728E+02  0.00000000000E+00 0. -1.
          3    1    4    4  503    0 -0.13929822203E+02 -0.69340054238E+01  0.75431514346E+01  0.17292180643E+02  0.00000000000E+00 0. -1.
         -4    1    4    4    0  503 -0.30023116154E+03  0.39730071274E+03  0.15217504018E+03  0.52071474874E+03  0.00000000000E+00 0.  1.
         -3    1    5    5    0  502 -0.27953629059E+03 -0.33542330488E+03  0.38571851706E+00  0.43663426342E+03  0.00000000000E+00 0.  1.
<mgrwt>
<rscale>  0 0.16927443E+04</rscale>
<asrwt>0</asrwt>
<pdfrwt beam="1">  1        2 0.13459782E+00 0.16927443E+04</pdfrwt>
<pdfrwt beam="2">  1       -2 0.12596735E+00 0.16927443E+04</pdfrwt>
<totfact> 0.13656354E+01</totfact>
</mgrwt>
</event>
<event>
12    1  0.2045212E-008  0.1979135E+04  0.7818608E-02  0.8616439E-01
          1   -1    0    0  501    0  0.00000000000E+00  0.00000000000E+00  0.11706187616E+04  0.11706187616E+04  0.00000000000E+00 0. -1.
         -1   -1    0    0    0  501 -0.00000000000E+00 -0.00000000000E+00 -0.83651772848E+03  0.83651772848E+03  0.00000000000E+00 0.  1.
         23    2    1    2    0    0 -0.23746827244E+03  0.24212136715E+03  0.83853381945E+03  0.90909858764E+03  0.91144604012E+02 0.  0.
        254    2    1    2    0    0  0.23746827244E+03 -0.24212136715E+03 -0.50443278634E+03  0.10980379024E+04  0.91445112630E+03 0.  0.
        -24    2    4    4    0    0 -0.47755010551E+02 -0.12760119478E+03 -0.70406962275E+03  0.72289156245E+03  0.91080027696E+02 0.  0.
         24    2    4    4    0    0  0.28522328299E+03 -0.11452017237E+03  0.19963683641E+03  0.37514633998E+03  0.80079453724E+02 0.  0.
         11    1    3    3    0    0 -0.10798774450E+03  0.53970043146E+02  0.33813049645E+03  0.35903530628E+03  0.00000000000E+00 0. -1.
        -11    1    3    3    0    0 -0.12948052793E+03  0.18815132401E+03  0.50040332300E+03  0.55006328137E+03  0.00000000000E+00 0.  1.
          4    1    6    6  502    0  0.13759711563E+03 -0.39680081621E+02  0.13698449831E+03  0.19817221774E+03  0.00000000000E+00 0. -1.
          3    1    5    5  503    0 -0.71076098157E+02 -0.91314103600E+02 -0.58285776424E+03  0.59423333008E+03  0.00000000000E+00 0. -1.
         -4    1    5    5    0  503  0.23321087606E+02 -0.36287091183E+02 -0.12121185851E+03  0.12865823237E+03  0.00000000000E+00 0.  1.
         -3    1    6    6    0  502  0.14762616736E+03 -0.74840090749E+02  0.62652338101E+02  0.17697412224E+03  0.00000000000E+00 0.  1.
<mgrwt>
<rscale>  0 0.19791345E+04</rscale>
<asrwt>0</asrwt>
<pdfrwt beam="1">  1        1 0.18009520E+00 0.19791345E+04</pdfrwt>
<pdfrwt beam="2">  1       -1 0.12869503E+00 0.19791345E+04</pdfrwt>
<totfact> 0.54300204E+00</totfact>
</mgrwt>
</event>
<event>
12    1  0.2422585E-008  0.2145421E+04  0.7818608E-02  0.8541495E-01
          1   -1    0    0  501    0  0.00000000000E+00  0.00000000000E+00  0.74369501742E+03  0.74369501742E+03  0.00000000000E+00 0. -1.
         -1   -1    0    0    0  501 -0.00000000000E+00 -0.00000000000E+00 -0.15472851911E+04  0.15472851911E+04  0.00000000000E+00 0.  1.
         23    2    1    2    0    0 -0.97490032734E+02 -0.69531303710E+03 -0.89188711337E+03  0.11386718968E+04  0.90258182378E+02 0.  0.
        254    2    1    2    0    0  0.97490032734E+02  0.69531303710E+03  0.88296939716E+02  0.11523083117E+04  0.90942485651E+03 0.  0.
        -24    2    4    4    0    0 -0.28829218258E+03  0.68947719797E+03  0.28736462102E+02  0.75356081977E+03  0.92395539840E+02 0.  0.
         24    2    4    4    0    0  0.38578221531E+03  0.58358391293E+01  0.59560477614E+02  0.39874749195E+03  0.81179659827E+02 0.  0.
         11    1    3    3    0    0 -0.80184132484E+02 -0.44998103308E+03 -0.51432348525E+03  0.68807054341E+03  0.00000000000E+00 0.  1.
        -11    1    3    3    0    0 -0.17305900250E+02 -0.24533200402E+03 -0.37756362812E+03  0.45060135337E+03  0.00000000000E+00 0. -1.
          2    1    6    6  502    0  0.80929428121E+02  0.20173683489E+02  0.41145377642E+02  0.93002644816E+02  0.00000000000E+00 0. -1.
          1    1    5    5  503    0 -0.56066332704E+02  0.63796165957E+02 -0.69848676126E+01  0.85218383165E+02  0.00000000000E+00 0. -1.
         -2    1    5    5    0  503 -0.23222584987E+03  0.62568103201E+03  0.35721329714E+02  0.66834243660E+03  0.00000000000E+00 0.  1.
         -1    1    6    6    0  502  0.30485278719E+03 -0.14337844360E+02  0.18415099972E+02  0.30574484713E+03  0.00000000000E+00 0.  1.
<mgrwt>
<rscale>  0 0.21454214E+04</rscale>
<asrwt>0</asrwt>
<pdfrwt beam="1">  1        1 0.11441462E+00 0.21454214E+04</pdfrwt>
<pdfrwt beam="2">  1       -1 0.23804387E+00 0.21454214E+04</pdfrwt>
<totfact> 0.18984565E+00</totfact>
</mgrwt>
</event>
<event>
12    1  0.2045212E-008  0.1395825E+04  0.7818608E-02  0.8956846E-01
         -2   -1    0    0    0  501 -0.00000000000E+00  0.00000000000E+00  0.24589910182E+03  0.24589910182E+03  0.00000000000E+00 0. -1.
          2   -1    0    0  501    0  0.00000000000E+00 -0.00000000000E+00 -0.19808212967E+04  0.19808212967E+04  0.00000000000E+00 0.  1.
         23    2    1    2    0    0  0.24470781377E+03  0.25824922952E+03 -0.20584102756E+03  0.42053413634E+03  0.88903613716E+02 0.  0.
        254    2    1    2    0    0 -0.24470781377E+03 -0.25824922952E+03 -0.15290811674E+04  0.18061862622E+04  0.89310974623E+03 0.  0.
        -24    2    4    4    0    0  0.23190160158E+03 -0.36969509351E+03 -0.92343247259E+03  0.10235024010E+04  0.66157527997E+02 0.  0.
         24    2    4    4    0    0 -0.47660941535E+03  0.11144586399E+03 -0.60564869477E+03  0.78268386119E+03  0.78784323914E+02 0.  0.
         11    1    3    3    0    0  0.95055661422E+01  0.53141934308E+02 -0.39542625754E+02  0.66918160623E+02  0.00000000000E+00 0.  1.
        -11    1    3    3    0    0  0.23520224763E+03  0.20510729521E+03 -0.16629840181E+03  0.35361597572E+03  0.00000000000E+00 0. -1.
          4    1    6    6  502    0 -0.31199382743E+03  0.53876050844E+02 -0.44069871126E+03  0.54263996473E+03  0.00000000000E+00 0. -1.
          3    1    5    5  503    0  0.95648945182E+02 -0.20439193681E+03 -0.43136056585E+03  0.48682309140E+03  0.00000000000E+00 0. -1.
         -4    1    5    5    0  503  0.13625265640E+03 -0.16530315670E+03 -0.49207190674E+03  0.53667930964E+03  0.00000000000E+00 0.  1.
         -3    1    6    6    0  502 -0.16461558792E+03  0.57569813142E+02 -0.16494998350E+03  0.24004389646E+03  0.00000000000E+00 0.  1.
<mgrwt>
<rscale>  0 0.13958255E+04</rscale>
<asrwt>0</asrwt>
<pdfrwt beam="1">  1        2 0.30474174E+00 0.13958255E+04</pdfrwt>
<pdfrwt beam="2">  1       -2 0.37830630E-01 0.13958255E+04</pdfrwt>
<totfact> 0.43983361E+01</totfact>
</mgrwt>
</event>
<event>
12    1  0.2045212E-008  0.1818879E+04  0.7818608E-02  0.8696324E-01
          1   -1    0    0  501    0  0.00000000000E+00  0.00000000000E+00  0.16635650575E+04  0.16635650575E+04  0.00000000000E+00 0. -1.
         -1   -1    0    0    0  501 -0.00000000000E+00 -0.00000000000E+00 -0.49717358674E+03  0.49717358674E+03  0.00000000000E+00 0.  1.
         23    2    1    2    0    0  0.74630451295E+02  0.32760575844E+03  0.10068603894E+04  0.10653988936E+04  0.91715438029E+02 0.  0.
        254    2    1    2    0    0 -0.74630451295E+02 -0.32760575844E+03  0.15953108140E+03  0.10953397507E+04  0.10302542241E+04 0.  0.
        -24    2    4    4    0    0 -0.28606290790E+02 -0.36656268706E+03  0.56554688686E+03  0.67741072939E+03  0.62092605314E+02 0.  0.
         24    2    4    4    0    0 -0.46024160505E+02  0.38956928622E+02 -0.40601580546E+03  0.41792902128E+03  0.78612765573E+02 0.  0.
         11    1    3    3    0    0  0.45144945253E+02  0.25292731220E+03  0.63575199859E+03  0.68570467043E+03  0.00000000000E+00 0. -1.
        -11    1    3    3    0    0  0.29485506042E+02  0.74678446238E+02  0.37110839077E+03  0.37969422316E+03  0.00000000000E+00 0.  1.
          2    1    6    6  502    0 -0.15152889428E+02  0.12359222817E+02 -0.14613800517E+02  0.24411546698E+02  0.00000000000E+00 0. -1.
          3    1    5    5  503    0  0.18751857658E+02 -0.80461338624E+02  0.11488731619E+03  0.14150884990E+03  0.00000000000E+00 0. -1.
         -4    1    5    5    0  503 -0.47358148448E+02 -0.28610134843E+03  0.45065957067E+03  0.53590187948E+03  0.00000000000E+00 0.  1.
         -1    1    6    6    0  502 -0.30871271077E+02  0.26597705805E+02 -0.39140200494E+03  0.39351747458E+03  0.00000000000E+00 0.  1.
<mgrwt>
<rscale>  0 0.18188794E+04</rscale>
<asrwt>0</asrwt>
<pdfrwt beam="1">  1        1 0.25593308E+00 0.18188794E+04</pdfrwt>
<pdfrwt beam="2">  1       -1 0.76488245E-01 0.18188794E+04</pdfrwt>
<totfact> 0.81570731E+00</totfact>
</mgrwt>
</event>
<event>
11    1  0.2045212E-008  0.1432757E+04  0.7818608E-02  0.8930443E-01
          2   -1    0    0  501    0  0.00000000000E+00  0.00000000000E+00  0.13962604041E+04  0.13962604041E+04  0.00000000000E+00 0. -1.
         -2   -1    0    0    0  501 -0.00000000000E+00 -0.00000000000E+00 -0.36755163871E+03  0.36755163871E+03  0.00000000000E+00 0.  1.
         23    2    1    2    0    0  0.44453137173E+02  0.35181117281E+03  0.31658633155E+02  0.36774164498E+03  0.92111159384E+02 0.  0.
        254    2    1    2    0    0 -0.44453137173E+02 -0.35181117281E+03  0.99705013229E+03  0.13960703979E+04  0.91058025830E+03 0.  0.
         24    2    4    4    0    0 -0.10105568616E+03  0.98648004585E+02 -0.10629217912E+03  0.19344479750E+03  0.78607772023E+02 0.  0.
         11    1    3    3    0    0  0.46668344989E+02  0.94120982745E+02  0.32741903845E+02  0.11003965687E+03  0.00000000000E+00 0. -1.
        -11    1    3    3    0    0 -0.22152078163E+01  0.25769019006E+03 -0.10832706902E+01  0.25770198811E+03  0.00000000000E+00 0.  1.
          2    1    5    5  502    0 -0.90101437799E+02  0.95242309822E+02 -0.11847729261E+03  0.17670946647E+03  0.00000000000E+00 0. -1.
          3    1    4    4  503    0 -0.20163341768E+02 -0.34907934141E+03  0.85155359786E+03  0.92054683584E+03  0.00000000000E+00 0. -1.
         -4    1    4    4    0  503  0.76765890760E+02 -0.10137983598E+03  0.25178871355E+03  0.28207876453E+03  0.00000000000E+00 0.  1.
         -1    1    5    5    0  502 -0.10954248365E+02  0.34056947631E+01  0.12185113490E+02  0.16735331034E+02  0.00000000000E+00 0.  1.
<mgrwt>
<rscale>  0 0.14327565E+04</rscale>
<asrwt>0</asrwt>
<pdfrwt beam="1">  1        2 0.21480929E+00 0.14327565E+04</pdfrwt>
<pdfrwt beam="2">  1       -2 0.56546406E-01 0.14327565E+04</pdfrwt>
<totfact> 0.41425637E+01</totfact>
</mgrwt>
</event>
<event>
11    1  0.2045212E-008  0.1519106E+04  0.7818608E-02  0.8871846E-01
          2   -1    0    0  501    0  0.00000000000E+00  0.00000000000E+00  0.10290231466E+04  0.10290231466E+04  0.00000000000E+00 0. -1.
         -2   -1    0    0    0  501 -0.00000000000E+00 -0.00000000000E+00 -0.56064863828E+03  0.56064863828E+03  0.00000000000E+00 0.  1.
         23    2    1    2    0    0  0.25138267726E+03  0.23637716213E+03  0.49008771970E+03  0.60604787406E+03  0.89669612710E+02 0.  0.
        254    2    1    2    0    0 -0.25138267726E+03 -0.23637716213E+03 -0.21713211358E+02  0.98362391085E+03  0.92085673221E+03 0.  0.
         24    2    4    4    0    0 -0.40886195360E+03 -0.17231363468E+03  0.30999199398E+03  0.54742679206E+03  0.81981525592E+02 0.  0.
         13    1    3    3    0    0  0.56281948070E+02  0.59903305793E+02  0.59555828688E+02  0.10150349971E+03  0.00000000000E+00 0.  1.
        -13    1    3    3    0    0  0.19510072919E+03  0.17647385634E+03  0.43053189102E+03  0.50454437434E+03  0.00000000000E+00 0. -1.
          4    1    5    5  502    0 -0.19728285442E+03 -0.11318980792E+03  0.12097548040E+03  0.25761895141E+03  0.00000000000E+00 0. -1.
          3    1    4    4  503    0  0.10708035122E+03 -0.10314358010E+03 -0.34075970848E+03  0.37178216560E+03  0.00000000000E+00 0. -1.
         -4    1    4    4    0  503  0.50398925115E+02  0.39080052650E+02  0.90545031396E+01  0.64414953194E+02  0.00000000000E+00 0.  1.
         -3    1    5    5    0  502 -0.21157909918E+03 -0.59123826754E+02  0.18901651358E+03  0.28980784065E+03  0.00000000000E+00 0.  1.
<mgrwt>
<rscale>  0 0.15191056E+04</rscale>
<asrwt>0</asrwt>
<pdfrwt beam="1">  1        2 0.15831125E+00 0.15191056E+04</pdfrwt>
<pdfrwt beam="2">  1       -2 0.86253637E-01 0.15191056E+04</pdfrwt>
<totfact> 0.27140654E+01</totfact>
</mgrwt>
</event>
<event>
11    1  0.2045212E-008  0.1259688E+04  0.7818608E-02  0.9062159E-01
          2   -1    0    0  501    0  0.00000000000E+00  0.00000000000E+00  0.20950254611E+03  0.20950254611E+03  0.00000000000E+00 0.  1.
         -2   -1    0    0    0  501 -0.00000000000E+00 -0.00000000000E+00 -0.18935481106E+04  0.18935481106E+04  0.00000000000E+00 0. -1.
         23    2    1    2    0    0 -0.52200653181E+02 -0.28612636305E+03 -0.31383948172E+03  0.43785673116E+03  0.92898293391E+02 0.  0.
        254    2    1    2    0    0  0.52200653181E+02  0.28612636305E+03 -0.13702060828E+04  0.16651939256E+04  0.90045149598E+03 0.  0.
         24    2    4    4    0    0  0.14903318491E+03 -0.25372364622E+03 -0.75022917778E+03  0.80988069652E+03  0.80475738843E+02 0.  0.
         13    1    3    3    0    0 -0.41279811792E+02 -0.13595092025E+03 -0.21513213847E+03  0.25781488045E+03  0.00000000000E+00 0. -1.
        -13    1    3    3    0    0 -0.10920841389E+02 -0.15017544280E+03 -0.98707343246E+02  0.18004185071E+03  0.00000000000E+00 0.  1.
          2    1    5    5  502    0  0.13482490567E+03 -0.23631853610E+03 -0.61084288159E+03  0.66869517097E+03  0.00000000000E+00 0. -1.
          3    1    4    4  503    0 -0.70585519664E+02  0.54182068584E+03 -0.52868403096E+03  0.76030176626E+03  0.00000000000E+00 0. -1.
         -4    1    4    4    0  503 -0.26247012063E+02 -0.19706765732E+01 -0.91292874044E+02  0.95011462780E+02  0.00000000000E+00 0.  1.
         -1    1    5    5    0  502  0.14208279235E+02 -0.17405110120E+02 -0.13938629620E+03  0.14118552555E+03  0.00000000000E+00 0.  1.
<mgrwt>
<rscale>  0 0.12596875E+04</rscale>
<asrwt>0</asrwt>
<pdfrwt beam="1">  1        2 0.32231161E-01 0.12596875E+04</pdfrwt>
<pdfrwt beam="2">  1       -2 0.29131510E+00 0.12596875E+04</pdfrwt>
<totfact> 0.58320187E+00</totfact>
</mgrwt>
</event>
<event>
12    1  0.2045212E-008  0.2154384E+04  0.7818608E-02  0.8537658E-01
         -2   -1    0    0    0  501 -0.00000000000E+00  0.00000000000E+00  0.88614141552E+03  0.88614141552E+03  0.00000000000E+00 0.  1.
          2   -1    0    0  501    0  0.00000000000E+00 -0.00000000000E+00 -0.13094333556E+04  0.13094333556E+04  0.00000000000E+00 0. -1.
         23    2    1    2    0    0  0.59059374089E+03 -0.65765069226E+03 -0.11610887874E+03  0.89599673512E+03  0.89573867952E+02 0.  0.
        254    2    1    2    0    0 -0.59059374089E+03  0.65765069226E+03 -0.30718306138E+03  0.12995780360E+04  0.90179611815E+03 0.  0.
        -24    2    4    4    0    0 -0.74661739398E+03  0.66363451952E+03 -0.71800157303E+02  0.10058826632E+04  0.93788917323E+02 0.  0.
         24    2    4    4    0    0  0.15602365309E+03 -0.59838272652E+01 -0.23538290407E+03  0.29369537283E+03  0.80452930224E+02 0.  0.
         13    1    3    3    0    0  0.42022888103E+03 -0.46668470799E+03 -0.41237437469E+02  0.62935479292E+03  0.00000000000E+00 0.  1.
        -13    1    3    3    0    0  0.17036485986E+03 -0.19096598427E+03 -0.74871441269E+02  0.26664194220E+03  0.00000000000E+00 0. -1.
          4    1    6    6  502    0  0.17584470708E+02  0.28029043929E+02 -0.44938403322E+02  0.55805922685E+02  0.00000000000E+00 0. -1.
          1    1    5    5  503    0 -0.44553840845E+02  0.66540022473E+02  0.96269460167E+01  0.80655423961E+02  0.00000000000E+00 0. -1.
         -4    1    5    5    0  503 -0.70206355314E+03  0.59709449705E+03 -0.81427103320E+02  0.92522723923E+03  0.00000000000E+00 0.  1.
         -3    1    6    6    0  502  0.13843918238E+03 -0.34012871194E+02 -0.19044450075E+03  0.23788945015E+03  0.00000000000E+00 0.  1.
<mgrwt>
<rscale>  0 0.21543845E+04</rscale>
<asrwt>0</asrwt>
<pdfrwt beam="1">  1        2 0.20145129E+00 0.21543845E+04</pdfrwt>
<pdfrwt beam="2">  1       -2 0.13632945E+00 0.21543845E+04</pdfrwt>
<totfact> 0.57627602E+00</totfact>
</mgrwt>
</event>
<event>
12    1  0.2045212E-008  0.2953360E+04  0.7818608E-02  0.8257176E-01
          2   -1    0    0  501    0  0.00000000000E+00  0.00000000000E+00  0.18517614085E+04  0.18517614085E+04  0.00000000000E+00 0. -1.
         -2   -1    0    0    0  501 -0.00000000000E+00 -0.00000000000E+00 -0.11775724674E+04  0.11775724674E+04  0.00000000000E+00 0.  1.
         23    2    1    2    0    0 -0.56047757041E+01 -0.23734044163E+03 -0.10449502741E+04  0.10755315512E+04  0.92114838781E+02 0.  0.
        254    2    1    2    0    0  0.56047757041E+01  0.23734044163E+03  0.17191392152E+04  0.19538023247E+04  0.89751990735E+03 0.  0.
        -24    2    4    4    0    0 -0.25839121197E+03  0.21863753515E+02  0.81131785857E+02  0.27877082939E+03  0.62343937173E+02 0.  0.
         24    2    4    4    0    0  0.26399598767E+03  0.21547668812E+03  0.16380074293E+04  0.16750314953E+04  0.80858438916E+02 0.  0.
         13    1    3    3    0    0  0.15034561261E+02 -0.16108123146E+03 -0.51753616125E+03  0.54223323336E+03  0.00000000000E+00 0.  1.
        -13    1    3    3    0    0 -0.20639336966E+02 -0.76259210168E+02 -0.52741411285E+03  0.53329831783E+03  0.00000000000E+00 0. -1.
          4    1    6    6  502    0  0.19296694310E+03  0.19176403800E+03  0.13705414199E+04  0.13972807417E+04  0.00000000000E+00 0. -1.
          1    1    5    5  503    0 -0.23679870100E+03  0.13053984893E+02  0.90223574258E+02  0.25374066420E+03  0.00000000000E+00 0. -1.
         -2    1    5    5    0  503 -0.21592510965E+02  0.88097686213E+01 -0.90917884014E+01  0.25030165187E+02  0.00000000000E+00 0.  1.
         -3    1    6    6    0  502  0.71029044571E+02  0.23712650111E+02  0.26746600940E+03  0.27775075361E+03  0.00000000000E+00 0.  1.
<mgrwt>
<rscale>  0 0.29533596E+04</rscale>
<asrwt>0</asrwt>
<pdfrwt beam="1">  1        2 0.28488637E+00 0.29533596E+04</pdfrwt>
<pdfrwt beam="2">  1       -2 0.18116499E+00 0.29533596E+04</pdfrwt>
<totfact> 0.12354796E+00</totfact>
</mgrwt>
</event>
<event>
12    1  0.2045212E-008  0.1562912E+04  0.7818608E-02  0.8843662E-01
         -1   -1    0    0    0  501 -0.00000000000E+00  0.00000000000E+00  0.48435205222E+03  0.48435205222E+03  0.00000000000E+00 0.  1.
          1   -1    0    0  501    0  0.00000000000E+00 -0.00000000000E+00 -0.12608054688E+04  0.12608054688E+04  0.00000000000E+00 0. -1.
         23    2    1    2    0    0  0.85041213969E+02  0.15855403338E+03 -0.81722258441E+03  0.84248063825E+03  0.97721460192E+02 0.  0.
        254    2    1    2    0    0 -0.85041213969E+02 -0.15855403338E+03  0.40769167827E+02  0.90267688276E+03  0.88362437724E+03 0.  0.
        -24    2    4    4    0    0  0.28617793624E+03  0.21316452321E+03  0.79901321743E+02  0.37005911341E+03  0.56767957977E+02 0.  0.
         24    2    4    4    0    0 -0.37121915021E+03 -0.37171855659E+03 -0.39132153916E+02  0.53261776936E+03  0.78562204465E+02 0.  0.
         13    1    3    3    0    0  0.85557889621E+01  0.10792870172E+03 -0.35088871767E+03  0.36721206185E+03  0.00000000000E+00 0.  1.
        -13    1    3    3    0    0  0.76485425007E+02  0.50625331655E+02 -0.46633386674E+03  0.47526857640E+03  0.00000000000E+00 0. -1.
          2    1    6    6  502    0 -0.91927329457E+02 -0.69199108452E+02 -0.37058584178E+02  0.12088212925E+03  0.00000000000E+00 0. -1.
          1    1    5    5  503    0  0.43337855888E+02  0.35722223208E+02 -0.79684439998E+01  0.56725153888E+02  0.00000000000E+00 0. -1.
         -2    1    5    5    0  503  0.24284008036E+03  0.17744230000E+03  0.87869765743E+02  0.31333395952E+03  0.00000000000E+00 0.  1.
         -1    1    6    6    0  502 -0.27929182076E+03 -0.30251944813E+03 -0.20735697382E+01  0.41173564010E+03  0.00000000000E+00 0.  1.
<mgrwt>
<rscale>  0 0.15629123E+04</rscale>
<asrwt>0</asrwt>
<pdfrwt beam="1">  1        1 0.19397007E+00 0.15629123E+04</pdfrwt>
<pdfrwt beam="2">  1       -1 0.74515702E-01 0.15629123E+04</pdfrwt>
<totfact> 0.16835652E+01</totfact>
</mgrwt>
</event>
<event>
11    1  0.2045212E-008  0.1438251E+04  0.7818608E-02  0.8926587E-01
         -1   -1    0    0    0  501 -0.00000000000E+00  0.00000000000E+00  0.55770440401E+03  0.55770440401E+03  0.00000000000E+00 0.  1.
          1   -1    0    0  501    0  0.00000000000E+00 -0.00000000000E+00 -0.92726793659E+03  0.92726793659E+03  0.00000000000E+00 0. -1.
         23    2    1    2    0    0 -0.38061316049E+03 -0.92450918315E+01  0.86755679981E+02  0.40105307932E+03  0.91461329296E+02 0.  0.
        254    2    1    2    0    0  0.38061316049E+03  0.92450918315E+01 -0.45631921256E+03  0.10839192613E+04  0.90647773914E+03 0.  0.
         24    2    4    4    0    0 -0.13510464377E+03  0.29882222112E+03 -0.21543796070E+03  0.40052555757E+03  0.80369289828E+02 0.  0.
         11    1    3    3    0    0 -0.35014221528E+03 -0.23793871548E+02  0.56019060945E+02  0.35539253570E+03  0.00000000000E+00 0.  1.
        -11    1    3    3    0    0 -0.30470945217E+02  0.14548779717E+02  0.30736619036E+02  0.45660543617E+02  0.00000000000E+00 0. -1.
          2    1    5    5  502    0 -0.85457072803E+02  0.25204843807E+03 -0.19286709218E+03  0.32867771703E+03  0.00000000000E+00 0. -1.
          1    1    4    4  503    0  0.47992560878E+03 -0.32406544472E+03 -0.18348049557E+03  0.60746365708E+03  0.00000000000E+00 0. -1.
         -2    1    4    4    0  503  0.35792195489E+02  0.34488315428E+02 -0.57400756287E+02  0.75930046631E+02  0.00000000000E+00 0.  1.
         -3    1    5    5    0  502 -0.49647570971E+02  0.46773783055E+02 -0.22570868525E+02  0.71847840542E+02  0.00000000000E+00 0.  1.
<mgrwt>
<rscale>  0 0.14382509E+04</rscale>
<asrwt>0</asrwt>
<pdfrwt beam="1">  1        1 0.14265660E+00 0.14382509E+04</pdfrwt>
<pdfrwt beam="2">  1       -1 0.85800679E-01 0.14382509E+04</pdfrwt>
<totfact> 0.22552201E+01</totfact>
</mgrwt>
</event>
<event>
11    1  0.2045212E-008  0.1303329E+04  0.7818608E-02  0.9026930E-01
          1   -1    0    0  501    0  0.00000000000E+00  0.00000000000E+00  0.18875634833E+04  0.18875634833E+04  0.00000000000E+00 0. -1.
         -1   -1    0    0    0  501 -0.00000000000E+00 -0.00000000000E+00 -0.22498125664E+03  0.22498125664E+03  0.00000000000E+00 0.  1.
         23    2    1    2    0    0 -0.17223652909E+03  0.14441526988E+02 -0.41105691390E+02  0.19881618477E+03  0.89242466398E+02 0.  0.
        254    2    1    2    0    0  0.17223652909E+03 -0.14441526988E+02  0.17036879181E+04  0.19137285552E+04  0.85435969070E+03 0.  0.
         24    2    4    4    0    0  0.11160479246E+03  0.26121419639E+03  0.13955132695E+04  0.14263637735E+04  0.79798766190E+02 0.  0.
         13    1    3    3    0    0 -0.86111747412E+02 -0.29841593195E+02 -0.45523063405E+02  0.10187297497E+03  0.00000000000E+00 0.  1.
        -13    1    3    3    0    0 -0.86124781678E+02  0.44283120182E+02  0.44173720159E+01  0.96943209807E+02  0.00000000000E+00 0. -1.
          2    1    5    5  502    0  0.99713922701E+02  0.23489900665E+03  0.13367356743E+04  0.13608757006E+04  0.00000000000E+00 0. -1.
          1    1    4    4  503    0  0.11652195395E+03 -0.76998640540E+02  0.33187473712E+02  0.14355335179E+03  0.00000000000E+00 0. -1.
         -4    1    4    4    0  503 -0.55890217326E+02 -0.19865708284E+03  0.27498717491E+03  0.34381142988E+03  0.00000000000E+00 0.  1.
         -1    1    5    5    0  502  0.11890869761E+02  0.26315189741E+02  0.58777595197E+02  0.65488072898E+02  0.00000000000E+00 0.  1.
<mgrwt>
<rscale>  0 0.13033287E+04</rscale>
<asrwt>0</asrwt>
<pdfrwt beam="1">  1        1 0.29039437E+00 0.13033287E+04</pdfrwt>
<pdfrwt beam="2">  1       -1 0.34612502E-01 0.13033287E+04</pdfrwt>
<totfact> 0.27646314E+01</totfact>
</mgrwt>
</event>
<event>
11    1  0.2045212E-008  0.1266988E+04  0.7818608E-02  0.9056161E-01
          2   -1    0    0  501    0  0.00000000000E+00  0.00000000000E+00  0.81259261475E+03  0.81259261475E+03  0.00000000000E+00 0. -1.
         -2   -1    0    0    0  501 -0.00000000000E+00 -0.00000000000E+00 -0.49386948354E+03  0.49386948354E+03  0.00000000000E+00 0.  1.
         23    2    1    2    0    0  0.16817172056E+03  0.14446386629E+03 -0.14289960685E+03  0.27821245715E+03  0.88489193780E+02 0.  0.
        254    2    1    2    0    0 -0.16817172056E+03 -0.14446386629E+03  0.46162273806E+03  0.10282496411E+04  0.89165589548E+03 0.  0.
         24    2    4    4    0    0  0.42890041060E+02  0.59806694409E+02 -0.23590702302E+03  0.25971720592E+03  0.79903111477E+02 0.  0.
         13    1    3    3    0    0  0.58496313455E+00 -0.12482599532E+01  0.90335094839E+01  0.91380866911E+01  0.00000000000E+00 0. -1.
        -13    1    3    3    0    0  0.16758675743E+03  0.14571212624E+03 -0.15193311634E+03  0.26907437046E+03  0.00000000000E+00 0.  1.
          2    1    5    5  502    0 -0.28554931587E+01 -0.86858773366E+01  0.71396671971E+00  0.91710443659E+01  0.00000000000E+00 0. -1.
          3    1    4    4  503    0 -0.84040970560E+02 -0.16509319999E+02  0.28779002791E+03  0.30026412130E+03  0.00000000000E+00 0. -1.
         -4    1    4    4    0  503 -0.12702079106E+03 -0.18776124070E+03  0.40973973318E+03  0.46826831391E+03  0.00000000000E+00 0.  1.
         -1    1    5    5    0  502  0.45745534219E+02  0.68492571745E+02 -0.23662098974E+03  0.25054616156E+03  0.00000000000E+00 0.  1.
<mgrwt>
<rscale>  0 0.12669881E+04</rscale>
<asrwt>0</asrwt>
<pdfrwt beam="1">  1        2 0.12501425E+00 0.12669881E+04</pdfrwt>
<pdfrwt beam="2">  1       -2 0.75979920E-01 0.12669881E+04</pdfrwt>
<totfact> 0.51434651E+01</totfact>
</mgrwt>
</event>
<event>
12    1  0.2045212E-008  0.1859090E+04  0.7818608E-02  0.8675492E-01
          2   -1    0    0  501    0  0.00000000000E+00  0.00000000000E+00  0.35199718513E+04  0.35199718513E+04  0.00000000000E+00 0. -1.
         -2   -1    0    0    0  501 -0.00000000000E+00 -0.00000000000E+00 -0.24547193479E+03  0.24547193479E+03  0.00000000000E+00 0.  1.
         23    2    1    2    0    0 -0.46054775373E+03 -0.76464204729E+02  0.18341695992E+03  0.51009536470E+03  0.92760400126E+02 0.  0.
        254    2    1    2    0    0  0.46054775373E+03  0.76464204729E+02  0.30910829566E+04  0.32553484214E+04  0.90804652530E+03 0.  0.
        -24    2    4    4    0    0  0.70682034516E+03  0.19324030941E+03  0.21516225560E+04  0.22739427680E+04  0.66327003985E+02 0.  0.
         24    2    4    4    0    0 -0.24627259143E+03 -0.11677610468E+03  0.93946040064E+03  0.98140565338E+03  0.79273981823E+02 0.  0.
         11    1    3    3    0    0 -0.17333184961E+03 -0.15506789475E+02  0.23057398912E+02  0.17554496362E+03  0.00000000000E+00 0.  1.
        -11    1    3    3    0    0 -0.28721590412E+03 -0.60957415254E+02  0.16035956101E+03  0.33455040108E+03  0.00000000000E+00 0. -1.
          2    1    6    6  502    0 -0.20878519705E+03 -0.12602613963E+03  0.77455558252E+03  0.81204076055E+03  0.00000000000E+00 0. -1.
          1    1    5    5  503    0  0.58867930340E+03  0.14794470599E+03  0.17089933975E+04  0.18135846798E+04  0.00000000000E+00 0. -1.
         -2    1    5    5    0  503  0.11814104176E+03  0.45295603420E+02  0.44262915846E+03  0.46035808819E+03  0.00000000000E+00 0.  1.
         -1    1    6    6    0  502 -0.37487394385E+02  0.92500349473E+01  0.16490481812E+03  0.16936489283E+03  0.00000000000E+00 0.  1.
<mgrwt>
<rscale>  0 0.18590904E+04</rscale>
<asrwt>0</asrwt>
<pdfrwt beam="1">  1        2 0.54153409E+00 0.18590904E+04</pdfrwt>
<pdfrwt beam="2">  1       -2 0.37764916E-01 0.18590904E+04</pdfrwt>
<totfact> 0.49305820E+00</totfact>
</mgrwt>
</event>
<event>
12    1  0.2045212E-008  0.2445643E+04  0.7818608E-02  0.8422611E-01
          1   -1    0    0  501    0  0.00000000000E+00  0.00000000000E+00  0.11890847103E+04  0.11890847103E+04  0.00000000000E+00 0. -1.
         -1   -1    0    0    0  501 -0.00000000000E+00 -0.00000000000E+00 -0.12575153777E+04  0.12575153777E+04  0.00000000000E+00 0.  1.
         23    2    1    2    0    0  0.59836728003E+03 -0.32136547518E+02 -0.90252180792E+03  0.10872676143E+04  0.92353082437E+02 0.  0.
        254    2    1    2    0    0 -0.59836728003E+03  0.32136547518E+02  0.83409114051E+03  0.13593324737E+04  0.89050580222E+03 0.  0.
        -24    2    4    4    0    0 -0.26780794094E+03  0.44144364932E+03  0.52619116616E+03  0.74450865420E+03  0.10403078429E+03 0.  0.
         24    2    4    4    0    0 -0.33055933909E+03 -0.40930710180E+03  0.30789997436E+03  0.61482381947E+03  0.80025961615E+02 0.  0.
         11    1    3    3    0    0  0.19497960979E+02  0.84678813852E+01 -0.12139992564E+02  0.24479683759E+02  0.00000000000E+00 0. -1.
        -11    1    3    3    0    0  0.57886931905E+03 -0.40604428903E+02 -0.89038181536E+03  0.10627879305E+04  0.00000000000E+00 0.  1.
          2    1    6    6  502    0 -0.17215058778E+03 -0.16963777174E+03  0.17434875877E+03  0.29801055041E+03  0.00000000000E+00 0. -1.
          1    1    5    5  503    0 -0.31276506312E+02  0.11400020663E+03  0.80581719974E+02  0.14306530171E+03  0.00000000000E+00 0. -1.
         -2    1    5    5    0  503 -0.23653143463E+03  0.32744344269E+03  0.44560944618E+03  0.60144335249E+03  0.00000000000E+00 0.  1.
         -1    1    6    6    0  502 -0.15840875130E+03 -0.23966933007E+03  0.13355121559E+03  0.31681326906E+03  0.00000000000E+00 0.  1.
<mgrwt>
<rscale>  0 0.24456429E+04</rscale>
<asrwt>0</asrwt>
<pdfrwt beam="1">  1        1 0.18293611E+00 0.24456429E+04</pdfrwt>
<pdfrwt beam="2">  1       -1 0.19346390E+00 0.24456429E+04</pdfrwt>
<totfact> 0.16234224E+00</totfact>
</mgrwt>
</event>
<event>
12    1  0.2045212E-008  0.1970764E+04  0.7818608E-02  0.8620413E-01
         -2   -1    0    0    0  501 -0.00000000000E+00  0.00000000000E+00  0.38324118512E+03  0.38324118512E+03  0.00000000000E+00 0.  1.
          2   -1    0    0  501    0  0.00000000000E+00 -0.00000000000E+00 -0.25335944305E+04  0.25335944305E+04  0.00000000000E+00 0. -1.
         23    2    1    2    0    0 -0.72383679757E+02 -0.38425428850E+03  0.13855329137E+03  0.42501069054E+03  0.92446293559E+02 0.  0.
        254    2    1    2    0    0  0.72383679757E+02  0.38425428850E+03 -0.22889065367E+04  0.24918249251E+04  0.90399533624E+03 0.  0.
        -24    2    4    4    0    0  0.41672791819E+03  0.42932295893E+03 -0.17141709626E+04  0.18163011049E+04  0.50865052900E+02 0.  0.
         24    2    4    4    0    0 -0.34434423844E+03 -0.45068670428E+02 -0.57473557408E+03  0.67552382016E+03  0.73534426569E+02 0.  0.
         13    1    3    3    0    0 -0.87729326547E+02 -0.35742258545E+03  0.11324278025E+03  0.38506008181E+03  0.00000000000E+00 0.  1.
        -13    1    3    3    0    0  0.15345646790E+02 -0.26831703050E+02  0.25310511125E+02  0.39950608724E+02  0.00000000000E+00 0. -1.
          4    1    6    6  502    0 -0.72890074941E+02 -0.39319053064E+02 -0.15215714741E+03  0.17323610613E+03  0.00000000000E+00 0. -1.
          1    1    5    5  503    0  0.12157410491E+03  0.94799791982E+02 -0.42063141430E+03  0.44799335959E+03  0.00000000000E+00 0. -1.
         -2    1    5    5    0  503  0.29515381328E+03  0.33452316695E+03 -0.12935395483E+04  0.13683077453E+04  0.00000000000E+00 0.  1.
         -3    1    6    6    0  502 -0.27145416350E+03 -0.57496173643E+01 -0.42257842667E+03  0.50228771403E+03  0.00000000000E+00 0.  1.
<mgrwt>
<rscale>  0 0.19707640E+04</rscale>
<asrwt>0</asrwt>
<pdfrwt beam="1">  1        2 0.38978375E+00 0.19707640E+04</pdfrwt>
<pdfrwt beam="2">  1       -2 0.58960183E-01 0.19707640E+04</pdfrwt>
<totfact> 0.83350326E+00</totfact>
</mgrwt>
</event>
<event>
11    1  0.2045212E-008  0.1845139E+04  0.7818608E-02  0.8682656E-01
         -2   -1    0    0    0  501 -0.00000000000E+00  0.00000000000E+00  0.83656375380E+03  0.83656375380E+03  0.00000000000E+00 0.  1.
          2   -1    0    0  501    0  0.00000000000E+00 -0.00000000000E+00 -0.10174176853E+04  0.10174176853E+04  0.00000000000E+00 0. -1.
         23    2    1    2    0    0  0.63291533790E+03  0.12863196184E+03 -0.33683091497E+03  0.73396288492E+03  0.90102411710E+02 0.  0.
        254    2    1    2    0    0 -0.63291533790E+03 -0.12863196184E+03  0.15597698346E+03  0.11200185542E+04  0.90165666183E+03 0.  0.
         24    2    4    4    0    0 -0.56457581847E+03 -0.59179403472E+02 -0.29271105439E+03  0.64384165373E+03  0.81266580606E+02 0.  0.
         11    1    3    3    0    0  0.41012236141E+03  0.11567717465E+03 -0.18822842343E+03  0.46584493069E+03  0.00000000000E+00 0. -1.
        -11    1    3    3    0    0  0.22279297650E+03  0.12954787185E+02 -0.14860249154E+03  0.26811795423E+03  0.00000000000E+00 0.  1.
          4    1    5    5  502    0 -0.56135402773E+03 -0.50360611542E+02 -0.28438049787E+03  0.63128979337E+03  0.00000000000E+00 0. -1.
          3    1    4    4  503    0 -0.37162925627E+02 -0.59320726470E+02  0.43509300021E+03  0.44068804211E+03  0.00000000000E+00 0. -1.
         -4    1    4    4    0  503 -0.31176593805E+02 -0.10131831897E+02  0.13595037642E+02  0.35488858355E+02  0.00000000000E+00 0.  1.
         -3    1    5    5    0  502 -0.32217907402E+01 -0.88187919296E+01 -0.83305565179E+01  0.12551860363E+02  0.00000000000E+00 0.  1.
<mgrwt>
<rscale>  0 0.18451393E+04</rscale>
<asrwt>0</asrwt>
<pdfrwt beam="1">  1        2 0.15652580E+00 0.18451393E+04</pdfrwt>
<pdfrwt beam="2">  1       -2 0.12870212E+00 0.18451393E+04</pdfrwt>
<totfact> 0.10287478E+01</totfact>
</mgrwt>
</event>
<event>
12    1  0.2045212E-008  0.2063937E+04  0.7818608E-02  0.8577298E-01
         -1   -1    0    0    0  501 -0.00000000000E+00  0.00000000000E+00  0.80509888727E+03  0.80509888727E+03  0.00000000000E+00 0. -1.
          1   -1    0    0  501    0  0.00000000000E+00 -0.00000000000E+00 -0.13227677119E+04  0.13227677119E+04  0.00000000000E+00 0.  1.
         23    2    1    2    0    0  0.60922510216E+03 -0.16684685981E+02 -0.81129773402E+03  0.10187375600E+04  0.90490878434E+02 0.  0.
        254    2    1    2    0    0 -0.60922510216E+03  0.16684685981E+02  0.29362890938E+03  0.11091290392E+04  0.87892871457E+03 0.  0.
        -24    2    4    4    0    0 -0.38574985934E+03 -0.24069539303E+03  0.51662538848E+03  0.69413958323E+03  0.90502722507E+02 0.  0.
         24    2    4    4    0    0 -0.22347524283E+03  0.25738007901E+03 -0.22299647910E+03  0.41498945596E+03  0.79392251755E+02 0.  0.
         11    1    3    3    0    0  0.45562560317E+03 -0.12149969340E+02 -0.53720472587E+03  0.70450779237E+03  0.00000000000E+00 0. -1.
        -11    1    3    3    0    0  0.15359949899E+03 -0.45347166407E+01 -0.27409300815E+03  0.31422976763E+03  0.00000000000E+00 0.  1.
          4    1    6    6  502    0 -0.18733461564E+03  0.17620621711E+03 -0.19175929986E+03  0.32080292743E+03  0.00000000000E+00 0. -1.
          1    1    5    5  503    0 -0.13311898980E+03 -0.10363494181E+03  0.25327473931E+03  0.30431720323E+03  0.00000000000E+00 0. -1.
         -2    1    5    5    0  503 -0.25263086953E+03 -0.13706045121E+03  0.26335064917E+03  0.38982238000E+03  0.00000000000E+00 0.  1.
         -3    1    6    6    0  502 -0.36140627183E+02  0.81173861902E+02 -0.31237179240E+02  0.94186528528E+02  0.00000000000E+00 0.  1.
<mgrwt>
<rscale>  0 0.20639368E+04</rscale>
<asrwt>0</asrwt>
<pdfrwt beam="1">  1        1 0.20350272E+00 0.20639368E+04</pdfrwt>
<pdfrwt beam="2">  1       -1 0.12386137E+00 0.20639368E+04</pdfrwt>
<totfact> 0.46023955E+00</totfact>
</mgrwt>
</event>
<event>
12    1  0.2045212E-008  0.1230109E+04  0.7818608E-02  0.9086903E-01
          1   -1    0    0  501    0  0.00000000000E+00  0.00000000000E+00  0.12327654953E+04  0.12327654953E+04  0.00000000000E+00 0. -1.
         -1   -1    0    0    0  501 -0.00000000000E+00 -0.00000000000E+00 -0.30686467464E+03  0.30686467464E+03  0.00000000000E+00 0.  1.
         23    2    1    2    0    0 -0.61063628611E+02  0.26949893900E+03  0.16744075366E+03  0.33588970079E+03  0.91798912034E+02 0.  0.
        254    2    1    2    0    0  0.61063628611E+02 -0.26949893900E+03  0.75846006703E+03  0.12037404692E+04  0.89295632536E+03 0.  0.
        -24    2    4    4    0    0  0.39523532334E+03 -0.44138826280E+02  0.89040762882E+02  0.41791465394E+03  0.92548385819E+02 0.  0.
         24    2    4    4    0    0 -0.33417169473E+03 -0.22536011272E+03  0.66941930415E+03  0.78582581524E+03  0.83319296553E+02 0.  0.
         13    1    3    3    0    0 -0.77517992497E+02  0.26033789249E+03  0.15039929268E+03  0.31049123122E+03  0.00000000000E+00 0.  1.
        -13    1    3    3    0    0  0.16454363886E+02  0.91610465049E+01  0.17041460981E+02  0.25398469566E+02  0.00000000000E+00 0. -1.
          2    1    6    6  502    0 -0.27365412370E+03 -0.14146909736E+03  0.50790470961E+03  0.59402632852E+03  0.00000000000E+00 0. -1.
          1    1    5    5  503    0  0.34024033814E+03 -0.10646852154E+02  0.94535428113E+02  0.35328995221E+03  0.00000000000E+00 0. -1.
         -2    1    5    5    0  503  0.54994985197E+02 -0.33491974126E+02 -0.54946652308E+01  0.64624701730E+02  0.00000000000E+00 0.  1.
         -1    1    6    6    0  502 -0.60517571033E+02 -0.83891015360E+02  0.16151459453E+03  0.19179948673E+03  0.00000000000E+00 0.  1.
<mgrwt>
<rscale>  0 0.12301092E+04</rscale>
<asrwt>0</asrwt>
<pdfrwt beam="1">  1        1 0.18965623E+00 0.12301092E+04</pdfrwt>
<pdfrwt beam="2">  1       -1 0.47209951E-01 0.12301092E+04</pdfrwt>
<totfact> 0.44688890E+01</totfact>
</mgrwt>
</event>
<event>
12    1  0.2045212E-008  0.1027212E+04  0.7818608E-02  0.9279192E-01
          2   -1    0    0  501    0  0.00000000000E+00  0.00000000000E+00  0.24149384431E+04  0.24149384431E+04  0.00000000000E+00 0. -1.
         -2   -1    0    0    0  501 -0.00000000000E+00 -0.00000000000E+00 -0.10923311162E+03  0.10923311162E+03  0.00000000000E+00 0.  1.
         23    2    1    2    0    0  0.34474114581E+02 -0.96135476872E+02  0.31314414267E+03  0.34292780598E+03  0.95444913633E+02 0.  0.
        254    2    1    2    0    0 -0.34474114581E+02  0.96135476872E+02  0.19925611888E+04  0.21812437488E+04  0.88152918600E+03 0.  0.
        -24    2    4    4    0    0  0.20512321723E+03  0.20487397317E+03  0.19470708036E+03  0.36250348985E+03  0.97206244019E+02 0.  0.
         24    2    4    4    0    0 -0.23959733181E+03 -0.10873849630E+03  0.17978541085E+04  0.18187402589E+04  0.79409017420E+02 0.  0.
         11    1    3    3    0    0  0.53555068622E+02 -0.51020076270E+02  0.10092155668E+03  0.12512535379E+03  0.00000000000E+00 0.  1.
        -11    1    3    3    0    0 -0.19080954041E+02 -0.45115400601E+02  0.21222258599E+03  0.21780245219E+03  0.00000000000E+00 0. -1.
          4    1    6    6  502    0 -0.36797503628E+02 -0.29957422823E+01  0.12545411855E+03  0.13077372292E+03  0.00000000000E+00 0. -1.
          3    1    5    5  503    0  0.32484130655E+02  0.32903853559E+02  0.81749480494E+02  0.93919432944E+02  0.00000000000E+00 0. -1.
         -4    1    5    5    0  503  0.17263908658E+03  0.17197011961E+03  0.11295759987E+03  0.26858405690E+03  0.00000000000E+00 0.  1.
         -3    1    6    6    0  502 -0.20279982819E+03 -0.10574275402E+03  0.16723999899E+04  0.16879665360E+04  0.00000000000E+00 0.  1.
<mgrwt>
<rscale>  0 0.10272122E+04</rscale>
<asrwt>0</asrwt>
<pdfrwt beam="1">  1        2 0.37152895E+00 0.10272122E+04</pdfrwt>
<pdfrwt beam="2">  1       -2 0.16805096E-01 0.10272122E+04</pdfrwt>
<totfact> 0.11348880E+02</totfact>
</mgrwt>
</event>
<event>
11    1  0.2045212E-008  0.1523821E+04  0.7818608E-02  0.8868765E-01
          1   -1    0    0  501    0  0.00000000000E+00  0.00000000000E+00  0.11661290257E+04  0.11661290257E+04  0.00000000000E+00 0. -1.
         -1   -1    0    0    0  501 -0.00000000000E+00 -0.00000000000E+00 -0.49780721267E+03  0.49780721267E+03  0.00000000000E+00 0.  1.
         23    2    1    2    0    0 -0.24589143976E+03  0.78777733964E+02  0.67819783517E+03  0.73144160737E+03  0.91575050347E+02 0.  0.
        254    2    1    2    0    0  0.24589143976E+03 -0.78777733964E+02 -0.98760221318E+01  0.93249463101E+03  0.89598000510E+03 0.  0.
         24    2    4    4    0    0  0.51295284614E+03 -0.22743878056E+03  0.17452294095E+02  0.56700913288E+03  0.79660234408E+02 0.  0.
         11    1    3    3    0    0 -0.94837680014E+02 -0.10611692129E+01  0.33349049891E+03  0.34671490376E+03  0.00000000000E+00 0. -1.
        -11    1    3    3    0    0 -0.15105375974E+03  0.79838903177E+02  0.34470733626E+03  0.38472670360E+03  0.00000000000E+00 0.  1.
          4    1    5    5  502    0  0.32735378206E+03 -0.14692970554E+03 -0.27152560178E+02  0.35984176874E+03  0.00000000000E+00 0. -1.
          3    1    4    4  503    0 -0.13527676967E+03  0.42098077596E+02  0.82104200560E+02  0.16374722074E+03  0.00000000000E+00 0. -1.
         -4    1    4    4    0  503 -0.13178463671E+03  0.10656296900E+03 -0.10943251679E+03  0.20173827739E+03  0.00000000000E+00 0.  1.
         -1    1    5    5    0  502  0.18559906407E+03 -0.80509075014E+02  0.44604854273E+02  0.20716736415E+03  0.00000000000E+00 0.  1.
<mgrwt>
<rscale>  0 0.15238208E+04</rscale>
<asrwt>0</asrwt>
<pdfrwt beam="1">  1        1 0.17940447E+00 0.15238208E+04</pdfrwt>
<pdfrwt beam="2">  1       -1 0.76585725E-01 0.15238208E+04</pdfrwt>
<totfact> 0.18696505E+01</totfact>
</mgrwt>
</event>
<event>
11    1  0.2045212E-008  0.1652191E+04  0.7818608E-02  0.8789111E-01
         -3   -1    0    0    0  501 -0.00000000000E+00  0.00000000000E+00  0.85473340835E+03  0.85473340835E+03  0.00000000000E+00 0.  1.
          3   -1    0    0  501    0  0.00000000000E+00 -0.00000000000E+00 -0.79841698835E+03  0.79841698835E+03  0.00000000000E+00 0. -1.
         23    2    1    2    0    0 -0.15648499792E+03  0.18224139025E+03  0.54753037050E+03  0.60541923375E+03  0.95097124497E+02 0.  0.
        254    2    1    2    0    0  0.15648499792E+03 -0.18224139025E+03 -0.49121395050E+03  0.10477311629E+04  0.89372812742E+03 0.  0.
         24    2    4    4    0    0  0.24421930178E+03  0.17496673395E+03 -0.54239642936E+03  0.62523554454E+03  0.80431177001E+02 0.  0.
         11    1    3    3    0    0 -0.16727665670E+03  0.17260752930E+03  0.53403766119E+03  0.58563731321E+03  0.00000000000E+00 0.  1.
        -11    1    3    3    0    0  0.10791658784E+02  0.96338609503E+01  0.13492709305E+02  0.19781920546E+02  0.00000000000E+00 0. -1.
          4    1    5    5  502    0  0.16447020087E+03  0.77769717755E+02 -0.27466799003E+03  0.32945573408E+03  0.00000000000E+00 0. -1.
          1    1    4    4  503    0 -0.14183578571E+03 -0.16331936807E+03  0.70887715167E+01  0.21642748619E+03  0.00000000000E+00 0. -1.
         -2    1    4    4    0  503  0.54101481842E+02 -0.19388875612E+03  0.44093707339E+02  0.20606813221E+03  0.00000000000E+00 0.  1.
         -3    1    5    5    0  502  0.79749100917E+02  0.97197016190E+02 -0.26772843933E+03  0.29577981047E+03  0.00000000000E+00 0.  1.
<mgrwt>
<rscale>  0 0.16521909E+04</rscale>
<asrwt>0</asrwt>
<pdfrwt beam="1">  1        3 0.12283338E+00 0.16521909E+04</pdfrwt>
<pdfrwt beam="2">  1       -3 0.13149745E+00 0.16521909E+04</pdfrwt>
<totfact> 0.60327053E-01</totfact>
</mgrwt>
</event>
<event>
11    1  0.2045212E-008  0.1471522E+04  0.7818608E-02  0.8903614E-01
         -1   -1    0    0    0  501 -0.00000000000E+00  0.00000000000E+00  0.10193565195E+04  0.10193565195E+04  0.00000000000E+00 0.  1.
          1   -1    0    0  501    0  0.00000000000E+00 -0.00000000000E+00 -0.53106486802E+03  0.53106486802E+03  0.00000000000E+00 0. -1.
         23    2    1    2    0    0 -0.22296112264E+03  0.37212332357E+03  0.29970638233E+03  0.53522106384E+03  0.91925194659E+02 0.  0.
        254    2    1    2    0    0  0.22296112264E+03 -0.37212332357E+03  0.18858526916E+03  0.10152003237E+04  0.89826491824E+03 0.  0.
         24    2    4    4    0    0  0.35659983902E+03 -0.59619126167E+03  0.16994168644E+03  0.71977118795E+03  0.81135199067E+02 0.  0.
         11    1    3    3    0    0 -0.68475351842E+02  0.52093232984E+02  0.38916096716E+02  0.94430086923E+02  0.00000000000E+00 0. -1.
        -11    1    3    3    0    0 -0.15448577080E+03  0.32003009059E+03  0.26079028562E+03  0.44079097692E+03  0.00000000000E+00 0.  1.
          2    1    5    5  502    0  0.68060799791E+02 -0.16953116227E+03  0.66567668843E+02  0.19443338701E+03  0.00000000000E+00 0. -1.
          1    1    4    4  503    0 -0.77267909101E+02  0.47669120227E+02 -0.42723222686E+02  0.10033916761E+03  0.00000000000E+00 0. -1.
         -2    1    4    4    0  503 -0.56370807278E+02  0.17639881787E+03  0.61366805408E+02  0.19508996813E+03  0.00000000000E+00 0.  1.
         -1    1    5    5    0  502  0.28853903923E+03 -0.42666009940E+03  0.10337401759E+03  0.52533780094E+03  0.00000000000E+00 0.  1.
<mgrwt>
<rscale>  0 0.14715223E+04</rscale>
<asrwt>0</asrwt>
<pdfrwt beam="1">  1        1 0.81702287E-01 0.14715223E+04</pdfrwt>
<pdfrwt beam="2">  1       -1 0.15682408E+00 0.14715223E+04</pdfrwt>
<totfact> 0.12209396E+01</totfact>
</mgrwt>
</event>
<event>
12    1  0.2045212E-008  0.1284806E+04  0.7818608E-02  0.9041701E-01
         -1   -1    0    0    0  501 -0.00000000000E+00  0.00000000000E+00  0.90861369096E+03  0.90861369096E+03  0.00000000000E+00 0.  1.
          1   -1    0    0  501    0  0.00000000000E+00 -0.00000000000E+00 -0.45418842261E+03  0.45418842261E+03  0.00000000000E+00 0. -1.
         23    2    1    2    0    0  0.14007161372E+02  0.83358363258E+02  0.43038220201E+03  0.44789550160E+03  0.90756395110E+02 0.  0.
        254    2    1    2    0    0 -0.14007161372E+02 -0.83358363258E+02  0.24043066340E+02  0.91490661197E+03  0.91067624450E+03 0.  0.
        -24    2    4    4    0    0 -0.51903454776E+02 -0.48786830149E+03 -0.35536694107E+02  0.49653939292E+03  0.67668780684E+02 0.  0.
         24    2    4    4    0    0  0.37896293403E+02  0.40450993823E+03  0.59579760448E+02  0.41836721904E+03  0.80105948179E+02 0.  0.
         11    1    3    3    0    0 -0.34515594510E+02  0.21882908126E+02  0.21178510703E+03  0.21569218691E+03  0.00000000000E+00 0.  1.
        -11    1    3    3    0    0  0.48522755882E+02  0.61475455132E+02  0.21859709497E+03  0.23220331469E+03  0.00000000000E+00 0. -1.
          2    1    6    6  502    0 -0.19508571163E+02  0.21219886495E+03  0.22547803038E+02  0.21428333126E+03  0.00000000000E+00 0. -1.
          3    1    5    5  503    0  0.19766031441E+01 -0.15700461436E+03  0.14157134952E+02  0.15765398936E+03  0.00000000000E+00 0. -1.
         -2    1    5    5    0  503 -0.53880057920E+02 -0.33086368713E+03 -0.49693829059E+02  0.33888540357E+03  0.00000000000E+00 0.  1.
         -1    1    6    6    0  502  0.57404864566E+02  0.19231107328E+03  0.37031957410E+02  0.20408388778E+03  0.00000000000E+00 0.  1.
<mgrwt>
<rscale>  0 0.12848063E+04</rscale>
<asrwt>0</asrwt>
<pdfrwt beam="1">  1        1 0.69875142E-01 0.12848063E+04</pdfrwt>
<pdfrwt beam="2">  1       -1 0.13978672E+00 0.12848063E+04</pdfrwt>
<totfact> 0.20934442E+01</totfact>
</mgrwt>
</event>
<event>
11    1  0.2045212E-008  0.1642239E+04  0.7818608E-02  0.8795011E-01
          2   -1    0    0  501    0  0.00000000000E+00  0.00000000000E+00  0.34450969271E+04  0.34450969271E+04  0.00000000000E+00 0.  1.
         -2   -1    0    0    0  501 -0.00000000000E+00 -0.00000000000E+00 -0.19570912007E+03  0.19570912007E+03  0.00000000000E+00 0. -1.
         23    2    1    2    0    0 -0.39979606512E+03 -0.17144225918E+03  0.33274268549E+03  0.55511778913E+03  0.90602004081E+02 0.  0.
        254    2    1    2    0    0  0.39979606512E+03  0.17144225918E+03  0.29166451215E+04  0.30856882580E+04  0.90852843590E+03 0.  0.
         24    2    4    4    0    0  0.39274705375E+03 -0.13382760273E+03  0.55688138650E+03  0.69894703959E+03  0.79057005006E+02 0.  0.
         13    1    3    3    0    0 -0.66078051131E+02 -0.20285921258E+02  0.98302713385E+02  0.12017175584E+03  0.00000000000E+00 0.  1.
        -13    1    3    3    0    0 -0.33371801399E+03 -0.15115633792E+03  0.23443997210E+03  0.43494603329E+03  0.00000000000E+00 0. -1.
          2    1    5    5  502    0 -0.68344758809E+00  0.48395562098E+01  0.38165825240E+01  0.62011859411E+01  0.00000000000E+00 0. -1.
          1    1    4    4  503    0  0.55069752623E+02  0.13121857114E+03  0.55444630844E+03  0.57241741763E+03  0.00000000000E+00 0. -1.
         -4    1    4    4    0  503 -0.48020741247E+02  0.17405129077E+03  0.18053174266E+04  0.18143238008E+04  0.00000000000E+00 0.  1.
         -1    1    5    5    0  502  0.39343050134E+03 -0.13866715894E+03  0.55306480397E+03  0.69274585365E+03  0.00000000000E+00 0.  1.
<mgrwt>
<rscale>  0 0.16422386E+04</rscale>
<asrwt>0</asrwt>
<pdfrwt beam="1">  1        2 0.53001487E+00 0.16422386E+04</pdfrwt>
<pdfrwt beam="2">  1       -2 0.30109098E-01 0.16422386E+04</pdfrwt>
<totfact> 0.87319469E+00</totfact>
</mgrwt>
</event>
<event>
12    1  0.2045212E-008  0.1504846E+04  0.7818608E-02  0.8881236E-01
          1   -1    0    0  501    0  0.00000000000E+00  0.00000000000E+00  0.10949205493E+04  0.10949205493E+04  0.00000000000E+00 0. -1.
         -1   -1    0    0    0  501 -0.00000000000E+00 -0.00000000000E+00 -0.51706097998E+03  0.51706097998E+03  0.00000000000E+00 0.  1.
         23    2    1    2    0    0  0.97445623144E+00  0.22955773657E+03  0.63068454491E+03  0.67691588800E+03  0.88059186103E+02 0.  0.
        254    2    1    2    0    0 -0.97445623144E+00 -0.22955773657E+03 -0.52824975627E+02  0.93506564124E+03  0.90490859837E+03 0.  0.
        -24    2    4    4    0    0 -0.13725485123E+03 -0.44856040895E+03 -0.30804191767E+03  0.56347140057E+03  0.50644462181E+02 0.  0.
         24    2    4    4    0    0  0.13628039500E+03  0.21900267238E+03  0.25521694205E+03  0.37159424068E+03  0.80075437096E+02 0.  0.
         11    1    3    3    0    0 -0.41486968474E+02  0.14987303255E+03  0.40670015982E+03  0.43541717287E+03  0.00000000000E+00 0. -1.
        -11    1    3    3    0    0  0.42461424705E+02  0.79684704021E+02  0.22398438509E+03  0.24149871513E+03  0.00000000000E+00 0.  1.
          2    1    6    6  502    0  0.76928105956E+02  0.52290278779E+02  0.92922371327E+02  0.13147917643E+03  0.00000000000E+00 0. -1.
          3    1    5    5  503    0 -0.14937455863E+02 -0.26366487528E+02 -0.33731126187E+02  0.45344328488E+02  0.00000000000E+00 0. -1.
         -2    1    5    5    0  503 -0.12231739536E+03 -0.42219392142E+03 -0.27431079149E+03  0.51812707208E+03  0.00000000000E+00 0.  1.
         -1    1    6    6    0  502  0.59352289039E+02  0.16671239360E+03  0.16229457072E+03  0.24011506425E+03  0.00000000000E+00 0.  1.
<mgrwt>
<rscale>  0 0.15048464E+04</rscale>
<asrwt>0</asrwt>
<pdfrwt beam="1">  1        1 0.16844932E+00 0.15048464E+04</pdfrwt>
<pdfrwt beam="2">  1       -1 0.79547843E-01 0.15048464E+04</pdfrwt>
<totfact> 0.19531493E+01</totfact>
</mgrwt>
</event>
<event>
11    1  0.2045212E-008  0.2249748E+04  0.7818608E-02  0.8498003E-01
         -2   -1    0    0    0  501 -0.00000000000E+00  0.00000000000E+00  0.10709508404E+04  0.10709508404E+04  0.00000000000E+00 0.  1.
          2   -1    0    0  501    0  0.00000000000E+00 -0.00000000000E+00 -0.11815118556E+04  0.11815118556E+04  0.00000000000E+00 0. -1.
         23    2    1    2    0    0  0.64275093252E+03 -0.60701645412E+03  0.27633035678E+03  0.93109162557E+03  0.94738652556E+02 0.  0.
        254    2    1    2    0    0 -0.64275093252E+03  0.60701645412E+03 -0.38689137199E+03  0.13213710704E+04  0.90262884683E+03 0.  0.
         24    2    4    4    0    0 -0.79157196348E+03  0.22245198936E+03 -0.19484455496E+03  0.84870781182E+03  0.79180100397E+02 0.  0.
         13    1    3    3    0    0  0.56102487138E+03 -0.55626196248E+03  0.22218013413E+03  0.82069500377E+03  0.00000000000E+00 0.  1.
        -13    1    3    3    0    0  0.81726061143E+02 -0.50754491647E+02  0.54150222645E+02  0.11039662180E+03  0.00000000000E+00 0. -1.
          2    1    5    5  502    0 -0.42301879434E+03  0.77862290102E+02 -0.99066903585E+02  0.44138609852E+03  0.00000000000E+00 0. -1.
          3    1    4    4  503    0  0.73557801411E+02  0.31180120434E+03 -0.17952152929E+03  0.36723115425E+03  0.00000000000E+00 0. -1.
         -4    1    4    4    0  503  0.75263229551E+02  0.72763260428E+02 -0.12525287738E+02  0.10543210433E+03  0.00000000000E+00 0.  1.
         -1    1    5    5    0  502 -0.36855316915E+03  0.14458969925E+03 -0.95777651377E+02  0.40732171329E+03  0.00000000000E+00 0.  1.
<mgrwt>
<rscale>  0 0.22497476E+04</rscale>
<asrwt>0</asrwt>
<pdfrwt beam="1">  1        2 0.18177105E+00 0.22497476E+04</pdfrwt>
<pdfrwt beam="2">  1       -2 0.16476167E+00 0.22497476E+04</pdfrwt>
<totfact> 0.41117017E+00</totfact>
</mgrwt>
</event>
<event>
12    1  0.2045212E-008  0.1390400E+04  0.7818608E-02  0.8960797E-01
         -1   -1    0    0    0  501 -0.00000000000E+00  0.00000000000E+00  0.72288097486E+03  0.72288097486E+03  0.00000000000E+00 0.  1.
          1   -1    0    0  501    0  0.00000000000E+00 -0.00000000000E+00 -0.66857871222E+03  0.66857871222E+03  0.00000000000E+00 0. -1.
         23    2    1    2    0    0  0.21632834930E+03  0.30040483076E+03  0.16930573611E+03  0.41768033154E+03  0.93548971226E+02 0.  0.
        254    2    1    2    0    0 -0.21632834930E+03 -0.30040483076E+03 -0.11500347347E+03  0.97377935554E+03  0.89329693681E+03 0.  0.
        -24    2    4    4    0    0 -0.23438999527E+02  0.28191744969E+03  0.10628454125E+03  0.31654503762E+03  0.94220602820E+02 0.  0.
         24    2    4    4    0    0 -0.19288934977E+03 -0.58232228045E+03 -0.22128801473E+03  0.65723431792E+03  0.81749762258E+02 0.  0.
         11    1    3    3    0    0  0.42882160287E+02  0.12805697207E+03  0.38757602850E+02  0.14049775637E+03  0.00000000000E+00 0. -1.
        -11    1    3    3    0    0  0.17344618901E+03  0.17234785870E+03  0.13054813326E+03  0.27718257517E+03  0.00000000000E+00 0.  1.
          4    1    6    6  502    0 -0.16319540927E+03 -0.55343505322E+03 -0.20012934492E+03  0.61071667280E+03  0.00000000000E+00 0. -1.
          1    1    5    5  503    0 -0.46434992975E+02  0.20554917319E+03  0.43812609610E+02  0.21523525718E+03  0.00000000000E+00 0. -1.
         -2    1    5    5    0  503  0.22995993448E+02  0.76368276493E+02  0.62471931644E+02  0.10130978044E+03  0.00000000000E+00 0.  1.
         -3    1    6    6    0  502 -0.29693940498E+02 -0.28887227226E+02 -0.21158669811E+02  0.46517645117E+02  0.00000000000E+00 0.  1.
<mgrwt>
<rscale>  0 0.13903997E+04</rscale>
<asrwt>0</asrwt>
<pdfrwt beam="1">  1        1 0.10285826E+00 0.13903997E+04</pdfrwt>
<pdfrwt beam="2">  1       -1 0.11121246E+00 0.13903997E+04</pdfrwt>
<totfact> 0.21197688E+01</totfact>
</mgrwt>
</event>
<event>
12    1  0.2045212E-008  0.1418779E+04  0.7818608E-02  0.8940336E-01
          2   -1    0    0  501    0  0.00000000000E+00  0.00000000000E+00  0.30404816639E+04  0.30404816639E+04  0.00000000000E+00 0. -1.
         -2   -1    0    0    0  501 -0.00000000000E+00 -0.00000000000E+00 -0.16551110316E+03  0.16551110316E+03  0.00000000000E+00 0.  1.
         23    2    1    2    0    0  0.21496855545E+03  0.10850220871E+03  0.67253840411E+02  0.26647733525E+03  0.92211073224E+02 0.  0.
        254    2    1    2    0    0 -0.21496855545E+03 -0.10850220871E+03  0.28077167204E+04  0.29395154318E+04  0.83635732981E+03 0.  0.
        -24    2    4    4    0    0 -0.28121178154E+03 -0.38273051537E+03  0.10338946937E+04  0.11416307465E+04  0.93913844189E+02 0.  0.
         24    2    4    4    0    0  0.66243226087E+02  0.27422830666E+03  0.17738220266E+04  0.17978846854E+04  0.79720953957E+02 0.  0.
         11    1    3    3    0    0  0.10472764934E+03  0.37551128113E+02  0.76551360100E+02  0.13504843017E+03  0.00000000000E+00 0. -1.
        -11    1    3    3    0    0  0.11024090611E+03  0.70951080592E+02 -0.92975196892E+01  0.13142890508E+03  0.00000000000E+00 0.  1.
          2    1    6    6  502    0  0.48492378504E+02  0.16163314956E+03  0.81326719244E+03  0.83059033952E+03  0.00000000000E+00 0. -1.
          3    1    5    5  503    0 -0.27705699352E+03 -0.37876095645E+03  0.97078187251E+03  0.10782568728E+04  0.00000000000E+00 0. -1.
         -4    1    5    5    0  503 -0.41547880191E+01 -0.39695589216E+01  0.63112821204E+02  0.63373873654E+02  0.00000000000E+00 0.  1.
         -1    1    6    6    0  502  0.17750847583E+02  0.11259515710E+03  0.96055483420E+03  0.96729434585E+03  0.00000000000E+00 0.  1.
<mgrwt>
<rscale>  0 0.14187790E+04</rscale>
<asrwt>0</asrwt>
<pdfrwt beam="1">  1        2 0.46776637E+00 0.14187790E+04</pdfrwt>
<pdfrwt beam="2">  1       -2 0.25463249E-01 0.14187790E+04</pdfrwt>
<totfact> 0.22350549E+01</totfact>
</mgrwt>
</event>
<event>
12    1  0.2045212E-008  0.1594841E+04  0.7818608E-02  0.8823724E-01
         -1   -1    0    0    0  501 -0.00000000000E+00  0.00000000000E+00  0.95898844444E+03  0.95898844444E+03  0.00000000000E+00 0.  1.
          1   -1    0    0  501    0  0.00000000000E+00 -0.00000000000E+00 -0.66307303864E+03  0.66307303864E+03  0.00000000000E+00 0. -1.
         23    2    1    2    0    0 -0.20890213652E+03 -0.36150716985E+03  0.46700259390E+03  0.63289012768E+03  0.90171805547E+02 0.  0.
        254    2    1    2    0    0  0.20890213652E+03  0.36150716985E+03 -0.17108718809E+03  0.98917135539E+03  0.88026223815E+03 0.  0.
        -24    2    4    4    0    0  0.38116352765E+03 -0.86162214830E+02 -0.28158819077E+03  0.49017132932E+03  0.90920079380E+02 0.  0.
         24    2    4    4    0    0 -0.17226139113E+03  0.44766938468E+03  0.11050100267E+03  0.49900002608E+03  0.81906590548E+02 0.  0.
         11    1    3    3    0    0 -0.11652611113E+03 -0.15533363228E+03  0.27352148535E+03  0.33544131356E+03  0.00000000000E+00 0.  1.
        -11    1    3    3    0    0 -0.92376025386E+02 -0.20617353757E+03  0.19348110855E+03  0.29744881413E+03  0.00000000000E+00 0. -1.
          4    1    6    6  502    0  0.42157762014E+00  0.10714606874E+02 -0.92263655886E+01  0.14145895169E+02  0.00000000000E+00 0. -1.
          1    1    5    5  503    0  0.11886206654E+02  0.13263628624E+02 -0.20299139956E+02  0.27004829861E+02  0.00000000000E+00 0. -1.
         -2    1    5    5    0  503  0.36927732099E+03 -0.99425843454E+02 -0.26128905081E+03  0.46316649946E+03  0.00000000000E+00 0.  1.
         -3    1    6    6    0  502 -0.17268296875E+03  0.43695477781E+03  0.11972736826E+03  0.48485413091E+03  0.00000000000E+00 0.  1.
<mgrwt>
<rscale>  0 0.15948409E+04</rscale>
<asrwt>0</asrwt>
<pdfrwt beam="1">  1        1 0.10201124E+00 0.15948409E+04</pdfrwt>
<pdfrwt beam="2">  1       -1 0.14753668E+00 0.15948409E+04</pdfrwt>
<totfact> 0.10354335E+01</totfact>
</mgrwt>
</event>
<event>
11    1  0.2045212E-008  0.1429657E+04  0.7818608E-02  0.8932627E-01
         -2   -1    0    0    0  501 -0.00000000000E+00  0.00000000000E+00  0.11319093984E+03  0.11319093984E+03  0.00000000000E+00 0.  1.
          2   -1    0    0  501    0  0.00000000000E+00 -0.00000000000E+00 -0.45143145605E+04  0.45143145605E+04  0.00000000000E+00 0. -1.
         23    2    1    2    0    0 -0.39006368212E+03  0.71137088551E+01 -0.80976142126E+03  0.90325410892E+03  0.89186013219E+02 0.  0.
        254    2    1    2    0    0  0.39006368212E+03 -0.71137088551E+01 -0.35913621994E+04  0.37242513914E+04  0.90551957365E+03 0.  0.
         24    2    4    4    0    0 -0.16801173202E+03 -0.46753283927E+02 -0.23030544078E+04  0.23110986525E+04  0.81875301224E+02 0.  0.
         11    1    3    3    0    0 -0.32255907360E+03 -0.23983471964E+02 -0.69421602113E+03  0.76586907946E+03  0.00000000000E+00 0.  1.
        -11    1    3    3    0    0 -0.67504608521E+02  0.31097180819E+02 -0.11554540013E+03  0.13738502945E+03  0.00000000000E+00 0. -1.
          2    1    5    5  502    0 -0.14257829239E+03 -0.54362187984E+02 -0.21736439670E+04  0.21789933255E+04  0.00000000000E+00 0. -1.
          1    1    4    4  503    0  0.53316740616E+03  0.73831321080E+02 -0.12034023387E+04  0.13182927353E+04  0.00000000000E+00 0. -1.
         -2    1    4    4    0  503  0.24908007986E+02 -0.34191746008E+02 -0.84905452880E+02  0.94860003614E+02  0.00000000000E+00 0.  1.
         -1    1    5    5    0  502 -0.25433439629E+02  0.76089040572E+01 -0.12941044073E+03  0.13210532708E+03  0.00000000000E+00 0.  1.
<mgrwt>
<rscale>  0 0.14296566E+04</rscale>
<asrwt>0</asrwt>
<pdfrwt beam="1">  1        2 0.69450986E+00 0.14296566E+04</pdfrwt>
<pdfrwt beam="2">  1       -2 0.17413993E-01 0.14296566E+04</pdfrwt>
<totfact> 0.32781698E+00</totfact>
</mgrwt>
</event>
<event>
12    1  0.2045212E-008  0.1821632E+04  0.7818608E-02  0.8694880E-01
         -2   -1    0    0    0  501 -0.00000000000E+00  0.00000000000E+00  0.63263827687E+03  0.63263827687E+03  0.00000000000E+00 0. -1.
          2   -1    0    0  501    0  0.00000000000E+00 -0.00000000000E+00 -0.13113108733E+04  0.13113108733E+04  0.00000000000E+00 0.  1.
         23    2    1    2    0    0 -0.45279458936E+03 -0.40339728989E+03  0.80751504647E+02  0.61896941866E+03  0.94074556010E+02 0.  0.
        254    2    1    2    0    0  0.45279458936E+03  0.40339728989E+03 -0.75942410110E+03  0.13249797315E+04  0.90060757825E+03 0.  0.
        -24    2    4    4    0    0  0.65730582011E+03  0.28025012390E+03 -0.26292375252E+03  0.76762953533E+03  0.97647994207E+02 0.  0.
         24    2    4    4    0    0 -0.20451123076E+03  0.12314716599E+03 -0.49650034859E+03  0.55735019621E+03  0.84478263882E+02 0.  0.
         13    1    3    3    0    0 -0.41405644251E+02 -0.51359966819E+02 -0.18452177148E+02  0.68503696317E+02  0.00000000000E+00 0.  1.
        -13    1    3    3    0    0 -0.41138894510E+03 -0.35203732307E+03  0.99203681795E+02  0.55046572234E+03  0.00000000000E+00 0. -1.
          4    1    6    6  502    0 -0.12596930716E+03  0.72852367159E+02 -0.20576489481E+03  0.25202167702E+03  0.00000000000E+00 0. -1.
          1    1    5    5  503    0  0.34193862502E+03  0.19334354029E+03 -0.12083220120E+03  0.41097952345E+03  0.00000000000E+00 0. -1.
         -2    1    5    5    0  503  0.31536719510E+03  0.86906583616E+02 -0.14209155131E+03  0.35665001188E+03  0.00000000000E+00 0.  1.
         -3    1    6    6    0  502 -0.78541923592E+02  0.50294798829E+02 -0.29073545377E+03  0.30532851919E+03  0.00000000000E+00 0.  1.
<mgrwt>
<rscale>  0 0.18216316E+04</rscale>
<asrwt>0</asrwt>
<pdfrwt beam="1">  1        2 0.20174013E+00 0.18216316E+04</pdfrwt>
<pdfrwt beam="2">  1       -2 0.97328966E-01 0.18216316E+04</pdfrwt>
<totfact> 0.13513721E+01</totfact>
</mgrwt>
</event>
<event>
11    1  0.2045212E-008  0.2454475E+04  0.7818608E-02  0.8419386E-01
          2   -1    0    0  501    0  0.00000000000E+00  0.00000000000E+00  0.14401275450E+04  0.14401275450E+04  0.00000000000E+00 0. -1.
         -2   -1    0    0    0  501 -0.00000000000E+00 -0.00000000000E+00 -0.10458182268E+04  0.10458182268E+04  0.00000000000E+00 0.  1.
         23    2    1    2    0    0 -0.43710472566E+03  0.65195928090E+03 -0.55325333832E+03  0.96458177503E+03  0.90649320019E+02 0.  0.
        254    2    1    2    0    0  0.43710472566E+03 -0.65195928090E+03  0.94756265654E+03  0.15213639968E+04  0.89474129078E+03 0.  0.
         24    2    4    4    0    0  0.31523403633E+03 -0.29506645010E+02 -0.31100691097E+02  0.32774633884E+03  0.78786228979E+02 0.  0.
         11    1    3    3    0    0 -0.22784682659E+03  0.39841960039E+03 -0.35938788319E+03  0.58293396276E+03  0.00000000000E+00 0.  1.
        -11    1    3    3    0    0 -0.20925789907E+03  0.25353968051E+03 -0.19386545513E+03  0.38164781227E+03  0.00000000000E+00 0. -1.
          2    1    5    5  502    0  0.21753229397E+03 -0.14263176802E+01 -0.52678872766E+02  0.22382447797E+03  0.00000000000E+00 0. -1.
          3    1    4    4  503    0  0.13321517270E+03 -0.43699620073E+03  0.48567359241E+03  0.66677642434E+03  0.00000000000E+00 0. -1.
         -4    1    4    4    0  503 -0.11344483371E+02 -0.18545643515E+03  0.49298975523E+03  0.52684123358E+03  0.00000000000E+00 0.  1.
         -1    1    5    5    0  502  0.97701742353E+02 -0.28080327330E+02  0.21578181669E+02  0.10392186087E+03  0.00000000000E+00 0.  1.
<mgrwt>
<rscale>  0 0.24544748E+04</rscale>
<asrwt>0</asrwt>
<pdfrwt beam="1">  1        2 0.22155809E+00 0.24544748E+04</pdfrwt>
<pdfrwt beam="2">  1       -2 0.16089511E+00 0.24544748E+04</pdfrwt>
<totfact> 0.30490306E+00</totfact>
</mgrwt>
</event>
<event>
12    1  0.2045212E-008  0.1307365E+04  0.7818608E-02  0.9023745E-01
         -2   -1    0    0    0  501 -0.00000000000E+00  0.00000000000E+00  0.18797673334E+03  0.18797673334E+03  0.00000000000E+00 0.  1.
          2   -1    0    0  501    0  0.00000000000E+00 -0.00000000000E+00 -0.22731584670E+04  0.22731584670E+04  0.00000000000E+00 0. -1.
         23    2    1    2    0    0  0.23567534399E+03  0.24411110035E+03 -0.58569865380E+03  0.68375939497E+03  0.96700052067E+02 0.  0.
        254    2    1    2    0    0 -0.23567534399E+03 -0.24411110035E+03 -0.14994830798E+04  0.17773758053E+04  0.89189806011E+03 0.  0.
        -24    2    4    4    0    0  0.32850679896E+03 -0.53456477144E+02 -0.63046538285E+03  0.72063182489E+03  0.10511572750E+03 0.  0.
         24    2    4    4    0    0 -0.56418214295E+03 -0.19065462321E+03 -0.86901769699E+03  0.10567439805E+04  0.82857750167E+02 0.  0.
         13    1    3    3    0    0  0.25563275024E+02  0.60818014876E+02 -0.62371632766E+02  0.90788394288E+02  0.00000000000E+00 0.  1.
        -13    1    3    3    0    0  0.21011206896E+03  0.18329308547E+03 -0.52332702103E+03  0.59297100068E+03  0.00000000000E+00 0. -1.
          2    1    6    6  502    0 -0.34874379476E+03 -0.11891350958E+03 -0.60646113069E+03  0.70961803823E+03  0.00000000000E+00 0. -1.
          3    1    5    5  503    0  0.16652677290E+03 -0.51977077120E+02 -0.42194453601E+03  0.45658512252E+03  0.00000000000E+00 0. -1.
         -4    1    5    5    0  503  0.16198002606E+03 -0.14794000245E+01 -0.20852084683E+03  0.26404670237E+03  0.00000000000E+00 0.  1.
         -1    1    6    6    0  502 -0.21543834819E+03 -0.71741113629E+02 -0.26255656631E+03  0.34712594223E+03  0.00000000000E+00 0.  1.
<mgrwt>
<rscale>  0 0.13073651E+04</rscale>
<asrwt>0</asrwt>
<pdfrwt beam="1">  1        2 0.34971668E+00 0.13073651E+04</pdfrwt>
<pdfrwt beam="2">  1       -2 0.28919498E-01 0.13073651E+04</pdfrwt>
<totfact> 0.50637501E+01</totfact>
</mgrwt>
</event>
<event>
12    1  0.2045212E-008  0.1992430E+04  0.7818608E-02  0.8610168E-01
          2   -1    0    0  501    0  0.00000000000E+00  0.00000000000E+00  0.11291521441E+04  0.11291521441E+04  0.00000000000E+00 0. -1.
         -2   -1    0    0    0  501 -0.00000000000E+00 -0.00000000000E+00 -0.87892872943E+03  0.87892872943E+03  0.00000000000E+00 0.  1.
         23    2    1    2    0    0 -0.75129443359E+03 -0.12501254300E+03  0.36645083763E+03  0.85027427900E+03  0.92782925588E+02 0.  0.
        254    2    1    2    0    0  0.75129443359E+03  0.12501254300E+03 -0.11622742298E+03  0.11578065945E+04  0.86425449645E+03 0.  0.
        -24    2    4    4    0    0  0.41861465292E+03 -0.22168691080E+03 -0.37348262474E+03  0.60668109938E+03  0.64725352873E+02 0.  0.
         24    2    4    4    0    0  0.33267978067E+03  0.34669945380E+03  0.25725520177E+03  0.55112549514E+03  0.81747934702E+02 0.  0.
         13    1    3    3    0    0 -0.60239412553E+03 -0.13725049828E+03  0.29262158157E+03  0.68362546160E+03  0.00000000000E+00 0. -1.
        -13    1    3    3    0    0 -0.14890030806E+03  0.12237955282E+02  0.73829256058E+02  0.16664881739E+03  0.00000000000E+00 0.  1.
          4    1    6    6  502    0  0.30032244984E+03  0.32956122188E+03  0.25673380621E+03  0.51450599617E+03  0.00000000000E+00 0. -1.
          3    1    5    5  503    0  0.29344287736E+03 -0.13397403245E+03 -0.28258716887E+03  0.42885110662E+03  0.00000000000E+00 0. -1.
         -4    1    5    5    0  503  0.12517177556E+03 -0.87712878356E+02 -0.90895455872E+02  0.17782999276E+03  0.00000000000E+00 0.  1.
         -3    1    6    6    0  502  0.32357330823E+02  0.17138231918E+02  0.52139555909E+00  0.36619498967E+02  0.00000000000E+00 0.  1.
<mgrwt>
<rscale>  0 0.19924299E+04</rscale>
<asrwt>0</asrwt>
<pdfrwt beam="1">  1        2 0.17371571E+00 0.19924299E+04</pdfrwt>
<pdfrwt beam="2">  1       -2 0.13521980E+00 0.19924299E+04</pdfrwt>
<totfact> 0.76358384E+00</totfact>
</mgrwt>
</event>
<event>
12    1  0.2045212E-008  0.1968597E+04  0.7818608E-02  0.8621445E-01
          2   -1    0    0  501    0  0.00000000000E+00  0.00000000000E+00  0.11851717398E+04  0.11851717398E+04  0.00000000000E+00 0.  1.
         -2   -1    0    0    0  501 -0.00000000000E+00 -0.00000000000E+00 -0.81747107641E+03  0.81747107641E+03  0.00000000000E+00 0. -1.
         23    2    1    2    0    0  0.32144833572E+03  0.74510840642E+02  0.85838435238E+03  0.92413228854E+03  0.91191514949E+02 0.  0.
        254    2    1    2    0    0 -0.32144833572E+03 -0.74510840642E+02 -0.49068368903E+03  0.10785105276E+04  0.90196096235E+03 0.  0.
        -24    2    4    4    0    0 -0.48966062657E+03  0.57027959554E+02  0.37969966301E+02  0.50293346742E+03  0.92090373710E+02 0.  0.
         24    2    4    4    0    0  0.16821229085E+03 -0.13153880020E+03 -0.52865365533E+03  0.57557706020E+03  0.78844366860E+02 0.  0.
         13    1    3    3    0    0  0.11785408977E+02 -0.79150454805E+01  0.10334475864E+02  0.17559760850E+02  0.00000000000E+00 0. -1.
        -13    1    3    3    0    0  0.30966292674E+03  0.82425886122E+02  0.84804987652E+03  0.90657252769E+03  0.00000000000E+00 0.  1.
          2    1    6    6  502    0  0.13489090713E+03 -0.64255018305E+02 -0.39441897899E+03  0.42177078513E+03  0.00000000000E+00 0. -1.
          3    1    5    5  503    0 -0.28423613652E+03  0.78493579444E+02  0.26746435468E+02  0.29608579014E+03  0.00000000000E+00 0. -1.
         -4    1    5    5    0  503 -0.20542449005E+03 -0.21465619890E+02  0.11223530833E+02  0.20684767728E+03  0.00000000000E+00 0.  1.
         -1    1    6    6    0  502  0.33321383725E+02 -0.67283781890E+02 -0.13423467635E+03  0.15380627508E+03  0.00000000000E+00 0.  1.
<mgrwt>
<rscale>  0 0.19685971E+04</rscale>
<asrwt>0</asrwt>
<pdfrwt beam="1">  1        2 0.18233411E+00 0.19685971E+04</pdfrwt>
<pdfrwt beam="2">  1       -2 0.12576478E+00 0.19685971E+04</pdfrwt>
<totfact> 0.85037977E+00</totfact>
</mgrwt>
</event>
<event>
11    1  0.2045212E-008  0.2000584E+04  0.7818608E-02  0.8606348E-01
         -2   -1    0    0    0  501 -0.00000000000E+00  0.00000000000E+00  0.16961710067E+04  0.16961710067E+04  0.00000000000E+00 0.  1.
          2   -1    0    0  501    0  0.00000000000E+00 -0.00000000000E+00 -0.58990773784E+03  0.58990773784E+03  0.00000000000E+00 0. -1.
         23    2    1    2    0    0  0.17363112880E+03 -0.73978554920E+03  0.16056123158E+03  0.78174118860E+03  0.88932272972E+02 0.  0.
        254    2    1    2    0    0 -0.17363112880E+03  0.73978554920E+03  0.94570203725E+03  0.15043375559E+04  0.88952161926E+03 0.  0.
         24    2    4    4    0    0  0.11993797196E+03  0.11188413581E+03  0.45544242376E+03  0.49055947599E+03  0.79483464668E+02 0.  0.
         13    1    3    3    0    0  0.24275677951E+02 -0.27893344980E+03  0.43476672033E+02  0.28334325291E+03  0.00000000000E+00 0. -1.
        -13    1    3    3    0    0  0.14935545085E+03 -0.46085209940E+03  0.11708455954E+03  0.49839793569E+03  0.00000000000E+00 0.  1.
          2    1    5    5  502    0  0.11018132170E+03  0.67485775194E+02  0.39025172579E+03  0.41108473942E+03  0.00000000000E+00 0. -1.
          3    1    4    4  503    0 -0.33521626755E+03  0.50889064821E+03  0.11793584764E+03  0.62068389864E+03  0.00000000000E+00 0. -1.
         -4    1    4    4    0  503  0.41647166799E+02  0.11901076518E+03  0.37232376585E+03  0.39309418127E+03  0.00000000000E+00 0.  1.
         -1    1    5    5    0  502  0.97566502552E+01  0.44398360617E+02  0.65190697971E+02  0.79474736562E+02  0.00000000000E+00 0.  1.
<mgrwt>
<rscale>  0 0.20005843E+04</rscale>
<asrwt>0</asrwt>
<pdfrwt beam="1">  1        2 0.90755037E-01 0.20005843E+04</pdfrwt>
<pdfrwt beam="2">  1       -2 0.26094938E+00 0.20005843E+04</pdfrwt>
<totfact> 0.25891912E+00</totfact>
</mgrwt>
</event>
<event>
11    1  0.2045212E-008  0.2138284E+04  0.7818608E-02  0.8544564E-01
         -2   -1    0    0    0  501 -0.00000000000E+00  0.00000000000E+00  0.48515741176E+03  0.48515741176E+03  0.00000000000E+00 0.  1.
          2   -1    0    0  501    0  0.00000000000E+00 -0.00000000000E+00 -0.23560703652E+04  0.23560703652E+04  0.00000000000E+00 0. -1.
         23    2    1    2    0    0  0.67684451119E+03  0.46352338707E+03 -0.33893739996E+03  0.89239465692E+03  0.92288893772E+02 0.  0.
        254    2    1    2    0    0 -0.67684451119E+03 -0.46352338707E+03 -0.15319755535E+04  0.19488331200E+04  0.88205952782E+03 0.  0.
         24    2    4    4    0    0 -0.54812619812E+03  0.93855600718E+02 -0.45813765128E+03  0.72492988661E+03  0.79887609300E+02 0.  0.
         11    1    3    3    0    0  0.43657580528E+03  0.26022324859E+03 -0.17507498649E+03  0.53755541460E+03  0.00000000000E+00 0.  1.
        -11    1    3    3    0    0  0.24026870591E+03  0.20330013848E+03 -0.16386241347E+03  0.35483924232E+03  0.00000000000E+00 0. -1.
          2    1    5    5  502    0 -0.20803241900E+03  0.75080556416E+02 -0.18429090572E+03  0.28788489929E+03  0.00000000000E+00 0. -1.
          3    1    4    4  503    0  0.12663371827E+02 -0.20548929841E+03 -0.42835484701E+03  0.47526212526E+03  0.00000000000E+00 0. -1.
         -4    1    4    4    0  503 -0.14138168490E+03 -0.35188968939E+03 -0.64548305519E+03  0.74864110818E+03  0.00000000000E+00 0.  1.
         -1    1    5    5    0  502 -0.34009377912E+03  0.18775044302E+02 -0.27384674557E+03  0.43704498732E+03  0.00000000000E+00 0.  1.
<mgrwt>
<rscale>  0 0.21382844E+04</rscale>
<asrwt>0</asrwt>
<pdfrwt beam="1">  1        2 0.36247238E+00 0.21382844E+04</pdfrwt>
<pdfrwt beam="2">  1       -2 0.74639599E-01 0.21382844E+04</pdfrwt>
<totfact> 0.62458686E+00</totfact>
</mgrwt>
</event>
<event>
12    1  0.2045212E-008  0.1192540E+04  0.7818608E-02  0.9119412E-01
         -1   -1    0    0    0  501 -0.00000000000E+00  0.00000000000E+00  0.22280722851E+03  0.22280722851E+03  0.00000000000E+00 0.  1.
          1   -1    0    0  501    0  0.00000000000E+00 -0.00000000000E+00 -0.15957186544E+04  0.15957186544E+04  0.00000000000E+00 0. -1.
         23    2    1    2    0    0 -0.34167286373E+03  0.56678470855E+02 -0.43153950472E+03  0.56062796782E+03  0.90136448232E+02 0.  0.
        254    2    1    2    0    0  0.34167286373E+03 -0.56678470855E+02 -0.94137192114E+03  0.12578979151E+04  0.75906078540E+03 0.  0.
        -24    2    4    4    0    0 -0.53254179403E+02  0.13091000108E+03 -0.75785790289E+03  0.77716080613E+03  0.98269433710E+02 0.  0.
         24    2    4    4    0    0  0.39492704313E+03 -0.18758847193E+03 -0.18351401825E+03  0.48073710893E+03  0.79208388497E+02 0.  0.
         11    1    3    3    0    0 -0.17394087160E+03  0.30079082777E+02 -0.14911294798E+03  0.23107325524E+03  0.00000000000E+00 0.  1.
        -11    1    3    3    0    0 -0.16773199213E+03  0.26599388078E+02 -0.28242655674E+03  0.32955471258E+03  0.00000000000E+00 0. -1.
          2    1    6    6  502    0  0.33144379850E+03 -0.17970451068E+03 -0.17677882691E+03  0.41641260352E+03  0.00000000000E+00 0. -1.
          3    1    5    5  503    0 -0.26684108932E+02  0.13888483346E+03 -0.67882542334E+03  0.69340103404E+03  0.00000000000E+00 0. -1.
         -4    1    5    5    0  503 -0.26570070471E+02 -0.79748323817E+01 -0.79032479551E+02  0.83759772088E+02  0.00000000000E+00 0.  1.
         -1    1    6    6    0  502  0.63483244632E+02 -0.78839612519E+01 -0.67351913330E+01  0.64324505410E+02  0.00000000000E+00 0.  1.
<mgrwt>
<rscale>  0 0.11925396E+04</rscale>
<asrwt>0</asrwt>
<pdfrwt beam="1">  1        1 0.24549518E+00 0.11925396E+04</pdfrwt>
<pdfrwt beam="2">  1       -1 0.34278035E-01 0.11925396E+04</pdfrwt>
<totfact> 0.44813382E+01</totfact>
</mgrwt>
</event>
<event>
12    1  0.2045212E-008  0.1389219E+04  0.7818608E-02  0.8961660E-01
          1   -1    0    0  501    0  0.00000000000E+00  0.00000000000E+00  0.38680922645E+03  0.38680922645E+03  0.00000000000E+00 0. -1.
         -1   -1    0    0    0  501 -0.00000000000E+00 -0.00000000000E+00 -0.12473391210E+04  0.12473391210E+04  0.00000000000E+00 0.  1.
         23    2    1    2    0    0  0.33571575436E+02 -0.34559162692E+03 -0.33688631608E+02  0.36105834791E+03  0.93099857256E+02 0.  0.
        254    2    1    2    0    0 -0.33571575436E+02  0.34559162692E+03 -0.82684126299E+03  0.12730899996E+04  0.90362107635E+03 0.  0.
        -24    2    4    4    0    0  0.42720899432E+03  0.17278361833E+03 -0.40848443333E+03  0.62250901764E+03  0.91083704263E+02 0.  0.
         24    2    4    4    0    0 -0.46078056976E+03  0.17280800859E+03 -0.41835682966E+03  0.65058098196E+03  0.77793546357E+02 0.  0.
         11    1    3    3    0    0 -0.24633840905E+02 -0.31984087171E+02 -0.70815266046E+01  0.40987265936E+02  0.00000000000E+00 0.  1.
        -11    1    3    3    0    0  0.58205416341E+02 -0.31360753974E+03 -0.26607105003E+02  0.32007108197E+03  0.00000000000E+00 0. -1.
          4    1    6    6  502    0 -0.19846350578E+03  0.34658293717E+02 -0.15840002862E+03  0.25628017777E+03  0.00000000000E+00 0. -1.
          1    1    5    5  503    0  0.10468443551E+03  0.73648045226E+02 -0.76283064263E+02  0.14900326002E+03  0.00000000000E+00 0. -1.
         -2    1    5    5    0  503  0.32252455882E+03  0.99135573099E+02 -0.33220136906E+03  0.47350575762E+03  0.00000000000E+00 0.  1.
         -3    1    6    6    0  502 -0.26231706398E+03  0.13814971487E+03 -0.25995680104E+03  0.39430080419E+03  0.00000000000E+00 0.  1.
<mgrwt>
<rscale>  0 0.13892189E+04</rscale>
<asrwt>0</asrwt>
<pdfrwt beam="1">  1        1 0.59509113E-01 0.13892189E+04</pdfrwt>
<pdfrwt beam="2">  1       -1 0.19189832E+00 0.13892189E+04</pdfrwt>
<totfact> 0.10490584E+01</totfact>
</mgrwt>
</event>
<event>
12    1  0.2045212E-008  0.1395591E+04  0.7818608E-02  0.8957016E-01
          1   -1    0    0  501    0  0.00000000000E+00  0.00000000000E+00  0.12296167370E+04  0.12296167370E+04  0.00000000000E+00 0. -1.
         -1   -1    0    0    0  501 -0.00000000000E+00 -0.00000000000E+00 -0.39599195172E+03  0.39599195172E+03  0.00000000000E+00 0.  1.
         23    2    1    2    0    0 -0.20822452933E+03  0.43351206844E+02 -0.14875198168E+03  0.27536268314E+03  0.91981919204E+02 0.  0.
        254    2    1    2    0    0  0.20822452933E+03 -0.43351206844E+02  0.98237676693E+03  0.13502460055E+04  0.90158936414E+03 0.  0.
        -24    2    4    4    0    0  0.73044434650E+02  0.20854169478E+03  0.10229137840E+04  0.10507743637E+04  0.94599291326E+02 0.  0.
         24    2    4    4    0    0  0.13518009468E+03 -0.25189290162E+03 -0.40537017104E+02  0.29947164186E+03  0.79475295754E+02 0.  0.
         11    1    3    3    0    0 -0.58787329595E+02  0.56234863475E+02 -0.44828590117E+02  0.92886557062E+02  0.00000000000E+00 0. -1.
        -11    1    3    3    0    0 -0.14943719974E+03 -0.12883656631E+02 -0.10392339156E+03  0.18247612608E+03  0.00000000000E+00 0.  1.
          2    1    6    6  502    0  0.42527529097E+02 -0.84834503333E+02 -0.51788985864E+02  0.10810912424E+03  0.00000000000E+00 0. -1.
          3    1    5    5  503    0  0.79498129709E+02  0.19140871830E+03  0.10009390053E+04  0.10221722665E+04  0.00000000000E+00 0. -1.
         -4    1    5    5    0  503 -0.64536950593E+01  0.17132976475E+02  0.21974778711E+02  0.28602097164E+02  0.00000000000E+00 0.  1.
         -3    1    6    6    0  502  0.92652565586E+02 -0.16705839829E+03  0.11251968760E+02  0.19136251762E+03  0.00000000000E+00 0.  1.
<mgrwt>
<rscale>  0 0.13955907E+04</rscale>
<asrwt>0</asrwt>
<pdfrwt beam="1">  1        1 0.18917180E+00 0.13955907E+04</pdfrwt>
<pdfrwt beam="2">  1       -1 0.60921839E-01 0.13955907E+04</pdfrwt>
<totfact> 0.27097049E+01</totfact>
</mgrwt>
</event>
<event>
11    1  0.2045212E-008  0.1408189E+04  0.7818608E-02  0.8947912E-01
          2   -1    0    0  501    0  0.00000000000E+00  0.00000000000E+00  0.38871624328E+04  0.38871624328E+04  0.00000000000E+00 0. -1.
         -2   -1    0    0    0  501 -0.00000000000E+00 -0.00000000000E+00 -0.12753503908E+03  0.12753503908E+03  0.00000000000E+00 0.  1.
         23    2    1    2    0    0  0.60248027373E+02 -0.14842517274E+03  0.22266767548E+04  0.22347015241E+04  0.10070588135E+03 0.  0.
        254    2    1    2    0    0 -0.60248027373E+02  0.14842517274E+03  0.15329506389E+04  0.17799959478E+04  0.89038646450E+03 0.  0.
         24    2    4    4    0    0  0.20975627151E+03  0.40148999089E+03  0.10502361886E+04  0.11472803977E+04  0.89801742073E+02 0.  0.
         11    1    3    3    0    0  0.78875121249E+02 -0.77353525033E+02  0.15817115997E+04  0.15855650214E+04  0.00000000000E+00 0. -1.
        -11    1    3    3    0    0 -0.18627093876E+02 -0.71071647706E+02  0.64496515519E+03  0.64913650271E+03  0.00000000000E+00 0.  1.
          4    1    5    5  502    0  0.19531377518E+03  0.30386442655E+03  0.77981048279E+03  0.85940994267E+03  0.00000000000E+00 0. -1.
          1    1    4    4  503    0 -0.22982964475E+03 -0.18202083501E+03  0.46419130318E+03  0.54902351128E+03  0.00000000000E+00 0. -1.
         -2    1    4    4    0  503 -0.40174654126E+02 -0.71043983136E+02  0.18523147036E+02  0.83692038750E+02  0.00000000000E+00 0.  1.
         -3    1    5    5    0  502  0.14442496323E+02  0.97625564340E+02  0.27042570585E+03  0.28787045506E+03  0.00000000000E+00 0.  1.
<mgrwt>
<rscale>  0 0.14081895E+04</rscale>
<asrwt>0</asrwt>
<pdfrwt beam="1">  1        2 0.59802490E+00 0.14081895E+04</pdfrwt>
<pdfrwt beam="2">  1       -2 0.19620778E-01 0.14081895E+04</pdfrwt>
<totfact> 0.92764654E+00</totfact>
</mgrwt>
</event>
<event>
11    1  0.2045212E-008  0.1513434E+04  0.7818608E-02  0.8875568E-01
         -1   -1    0    0    0  501 -0.00000000000E+00  0.00000000000E+00  0.24086799856E+03  0.24086799856E+03  0.00000000000E+00 0.  1.
          1   -1    0    0  501    0  0.00000000000E+00 -0.00000000000E+00 -0.23773212822E+04  0.23773212822E+04  0.00000000000E+00 0. -1.
         23    2    1    2    0    0  0.60733718856E+02  0.45566029754E+03 -0.89973545912E+03  0.10145035482E+04  0.91535028966E+02 0.  0.
        254    2    1    2    0    0 -0.60733718856E+02 -0.45566029754E+03 -0.12367178245E+04  0.16036857326E+04  0.91160411366E+03 0.  0.
         24    2    4    4    0    0 -0.29130742759E+03  0.94425067971E+02 -0.78659790095E+03  0.84753019370E+03  0.76125295555E+02 0.  0.
         11    1    3    3    0    0  0.66903382701E+02  0.35474419505E+03 -0.62513560045E+03  0.72188227953E+03  0.00000000000E+00 0. -1.
        -11    1    3    3    0    0 -0.61696638453E+01  0.10091610249E+03 -0.27459985867E+03  0.29262126866E+03  0.00000000000E+00 0.  1.
          2    1    5    5  502    0 -0.27413236218E+02 -0.13218634244E+02 -0.69470826431E+02  0.75844667157E+02  0.00000000000E+00 0. -1.
          3    1    4    4  503    0  0.17480005947E+03 -0.32926775768E+03 -0.22240980941E+03  0.43409496698E+03  0.00000000000E+00 0. -1.
         -4    1    4    4    0  503  0.55773649266E+02 -0.22081760783E+03 -0.22771011416E+03  0.32206057189E+03  0.00000000000E+00 0.  1.
         -1    1    5    5    0  502 -0.26389419137E+03  0.10764370221E+03 -0.71712707452E+03  0.77168552655E+03  0.00000000000E+00 0.  1.
<mgrwt>
<rscale>  0 0.15134340E+04</rscale>
<asrwt>0</asrwt>
<pdfrwt beam="1">  1        1 0.36574174E+00 0.15134340E+04</pdfrwt>
<pdfrwt beam="2">  1       -1 0.37056614E-01 0.15134340E+04</pdfrwt>
<totfact> 0.11162512E+01</totfact>
</mgrwt>
</event>
<event>
12    1  0.2045212E-008  0.2576065E+04  0.7818608E-02  0.8376377E-01
          2   -1    0    0  501    0  0.00000000000E+00  0.00000000000E+00  0.16108984174E+04  0.16108984174E+04  0.00000000000E+00 0. -1.
         -2   -1    0    0    0  501 -0.00000000000E+00 -0.00000000000E+00 -0.10298769249E+04  0.10298769249E+04  0.00000000000E+00 0.  1.
         23    2    1    2    0    0  0.87399283807E+03  0.64584924026E+03  0.56215707629E+03  0.12267100475E+04  0.88386876622E+02 0.  0.
        254    2    1    2    0    0 -0.87399283807E+03 -0.64584924026E+03  0.18864416194E+02  0.14140652948E+04  0.90456623291E+03 0.  0.
        -24    2    4    4    0    0 -0.31824475838E+03 -0.38217212149E+03  0.43730209616E+03  0.66573846361E+03  0.68112568221E+02 0.  0.
         24    2    4    4    0    0 -0.55574807970E+03 -0.26367711878E+03 -0.41843767996E+03  0.74832683123E+03  0.80755205877E+02 0.  0.
         11    1    3    3    0    0  0.44233773956E+03  0.31183977940E+03  0.23207596771E+03  0.58886838821E+03  0.00000000000E+00 0. -1.
        -11    1    3    3    0    0  0.43165509852E+03  0.33400946087E+03  0.33008110859E+03  0.63784165925E+03  0.00000000000E+00 0.  1.
          2    1    6    6  502    0 -0.17212663754E+03 -0.12288752856E+03 -0.13224500068E+03  0.24943468931E+03  0.00000000000E+00 0. -1.
          1    1    5    5  503    0 -0.17511029394E+03 -0.17835897015E+03  0.25517729101E+03  0.35719880617E+03  0.00000000000E+00 0. -1.
         -2    1    5    5    0  503 -0.14313446444E+03 -0.20381315133E+03  0.18212480514E+03  0.30853965744E+03  0.00000000000E+00 0.  1.
         -1    1    6    6    0  502 -0.38362144216E+03 -0.14078959021E+03 -0.28619267929E+03  0.49889214192E+03  0.00000000000E+00 0.  1.
<mgrwt>
<rscale>  0 0.25760645E+04</rscale>
<asrwt>0</asrwt>
<pdfrwt beam="1">  1        2 0.24783052E+00 0.25760645E+04</pdfrwt>
<pdfrwt beam="2">  1       -2 0.15844260E+00 0.25760645E+04</pdfrwt>
<totfact> 0.25216234E+00</totfact>
</mgrwt>
</event>
<event>
12    1  0.2045212E-008  0.1440153E+04  0.7818608E-02  0.8925256E-01
          1   -1    0    0  501    0  0.00000000000E+00  0.00000000000E+00  0.17086715875E+04  0.17086715875E+04  0.00000000000E+00 0. -1.
         -1   -1    0    0    0  501 -0.00000000000E+00 -0.00000000000E+00 -0.30345816414E+03  0.30345816414E+03  0.00000000000E+00 0.  1.
         23    2    1    2    0    0  0.39790777582E+03  0.17148160798E+03  0.44192877265E+03  0.62485697886E+03  0.86073596399E+02 0.  0.
        254    2    1    2    0    0 -0.39790777582E+03 -0.17148160798E+03  0.96328465065E+03  0.13872727727E+04  0.89937305266E+03 0.  0.
        -24    2    4    4    0    0 -0.47679439761E+03 -0.39849068375E+03  0.94415127370E+03  0.11323948203E+04  0.69055621687E+02 0.  0.
         24    2    4    4    0    0  0.78886621792E+02  0.22700907577E+03  0.19133376953E+02  0.25487795239E+03  0.82707103199E+02 0.  0.
         13    1    3    3    0    0  0.28722840456E+03  0.12623147657E+03  0.37081943668E+03  0.48573819768E+03  0.00000000000E+00 0.  1.
        -13    1    3    3    0    0  0.11067937126E+03  0.45250131411E+02  0.71109335974E+02  0.13911878118E+03  0.00000000000E+00 0. -1.
          2    1    6    6  502    0  0.60112571258E+02  0.19798946214E+03 -0.13486069411E+02  0.20735289342E+03  0.00000000000E+00 0. -1.
          3    1    5    5  503    0 -0.81144549359E+02 -0.52592568336E+02  0.19005493976E+03  0.21323999687E+03  0.00000000000E+00 0. -1.
         -4    1    5    5    0  503 -0.39564984826E+03 -0.34589811541E+03  0.75409633394E+03  0.91915482348E+03  0.00000000000E+00 0.  1.
         -1    1    6    6    0  502  0.18774050534E+02  0.29019613631E+02  0.32619446364E+02  0.47525058968E+02  0.00000000000E+00 0.  1.
<mgrwt>
<rscale>  0 0.14401532E+04</rscale>
<asrwt>0</asrwt>
<pdfrwt beam="1">  1        1 0.26287255E+00 0.14401532E+04</pdfrwt>
<pdfrwt beam="2">  1       -1 0.46685872E-01 0.14401532E+04</pdfrwt>
<totfact> 0.20890273E+01</totfact>
</mgrwt>
</event>
<event>
11    1  0.2045212E-008  0.4070924E+04  0.7818608E-02  0.7990390E-01
          1   -1    0    0  501    0  0.00000000000E+00  0.00000000000E+00  0.25149399502E+04  0.25149399502E+04  0.00000000000E+00 0. -1.
         -1   -1    0    0    0  501 -0.00000000000E+00 -0.00000000000E+00 -0.16473974319E+04  0.16473974319E+04  0.00000000000E+00 0.  1.
         23    2    1    2    0    0  0.38101162774E+02 -0.92707779894E+03  0.21483713488E+04  0.23425996728E+04  0.10653088996E+03 0.  0.
        254    2    1    2    0    0 -0.38101162774E+02  0.92707779894E+03 -0.12808288305E+04  0.18197377093E+04  0.89999882975E+03 0.  0.
         24    2    4    4    0    0  0.26474315741E+03  0.73961371091E+03 -0.74015099394E+03  0.10819217076E+04  0.74924674402E+02 0.  0.
         13    1    3    3    0    0  0.53874594884E+01 -0.17056026191E+03  0.30004504098E+03  0.34517655523E+03  0.00000000000E+00 0.  1.
        -13    1    3    3    0    0  0.32713703285E+02 -0.75651753703E+03  0.18483263078E+04  0.19974231175E+04  0.00000000000E+00 0. -1.
          2    1    5    5  502    0  0.55544553157E+02  0.25689281355E+03 -0.23510709666E+03  0.35263928020E+03  0.00000000000E+00 0. -1.
          1    1    4    4  503    0 -0.18070388600E+02 -0.96848864476E+02 -0.12658112239E+03  0.16040268713E+03  0.00000000000E+00 0. -1.
         -2    1    4    4    0  503 -0.28477393159E+03  0.28431295251E+03 -0.41409671418E+03  0.57741331451E+03  0.00000000000E+00 0.  1.
         -1    1    5    5    0  502  0.20919860426E+03  0.48272089735E+03 -0.50504389729E+03  0.72928242742E+03  0.00000000000E+00 0.  1.
<mgrwt>
<rscale>  0 0.40709240E+04</rscale>
<asrwt>0</asrwt>
<pdfrwt beam="1">  1        1 0.38691384E+00 0.40709240E+04</pdfrwt>
<pdfrwt beam="2">  1       -1 0.25344576E+00 0.40709240E+04</pdfrwt>
<totfact> 0.68137192E-02</totfact>
</mgrwt>
</event>
<event>
12    1  0.3397480E-008  0.1359065E+04  0.7818608E-02  0.8983994E-01
         -1   -1    0    0    0  501 -0.00000000000E+00  0.00000000000E+00  0.19958762547E+03  0.19958762547E+03  0.00000000000E+00 0.  1.
          1   -1    0    0  501    0  0.00000000000E+00 -0.00000000000E+00 -0.23135918107E+04  0.23135918107E+04  0.00000000000E+00 0. -1.
         23    2    1    2    0    0 -0.12238813208E+03 -0.34362528976E+03 -0.46356288360E+03  0.59732418466E+03  0.94066146398E+02 0.  0.
        254    2    1    2    0    0  0.12238813208E+03  0.34362528976E+03 -0.16504413016E+04  0.19158552515E+04  0.90193550762E+03 0.  0.
        -24    2    4    4    0    0 -0.53227490807E+00  0.46394620636E+03 -0.31744036785E+03  0.56935939885E+03  0.90307099428E+02 0.  0.
         24    2    4    4    0    0  0.12292040698E+03 -0.12032091660E+03 -0.13330009337E+04  0.13464958526E+04  0.81074301286E+02 0.  0.
         13    1    3    3    0    0 -0.80747119557E+02 -0.18342102993E+03 -0.18203545475E+03  0.27074024142E+03  0.00000000000E+00 0.  1.
        -13    1    3    3    0    0 -0.41641012518E+02 -0.16020425983E+03 -0.28152742885E+03  0.32658394325E+03  0.00000000000E+00 0. -1.
          2    1    6    6  502    0  0.59639482290E+02 -0.76195193532E+02 -0.45850593515E+03  0.46860459657E+03  0.00000000000E+00 0. -1.
          3    1    5    5  503    0  0.11607487807E+02  0.16208519050E+03 -0.16261670841E+03  0.22989244574E+03  0.00000000000E+00 0. -1.
         -2    1    5    5    0  503 -0.12139762716E+02  0.30186101586E+03 -0.15482365944E+03  0.33946695311E+03  0.00000000000E+00 0.  1.
         -1    1    6    6    0  502  0.63280924694E+02 -0.44125723066E+02 -0.87449499858E+03  0.87789125603E+03  0.00000000000E+00 0.  1.
<mgrwt>
<rscale>  0 0.13590648E+04</rscale>
<asrwt>0</asrwt>
<pdfrwt beam="1">  1        1 0.35593720E+00 0.13590648E+04</pdfrwt>
<pdfrwt beam="2">  1       -1 0.30705789E-01 0.13590648E+04</pdfrwt>
<totfact> 0.17498732E+01</totfact>
</mgrwt>
</event>
<event>
11    1  0.2045212E-008  0.1209026E+04  0.7818608E-02  0.9104993E-01
         -2   -1    0    0    0  501 -0.00000000000E+00  0.00000000000E+00  0.69008744203E+03  0.69008744203E+03  0.00000000000E+00 0.  1.
          2   -1    0    0  501    0  0.00000000000E+00 -0.00000000000E+00 -0.52954999720E+03  0.52954999720E+03  0.00000000000E+00 0. -1.
         23    2    1    2    0    0  0.92115545714E+02  0.65266399256E+02  0.26863775201E+03  0.30493258097E+03  0.89847985496E+02 0.  0.
        254    2    1    2    0    0 -0.92115545714E+02 -0.65266399256E+02 -0.10810030718E+03  0.91470485827E+03  0.90125153242E+03 0.  0.
         24    2    4    4    0    0 -0.75495777263E+02 -0.39429015296E+03  0.29046944830E+02  0.41058742261E+03  0.81080019077E+02 0.  0.
         13    1    3    3    0    0  0.10961290136E+03  0.63547706570E+02  0.23587395390E+03  0.26774954955E+03  0.00000000000E+00 0. -1.
        -13    1    3    3    0    0 -0.17497355645E+02  0.17186926861E+01  0.32763798110E+02  0.37183031422E+02  0.00000000000E+00 0.  1.
          2    1    5    5  502    0 -0.89492587595E+02 -0.27431462201E+03  0.14250964018E+02  0.28889535312E+03  0.00000000000E+00 0. -1.
          3    1    4    4  503    0  0.92494475924E+02  0.32047631392E+03 -0.18859299727E+03  0.38318091612E+03  0.00000000000E+00 0. -1.
         -4    1    4    4    0  503 -0.10911424437E+03  0.85474397857E+01  0.51445745261E+02  0.12093651954E+03  0.00000000000E+00 0.  1.
         -1    1    5    5    0  502  0.13996810331E+02 -0.11997553095E+03  0.14795980813E+02  0.12169206948E+03  0.00000000000E+00 0.  1.
<mgrwt>
<rscale>  0 0.12090257E+04</rscale>
<asrwt>0</asrwt>
<pdfrwt beam="1">  1        2 0.81469230E-01 0.12090257E+04</pdfrwt>
<pdfrwt beam="2">  1       -2 0.10616730E+00 0.12090257E+04</pdfrwt>
<totfact> 0.40644938E+01</totfact>
</mgrwt>
</event>
<event>
12    1  0.2045212E-008  0.1725271E+04  0.7818608E-02  0.8747081E-01
         -2   -1    0    0    0  501 -0.00000000000E+00  0.00000000000E+00  0.60499005943E+03  0.60499005943E+03  0.00000000000E+00 0.  1.
          2   -1    0    0  501    0  0.00000000000E+00 -0.00000000000E+00 -0.12300035512E+04  0.12300035512E+04  0.00000000000E+00 0. -1.
         23    2    1    2    0    0 -0.39030514793E+03  0.49643790093E+03 -0.20845296259E+03  0.67188227104E+03  0.95835539045E+02 0.  0.
        254    2    1    2    0    0  0.39030514793E+03 -0.49643790093E+03 -0.41656052917E+03  0.11631113396E+04  0.88346851434E+03 0.  0.
        -24    2    4    4    0    0  0.17545681146E+03 -0.71706736132E+03 -0.17084199146E+03  0.75968167148E+03  0.54392670259E+02 0.  0.
         24    2    4    4    0    0  0.21484833646E+03  0.22062946039E+03 -0.24571853772E+03  0.40342966810E+03  0.86837381661E+02 0.  0.
         13    1    3    3    0    0 -0.37337855069E+03  0.42701651966E+03 -0.18279944711E+03  0.59596164981E+03  0.00000000000E+00 0.  1.
        -13    1    3    3    0    0 -0.16926597236E+02  0.69421381266E+02 -0.25653515485E+02  0.75920621228E+02  0.00000000000E+00 0. -1.
          4    1    6    6  502    0  0.17305031063E+03  0.16158289531E+03 -0.22855353140E+03  0.32907773973E+03  0.00000000000E+00 0. -1.
          1    1    5    5  503    0  0.14320213503E+03 -0.48924358322E+03 -0.12858641318E+03  0.52573814856E+03  0.00000000000E+00 0. -1.
         -2    1    5    5    0  503  0.32254676437E+02 -0.22782377810E+03 -0.42255578272E+02  0.23394352292E+03  0.00000000000E+00 0.  1.
         -3    1    6    6    0  502  0.41798025830E+02  0.59046565081E+02 -0.17165006311E+02  0.74351928373E+02  0.00000000000E+00 0.  1.
<mgrwt>
<rscale>  0 0.17252709E+04</rscale>
<asrwt>0</asrwt>
<pdfrwt beam="1">  1        2 0.18923131E+00 0.17252709E+04</pdfrwt>
<pdfrwt beam="2">  1       -2 0.93075395E-01 0.17252709E+04</pdfrwt>
<totfact> 0.16877748E+01</totfact>
</mgrwt>
</event>
<event>
12    1  0.2045212E-008  0.2924308E+04  0.7818608E-02  0.8265682E-01
          1   -1    0    0  501    0  0.00000000000E+00  0.00000000000E+00  0.99555958394E+03  0.99555958394E+03  0.00000000000E+00 0. -1.
         -1   -1    0    0    0  501 -0.00000000000E+00 -0.00000000000E+00 -0.21474292326E+04  0.21474292326E+04  0.00000000000E+00 0.  1.
         23    2    1    2    0    0  0.55360500858E+03 -0.36822159256E+02  0.76629509536E+03  0.95058696497E+03  0.92590646723E+02 0.  0.
        254    2    1    2    0    0 -0.55360500858E+03  0.36822159256E+02 -0.19181647440E+04  0.21924018516E+04  0.90522677640E+03 0.  0.
        -24    2    4    4    0    0 -0.73544971334E+03 -0.81529215305E+02 -0.17654347088E+04  0.19153537141E+04  0.65474003653E+02 0.  0.
         24    2    4    4    0    0  0.18184470476E+03  0.11835137456E+03 -0.15273003524E+03  0.27704813754E+03  0.79716136001E+02 0.  0.
         11    1    3    3    0    0  0.41501070105E+03 -0.61515381941E+02  0.60859693987E+03  0.73919433130E+03  0.00000000000E+00 0.  1.
        -11    1    3    3    0    0  0.13859430753E+03  0.24693222685E+02  0.15769815548E+03  0.21139263367E+03  0.00000000000E+00 0. -1.
          2    1    6    6  502    0  0.15365368022E+03  0.58641648988E+02 -0.11821263455E+03  0.20254017727E+03  0.00000000000E+00 0. -1.
          3    1    5    5  503    0 -0.72267975040E+03 -0.77653655416E+02 -0.17500604300E+04  0.18949954144E+04  0.00000000000E+00 0. -1.
         -4    1    5    5    0  503 -0.12769962937E+02 -0.38755598889E+01 -0.15374278807E+02  0.20358299700E+02  0.00000000000E+00 0.  1.
         -1    1    6    6    0  502  0.28191024537E+02  0.59709725573E+02 -0.34517400684E+02  0.74507960262E+02  0.00000000000E+00 0.  1.
<mgrwt>
<rscale>  0 0.29243076E+04</rscale>
<asrwt>0</asrwt>
<pdfrwt beam="1">  1        1 0.15316302E+00 0.29243076E+04</pdfrwt>
<pdfrwt beam="2">  1       -1 0.33037372E+00 0.29243076E+04</pdfrwt>
<totfact> 0.27344723E-01</totfact>
</mgrwt>
</event>
<event>
12    1  0.2045212E-008  0.1566806E+04  0.7818608E-02  0.8841204E-01
          1   -1    0    0  501    0  0.00000000000E+00  0.00000000000E+00  0.24760769771E+03  0.24760769771E+03  0.00000000000E+00 0. -1.
         -1   -1    0    0    0  501 -0.00000000000E+00 -0.00000000000E+00 -0.24785983537E+04  0.24785983537E+04  0.00000000000E+00 0.  1.
         23    2    1    2    0    0 -0.43264501320E+03  0.22861819159E+03 -0.45557615302E+03  0.67455218977E+03  0.89571427078E+02 0.  0.
        254    2    1    2    0    0  0.43264501320E+03 -0.22861819159E+03 -0.17754145030E+04  0.20516538616E+04  0.90428918252E+03 0.  0.
        -24    2    4    4    0    0 -0.10796709651E+03 -0.26383508852E+02  0.35402889853E+02  0.14947173230E+03  0.93463632923E+02 0.  0.
         24    2    4    4    0    0  0.54061210971E+03 -0.20223468274E+03 -0.18108173928E+04  0.19021821293E+04  0.77954492597E+02 0.  0.
         11    1    3    3    0    0 -0.37742549268E+03  0.18555347094E+03 -0.34646150931E+03  0.54489968851E+03  0.00000000000E+00 0. -1.
        -11    1    3    3    0    0 -0.55219520513E+02  0.43064720653E+02 -0.10911464370E+03  0.12965250125E+03  0.00000000000E+00 0.  1.
          4    1    6    6  502    0  0.17819140611E+03 -0.66017040021E+02 -0.48193383170E+03  0.51804502209E+03  0.00000000000E+00 0. -1.
          3    1    5    5  503    0 -0.77928408726E+02 -0.53621992508E+02 -0.15542620626E+01  0.94607455825E+02  0.00000000000E+00 0. -1.
         -4    1    5    5    0  503 -0.30038687789E+02  0.27238483656E+02  0.36957151916E+02  0.54864276480E+02  0.00000000000E+00 0.  1.
         -3    1    6    6    0  502  0.36242070361E+03 -0.13621764272E+03 -0.13288835611E+04  0.13841371072E+04  0.00000000000E+00 0.  1.
<mgrwt>
<rscale>  0 0.15668057E+04</rscale>
<asrwt>0</asrwt>
<pdfrwt beam="1">  1        1 0.38093490E-01 0.15668057E+04</pdfrwt>
<pdfrwt beam="2">  1       -1 0.38132285E+00 0.15668057E+04</pdfrwt>
<totfact> 0.10440921E+00</totfact>
</mgrwt>
</event>
<event>
12    1  0.2045212E-008  0.2081904E+04  0.7818608E-02  0.8569257E-01
         -2   -1    0    0    0  501 -0.00000000000E+00  0.00000000000E+00  0.26600333503E+03  0.26600333503E+03  0.00000000000E+00 0.  1.
          2   -1    0    0  501    0  0.00000000000E+00 -0.00000000000E+00 -0.40735601748E+04  0.40735601748E+04  0.00000000000E+00 0. -1.
         23    2    1    2    0    0  0.11283853375E+03 -0.65457002802E+03 -0.47570514911E+03  0.82218438461E+03  0.92180893458E+02 0.  0.
        254    2    1    2    0    0 -0.11283853375E+03  0.65457002802E+03 -0.33318516907E+04  0.35173791252E+04  0.91078305083E+03 0.  0.
        -24    2    4    4    0    0 -0.34746582093E+03  0.73873574983E+03 -0.20379055501E+04  0.21972924926E+04  0.92586511814E+02 0.  0.
         24    2    4    4    0    0  0.23462728718E+03 -0.84165721802E+02 -0.12939461405E+04  0.13200866326E+04  0.78729094415E+02 0.  0.
         13    1    3    3    0    0  0.82457103814E+01 -0.64317426606E+02 -0.83949789822E+02  0.10607681328E+03  0.00000000000E+00 0. -1.
        -13    1    3    3    0    0  0.10459282337E+03 -0.59025260142E+03 -0.39175535929E+03  0.71610757133E+03  0.00000000000E+00 0.  1.
          4    1    6    6  502    0  0.96090526568E+02 -0.76043012808E+02 -0.58952770657E+03  0.60212859582E+03  0.00000000000E+00 0. -1.
          1    1    5    5  503    0 -0.24406714450E+03  0.60622249174E+03 -0.16155323790E+04  0.17427046073E+04  0.00000000000E+00 0. -1.
         -2    1    5    5    0  503 -0.10339867643E+03  0.13251325808E+03 -0.42237317112E+03  0.45458788538E+03  0.00000000000E+00 0.  1.
         -3    1    6    6    0  502  0.13853676061E+03 -0.81227089938E+01 -0.70441843396E+03  0.71795803676E+03  0.00000000000E+00 0.  1.
<mgrwt>
<rscale>  0 0.20819035E+04</rscale>
<asrwt>0</asrwt>
<pdfrwt beam="1">  1        2 0.62670157E+00 0.20819035E+04</pdfrwt>
<pdfrwt beam="2">  1       -2 0.40923590E-01 0.20819035E+04</pdfrwt>
<totfact> 0.15692854E+00</totfact>
</mgrwt>
</event>
<event>
12    1  0.2045212E-008  0.1712856E+04  0.7818608E-02  0.8754066E-01
         -2   -1    0    0    0  501 -0.00000000000E+00  0.00000000000E+00  0.92387576528E+03  0.92387576528E+03  0.00000000000E+00 0. -1.
          2   -1    0    0  501    0  0.00000000000E+00 -0.00000000000E+00 -0.79390458241E+03  0.79390458241E+03  0.00000000000E+00 0.  1.
         23    2    1    2    0    0  0.35929231381E+03  0.37007973415E+02  0.53772875145E+03  0.65408032404E+03  0.90599687130E+02 0.  0.
        254    2    1    2    0    0 -0.35929231381E+03 -0.37007973415E+02 -0.40775756858E+03  0.10637000236E+04  0.91363611395E+03 0.  0.
        -24    2    4    4    0    0 -0.67386648827E+02  0.34508976829E+03 -0.44489873737E+03  0.57506698459E+03  0.95599380904E+02 0.  0.
         24    2    4    4    0    0 -0.29190566498E+03 -0.38209774171E+03  0.37141168785E+02  0.48863303906E+03  0.78582306997E+02 0.  0.
         11    1    3    3    0    0  0.72136816082E+01  0.79812705271E+01  0.54137170252E+02  0.55195752413E+02  0.00000000000E+00 0.  1.
        -11    1    3    3    0    0  0.35207863220E+03  0.29026702888E+02  0.48359158120E+03  0.59888457163E+03  0.00000000000E+00 0. -1.
          4    1    6    6  502    0 -0.17453965136E+03 -0.22878530343E+03 -0.16521223875E+02  0.28823559079E+03  0.00000000000E+00 0. -1.
          1    1    5    5  503    0  0.24407759583E+02  0.75457202089E+02 -0.10560392778E+03  0.13206709521E+03  0.00000000000E+00 0. -1.
         -2    1    5    5    0  503 -0.91794408410E+02  0.26963256620E+03 -0.33929480959E+03  0.44299988938E+03  0.00000000000E+00 0.  1.
         -3    1    6    6    0  502 -0.11736601362E+03 -0.15331243828E+03  0.53662392661E+02  0.20039744826E+03  0.00000000000E+00 0.  1.
<mgrwt>
<rscale>  0 0.17128563E+04</rscale>
<asrwt>0</asrwt>
<pdfrwt beam="1">  1        2 0.12213917E+00 0.17128563E+04</pdfrwt>
<pdfrwt beam="2">  1       -2 0.14213473E+00 0.17128563E+04</pdfrwt>
<totfact> 0.11417461E+01</totfact>
</mgrwt>
</event>
<event>
11    1  0.2045212E-008  0.1487122E+04  0.7818608E-02  0.8893062E-01
         -2   -1    0    0    0  501 -0.00000000000E+00  0.00000000000E+00  0.10636654120E+04  0.10636654120E+04  0.00000000000E+00 0. -1.
          2   -1    0    0  501    0  0.00000000000E+00 -0.00000000000E+00 -0.51979047403E+03  0.51979047403E+03  0.00000000000E+00 0.  1.
         23    2    1    2    0    0 -0.44323336715E+02  0.28419323924E+03 -0.21765840657E+03  0.37150138152E+03  0.88925469441E+02 0.  0.
        254    2    1    2    0    0  0.44323336715E+02 -0.28419323924E+03  0.76153334452E+03  0.12119545045E+04  0.89786988518E+03 0.  0.
         24    2    4    4    0    0 -0.34671987190E+03 -0.97298266273E+02  0.65777659438E+02  0.37467663697E+03  0.79838960563E+02 0.  0.
         13    1    3    3    0    0 -0.33818895233E+02  0.26473699300E+02 -0.26671090813E+02  0.50556122424E+02  0.00000000000E+00 0. -1.
        -13    1    3    3    0    0 -0.10504441482E+02  0.25771953994E+03 -0.19098731576E+03  0.32094525910E+03  0.00000000000E+00 0.  1.
          2    1    5    5  502    0 -0.22940630117E+03 -0.10224313703E+03  0.51614186617E+02  0.25640775017E+03  0.00000000000E+00 0. -1.
          1    1    4    4  503    0  0.34990995947E+02 -0.64326827369E+02  0.21167354228E+03  0.22398213995E+03  0.00000000000E+00 0. -1.
         -2    1    4    4    0  503  0.35605221267E+03 -0.12256814560E+03  0.48408214280E+03  0.61329572755E+03  0.00000000000E+00 0.  1.
         -1    1    5    5    0  502 -0.11731357073E+03  0.49448707562E+01  0.14163472820E+02  0.11826888681E+03  0.00000000000E+00 0.  1.
<mgrwt>
<rscale>  0 0.14871223E+04</rscale>
<asrwt>0</asrwt>
<pdfrwt beam="1">  1        2 0.79967765E-01 0.14871223E+04</pdfrwt>
<pdfrwt beam="2">  1       -2 0.16364083E+00 0.14871223E+04</pdfrwt>
<totfact> 0.13466204E+01</totfact>
</mgrwt>
</event>
<event>
11    1  0.2045212E-008  0.1545628E+04  0.7818608E-02  0.8854665E-01
         -1   -1    0    0    0  501 -0.00000000000E+00  0.00000000000E+00  0.47124932155E+03  0.47124932155E+03  0.00000000000E+00 0.  1.
          1   -1    0    0  501    0  0.00000000000E+00 -0.00000000000E+00 -0.12673583188E+04  0.12673583188E+04  0.00000000000E+00 0. -1.
         23    2    1    2    0    0 -0.43670758767E+03 -0.15394308732E+03 -0.48764549846E+03  0.67834459519E+03  0.89113783341E+02 0.  0.
        254    2    1    2    0    0  0.43670758767E+03  0.15394308732E+03 -0.30846349881E+03  0.10602630452E+04  0.90254972362E+03 0.  0.
         24    2    4    4    0    0  0.37814976589E+03 -0.21993263273E+03 -0.68992542180E+02  0.45024047373E+03  0.81172069860E+02 0.  0.
         13    1    3    3    0    0 -0.12791683504E+03 -0.48191964135E+01 -0.11734080778E+03  0.17365139363E+03  0.00000000000E+00 0.  1.
        -13    1    3    3    0    0 -0.30879075264E+03 -0.14912389090E+03 -0.37030469068E+03  0.50469320155E+03  0.00000000000E+00 0. -1.
          4    1    5    5  502    0  0.35709578961E+03 -0.18182818032E+03 -0.69489998908E+02  0.40670351617E+03  0.00000000000E+00 0. -1.
          3    1    4    4  503    0  0.75115936100E+02  0.46324486161E+03 -0.18784434695E+03  0.50549352552E+03  0.00000000000E+00 0. -1.
         -4    1    4    4    0  503 -0.16558114319E+02 -0.89369141566E+02 -0.51626609683E+02  0.10452904592E+03  0.00000000000E+00 0.  1.
         -3    1    5    5    0  502  0.21053976286E+02 -0.38104452409E+02  0.49745672828E+00  0.43536957565E+02  0.00000000000E+00 0.  1.
<mgrwt>
<rscale>  0 0.15456283E+04</rscale>
<asrwt>0</asrwt>
<pdfrwt beam="1">  1        1 0.19497820E+00 0.15456283E+04</pdfrwt>
<pdfrwt beam="2">  1       -1 0.72499896E-01 0.15456283E+04</pdfrwt>
<totfact> 0.17657372E+01</totfact>
</mgrwt>
</event>
<event>
11    1  0.2045212E-008  0.2009556E+04  0.7818608E-02  0.8602166E-01
         -2   -1    0    0    0  501 -0.00000000000E+00  0.00000000000E+00  0.54100635851E+03  0.54100635851E+03  0.00000000000E+00 0. -1.
          2   -1    0    0  501    0  0.00000000000E+00 -0.00000000000E+00 -0.18661124345E+04  0.18661124345E+04  0.00000000000E+00 0.  1.
         23    2    1    2    0    0  0.69515599864E+03 -0.32268462810E+03 -0.25239252758E+03  0.81207424202E+03  0.91626169381E+02 0.  0.
        254    2    1    2    0    0 -0.69515599864E+03  0.32268462810E+03 -0.10727135484E+04  0.15950445510E+04  0.89782266123E+03 0.  0.
         24    2    4    4    0    0 -0.86327512694E+02 -0.18376218753E+03  0.39190647405E+02  0.22087857500E+03  0.77656017367E+02 0.  0.
         11    1    3    3    0    0  0.18494099779E+03 -0.68470361324E+02 -0.26809456439E+02  0.19902288812E+03  0.00000000000E+00 0. -1.
        -11    1    3    3    0    0  0.51021500085E+03 -0.25421426678E+03 -0.22558307114E+03  0.61305135389E+03  0.00000000000E+00 0.  1.
          4    1    5    5  502    0 -0.93024230166E+02 -0.17887436318E+03  0.49543375820E+02  0.20761524821E+03  0.00000000000E+00 0. -1.
          1    1    4    4  503    0 -0.47850163039E+03  0.30580797656E+03 -0.80032110531E+03  0.98132369808E+03  0.00000000000E+00 0. -1.
         -2    1    4    4    0  503 -0.13032685556E+03  0.20063883908E+03 -0.31158309047E+03  0.39284227788E+03  0.00000000000E+00 0.  1.
         -3    1    5    5    0  502  0.66967174721E+01 -0.48878243516E+01 -0.10352728415E+02  0.13263326786E+02  0.00000000000E+00 0.  1.
<mgrwt>
<rscale>  0 0.20095559E+04</rscale>
<asrwt>0</asrwt>
<pdfrwt beam="1">  1        2 0.28709422E+00 0.20095559E+04</pdfrwt>
<pdfrwt beam="2">  1       -2 0.83231746E-01 0.20095559E+04</pdfrwt>
<totfact> 0.93034685E+00</totfact>
</mgrwt>
</event>
<event>
12    1  0.2045212E-008  0.1447926E+04  0.7818608E-02  0.8919840E-01
         -1   -1    0    0    0  501 -0.00000000000E+00  0.00000000000E+00  0.83697545051E+03  0.83697545051E+03  0.00000000000E+00 0.  1.
          1   -1    0    0  501    0  0.00000000000E+00 -0.00000000000E+00 -0.62620984441E+03  0.62620984441E+03  0.00000000000E+00 0. -1.
         23    2    1    2    0    0 -0.37022786539E+03 -0.19160455372E+03 -0.79558540218E+02  0.43387499317E+03  0.90205160926E+02 0.  0.
        254    2    1    2    0    0  0.37022786539E+03  0.19160455372E+03  0.29032414633E+03  0.10293103018E+04  0.89521539868E+03 0.  0.
        -24    2    4    4    0    0  0.32305826471E+03  0.44229637351E+03  0.45516589564E+03  0.71521470782E+03  0.66055743916E+02 0.  0.
         24    2    4    4    0    0  0.47169600677E+02 -0.25069181979E+03 -0.16484174931E+03  0.31409559394E+03  0.80074216036E+02 0.  0.
         11    1    3    3    0    0 -0.68563633952E+02 -0.62353388895E+02 -0.47458386823E+02  0.10412115773E+03  0.00000000000E+00 0. -1.
        -11    1    3    3    0    0 -0.30166423143E+03 -0.12925116482E+03 -0.32100153395E+02  0.32975383543E+03  0.00000000000E+00 0.  1.
          2    1    6    6  502    0 -0.12015572684E+02 -0.12273402458E+03 -0.53397223969E+02  0.13438481426E+03  0.00000000000E+00 0. -1.
          1    1    5    5  503    0 -0.28346174231E+01  0.53391440759E+01  0.87783317833E+01  0.10658359362E+02  0.00000000000E+00 0. -1.
         -2    1    5    5    0  503  0.32589288213E+03  0.43695722944E+03  0.44638756386E+03  0.70455634845E+03  0.00000000000E+00 0.  1.
         -1    1    6    6    0  502  0.59185173360E+02 -0.12795779521E+03 -0.11144452534E+03  0.17971077967E+03  0.00000000000E+00 0.  1.
<mgrwt>
<rscale>  0 0.14479258E+04</rscale>
<asrwt>0</asrwt>
<pdfrwt beam="1">  1        1 0.96339976E-01 0.14479258E+04</pdfrwt>
<pdfrwt beam="2">  1       -1 0.12876545E+00 0.14479258E+04</pdfrwt>
<totfact> 0.16243677E+01</totfact>
</mgrwt>
</event>
<event>
12    1  0.2045212E-008  0.1343089E+04  0.7818608E-02  0.8996076E-01
         -1   -1    0    0    0  501 -0.00000000000E+00  0.00000000000E+00  0.21386198709E+03  0.21386198709E+03  0.00000000000E+00 0.  1.
          1   -1    0    0  501    0  0.00000000000E+00 -0.00000000000E+00 -0.21087066240E+04  0.21087066240E+04  0.00000000000E+00 0. -1.
         23    2    1    2    0    0 -0.28667437559E+02  0.21297320826E+03 -0.10295383299E+04  0.10556296709E+04  0.90694101764E+02 0.  0.
        254    2    1    2    0    0  0.28667437559E+02 -0.21297320826E+03 -0.86530630701E+03  0.12669389401E+04  0.90011102850E+03 0.  0.
        -24    2    4    4    0    0 -0.13636726530E+03  0.13904925270E+03  0.95858215687E+02  0.22701160067E+03  0.66443536956E+02 0.  0.
         24    2    4    4    0    0  0.16503470286E+03 -0.35202246096E+03 -0.96116452269E+03  0.10399273394E+04  0.80345289125E+02 0.  0.
         13    1    3    3    0    0 -0.11762941387E+02  0.14552829087E+03 -0.86133372113E+03  0.87362041493E+03  0.00000000000E+00 0. -1.
        -13    1    3    3    0    0 -0.16904496172E+02  0.67444917386E+02 -0.16820460874E+03  0.18200925601E+03  0.00000000000E+00 0.  1.
          2    1    6    6  502    0  0.15555006854E+03 -0.34484115873E+03 -0.95342664637E+03  0.10257356475E+04  0.00000000000E+00 0. -1.
          1    1    5    5  503    0 -0.96922533908E+02  0.59272294139E+02  0.33855570751E+02  0.11854696159E+03  0.00000000000E+00 0. -1.
         -2    1    5    5    0  503 -0.39444731391E+02  0.79776958560E+02  0.62002644936E+02  0.10846463908E+03  0.00000000000E+00 0.  1.
         -1    1    6    6    0  502  0.94846343218E+01 -0.71813022257E+01 -0.77378763173E+01  0.14191691928E+02  0.00000000000E+00 0.  1.
<mgrwt>
<rscale>  0 0.13430893E+04</rscale>
<asrwt>0</asrwt>
<pdfrwt beam="1">  1        1 0.32441640E+00 0.13430893E+04</pdfrwt>
<pdfrwt beam="2">  1       -1 0.32901844E-01 0.13430893E+04</pdfrwt>
<totfact> 0.21371358E+01</totfact>
</mgrwt>
</event>
<event>
12    1  0.2045212E-008  0.1559549E+04  0.7818608E-02  0.8845791E-01
          1   -1    0    0  501    0  0.00000000000E+00  0.00000000000E+00  0.16322008321E+04  0.16322008321E+04  0.00000000000E+00 0. -1.
         -1   -1    0    0    0  501 -0.00000000000E+00 -0.00000000000E+00 -0.37253271186E+03  0.37253271186E+03  0.00000000000E+00 0.  1.
         23    2    1    2    0    0 -0.32353661604E+02 -0.31117728688E+03 -0.10237735960E+03  0.34162669066E+03  0.91376193398E+02 0.  0.
        254    2    1    2    0    0  0.32353661604E+02  0.31117728688E+03  0.13620454798E+04  0.16631068533E+04  0.90159772239E+03 0.  0.
        -24    2    4    4    0    0  0.18894609039E+03  0.68828514882E+02  0.13442437821E+04  0.13629387684E+04  0.10086005812E+03 0.  0.
         24    2    4    4    0    0 -0.15659242879E+03  0.24234877200E+03  0.17801697744E+02  0.30016808484E+03  0.80807565674E+02 0.  0.
         11    1    3    3    0    0  0.18081194314E+02 -0.16859078210E+03 -0.84143972251E+02  0.18928811231E+03  0.00000000000E+00 0.  1.
        -11    1    3    3    0    0 -0.50434855918E+02 -0.14258650478E+03 -0.18233387348E+02  0.15233857834E+03  0.00000000000E+00 0. -1.
          2    1    6    6  502    0 -0.20884360162E+02  0.19459176449E+02  0.26668709634E+02  0.39064512297E+02  0.00000000000E+00 0. -1.
          1    1    5    5  503    0  0.88663875629E+01 -0.12095113269E+02  0.28878241019E+03  0.28917154948E+03  0.00000000000E+00 0. -1.
         -2    1    5    5    0  503  0.18007970283E+03  0.80923628152E+02  0.10554613719E+04  0.10737672189E+04  0.00000000000E+00 0.  1.
         -1    1    6    6    0  502 -0.13570806863E+03  0.22288959555E+03 -0.88670118892E+01  0.26110357254E+03  0.00000000000E+00 0.  1.
<mgrwt>
<rscale>  0 0.15595489E+04</rscale>
<asrwt>0</asrwt>
<pdfrwt beam="1">  1        1 0.25110782E+00 0.15595489E+04</pdfrwt>
<pdfrwt beam="2">  1       -1 0.57312726E-01 0.15595489E+04</pdfrwt>
<totfact> 0.15739516E+01</totfact>
</mgrwt>
</event>
<event>
11    1  0.2045212E-008  0.2313318E+04  0.7818608E-02  0.8472689E-01
         -2   -1    0    0    0  501 -0.00000000000E+00  0.00000000000E+00  0.74219532664E+03  0.74219532664E+03  0.00000000000E+00 0.  1.
          2   -1    0    0  501    0  0.00000000000E+00 -0.00000000000E+00 -0.18025709849E+04  0.18025709849E+04  0.00000000000E+00 0. -1.
         23    2    1    2    0    0  0.97843104017E+03 -0.10363435640E+02 -0.44588482072E+03  0.10794849266E+04  0.95077506890E+02 0.  0.
        254    2    1    2    0    0 -0.97843104017E+03  0.10363435640E+02 -0.61449083755E+03  0.14652813849E+04  0.90111921876E+03 0.  0.
         24    2    4    4    0    0 -0.10207319769E+04 -0.11189972508E+03 -0.60603452080E+03  0.11948594168E+04  0.77432992700E+02 0.  0.
         13    1    3    3    0    0  0.16121780089E+01 -0.16907774265E+01  0.35086671675E+01  0.42152807179E+01  0.00000000000E+00 0. -1.
        -13    1    3    3    0    0  0.97681886216E+03 -0.86726582134E+01 -0.44939348789E+03  0.10752696459E+04  0.00000000000E+00 0.  1.
          2    1    5    5  502    0 -0.10082014277E+04 -0.10517972643E+03 -0.58791247579E+03  0.11718250607E+04  0.00000000000E+00 0. -1.
          3    1    4    4  503    0  0.13199026326E+03  0.41895179491E+02 -0.43234004907E+02  0.14507175755E+03  0.00000000000E+00 0. -1.
         -4    1    4    4    0  503 -0.89689326572E+02  0.80367981233E+02  0.34777688157E+02  0.12535021062E+03  0.00000000000E+00 0.  1.
         -1    1    5    5    0  502 -0.12530549156E+02 -0.67199986573E+01 -0.18122045010E+02  0.23034356067E+02  0.00000000000E+00 0.  1.
<mgrwt>
<rscale>  0 0.23133178E+04</rscale>
<asrwt>0</asrwt>
<pdfrwt beam="1">  1        2 0.27731861E+00 0.23133178E+04</pdfrwt>
<pdfrwt beam="2">  1       -2 0.11418390E+00 0.23133178E+04</pdfrwt>
<totfact> 0.46735343E+00</totfact>
</mgrwt>
</event>
<event>
12    1  0.2045212E-008  0.1663772E+04  0.7818608E-02  0.8782301E-01
         -1   -1    0    0    0  501 -0.00000000000E+00  0.00000000000E+00  0.92695020325E+03  0.92695020325E+03  0.00000000000E+00 0.  1.
          1   -1    0    0  501    0  0.00000000000E+00 -0.00000000000E+00 -0.74657080606E+03  0.74657080606E+03  0.00000000000E+00 0. -1.
         23    2    1    2    0    0  0.30115382373E+03  0.25557071065E+03  0.49866946435E+03  0.64258932963E+03  0.90773334154E+02 0.  0.
        254    2    1    2    0    0 -0.30115382373E+03 -0.25557071065E+03 -0.31829006716E+03  0.10309316797E+04  0.89749738028E+03 0.  0.
        -24    2    4    4    0    0 -0.27161263950E+03 -0.23203593672E+03  0.25714215170E+03  0.44934707721E+03  0.90424597070E+02 0.  0.
         24    2    4    4    0    0 -0.29541184231E+02 -0.23534773930E+02 -0.57543221885E+03  0.58158460246E+03  0.75444311720E+02 0.  0.
         11    1    3    3    0    0  0.87035942666E+02  0.92510048558E+02  0.22734818556E+03  0.26042381204E+03  0.00000000000E+00 0. -1.
        -11    1    3    3    0    0  0.21411788106E+03  0.16306066210E+03  0.27132127879E+03  0.38216551760E+03  0.00000000000E+00 0.  1.
          2    1    6    6  502    0 -0.42834731660E+02 -0.21373632334E+02 -0.55531936146E+03  0.55737890130E+03  0.00000000000E+00 0. -1.
          3    1    5    5  503    0 -0.16458999099E+03 -0.19515539233E+03  0.17718745554E+03  0.31075856656E+03  0.00000000000E+00 0. -1.
         -4    1    5    5    0  503 -0.10702264851E+03 -0.36880544398E+02  0.79954696155E+02  0.13858851065E+03  0.00000000000E+00 0.  1.
         -1    1    6    6    0  502  0.13293547429E+02 -0.21611415958E+01 -0.20112857390E+02  0.24205701160E+02  0.00000000000E+00 0.  1.
<mgrwt>
<rscale>  0 0.16637716E+04</rscale>
<asrwt>0</asrwt>
<pdfrwt beam="1">  1        1 0.11485705E+00 0.16637716E+04</pdfrwt>
<pdfrwt beam="2">  1       -1 0.14260772E+00 0.16637716E+04</pdfrwt>
<totfact> 0.94031493E+00</totfact>
</mgrwt>
</event>
<event>
12    1  0.2045212E-008  0.1837665E+04  0.7818608E-02  0.8686522E-01
         -2   -1    0    0    0  501 -0.00000000000E+00  0.00000000000E+00  0.40593575559E+03  0.40593575559E+03  0.00000000000E+00 0.  1.
          2   -1    0    0  501    0  0.00000000000E+00 -0.00000000000E+00 -0.20797695406E+04  0.20797695406E+04  0.00000000000E+00 0. -1.
         23    2    1    2    0    0  0.99340132465E+02 -0.80554676424E+02  0.28955268764E+03  0.32889370837E+03  0.89290507166E+02 0.  0.
        254    2    1    2    0    0 -0.99340132465E+02  0.80554676424E+02 -0.19633864727E+04  0.21568115878E+04  0.88351132791E+03 0.  0.
        -24    2    4    4    0    0 -0.29248934725E+03 -0.20658286838E+03 -0.36682971844E+03  0.52123781385E+03  0.94330888358E+02 0.  0.
         24    2    4    4    0    0  0.19314921479E+03  0.28713754481E+03 -0.15965567542E+04  0.16355737740E+04  0.79708919445E+02 0.  0.
         13    1    3    3    0    0  0.10672559646E+03 -0.54124952640E+02  0.18140927111E+03  0.21732277166E+03  0.00000000000E+00 0. -1.
        -13    1    3    3    0    0 -0.73854639952E+01 -0.26429723785E+02  0.10814341654E+03  0.11157093671E+03  0.00000000000E+00 0.  1.
          4    1    6    6  502    0  0.64835942227E+02  0.13141026188E+03 -0.51911155223E+03  0.53939703372E+03  0.00000000000E+00 0. -1.
          3    1    5    5  503    0 -0.36436261363E+02 -0.66687944088E+02 -0.10200206116E+03  0.12719789114E+03  0.00000000000E+00 0. -1.
         -4    1    5    5    0  503 -0.25605308589E+03 -0.13989492429E+03 -0.26482765728E+03  0.39403992272E+03  0.00000000000E+00 0.  1.
         -3    1    6    6    0  502  0.12831327256E+03  0.15572728293E+03 -0.10774452020E+04  0.10961767403E+04  0.00000000000E+00 0.  1.
<mgrwt>
<rscale>  0 0.18376646E+04</rscale>
<asrwt>0</asrwt>
<pdfrwt beam="1">  1        2 0.31996454E+00 0.18376646E+04</pdfrwt>
<pdfrwt beam="2">  1       -2 0.62451656E-01 0.18376646E+04</pdfrwt>
<totfact> 0.13502308E+01</totfact>
</mgrwt>
</event>
<event>
12    1  0.2045212E-008  0.2131666E+04  0.7818608E-02  0.8547421E-01
         -1   -1    0    0    0  501 -0.00000000000E+00  0.00000000000E+00  0.50444124008E+03  0.50444124008E+03  0.00000000000E+00 0.  1.
          1   -1    0    0  501    0  0.00000000000E+00 -0.00000000000E+00 -0.22519958425E+04  0.22519958425E+04  0.00000000000E+00 0. -1.
         23    2    1    2    0    0 -0.10377285105E+03 -0.15691687077E+02 -0.18362021708E+04  0.18415510404E+04  0.93041866330E+02 0.  0.
        254    2    1    2    0    0  0.10377285105E+03  0.15691687077E+02  0.88647568400E+02  0.91488604211E+03  0.90451260080E+03 0.  0.
        -24    2    4    4    0    0 -0.37895049280E+03 -0.10577226659E+03  0.70563949122E+02  0.41034772419E+03  0.92815599243E+02 0.  0.
         24    2    4    4    0    0  0.48272334385E+03  0.12146395366E+03  0.18083619278E+02  0.50453831792E+03  0.80352835820E+02 0.  0.
         13    1    3    3    0    0 -0.11138050934E+03 -0.36873603890E+02 -0.15896191486E+04  0.15939430097E+04  0.00000000000E+00 0. -1.
        -13    1    3    3    0    0  0.76076582954E+01  0.21181916813E+02 -0.24658302218E+03  0.24760803075E+03  0.00000000000E+00 0.  1.
          4    1    6    6  502    0  0.17985813157E+02  0.13823709033E+02 -0.13596834850E+02  0.26447274421E+02  0.00000000000E+00 0. -1.
          1    1    5    5  503    0 -0.31182397902E+03 -0.10113792829E+03  0.90666342419E+02  0.34012271327E+03  0.00000000000E+00 0. -1.
         -2    1    5    5    0  503 -0.67126513778E+02 -0.46343382961E+01 -0.20102393297E+02  0.70225010927E+02  0.00000000000E+00 0.  1.
         -3    1    6    6    0  502  0.46473753069E+03  0.10764024463E+03  0.31680454129E+02  0.47809104350E+03  0.00000000000E+00 0.  1.
<mgrwt>
<rscale>  0 0.21316656E+04</rscale>
<asrwt>0</asrwt>
<pdfrwt beam="1">  1        1 0.34646090E+00 0.21316656E+04</pdfrwt>
<pdfrwt beam="2">  1       -1 0.77606345E-01 0.21316656E+04</pdfrwt>
<totfact> 0.30632512E+00</totfact>
</mgrwt>
</event>
<event>
12    1  0.2045212E-008  0.1502001E+04  0.7818608E-02  0.8883123E-01
         -2   -1    0    0    0  501 -0.00000000000E+00  0.00000000000E+00  0.80157454368E+03  0.80157454368E+03  0.00000000000E+00 0.  1.
          2   -1    0    0  501    0  0.00000000000E+00 -0.00000000000E+00 -0.70361777441E+03  0.70361777441E+03  0.00000000000E+00 0. -1.
         23    2    1    2    0    0  0.28873228710E+03  0.16546948162E+03  0.36796154519E+03  0.50479507013E+03  0.93144410078E+02 0.  0.
        254    2    1    2    0    0 -0.28873228710E+03 -0.16546948162E+03 -0.27000477591E+03  0.10003972480E+04  0.90396105654E+03 0.  0.
        -24    2    4    4    0    0 -0.55609006899E+03  0.82511018162E+02 -0.26050094562E+03  0.62660650521E+03  0.93438411582E+02 0.  0.
         24    2    4    4    0    0  0.26735778189E+03 -0.24798049978E+03 -0.95038302983E+01  0.37379074275E+03  0.81576251236E+02 0.  0.
         13    1    3    3    0    0  0.22891043844E+02  0.46640132366E+02  0.79071130696E+02  0.94612607748E+02  0.00000000000E+00 0. -1.
        -13    1    3    3    0    0  0.26584124326E+03  0.11882934925E+03  0.28889041449E+03  0.41018246238E+03  0.00000000000E+00 0.  1.
          2    1    6    6  502    0  0.21357434438E+03 -0.23536986318E+03 -0.15633446767E+02  0.31820964431E+03  0.00000000000E+00 0. -1.
          1    1    5    5  503    0 -0.48344416411E+03  0.46073838766E+02 -0.24474757499E+03  0.54382206087E+03  0.00000000000E+00 0. -1.
         -2    1    5    5    0  503 -0.72645904881E+02  0.36437179396E+02 -0.15753370630E+02  0.82784444339E+02  0.00000000000E+00 0.  1.
         -1    1    6    6    0  502  0.53783437511E+02 -0.12610636595E+02  0.61296164687E+01  0.55581098440E+02  0.00000000000E+00 0.  1.
<mgrwt>
<rscale>  0 0.15020015E+04</rscale>
<asrwt>0</asrwt>
<pdfrwt beam="1">  1        2 0.10824889E+00 0.15020015E+04</pdfrwt>
<pdfrwt beam="2">  1       -2 0.12331916E+00 0.15020015E+04</pdfrwt>
<totfact> 0.19502676E+01</totfact>
</mgrwt>
</event>
<event>
12    1  0.2045212E-008  0.1713722E+04  0.7818608E-02  0.8753577E-01
         -1   -1    0    0    0  501 -0.00000000000E+00  0.00000000000E+00  0.30047291661E+04  0.30047291661E+04  0.00000000000E+00 0.  1.
          1   -1    0    0  501    0  0.00000000000E+00 -0.00000000000E+00 -0.24435164403E+03  0.24435164403E+03  0.00000000000E+00 0. -1.
         23    2    1    2    0    0 -0.69792668765E+02  0.28042028909E+03 -0.29781470240E+02  0.30371698055E+03  0.88603121612E+02 0.  0.
        254    2    1    2    0    0  0.69792668765E+02 -0.28042028909E+03  0.27901589923E+04  0.29453638296E+04  0.89815050580E+03 0.  0.
        -24    2    4    4    0    0  0.33836129846E+03 -0.28987012211E+03  0.25034610431E+04  0.25445829928E+04  0.95248920233E+02 0.  0.
         24    2    4    4    0    0 -0.26856862970E+03  0.94498330185E+01  0.28669794916E+03  0.40078083675E+03  0.78810892994E+02 0.  0.
         11    1    3    3    0    0 -0.35702506117E+02  0.23073631828E+03 -0.52516977310E+02  0.23931558750E+03  0.00000000000E+00 0. -1.
        -11    1    3    3    0    0 -0.34090162648E+02  0.49683970810E+02  0.22735507070E+02  0.64401393048E+02  0.00000000000E+00 0.  1.
          2    1    6    6  502    0 -0.12806133223E+03  0.33486878579E+02  0.10005260331E+03  0.16592648758E+03  0.00000000000E+00 0. -1.
          3    1    5    5  503    0  0.21260388593E+03 -0.23876532370E+03  0.17252519270E+04  0.17546234650E+04  0.00000000000E+00 0. -1.
         -4    1    5    5    0  503  0.12575741254E+03 -0.51104798402E+02  0.77820911611E+03  0.78995952784E+03  0.00000000000E+00 0.  1.
         -1    1    6    6    0  502 -0.14050729747E+03 -0.24037045561E+02  0.18664534585E+03  0.23485434918E+03  0.00000000000E+00 0.  1.
<mgrwt>
<rscale>  0 0.17137217E+04</rscale>
<asrwt>0</asrwt>
<pdfrwt beam="1">  1        1 0.37592563E-01 0.17137217E+04</pdfrwt>
<pdfrwt beam="2">  1       -1 0.46226600E+00 0.17137217E+04</pdfrwt>
<totfact> 0.29082200E-01</totfact>
</mgrwt>
</event>
<event>
12    1  0.2045212E-008  0.2339330E+04  0.7818608E-02  0.8462573E-01
          4   -1    0    0  501    0  0.00000000000E+00  0.00000000000E+00  0.10895083632E+04  0.10895083632E+04  0.00000000000E+00 0. -1.
         -4   -1    0    0    0  501 -0.00000000000E+00 -0.00000000000E+00 -0.12557187701E+04  0.12557187701E+04  0.00000000000E+00 0.  1.
         23    2    1    2    0    0 -0.51927487359E+03 -0.60858126460E+03  0.52782496719E+03  0.96285812644E+03  0.92081625205E+02 0.  0.
        254    2    1    2    0    0  0.51927487359E+03  0.60858126460E+03 -0.69403537410E+03  0.13823690069E+04  0.88839260514E+03 0.  0.
        -24    2    4    4    0    0  0.50980762116E+03  0.64528366838E+02 -0.26760225857E+02  0.51769868152E+03  0.56816321878E+02 0.  0.
         24    2    4    4    0    0  0.94672524244E+01  0.54405289776E+03 -0.66727514825E+03  0.86467032542E+03  0.79469892175E+02 0.  0.
         13    1    3    3    0    0 -0.35466331705E+03 -0.34993394429E+03  0.34264754197E+03  0.60468766470E+03  0.00000000000E+00 0. -1.
        -13    1    3    3    0    0 -0.16461155654E+03 -0.25864732031E+03  0.18517742522E+03  0.35817046174E+03  0.00000000000E+00 0.  1.
          4    1    6    6  502    0  0.36908358128E+02  0.16290324481E+03 -0.18267628872E+03  0.24752842368E+03  0.00000000000E+00 0. -1.
          3    1    5    5  503    0  0.41592156513E+03  0.62957181362E+02 -0.22992997851E+01  0.42066571266E+03  0.00000000000E+00 0. -1.
         -4    1    5    5    0  503  0.93886056033E+02  0.15711854763E+01 -0.24460926072E+02  0.97032968859E+02  0.00000000000E+00 0.  1.
         -3    1    6    6    0  502 -0.27441105703E+02  0.38114965295E+03 -0.48459885953E+03  0.61714190174E+03  0.00000000000E+00 0.  1.
<mgrwt>
<rscale>  0 0.23393299E+04</rscale>
<asrwt>0</asrwt>
<pdfrwt beam="1">  1        4 0.16761667E+00 0.23393299E+04</pdfrwt>
<pdfrwt beam="2">  1       -4 0.19318750E+00 0.23393299E+04</pdfrwt>
<totfact> 0.58007110E-02</totfact>
</mgrwt>
</event>
<event>
11    1  0.2045212E-008  0.1704821E+04  0.7818608E-02  0.8758619E-01
         -2   -1    0    0    0  501 -0.00000000000E+00  0.00000000000E+00  0.22888901084E+03  0.22888901084E+03  0.00000000000E+00 0.  1.
          2   -1    0    0  501    0  0.00000000000E+00 -0.00000000000E+00 -0.31744811373E+04  0.31744811373E+04  0.00000000000E+00 0. -1.
         23    2    1    2    0    0  0.32831612024E+03  0.50772029599E+03 -0.10980095291E+04  0.12567613235E+04  0.90844507752E+02 0.  0.
        254    2    1    2    0    0 -0.32831612024E+03 -0.50772029599E+03 -0.18475825974E+04  0.21466088246E+04  0.91038267668E+03 0.  0.
         24    2    4    4    0    0 -0.44492708358E+03 -0.16963673838E+03 -0.15603615947E+04  0.16333734442E+04  0.80273091678E+02 0.  0.
         11    1    3    3    0    0  0.20305103946E+03  0.38842226530E+03 -0.77533402383E+03  0.89064270576E+03  0.00000000000E+00 0.  1.
        -11    1    3    3    0    0  0.12526508078E+03  0.11929803069E+03 -0.32267550525E+03  0.36611861777E+03  0.00000000000E+00 0. -1.
          2    1    5    5  502    0 -0.10714497016E+02 -0.32416948160E+01 -0.10837109699E+02  0.15580499934E+02  0.00000000000E+00 0. -1.
          3    1    4    4  503    0 -0.16768204434E+02  0.17739713117E+02  0.14168335655E+02  0.28224312864E+02  0.00000000000E+00 0. -1.
         -4    1    4    4    0  503  0.13337916778E+03 -0.35582327073E+03 -0.30138933830E+03  0.48501106753E+03  0.00000000000E+00 0.  1.
         -1    1    5    5    0  502 -0.43421258657E+03 -0.16639504356E+03 -0.15495244850E+04  0.16177929443E+04  0.00000000000E+00 0.  1.
<mgrwt>
<rscale>  0 0.17048212E+04</rscale>
<asrwt>0</asrwt>
<pdfrwt beam="1">  1        2 0.48838170E+00 0.17048212E+04</pdfrwt>
<pdfrwt beam="2">  1       -2 0.35213695E-01 0.17048212E+04</pdfrwt>
<totfact> 0.97658893E+00</totfact>
</mgrwt>
</event>
<event>
12    1  0.2384859E-008  0.1356358E+04  0.7818608E-02  0.8986029E-01
          2   -1    0    0  501    0  0.00000000000E+00  0.00000000000E+00  0.17728453259E+04  0.17728453259E+04  0.00000000000E+00 0. -1.
         -2   -1    0    0    0  501 -0.00000000000E+00 -0.00000000000E+00 -0.25942843028E+03  0.25942843028E+03  0.00000000000E+00 0.  1.
         23    2    1    2    0    0  0.33719474390E+03 -0.15379573117E+03  0.42931602116E+03  0.57440006124E+03  0.90938232277E+02 0.  0.
        254    2    1    2    0    0 -0.33719474390E+03  0.15379573117E+03  0.10841008745E+04  0.14578736950E+04  0.90153623454E+03 0.  0.
        -24    2    4    4    0    0 -0.29197946908E+03 -0.15680906667E+03  0.10788595927E+04  0.11336808849E+04  0.10701978433E+03 0.  0.
         24    2    4    4    0    0 -0.45215274822E+02  0.31060479784E+03  0.52412817356E+01  0.32419281004E+03  0.80955206923E+02 0.  0.
         11    1    3    3    0    0  0.30457856645E+02  0.11014260530E+02  0.25762662025E+02  0.41384897258E+02  0.00000000000E+00 0. -1.
        -11    1    3    3    0    0  0.30673688725E+03 -0.16480999170E+03  0.40355335914E+03  0.53301516399E+03  0.00000000000E+00 0.  1.
          2    1    6    6  502    0 -0.67074977426E+02  0.26158851974E+03 -0.18438540038E+01  0.27005741251E+03  0.00000000000E+00 0. -1.
          1    1    5    5  503    0 -0.27460109701E+03 -0.11059213052E+03  0.96953440716E+03  0.10137225205E+04  0.00000000000E+00 0. -1.
         -2    1    5    5    0  503 -0.17378372063E+02 -0.46216936156E+02  0.10932518558E+03  0.11995836447E+03  0.00000000000E+00 0.  1.
         -3    1    6    6    0  502  0.21859702603E+02  0.49016278102E+02  0.70851357394E+01  0.54135397526E+02  0.00000000000E+00 0.  1.
<mgrwt>
<rscale>  0 0.13563576E+04</rscale>
<asrwt>0</asrwt>
<pdfrwt beam="1">  1        2 0.27274543E+00 0.13563576E+04</pdfrwt>
<pdfrwt beam="2">  1       -2 0.39912067E-01 0.13563576E+04</pdfrwt>
<totfact> 0.51808793E+01</totfact>
</mgrwt>
</event>
<event>
12    1  0.2045212E-008  0.1455806E+04  0.7818608E-02  0.8914385E-01
          1   -1    0    0  501    0  0.00000000000E+00  0.00000000000E+00  0.51412148590E+03  0.51412148590E+03  0.00000000000E+00 0. -1.
         -1   -1    0    0    0  501 -0.00000000000E+00 -0.00000000000E+00 -0.10305795780E+04  0.10305795780E+04  0.00000000000E+00 0.  1.
         23    2    1    2    0    0 -0.35081119360E+02  0.28189445066E+03  0.20622995622E+03  0.36256013641E+03  0.90685673745E+02 0.  0.
        254    2    1    2    0    0  0.35081119360E+02 -0.28189445066E+03 -0.72268804828E+03  0.11821409274E+04  0.89133831453E+03 0.  0.
        -24    2    4    4    0    0 -0.12566532528E+03 -0.50049637833E+03 -0.14673098452E+03  0.54046693941E+03  0.65468557898E+02 0.  0.
         24    2    4    4    0    0  0.16074644464E+03  0.21860192767E+03 -0.57595706376E+03  0.64167398803E+03  0.79954645713E+02 0.  0.
         13    1    3    3    0    0  0.20980205695E+02  0.36659539291E+02  0.53878369245E+02  0.68461445534E+02  0.00000000000E+00 0.  1.
        -13    1    3    3    0    0 -0.56061325055E+02  0.24523491137E+03  0.15235158698E+03  0.29409869088E+03  0.00000000000E+00 0. -1.
          2    1    6    6  502    0  0.13892036344E+03  0.20980209672E+03 -0.55787215538E+03  0.61199438634E+03  0.00000000000E+00 0. -1.
          1    1    5    5  503    0 -0.59932929234E+02 -0.29580523382E+03 -0.55272524145E+02  0.30683504410E+03  0.00000000000E+00 0. -1.
         -2    1    5    5    0  503 -0.65732396046E+02 -0.20469114451E+03 -0.91458460371E+02  0.23363189531E+03  0.00000000000E+00 0.  1.
         -1    1    6    6    0  502  0.21826081198E+02  0.87998309455E+01 -0.18084908389E+02  0.29679601692E+02  0.00000000000E+00 0.  1.
<mgrwt>
<rscale>  0 0.14558064E+04</rscale>
<asrwt>0</asrwt>
<pdfrwt beam="1">  1        1 0.79095614E-01 0.14558064E+04</pdfrwt>
<pdfrwt beam="2">  1       -1 0.15855070E+00 0.14558064E+04</pdfrwt>
<totfact> 0.12408331E+01</totfact>
</mgrwt>
</event>
<event>
12    1  0.2045212E-008  0.1440697E+04  0.7818608E-02  0.8924876E-01
          1   -1    0    0  501    0  0.00000000000E+00  0.00000000000E+00  0.49945711339E+03  0.49945711339E+03  0.00000000000E+00 0. -1.
         -1   -1    0    0    0  501 -0.00000000000E+00 -0.00000000000E+00 -0.10389319750E+04  0.10389319750E+04  0.00000000000E+00 0.  1.
         23    2    1    2    0    0  0.12170326321E+03  0.19209888298E+03 -0.54637419213E+03  0.59858353250E+03  0.89798788645E+02 0.  0.
        254    2    1    2    0    0 -0.12170326321E+03 -0.19209888298E+03  0.68993304714E+01  0.93980555593E+03  0.91185153236E+03 0.  0.
        -24    2    4    4    0    0  0.16943337917E+03  0.74626170024E+02  0.35225960908E+03  0.40909118043E+03  0.94826296376E+02 0.  0.
         24    2    4    4    0    0 -0.29113664238E+03 -0.26672505300E+03 -0.34536027861E+03  0.53071437550E+03  0.80506073624E+02 0.  0.
         11    1    3    3    0    0  0.80655327648E+02  0.62057986517E+02 -0.30268239156E+03  0.31933228106E+03  0.00000000000E+00 0.  1.
        -11    1    3    3    0    0  0.41047935560E+02  0.13004089646E+03 -0.24369180057E+03  0.27925125144E+03  0.00000000000E+00 0. -1.
          2    1    6    6  502    0 -0.25303094925E+03 -0.21404255080E+03 -0.24928946347E+03  0.41470967125E+03  0.00000000000E+00 0. -1.
          1    1    5    5  503    0  0.14682316412E+03  0.29368637618E+02  0.20853480848E+03  0.25672227162E+03  0.00000000000E+00 0. -1.
         -2    1    5    5    0  503  0.22610215053E+02  0.45257532405E+02  0.14372480060E+03  0.15236890881E+03  0.00000000000E+00 0.  1.
         -1    1    6    6    0  502 -0.38105693125E+02 -0.52682502199E+02 -0.96070815138E+02  0.11600470425E+03  0.00000000000E+00 0.  1.
<mgrwt>
<rscale>  0 0.14406970E+04</rscale>
<asrwt>0</asrwt>
<pdfrwt beam="1">  1        1 0.76839556E-01 0.14406970E+04</pdfrwt>
<pdfrwt beam="2">  1       -1 0.15983569E+00 0.14406970E+04</pdfrwt>
<totfact> 0.12644397E+01</totfact>
</mgrwt>
</event>
<event>
11    1  0.2045212E-008  0.1534269E+04  0.7818608E-02  0.8861979E-01
          2   -1    0    0  501    0  0.00000000000E+00  0.00000000000E+00  0.11038268181E+04  0.11038268181E+04  0.00000000000E+00 0. -1.
         -2   -1    0    0    0  501 -0.00000000000E+00 -0.00000000000E+00 -0.53314107305E+03  0.53314107305E+03  0.00000000000E+00 0.  1.
         23    2    1    2    0    0 -0.14166663158E+03  0.10801113967E+03  0.68615573616E+03  0.71470493160E+03  0.90871360675E+02 0.  0.
        254    2    1    2    0    0  0.14166663158E+03 -0.10801113967E+03 -0.11546999107E+03  0.92226295959E+03  0.89749641057E+03 0.  0.
         24    2    4    4    0    0 -0.11776102078E+02  0.17375680854E+03  0.31739591190E+03  0.37060836794E+03  0.79248295908E+02 0.  0.
         11    1    3    3    0    0 -0.27310472719E+02 -0.71494437347E+01  0.20455289139E+03  0.20649179606E+03  0.00000000000E+00 0.  1.
        -11    1    3    3    0    0 -0.11435615886E+03  0.11516058341E+03  0.48160284478E+03  0.50821313554E+03  0.00000000000E+00 0. -1.
          4    1    5    5  502    0 -0.38848204303E+02  0.43858793815E+02  0.92999971370E+02  0.10991711171E+03  0.00000000000E+00 0. -1.
          3    1    4    4  503    0 -0.15095539186E+02 -0.14858192662E+02 -0.86540597796E+01  0.22880864126E+02  0.00000000000E+00 0. -1.
         -4    1    4    4    0  503  0.16853827284E+03 -0.26690975555E+03 -0.42421184319E+03  0.52877372752E+03  0.00000000000E+00 0.  1.
         -3    1    5    5    0  502  0.27072102225E+02  0.12989801472E+03  0.22439594053E+03  0.26069125623E+03  0.00000000000E+00 0.  1.
<mgrwt>
<rscale>  0 0.15342691E+04</rscale>
<asrwt>0</asrwt>
<pdfrwt beam="1">  1        2 0.16981951E+00 0.15342691E+04</pdfrwt>
<pdfrwt beam="2">  1       -2 0.82021704E-01 0.15342691E+04</pdfrwt>
<totfact> 0.27288688E+01</totfact>
</mgrwt>
</event>
<event>
12    1  0.2045212E-008  0.1218708E+04  0.7818608E-02  0.9096637E-01
          2   -1    0    0  501    0  0.00000000000E+00  0.00000000000E+00  0.31033246400E+04  0.31033246400E+04  0.00000000000E+00 0. -1.
         -2   -1    0    0    0  501 -0.00000000000E+00 -0.00000000000E+00 -0.11964990973E+03  0.11964990973E+03  0.00000000000E+00 0.  1.
         23    2    1    2    0    0 -0.17375144884E+03 -0.16757805988E+03  0.92449895545E+03  0.95998898103E+03  0.92782287910E+02 0.  0.
        254    2    1    2    0    0  0.17375144884E+03  0.16757805988E+03  0.20591757749E+04  0.22629855687E+04  0.90698778407E+03 0.  0.
        -24    2    4    4    0    0 -0.24687607395E+03 -0.21896898744E+03  0.58933693466E+03  0.68402513966E+03  0.10806088923E+03 0.  0.
         24    2    4    4    0    0  0.42062752279E+03  0.38654704732E+03  0.14698388402E+04  0.15789604291E+04  0.79647270658E+02 0.  0.
         13    1    3    3    0    0 -0.75143058408E+02 -0.90936121753E+02  0.28570074858E+03  0.30909670850E+03  0.00000000000E+00 0.  1.
        -13    1    3    3    0    0 -0.98608390436E+02 -0.76641938129E+02  0.63879820687E+03  0.65089227253E+03  0.00000000000E+00 0. -1.
          2    1    6    6  502    0  0.68733007077E+02  0.37418299346E+02  0.25956951947E+03  0.27111010831E+03  0.00000000000E+00 0. -1.
          3    1    5    5  503    0 -0.23031196170E+02 -0.24518357529E+02  0.13334886007E+02  0.36185702118E+02  0.00000000000E+00 0. -1.
         -4    1    5    5    0  503 -0.22384487778E+03 -0.19445062991E+03  0.57600204865E+03  0.64783943754E+03  0.00000000000E+00 0.  1.
         -1    1    6    6    0  502  0.35189451572E+03  0.34912874798E+03  0.12102693207E+04  0.13078503208E+04  0.00000000000E+00 0.  1.
<mgrwt>
<rscale>  0 0.12187084E+04</rscale>
<asrwt>0</asrwt>
<pdfrwt beam="1">  1        2 0.47743450E+00 0.12187084E+04</pdfrwt>
<pdfrwt beam="2">  1       -2 0.18407681E-01 0.12187084E+04</pdfrwt>
<totfact> 0.37056079E+01</totfact>
</mgrwt>
</event>
<event>
12    1  0.2045212E-008  0.2332694E+04  0.7818608E-02  0.8465141E-01
         -2   -1    0    0    0  501 -0.00000000000E+00  0.00000000000E+00  0.15155800813E+04  0.15155800813E+04  0.00000000000E+00 0. -1.
          2   -1    0    0  501    0  0.00000000000E+00 -0.00000000000E+00 -0.89758755410E+03  0.89758755410E+03  0.00000000000E+00 0.  1.
         23    2    1    2    0    0 -0.17340789748E+03 -0.11869858535E+03 -0.73751046766E+03  0.77229439177E+03  0.91418185129E+02 0.  0.
        254    2    1    2    0    0  0.17340789748E+03  0.11869858535E+03  0.13555029948E+04  0.16408732436E+04  0.90050928895E+03 0.  0.
        -24    2    4    4    0    0 -0.34691383907E+03  0.11559545580E+03  0.37178516504E+03  0.52515483942E+03  0.62063477851E+02 0.  0.
         24    2    4    4    0    0  0.52032173655E+03  0.31031295484E+01  0.98371782978E+03  0.11157184042E+04  0.79890236085E+02 0.  0.
         13    1    3    3    0    0 -0.10482158336E+03 -0.31488944949E+02 -0.26064628864E+03  0.28269348378E+03  0.00000000000E+00 0. -1.
        -13    1    3    3    0    0 -0.68586314114E+02 -0.87209640400E+02 -0.47686417902E+03  0.48960090798E+03  0.00000000000E+00 0.  1.
          4    1    6    6  502    0  0.39963108566E+03 -0.15158216338E+02  0.68782706603E+03  0.79563864217E+03  0.00000000000E+00 0. -1.
          3    1    5    5  503    0 -0.18332956953E+03  0.79061131195E+02  0.23830358857E+03  0.31088421294E+03  0.00000000000E+00 0. -1.
         -2    1    5    5    0  503 -0.16358426954E+03  0.36534324605E+02  0.13348157647E+03  0.21427062648E+03  0.00000000000E+00 0.  1.
         -3    1    6    6    0  502  0.12069065089E+03  0.18261345887E+02  0.29589076375E+03  0.32007976200E+03  0.00000000000E+00 0.  1.
<mgrwt>
<rscale>  0 0.23326944E+04</rscale>
<asrwt>0</asrwt>
<pdfrwt beam="1">  1        2 0.13809039E+00 0.23326944E+04</pdfrwt>
<pdfrwt beam="2">  1       -2 0.23316617E+00 0.23326944E+04</pdfrwt>
<totfact> 0.21734300E+00</totfact>
</mgrwt>
</event>
<event>
11    1  0.2045212E-008  0.1956554E+04  0.7818608E-02  0.8627207E-01
         -2   -1    0    0    0  501 -0.00000000000E+00  0.00000000000E+00  0.30117907782E+03  0.30117907782E+03  0.00000000000E+00 0.  1.
          2   -1    0    0  501    0  0.00000000000E+00 -0.00000000000E+00 -0.31775974960E+04  0.31775974960E+04  0.00000000000E+00 0. -1.
         23    2    1    2    0    0  0.13238642032E+03 -0.69110692589E+03 -0.14883799155E+04  0.16485872312E+04  0.86082162646E+02 0.  0.
        254    2    1    2    0    0 -0.13238642032E+03  0.69110692589E+03 -0.13880385027E+04  0.18301893427E+04  0.96321710826E+03 0.  0.
         24    2    4    4    0    0  0.30124549348E+03  0.67310237057E+03 -0.88132899842E+03  0.11515590500E+04  0.74376028132E+02 0.  0.
         11    1    3    3    0    0  0.38578508954E+02 -0.14399239162E+03 -0.39889721352E+03  0.42584163389E+03  0.00000000000E+00 0. -1.
        -11    1    3    3    0    0  0.93807911366E+02 -0.54711453427E+03 -0.10894827020E+04  0.12227455973E+04  0.00000000000E+00 0.  1.
          2    1    5    5  502    0  0.12938457221E+03  0.21463644691E+03 -0.32622882612E+03  0.41138111145E+03  0.00000000000E+00 0. -1.
          3    1    4    4  503    0 -0.12798999120E+03  0.61320830979E+02 -0.17877408197E+03  0.22825830663E+03  0.00000000000E+00 0. -1.
         -2    1    4    4    0  503 -0.30564192260E+03 -0.43316275662E+02 -0.32793542234E+03  0.45037198604E+03  0.00000000000E+00 0.  1.
         -1    1    5    5    0  502  0.17186092127E+03  0.45846592367E+03 -0.55510017230E+03  0.74017793855E+03  0.00000000000E+00 0.  1.
<mgrwt>
<rscale>  0 0.19565540E+04</rscale>
<asrwt>0</asrwt>
<pdfrwt beam="1">  1        2 0.48886117E+00 0.19565540E+04</pdfrwt>
<pdfrwt beam="2">  1       -2 0.46335242E-01 0.19565540E+04</pdfrwt>
<totfact> 0.55421986E+00</totfact>
</mgrwt>
</event>
<event>
11    1  0.2045212E-008  0.1918506E+04  0.7818608E-02  0.8645699E-01
          2   -1    0    0  501    0  0.00000000000E+00  0.00000000000E+00  0.20682890714E+04  0.20682890714E+04  0.00000000000E+00 0. -1.
         -2   -1    0    0    0  501 -0.00000000000E+00 -0.00000000000E+00 -0.44489257586E+03  0.44489257586E+03  0.00000000000E+00 0.  1.
         23    2    1    2    0    0  0.12794741441E+03  0.69391020334E+03  0.30548629055E+03  0.77406164356E+03  0.89261655596E+02 0.  0.
        254    2    1    2    0    0 -0.12794741441E+03 -0.69391020334E+03  0.13179102050E+04  0.17391200037E+04  0.88868957892E+03 0.  0.
         24    2    4    4    0    0 -0.35337312261E+03 -0.33747139253E+03  0.30416075522E+03  0.58053217809E+03  0.75791425771E+02 0.  0.
         13    1    3    3    0    0  0.12495327678E+03  0.63139920361E+03  0.25022534626E+03  0.69057295024E+03  0.00000000000E+00 0.  1.
        -13    1    3    3    0    0  0.29941376289E+01  0.62510999735E+02  0.55260944294E+02  0.83488693320E+02  0.00000000000E+00 0. -1.
          4    1    5    5  502    0 -0.54109544943E+02 -0.73143635577E+02  0.87604077125E+02  0.12630244894E+03  0.00000000000E+00 0. -1.
          3    1    4    4  503    0  0.18572522060E+03 -0.88790808935E+02  0.76090825137E+03  0.78826330139E+03  0.00000000000E+00 0. -1.
         -4    1    4    4    0  503  0.39700487601E+02 -0.26764800187E+03  0.25284119840E+03  0.37032452421E+03  0.00000000000E+00 0.  1.
         -3    1    5    5    0  502 -0.29926357767E+03 -0.26432775696E+03  0.21655667809E+03  0.45422972915E+03  0.00000000000E+00 0.  1.
<mgrwt>
<rscale>  0 0.19185061E+04</rscale>
<asrwt>0</asrwt>
<pdfrwt beam="1">  1        2 0.31819831E+00 0.19185061E+04</pdfrwt>
<pdfrwt beam="2">  1       -2 0.68445013E-01 0.19185061E+04</pdfrwt>
<totfact> 0.11174173E+01</totfact>
</mgrwt>
</event>
<event>
11    1  0.2045212E-008  0.2317708E+04  0.7818608E-02  0.8470972E-01
          2   -1    0    0  501    0  0.00000000000E+00  0.00000000000E+00  0.13334922246E+04  0.13334922246E+04  0.00000000000E+00 0. -1.
         -2   -1    0    0    0  501 -0.00000000000E+00 -0.00000000000E+00 -0.10070865131E+04  0.10070865131E+04  0.00000000000E+00 0.  1.
         23    2    1    2    0    0  0.46746048466E+03  0.53896393644E+03 -0.55121601337E+03  0.90610746613E+03  0.90499819246E+02 0.  0.
        254    2    1    2    0    0 -0.46746048466E+03 -0.53896393644E+03  0.87762172491E+03  0.14344712716E+04  0.88231882415E+03 0.  0.
         24    2    4    4    0    0 -0.19801170457E+03 -0.58866891883E+03  0.93135028943E+03  0.11222527823E+04  0.79361291975E+02 0.  0.
         13    1    3    3    0    0  0.38430946126E+03  0.39036508607E+03 -0.44123791583E+03  0.70339857890E+03  0.00000000000E+00 0.  1.
        -13    1    3    3    0    0  0.83151023398E+02  0.14859885036E+03 -0.10997809754E+03  0.20270888723E+03  0.00000000000E+00 0. -1.
          2    1    5    5  502    0 -0.40647823921E+02 -0.52315974625E+02  0.11849595041E+03  0.13575896675E+03  0.00000000000E+00 0. -1.
          1    1    4    4  503    0 -0.91844446764E+02 -0.50348072481E+01  0.44307506673E+02  0.10209753588E+03  0.00000000000E+00 0. -1.
         -2    1    4    4    0  503 -0.17760433332E+03  0.54739789646E+02 -0.98036071202E+02  0.21012095336E+03  0.00000000000E+00 0.  1.
         -1    1    5    5    0  502 -0.15736388065E+03 -0.53635294421E+03  0.81285433903E+03  0.98649381558E+03  0.00000000000E+00 0.  1.
<mgrwt>
<rscale>  0 0.23177075E+04</rscale>
<asrwt>0</asrwt>
<pdfrwt beam="1">  1        2 0.20515265E+00 0.23177075E+04</pdfrwt>
<pdfrwt beam="2">  1       -2 0.15493639E+00 0.23177075E+04</pdfrwt>
<totfact> 0.39330769E+00</totfact>
</mgrwt>
</event>
<event>
11    1  0.2045212E-008  0.1885393E+04  0.7818608E-02  0.8662162E-01
          1   -1    0    0  501    0  0.00000000000E+00  0.00000000000E+00  0.53155758880E+03  0.53155758880E+03  0.00000000000E+00 0. -1.
         -1   -1    0    0    0  501 -0.00000000000E+00 -0.00000000000E+00 -0.16718352151E+04  0.16718352151E+04  0.00000000000E+00 0.  1.
         23    2    1    2    0    0 -0.26912981316E+03  0.11376529862E+02 -0.12272638915E+04  0.12599500736E+04  0.93473241554E+02 0.  0.
        254    2    1    2    0    0  0.26912981316E+03 -0.11376529862E+02  0.86986265270E+02  0.94344273021E+03  0.89997627362E+03 0.  0.
         24    2    4    4    0    0  0.35922621377E+03  0.18546748307E+03 -0.28309069275E+03  0.50018579292E+03  0.81263935295E+02 0.  0.
         13    1    3    3    0    0 -0.22514226069E+01 -0.49361929019E+01 -0.14660477138E+03  0.14670512566E+03  0.00000000000E+00 0. -1.
        -13    1    3    3    0    0 -0.26687839056E+03  0.16312722764E+02 -0.10806591201E+04  0.11132449480E+04  0.00000000000E+00 0.  1.
          2    1    5    5  502    0  0.23697572240E+03  0.92858532290E+02 -0.21152498288E+03  0.33094262102E+03  0.00000000000E+00 0. -1.
          1    1    4    4  503    0 -0.95973440625E+02 -0.74762013131E+02  0.19052738159E+03  0.22605517700E+03  0.00000000000E+00 0. -1.
         -2    1    4    4    0  503  0.58770400172E+01 -0.12208199980E+03  0.17954957643E+03  0.21720176029E+03  0.00000000000E+00 0.  1.
         -1    1    5    5    0  502  0.12225049137E+03  0.92608950782E+02 -0.71565709876E+02  0.16924317190E+03  0.00000000000E+00 0.  1.
<mgrwt>
<rscale>  0 0.18853930E+04</rscale>
<asrwt>0</asrwt>
<pdfrwt beam="1">  1        1 0.81778091E-01 0.18853930E+04</pdfrwt>
<pdfrwt beam="2">  1       -1 0.25720542E+00 0.18853930E+04</pdfrwt>
<totfact> 0.23858413E+00</totfact>
</mgrwt>
</event>
<event>
11    1  0.2045212E-008  0.1495212E+04  0.7818608E-02  0.8887643E-01
          1   -1    0    0  501    0  0.00000000000E+00  0.00000000000E+00  0.15388246976E+04  0.15388246976E+04  0.00000000000E+00 0.  1.
         -1   -1    0    0    0  501 -0.00000000000E+00 -0.00000000000E+00 -0.36320899520E+03  0.36320899520E+03  0.00000000000E+00 0. -1.
         23    2    1    2    0    0  0.19016508553E+03  0.34834907082E+03  0.72366209998E+03  0.82854219759E+03  0.72701467313E+02 0.  0.
        254    2    1    2    0    0 -0.19016508553E+03 -0.34834907082E+03  0.45195360242E+03  0.10734914952E+04  0.88916370633E+03 0.  0.
         24    2    4    4    0    0  0.60291783708E+02 -0.33979855549E+02 -0.24094388178E+03  0.26314722338E+03  0.80017355850E+02 0.  0.
         13    1    3    3    0    0  0.10105406850E+00  0.28650400850E+02  0.82247119542E+02  0.87094456504E+02  0.00000000000E+00 0. -1.
        -13    1    3    3    0    0  0.19006403146E+03  0.31969866997E+03  0.64141498044E+03  0.74144774109E+03  0.00000000000E+00 0.  1.
          4    1    5    5  502    0  0.79994189890E+02 -0.28308474381E+02 -0.20293053701E+03  0.21995736630E+03  0.00000000000E+00 0. -1.
          3    1    4    4  503    0 -0.19607447508E+03 -0.26101659339E+03  0.63723950349E+03  0.71599514426E+03  0.00000000000E+00 0. -1.
         -2    1    4    4    0  503 -0.54382394154E+02 -0.53352621882E+02  0.55657980722E+02  0.94349127572E+02  0.00000000000E+00 0.  1.
         -3    1    5    5    0  502 -0.19702406182E+02 -0.56713811674E+01 -0.38013344770E+02  0.43189857077E+02  0.00000000000E+00 0.  1.
<mgrwt>
<rscale>  0 0.14952123E+04</rscale>
<asrwt>0</asrwt>
<pdfrwt beam="1">  1        1 0.23674226E+00 0.14952123E+04</pdfrwt>
<pdfrwt beam="2">  1       -1 0.55878308E-01 0.14952123E+04</pdfrwt>
<totfact> 0.19276348E+01</totfact>
</mgrwt>
</event>
<event>
12    1  0.2045212E-008  0.1706898E+04  0.7818608E-02  0.8757440E-01
          2   -1    0    0  501    0  0.00000000000E+00  0.00000000000E+00  0.10614691331E+04  0.10614691331E+04  0.00000000000E+00 0. -1.
         -2   -1    0    0    0  501 -0.00000000000E+00 -0.00000000000E+00 -0.68619567547E+03  0.68619567547E+03  0.00000000000E+00 0.  1.
         23    2    1    2    0    0 -0.46129155457E+02 -0.57257259912E+03 -0.95263308052E+02  0.58942829032E+03  0.91560533617E+02 0.  0.
        254    2    1    2    0    0  0.46129155457E+02  0.57257259912E+03  0.47053676569E+03  0.11582365183E+04  0.88889802795E+03 0.  0.
        -24    2    4    4    0    0  0.53769097352E+02  0.39401189393E+03  0.72833818975E+03  0.83485503778E+03  0.91487305527E+02 0.  0.
         24    2    4    4    0    0 -0.76399418946E+01  0.17856070519E+03 -0.25780142406E+03  0.32338148047E+03  0.78560254030E+02 0.  0.
         13    1    3    3    0    0 -0.36884913560E+01 -0.26206160083E+03 -0.74894400979E+00  0.26208862722E+03  0.00000000000E+00 0. -1.
        -13    1    3    3    0    0 -0.42440664101E+02 -0.31051099829E+03 -0.94514364042E+02  0.32733966310E+03  0.00000000000E+00 0.  1.
          2    1    6    6  502    0  0.26513225022E+02  0.51990336730E+02 -0.11850660516E+03  0.13209754608E+03  0.00000000000E+00 0. -1.
          1    1    5    5  503    0  0.69692519752E+02  0.37316303226E+03  0.69950147301E+03  0.79587059670E+03  0.00000000000E+00 0. -1.
         -2    1    5    5    0  503 -0.15923422400E+02  0.20848861667E+02  0.28836716746E+02  0.38984441081E+02  0.00000000000E+00 0.  1.
         -1    1    6    6    0  502 -0.34153166917E+02  0.12657036846E+03 -0.13929481890E+03  0.19128393439E+03  0.00000000000E+00 0.  1.
<mgrwt>
<rscale>  0 0.17068984E+04</rscale>
<asrwt>0</asrwt>
<pdfrwt beam="1">  1        2 0.16330294E+00 0.17068984E+04</pdfrwt>
<pdfrwt beam="2">  1       -2 0.10556857E+00 0.17068984E+04</pdfrwt>
<totfact> 0.15890296E+01</totfact>
</mgrwt>
</event>
<event>
12    1  0.2045212E-008  0.1228946E+04  0.7818608E-02  0.9087891E-01
         -1   -1    0    0    0  501 -0.00000000000E+00  0.00000000000E+00  0.28814764256E+03  0.28814764256E+03  0.00000000000E+00 0.  1.
          1   -1    0    0  501    0  0.00000000000E+00 -0.00000000000E+00 -0.13103590979E+04  0.13103590979E+04  0.00000000000E+00 0. -1.
         23    2    1    2    0    0 -0.91823232927E+02 -0.24993841119E+03 -0.22333946934E+03  0.35922843190E+03  0.90905622642E+02 0.  0.
        254    2    1    2    0    0  0.91823232927E+02  0.24993841119E+03 -0.79887198598E+03  0.12392783085E+04  0.90923790094E+03 0.  0.
        -24    2    4    4    0    0 -0.21710405346E+03  0.44900255378E+03 -0.67318267176E+03  0.84280549526E+03  0.91699127361E+02 0.  0.
         24    2    4    4    0    0  0.30892728639E+03 -0.19906414259E+03 -0.12568931422E+03  0.39647281327E+03  0.79563099565E+02 0.  0.
         13    1    3    3    0    0 -0.14983806386E+01 -0.85902439826E+02 -0.11274169653E+03  0.14174683224E+03  0.00000000000E+00 0. -1.
        -13    1    3    3    0    0 -0.90324852288E+02 -0.16403597136E+03 -0.11059777281E+03  0.21748159966E+03  0.00000000000E+00 0.  1.
          4    1    6    6  502    0  0.31357471535E+03 -0.19548231700E+03 -0.12058040696E+03  0.38869277445E+03  0.00000000000E+00 0. -1.
          3    1    5    5  503    0 -0.16348370952E+03  0.23750816019E+03 -0.36322932764E+03  0.46375919818E+03  0.00000000000E+00 0. -1.
         -4    1    5    5    0  503 -0.53620343938E+02  0.21149439358E+03 -0.30995334412E+03  0.37904629708E+03  0.00000000000E+00 0.  1.
         -3    1    6    6    0  502 -0.46474289677E+01 -0.35818255873E+01 -0.51089072614E+01  0.77800388144E+01  0.00000000000E+00 0.  1.
<mgrwt>
<rscale>  0 0.12289457E+04</rscale>
<asrwt>0</asrwt>
<pdfrwt beam="1">  1        1 0.20159371E+00 0.12289457E+04</pdfrwt>
<pdfrwt beam="2">  1       -1 0.44330407E-01 0.12289457E+04</pdfrwt>
<totfact> 0.44220334E+01</totfact>
</mgrwt>
</event>
<event>
12    1  0.3066324E-008  0.1617328E+04  0.7818608E-02  0.8809973E-01
         -1   -1    0    0    0  501 -0.00000000000E+00  0.00000000000E+00  0.39818235513E+03  0.39818235513E+03  0.00000000000E+00 0.  1.
          1   -1    0    0  501    0  0.00000000000E+00 -0.00000000000E+00 -0.16423062337E+04  0.16423062337E+04  0.00000000000E+00 0. -1.
         23    2    1    2    0    0 -0.42748843915E+03  0.36472287432E+03 -0.42970084233E+03  0.71321079147E+03  0.90871769646E+02 0.  0.
        254    2    1    2    0    0  0.42748843915E+03 -0.36472287432E+03 -0.81442303620E+03  0.13272777973E+04  0.88465379032E+03 0.  0.
        -24    2    4    4    0    0  0.60936223888E+03 -0.43016430682E+03 -0.37313078030E+03  0.83897689250E+03  0.91060298162E+02 0.  0.
         24    2    4    4    0    0 -0.18187379974E+03  0.65441432503E+02 -0.44129225590E+03  0.48830090483E+03  0.79613179951E+02 0.  0.
         11    1    3    3    0    0 -0.36201821144E+03  0.32521113379E+03 -0.33182887392E+03  0.58900752841E+03  0.00000000000E+00 0. -1.
        -11    1    3    3    0    0 -0.65470227707E+02  0.39511740530E+02 -0.97871968406E+02  0.12420326306E+03  0.00000000000E+00 0.  1.
          4    1    6    6  502    0  0.35525447430E+01  0.13237598894E+02 -0.54458950701E+02  0.56157207107E+02  0.00000000000E+00 0. -1.
          1    1    5    5  503    0  0.38910177011E+02 -0.59601792555E+01 -0.95493103619E+01  0.40505739595E+02  0.00000000000E+00 0. -1.
         -2    1    5    5    0  503  0.57045206187E+03 -0.42420412756E+03 -0.36358146994E+03  0.79847115290E+03  0.00000000000E+00 0.  1.
         -3    1    6    6    0  502 -0.18542634448E+03  0.52203833610E+02 -0.38683330520E+03  0.43214369773E+03  0.00000000000E+00 0.  1.
<mgrwt>
<rscale>  0 0.16173279E+04</rscale>
<asrwt>0</asrwt>
<pdfrwt beam="1">  1        1 0.25266250E+00 0.16173279E+04</pdfrwt>
<pdfrwt beam="2">  1       -1 0.61258824E-01 0.16173279E+04</pdfrwt>
<totfact> 0.13515714E+01</totfact>
</mgrwt>
</event>
<event>
12    1  0.2045212E-008  0.1222893E+04  0.7818608E-02  0.9093051E-01
          1   -1    0    0  501    0  0.00000000000E+00  0.00000000000E+00  0.16737595205E+03  0.16737595205E+03  0.00000000000E+00 0. -1.
         -1   -1    0    0    0  501 -0.00000000000E+00 -0.00000000000E+00 -0.22336943766E+04  0.22336943766E+04  0.00000000000E+00 0.  1.
         23    2    1    2    0    0 -0.20364704770E+03 -0.17515098422E+03 -0.43683092832E+03  0.52047818064E+03  0.89029710063E+02 0.  0.
        254    2    1    2    0    0  0.20364704770E+03  0.17515098422E+03 -0.16294874962E+04  0.18805921480E+04  0.89958175807E+03 0.  0.
        -24    2    4    4    0    0 -0.26148785492E+03  0.23014748924E+03 -0.30602744180E+03  0.47443715582E+03  0.10046917243E+03 0.  0.
         24    2    4    4    0    0  0.46513490263E+03 -0.54996505020E+02 -0.13234600544E+04  0.14061549922E+04  0.79688475728E+02 0.  0.
         11    1    3    3    0    0 -0.13230241393E+01 -0.39141393121E+02 -0.62812736857E+02  0.74021881628E+02  0.00000000000E+00 0.  1.
        -11    1    3    3    0    0 -0.20232402357E+03 -0.13600959110E+03 -0.37401819147E+03  0.44645629901E+03  0.00000000000E+00 0. -1.
          4    1    6    6  502    0  0.78352883564E+02 -0.12873388734E+02 -0.14765716439E+03  0.16765302471E+03  0.00000000000E+00 0. -1.
          1    1    5    5  503    0 -0.18583575405E+02 -0.18986495473E+01  0.18423314268E+01  0.18770943770E+02  0.00000000000E+00 0. -1.
         -2    1    5    5    0  503 -0.24290427952E+03  0.23204613879E+03 -0.30786977323E+03  0.45566621205E+03  0.00000000000E+00 0.  1.
         -3    1    6    6    0  502  0.38678201906E+03 -0.42123116287E+02 -0.11758028901E+04  0.12385019675E+04  0.00000000000E+00 0.  1.
<mgrwt>
<rscale>  0 0.12228928E+04</rscale>
<asrwt>0</asrwt>
<pdfrwt beam="1">  1        1 0.25750148E-01 0.12228928E+04</pdfrwt>
<pdfrwt beam="2">  1       -1 0.34364527E+00 0.12228928E+04</pdfrwt>
<totfact> 0.32101230E+00</totfact>
</mgrwt>
</event>
<event>
12    1  0.2045212E-008  0.2878198E+04  0.7818608E-02  0.8279394E-01
         -2   -1    0    0    0  501 -0.00000000000E+00  0.00000000000E+00  0.76972426781E+03  0.76972426781E+03  0.00000000000E+00 0. -1.
          2   -1    0    0  501    0  0.00000000000E+00 -0.00000000000E+00 -0.26905824347E+04  0.26905824347E+04  0.00000000000E+00 0.  1.
         23    2    1    2    0    0  0.32691072015E+03  0.55435590437E+03  0.48454389455E+03  0.81078701096E+03  0.91715340816E+02 0.  0.
        254    2    1    2    0    0 -0.32691072015E+03 -0.55435590437E+03 -0.24054020614E+04  0.26495196915E+04  0.90543604469E+03 0.  0.
        -24    2    4    4    0    0 -0.17676469529E+03 -0.63785206329E+03 -0.23633766587E+04  0.24551123157E+04  0.62659711677E+02 0.  0.
         24    2    4    4    0    0 -0.15014602486E+03  0.83496158921E+02 -0.42025402698E+02  0.19440737584E+03  0.80701028335E+02 0.  0.
         13    1    3    3    0    0  0.14334581441E+02  0.66724771448E+02  0.30167968081E+02  0.74617569298E+02  0.00000000000E+00 0.  1.
        -13    1    3    3    0    0  0.31257613871E+03  0.48763113292E+03  0.45437592647E+03  0.73616944167E+03  0.00000000000E+00 0. -1.
          2    1    6    6  502    0 -0.11985391313E+03  0.42226454200E+02  0.16934763983E+01  0.12708619827E+03  0.00000000000E+00 0. -1.
          1    1    5    5  503    0 -0.13794254720E+03 -0.42378444697E+03 -0.16666353376E+04  0.17251941202E+04  0.00000000000E+00 0. -1.
         -2    1    5    5    0  503 -0.38822148089E+02 -0.21406761632E+03 -0.69674132110E+03  0.72991819546E+03  0.00000000000E+00 0.  1.
         -1    1    6    6    0  502 -0.30292111724E+02  0.41269704721E+02 -0.43718879096E+02  0.67321177573E+02  0.00000000000E+00 0.  1.
<mgrwt>
<rscale>  0 0.28781985E+04</rscale>
<asrwt>0</asrwt>
<pdfrwt beam="1">  1        2 0.41393576E+00 0.28781985E+04</pdfrwt>
<pdfrwt beam="2">  1       -2 0.11841912E+00 0.28781985E+04</pdfrwt>
<totfact> 0.12759416E+00</totfact>
</mgrwt>
</event>
<event>
11    1  0.2045212E-008  0.1593667E+04  0.7818608E-02  0.8824448E-01
          1   -1    0    0  501    0  0.00000000000E+00  0.00000000000E+00  0.35692930769E+04  0.35692930769E+04  0.00000000000E+00 0. -1.
         -1   -1    0    0    0  501 -0.00000000000E+00 -0.00000000000E+00 -0.17789066430E+03  0.17789066430E+03  0.00000000000E+00 0.  1.
         23    2    1    2    0    0  0.35375683175E+03  0.80026324827E+02  0.22673636192E+03  0.43706264107E+03  0.89812391807E+02 0.  0.
        254    2    1    2    0    0 -0.35375683175E+03 -0.80026324827E+02  0.31646660507E+04  0.33101211001E+04  0.90013464353E+03 0.  0.
         24    2    4    4    0    0 -0.30273062578E+02 -0.17886776030E+03  0.27348047352E+04  0.27419687923E+04  0.79534801016E+02 0.  0.
         13    1    3    3    0    0  0.16566818872E+03  0.17011165863E+02  0.15077493233E+03  0.22465174991E+03  0.00000000000E+00 0.  1.
        -13    1    3    3    0    0  0.18808864303E+03  0.63015158964E+02  0.75961429591E+02  0.21241089116E+03  0.00000000000E+00 0. -1.
          2    1    5    5  502    0  0.87133285331E+01 -0.88581331341E+02  0.17510109386E+04  0.17532717648E+04  0.00000000000E+00 0. -1.
          1    1    4    4  503    0 -0.33434428291E+03  0.94370690894E+02  0.43380007545E+03  0.55576472745E+03  0.00000000000E+00 0. -1.
         -2    1    4    4    0  503  0.10860513732E+02  0.44707445789E+01 -0.39387599876E+01  0.12387580307E+02  0.00000000000E+00 0.  1.
         -1    1    5    5    0  502 -0.38986391111E+02 -0.90286428960E+02  0.98379379660E+03  0.98869702750E+03  0.00000000000E+00 0.  1.
<mgrwt>
<rscale>  0 0.15936674E+04</rscale>
<asrwt>0</asrwt>
<pdfrwt beam="1">  1        1 0.54912196E+00 0.15936674E+04</pdfrwt>
<pdfrwt beam="2">  1       -1 0.27367797E-01 0.15936674E+04</pdfrwt>
<totfact> 0.25590509E+00</totfact>
</mgrwt>
</event>
<event>
11    1  0.2045212E-008  0.1379349E+04  0.7818608E-02  0.8968904E-01
         -1   -1    0    0    0  501 -0.00000000000E+00  0.00000000000E+00  0.10763483717E+04  0.10763483717E+04  0.00000000000E+00 0.  1.
          1   -1    0    0  501    0  0.00000000000E+00 -0.00000000000E+00 -0.44191193183E+03  0.44191193183E+03  0.00000000000E+00 0. -1.
         23    2    1    2    0    0 -0.26445345249E+03  0.23178760365E+02  0.49853387516E+03  0.57196344831E+03  0.90184688615E+02 0.  0.
        254    2    1    2    0    0  0.26445345249E+03 -0.23178760365E+02  0.13590256468E+03  0.94629685519E+03  0.89807313042E+03 0.  0.
         24    2    4    4    0    0 -0.26888173655E+03  0.74510596635E+02  0.17964909950E+03  0.34127738582E+03  0.79669554152E+02 0.  0.
         11    1    3    3    0    0 -0.18661717626E+02 -0.14960215938E+02  0.94706949649E+02  0.97680469274E+02  0.00000000000E+00 0. -1.
        -11    1    3    3    0    0 -0.24579173486E+03  0.38138976304E+02  0.40382692551E+03  0.47428297904E+03  0.00000000000E+00 0.  1.
          2    1    5    5  502    0 -0.18840950472E+03  0.15995078423E+02  0.13432667561E+03  0.23194318223E+03  0.00000000000E+00 0. -1.
          3    1    4    4  503    0  0.50210682313E+03 -0.15873029680E+03 -0.70745457782E+02  0.53132992458E+03  0.00000000000E+00 0. -1.
         -4    1    4    4    0  503  0.31228365908E+02  0.61040939802E+02  0.26998922963E+02  0.73689544783E+02  0.00000000000E+00 0.  1.
         -1    1    5    5    0  502 -0.80472231834E+02  0.58515518212E+02  0.45322423897E+02  0.10933420360E+03  0.00000000000E+00 0.  1.
<mgrwt>
<rscale>  0 0.13793494E+04</rscale>
<asrwt>0</asrwt>
<pdfrwt beam="1">  1        1 0.67986451E-01 0.13793494E+04</pdfrwt>
<pdfrwt beam="2">  1       -1 0.16559206E+00 0.13793494E+04</pdfrwt>
<totfact> 0.13594906E+01</totfact>
</mgrwt>
</event>
<event>
12    1  0.2045212E-008  0.1277186E+04  0.7818608E-02  0.9047855E-01
         -2   -1    0    0    0  501 -0.00000000000E+00  0.00000000000E+00  0.41758086539E+03  0.41758086539E+03  0.00000000000E+00 0.  1.
          2   -1    0    0  501    0  0.00000000000E+00 -0.00000000000E+00 -0.97657993030E+03  0.97657993030E+03  0.00000000000E+00 0. -1.
         23    2    1    2    0    0 -0.17591287420E+03 -0.25053296727E+03 -0.19246168181E+03  0.37346207080E+03  0.93382612743E+02 0.  0.
        254    2    1    2    0    0  0.17591287420E+03  0.25053296727E+03 -0.36653738310E+03  0.10206987249E+04  0.90208875770E+03 0.  0.
        -24    2    4    4    0    0  0.42805812045E+03  0.32724266177E+03 -0.47468529709E+03  0.72401672240E+03  0.92480099874E+02 0.  0.
         24    2    4    4    0    0 -0.25214524625E+03 -0.76709694495E+02  0.10814791400E+03  0.29668200248E+03  0.82841033654E+02 0.  0.
         11    1    3    3    0    0 -0.16645465169E+03 -0.23575847164E+03 -0.14523539447E+03  0.32308284979E+03  0.00000000000E+00 0. -1.
        -11    1    3    3    0    0 -0.94582225079E+01 -0.14774495635E+02 -0.47226287340E+02  0.50379221016E+02  0.00000000000E+00 0.  1.
          4    1    6    6  502    0 -0.13356948306E+03 -0.62133240270E+02  0.20994400078E+02  0.14880225531E+03  0.00000000000E+00 0. -1.
          3    1    5    5  503    0  0.78141408024E+02  0.93648445730E+02 -0.71969312275E+02  0.14161812365E+03  0.00000000000E+00 0. -1.
         -4    1    5    5    0  503  0.34991671243E+03  0.23359421604E+03 -0.40271598482E+03  0.58239859876E+03  0.00000000000E+00 0.  1.
         -3    1    6    6    0  502 -0.11857576319E+03 -0.14576454226E+02  0.87153513917E+02  0.14787974717E+03  0.00000000000E+00 0.  1.
<mgrwt>
<rscale>  0 0.12771861E+04</rscale>
<asrwt>0</asrwt>
<pdfrwt beam="1">  1        2 0.15024307E+00 0.12771861E+04</pdfrwt>
<pdfrwt beam="2">  1       -2 0.64243210E-01 0.12771861E+04</pdfrwt>
<totfact> 0.57338397E+01</totfact>
</mgrwt>
</event>
<event>
12    1  0.2045212E-008  0.2541703E+04  0.7818608E-02  0.8388278E-01
          2   -1    0    0  501    0  0.00000000000E+00  0.00000000000E+00  0.27846986436E+04  0.27846986436E+04  0.00000000000E+00 0. -1.
         -2   -1    0    0    0  501 -0.00000000000E+00 -0.00000000000E+00 -0.57997767024E+03  0.57997767024E+03  0.00000000000E+00 0.  1.
         23    2    1    2    0    0  0.59883052188E+03 -0.93451615392E+03  0.10158903873E+04  0.15074649968E+04  0.92190030683E+02 0.  0.
        254    2    1    2    0    0 -0.59883052188E+03  0.93451615392E+03  0.11888305861E+04  0.18572113171E+04  0.89665895294E+03 0.  0.
        -24    2    4    4    0    0  0.16198322347E+03  0.50386845806E+03  0.56889663146E+03  0.78251858844E+03  0.92574166311E+02 0.  0.
         24    2    4    4    0    0 -0.76081374535E+03  0.43064769587E+03  0.61993395464E+03  0.10746927286E+04  0.79695418606E+02 0.  0.
         13    1    3    3    0    0  0.24283943073E+03 -0.39704011880E+03  0.48660198144E+03  0.67334488444E+03  0.00000000000E+00 0. -1.
        -13    1    3    3    0    0  0.35599109115E+03 -0.53747603512E+03  0.52928840586E+03  0.83412011239E+03  0.00000000000E+00 0.  1.
          2    1    6    6  502    0 -0.19056142450E+03  0.14862839643E+03  0.16766456036E+03  0.29413510762E+03  0.00000000000E+00 0. -1.
          3    1    5    5  503    0  0.59436122417E+02  0.15150876762E+03  0.23839521359E+03  0.28865175762E+03  0.00000000000E+00 0. -1.
         -4    1    5    5    0  503  0.10254710106E+03  0.35235969043E+03  0.33050141787E+03  0.49386683083E+03  0.00000000000E+00 0.  1.
         -1    1    6    6    0  502 -0.57025232085E+03  0.28201929944E+03  0.45226939428E+03  0.78055762100E+03  0.00000000000E+00 0.  1.
<mgrwt>
<rscale>  0 0.25417026E+04</rscale>
<asrwt>0</asrwt>
<pdfrwt beam="1">  1        2 0.42841517E+00 0.25417026E+04</pdfrwt>
<pdfrwt beam="2">  1       -2 0.89227336E-01 0.25417026E+04</pdfrwt>
<totfact> 0.22631768E+00</totfact>
</mgrwt>
</event>
<event>
11    1  0.2045212E-008  0.3217477E+04  0.7818608E-02  0.8184217E-01
         -1   -1    0    0    0  501 -0.00000000000E+00  0.00000000000E+00  0.15314433180E+04  0.15314433180E+04  0.00000000000E+00 0.  1.
          1   -1    0    0  501    0  0.00000000000E+00 -0.00000000000E+00 -0.16899346389E+04  0.16899346389E+04  0.00000000000E+00 0. -1.
         23    2    1    2    0    0  0.97125665815E+03  0.22291775955E+03  0.10271957774E+04  0.14338245769E+04  0.87692237774E+02 0.  0.
        254    2    1    2    0    0 -0.97125665815E+03 -0.22291775955E+03 -0.11856870983E+04  0.17875533800E+04  0.89244684311E+03 0.  0.
         24    2    4    4    0    0 -0.70150403792E+03  0.27908775373E+02 -0.11916407432E+04  0.13856360591E+04  0.84218836018E+02 0.  0.
         11    1    3    3    0    0  0.46355261292E+03  0.80037864935E+02  0.53520505433E+03  0.71255282958E+03  0.00000000000E+00 0.  1.
        -11    1    3    3    0    0  0.50770404524E+03  0.14287989462E+03  0.49199072312E+03  0.72127174731E+03  0.00000000000E+00 0. -1.
          4    1    5    5  502    0 -0.20067531412E+02  0.13560782511E+02 -0.58285758056E+02  0.63117590508E+02  0.00000000000E+00 0. -1.
          1    1    4    4  503    0 -0.73874741126E+02 -0.21579664339E+02  0.57421959312E+02  0.96023125863E+02  0.00000000000E+00 0. -1.
         -2    1    4    4    0  503 -0.19587787911E+03 -0.22924687059E+03 -0.51468314403E+02  0.30589419508E+03  0.00000000000E+00 0.  1.
         -3    1    5    5    0  502 -0.68143650651E+03  0.14347992861E+02 -0.11333549852E+04  0.13225184686E+04  0.00000000000E+00 0.  1.
<mgrwt>
<rscale>  0 0.32174767E+04</rscale>
<asrwt>0</asrwt>
<pdfrwt beam="1">  1        1 0.25998994E+00 0.32174767E+04</pdfrwt>
<pdfrwt beam="2">  1       -1 0.23560666E+00 0.32174767E+04</pdfrwt>
<totfact> 0.35056712E-01</totfact>
</mgrwt>
</event>
<event>
12    1  0.2045212E-008  0.2149075E+04  0.7818608E-02  0.8539928E-01
          1   -1    0    0  501    0  0.00000000000E+00  0.00000000000E+00  0.12143722225E+04  0.12143722225E+04  0.00000000000E+00 0. -1.
         -1   -1    0    0    0  501 -0.00000000000E+00 -0.00000000000E+00 -0.95080490602E+03  0.95080490602E+03  0.00000000000E+00 0.  1.
         23    2    1    2    0    0 -0.60075866748E+03 -0.13858416127E+03  0.74587527738E+03  0.97193360462E+03  0.90600530265E+02 0.  0.
        254    2    1    2    0    0  0.60075866748E+03  0.13858416127E+03 -0.48230796085E+03  0.11932435239E+04  0.90060679101E+03 0.  0.
        -24    2    4    4    0    0  0.73262712061E+03  0.17859290126E+03 -0.62128854766E+03  0.98139789025E+03  0.92219506104E+02 0.  0.
         24    2    4    4    0    0 -0.13186845313E+03 -0.40008739981E+02  0.13898058680E+03  0.21184563368E+03  0.81073921794E+02 0.  0.
         13    1    3    3    0    0 -0.51697363325E+02 -0.12710823528E+02  0.30349690359E+02  0.61280389314E+02  0.00000000000E+00 0.  1.
        -13    1    3    3    0    0 -0.54906130415E+03 -0.12587333775E+03  0.71552558702E+03  0.91065321531E+03  0.00000000000E+00 0. -1.
          2    1    6    6  502    0  0.93296545740E+01 -0.13081133362E+02  0.15965371050E+02  0.22650641873E+02  0.00000000000E+00 0. -1.
          3    1    5    5  503    0  0.92068900602E+02 -0.77052385877E+01 -0.83226480169E+02  0.12434910599E+03  0.00000000000E+00 0. -1.
         -4    1    5    5    0  503  0.64055822001E+03  0.18629813984E+03 -0.53806206749E+03  0.85704878426E+03  0.00000000000E+00 0.  1.
         -1    1    6    6    0  502 -0.14119810771E+03 -0.26927606619E+02  0.12301521575E+03  0.18919499181E+03  0.00000000000E+00 0.  1.
<mgrwt>
<rscale>  0 0.21490752E+04</rscale>
<asrwt>0</asrwt>
<pdfrwt beam="1">  1        1 0.18682650E+00 0.21490752E+04</pdfrwt>
<pdfrwt beam="2">  1       -1 0.14627768E+00 0.21490752E+04</pdfrwt>
<totfact> 0.35655072E+00</totfact>
</mgrwt>
</event>
<event>
12    1  0.2045212E-008  0.1723406E+04  0.7818608E-02  0.8748126E-01
         -1   -1    0    0    0  501 -0.00000000000E+00  0.00000000000E+00  0.87558478275E+03  0.87558478275E+03  0.00000000000E+00 0.  1.
          1   -1    0    0  501    0  0.00000000000E+00 -0.00000000000E+00 -0.84804145113E+03  0.84804145113E+03  0.00000000000E+00 0. -1.
         23    2    1    2    0    0  0.25781259620E+03  0.55329991465E+03 -0.14326423673E+03  0.63355371167E+03  0.90870972936E+02 0.  0.
        254    2    1    2    0    0 -0.25781259620E+03 -0.55329991465E+03  0.17080756835E+03  0.10900725222E+04  0.88683411525E+03 0.  0.
        -24    2    4    4    0    0 -0.32985664500E+03 -0.16175684166E+03 -0.28914184697E+03  0.47649984972E+03  0.92078320176E+02 0.  0.
         24    2    4    4    0    0  0.72044048796E+02 -0.39154307300E+03  0.45994941532E+03  0.61357267250E+03  0.80135115935E+02 0.  0.
         13    1    3    3    0    0  0.33381210806E+02  0.16285387465E+03 -0.26808363158E+02  0.16838758285E+03  0.00000000000E+00 0.  1.
        -13    1    3    3    0    0  0.22443138540E+03  0.39044604000E+03 -0.11645587357E+03  0.46516612881E+03  0.00000000000E+00 0. -1.
          4    1    6    6  502    0 -0.63772296074E+01 -0.68737970321E+02  0.46645077160E+02  0.83314709653E+02  0.00000000000E+00 0. -1.
          1    1    5    5  503    0 -0.13953743414E+03 -0.19571325291E+02 -0.11649923947E+03  0.18282725480E+03  0.00000000000E+00 0. -1.
         -2    1    5    5    0  503 -0.19031921085E+03 -0.14218551637E+03 -0.17264260749E+03  0.29367259492E+03  0.00000000000E+00 0.  1.
         -3    1    6    6    0  502  0.78421278404E+02 -0.32280510268E+03  0.41330433815E+03  0.53025796284E+03  0.00000000000E+00 0.  1.
<mgrwt>
<rscale>  0 0.17234062E+04</rscale>
<asrwt>0</asrwt>
<pdfrwt beam="1">  1        1 0.13046792E+00 0.17234062E+04</pdfrwt>
<pdfrwt beam="2">  1       -1 0.13470535E+00 0.17234062E+04</pdfrwt>
<totfact> 0.88463820E+00</totfact>
</mgrwt>
</event>
<event>
11    1  0.2045212E-008  0.1614709E+04  0.7818608E-02  0.8811562E-01
          1   -1    0    0  501    0  0.00000000000E+00  0.00000000000E+00  0.81501862968E+03  0.81501862968E+03  0.00000000000E+00 0. -1.
         -1   -1    0    0    0  501 -0.00000000000E+00 -0.00000000000E+00 -0.79976265989E+03  0.79976265989E+03  0.00000000000E+00 0.  1.
         23    2    1    2    0    0 -0.42878832821E+03  0.32980704802E+03  0.13815396501E+03  0.56555450138E+03  0.90184569908E+02 0.  0.
        254    2    1    2    0    0  0.42878832821E+03 -0.32980704802E+03 -0.12289799521E+03  0.10492267882E+04  0.89058453640E+03 0.  0.
         24    2    4    4    0    0 -0.19243125460E+03  0.99676603303E+02 -0.80568935428E+02  0.24484928801E+03  0.80589127626E+02 0.  0.
         11    1    3    3    0    0 -0.61275598177E+02  0.14871930998E+02  0.29006605959E+02  0.69406458294E+02  0.00000000000E+00 0.  1.
        -11    1    3    3    0    0 -0.36751273003E+03  0.31493511703E+03  0.10914735905E+03  0.49614804309E+03  0.00000000000E+00 0. -1.
          2    1    5    5  502    0 -0.10590531411E+03  0.54209228843E+02 -0.86237471026E+02  0.14694038743E+03  0.00000000000E+00 0. -1.
          3    1    4    4  503    0  0.19714645892E+03 -0.52076232505E+01  0.32429126731E+02  0.19986368821E+03  0.00000000000E+00 0. -1.
         -4    1    4    4    0  503  0.42407312389E+03 -0.42427602808E+03 -0.74758186517E+02  0.60451381196E+03  0.00000000000E+00 0.  1.
         -1    1    5    5    0  502 -0.86525940487E+02  0.45467374461E+02  0.56685355986E+01  0.97908900583E+02  0.00000000000E+00 0.  1.
<mgrwt>
<rscale>  0 0.16147092E+04</rscale>
<asrwt>0</asrwt>
<pdfrwt beam="1">  1        1 0.12538748E+00 0.16147092E+04</pdfrwt>
<pdfrwt beam="2">  1       -1 0.12304041E+00 0.16147092E+04</pdfrwt>
<totfact> 0.11970785E+01</totfact>
</mgrwt>
</event>
<event>
12    1  0.2045212E-008  0.1640542E+04  0.7818608E-02  0.8796022E-01
         -1   -1    0    0    0  501 -0.00000000000E+00  0.00000000000E+00  0.31701935074E+03  0.31701935074E+03  0.00000000000E+00 0.  1.
          1   -1    0    0  501    0  0.00000000000E+00 -0.00000000000E+00 -0.21224075774E+04  0.21224075774E+04  0.00000000000E+00 0. -1.
         23    2    1    2    0    0 -0.13863361740E+02  0.19340298142E+03 -0.14278416545E+04  0.14439546459E+04  0.93146782961E+02 0.  0.
        254    2    1    2    0    0  0.13863361740E+02 -0.19340298142E+03 -0.37754657218E+03  0.99547228223E+03  0.90045918536E+03 0.  0.
        -24    2    4    4    0    0  0.38887427278E+03  0.51961138305E+02 -0.35365345156E+03  0.53962997359E+03  0.11048341356E+03 0.  0.
         24    2    4    4    0    0 -0.37501091104E+03 -0.24536411972E+03 -0.23893120621E+02  0.45584230864E+03  0.79903657549E+02 0.  0.
         11    1    3    3    0    0  0.17291302953E+02  0.76324378669E+02 -0.31662469615E+03  0.32615272213E+03  0.00000000000E+00 0.  1.
        -11    1    3    3    0    0 -0.31154664693E+02  0.11707860275E+03 -0.11112169583E+04  0.11178019238E+04  0.00000000000E+00 0. -1.
          2    1    6    6  502    0 -0.37539975386E+03 -0.24962631106E+03 -0.24663233815E+02  0.45149368265E+03  0.00000000000E+00 0. -1.
          3    1    5    5  503    0  0.38990373852E+03  0.50142962698E+02 -0.32268479948E+03  0.50859091797E+03  0.00000000000E+00 0. -1.
         -4    1    5    5    0  503 -0.10294657473E+01  0.18181756073E+01 -0.30968652075E+02  0.31039055618E+02  0.00000000000E+00 0.  1.
         -1    1    6    6    0  502  0.38884282019E+00  0.42621913337E+01  0.77011319410E+00  0.43486259940E+01  0.00000000000E+00 0.  1.
<mgrwt>
<rscale>  0 0.16405417E+04</rscale>
<asrwt>0</asrwt>
<pdfrwt beam="1">  1        1 0.32652423E+00 0.16405417E+04</pdfrwt>
<pdfrwt beam="2">  1       -1 0.48772210E-01 0.16405417E+04</pdfrwt>
<totfact> 0.99086612E+00</totfact>
</mgrwt>
</event>
<event>
11    1  0.2045212E-008  0.1629907E+04  0.7818608E-02  0.8802383E-01
          2   -1    0    0  501    0  0.00000000000E+00  0.00000000000E+00  0.19125767119E+04  0.19125767119E+04  0.00000000000E+00 0.  1.
         -2   -1    0    0    0  501 -0.00000000000E+00 -0.00000000000E+00 -0.34725341773E+03  0.34725341773E+03  0.00000000000E+00 0. -1.
         23    2    1    2    0    0 -0.37996445052E+03 -0.15649039839E+03  0.25600996803E+02  0.42165073021E+03  0.90948880177E+02 0.  0.
        254    2    1    2    0    0  0.37996445052E+03  0.15649039839E+03  0.15397222973E+04  0.18381793994E+04  0.91613128040E+03 0.  0.
         24    2    4    4    0    0 -0.24524350059E+03 -0.26904651227E+02  0.74292379758E+03  0.78729882053E+03  0.83877463927E+02 0.  0.
         13    1    3    3    0    0 -0.31953064146E+03 -0.14853090375E+03 -0.71822908709E+01  0.35243842796E+03  0.00000000000E+00 0. -1.
        -13    1    3    3    0    0 -0.60433809056E+02 -0.79594946355E+01  0.32783287674E+02  0.69212302248E+02  0.00000000000E+00 0.  1.
          2    1    5    5  502    0 -0.71879529873E+02  0.12682104305E+02  0.32536275642E+03  0.33344928527E+03  0.00000000000E+00 0. -1.
          3    1    4    4  503    0  0.39514570600E+03  0.17702304994E+02  0.39386820884E+03  0.55819859056E+03  0.00000000000E+00 0. -1.
         -4    1    4    4    0  503  0.23006224511E+03  0.16569274462E+03  0.40293029090E+03  0.49268198827E+03  0.00000000000E+00 0.  1.
         -1    1    5    5    0  502 -0.17336397071E+03 -0.39586755532E+02  0.41756104116E+03  0.45384953525E+03  0.00000000000E+00 0.  1.
<mgrwt>
<rscale>  0 0.16299065E+04</rscale>
<asrwt>0</asrwt>
<pdfrwt beam="1">  1        2 0.29424256E+00 0.16299065E+04</pdfrwt>
<pdfrwt beam="2">  1       -2 0.53423604E-01 0.16299065E+04</pdfrwt>
<totfact> 0.23610267E+01</totfact>
</mgrwt>
</event>
<event>
11    1  0.2045212E-008  0.2189597E+04  0.7818608E-02  0.8522771E-01
          2   -1    0    0  501    0  0.00000000000E+00  0.00000000000E+00  0.21775091434E+04  0.21775091434E+04  0.00000000000E+00 0. -1.
         -2   -1    0    0    0  501 -0.00000000000E+00 -0.00000000000E+00 -0.55043803929E+03  0.55043803929E+03  0.00000000000E+00 0.  1.
         23    2    1    2    0    0 -0.49731587931E+03  0.23656155542E+03 -0.23068462714E+03  0.60400755724E+03  0.91242965143E+02 0.  0.
        254    2    1    2    0    0  0.49731587931E+03 -0.23656155542E+03  0.18577557312E+04  0.21239396254E+04  0.86981533800E+03 0.  0.
         24    2    4    4    0    0  0.87695279465E+02  0.16759006378E+03  0.64434694099E+02  0.21720486496E+03  0.85142422083E+02 0.  0.
         13    1    3    3    0    0 -0.23816074091E+03  0.68772600723E+02 -0.12550734505E+03  0.27785302371E+03  0.00000000000E+00 0. -1.
        -13    1    3    3    0    0 -0.25915513840E+03  0.16778895470E+03 -0.10517728210E+03  0.32615453353E+03  0.00000000000E+00 0.  1.
          2    1    5    5  502    0  0.48977304451E+02  0.18745661850E+02  0.26689856665E+02  0.58843220835E+02  0.00000000000E+00 0. -1.
          3    1    4    4  503    0  0.32648039823E+03 -0.18387809171E+03  0.76541275212E+03  0.85220730116E+03  0.00000000000E+00 0. -1.
         -4    1    4    4    0  503  0.83140201611E+02 -0.22027352749E+03  0.10279082850E+04  0.10545274593E+04  0.00000000000E+00 0.  1.
         -1    1    5    5    0  502  0.38717975014E+02  0.14884440193E+03  0.37744837434E+02  0.15836164412E+03  0.00000000000E+00 0.  1.
<mgrwt>
<rscale>  0 0.21895971E+04</rscale>
<asrwt>0</asrwt>
<pdfrwt beam="1">  1        2 0.33500140E+00 0.21895971E+04</pdfrwt>
<pdfrwt beam="2">  1       -2 0.84682776E-01 0.21895971E+04</pdfrwt>
<totfact> 0.59096711E+00</totfact>
</mgrwt>
</event>
<event>
12    1  0.2045212E-008  0.1880745E+04  0.7818608E-02  0.8664500E-01
         -2   -1    0    0    0  501 -0.00000000000E+00  0.00000000000E+00  0.62531284483E+03  0.62531284483E+03  0.00000000000E+00 0.  1.
          2   -1    0    0  501    0  0.00000000000E+00 -0.00000000000E+00 -0.14141735224E+04  0.14141735224E+04  0.00000000000E+00 0. -1.
         23    2    1    2    0    0 -0.45817361126E+03 -0.76725302730E+02 -0.91351215343E+03  0.10290163114E+04  0.92521805587E+02 0.  0.
        254    2    1    2    0    0  0.45817361126E+03  0.76725302730E+02  0.12465147586E+03  0.10104700558E+04  0.88865173898E+03 0.  0.
        -24    2    4    4    0    0  0.20208533610E+03  0.42567885014E+03  0.26309379614E+03  0.54969078116E+03  0.10440614354E+03 0.  0.
         24    2    4    4    0    0  0.25608827517E+03 -0.34895354741E+03 -0.13844232028E+03  0.46077927469E+03  0.76167453762E+02 0.  0.
         13    1    3    3    0    0 -0.14052764847E+03 -0.35220061826E+02 -0.20066971104E+03  0.24750112256E+03  0.00000000000E+00 0.  1.
        -13    1    3    3    0    0 -0.31764596279E+03 -0.41505240904E+02 -0.71284244240E+03  0.78151518884E+03  0.00000000000E+00 0. -1.
          2    1    6    6  502    0  0.96141701567E+02 -0.10436506038E+03 -0.79497001262E+02  0.16265013316E+03  0.00000000000E+00 0. -1.
          3    1    5    5  503    0  0.19308190932E+03  0.38686992472E+03  0.26928133846E+03  0.50937353838E+03  0.00000000000E+00 0. -1.
         -4    1    5    5    0  503  0.90034267830E+01  0.38808925411E+02 -0.61875423199E+01  0.40317242780E+02  0.00000000000E+00 0.  1.
         -1    1    6    6    0  502  0.15994657360E+03 -0.24458848703E+03 -0.58945319017E+02  0.29812914153E+03  0.00000000000E+00 0.  1.
<mgrwt>
<rscale>  0 0.18807455E+04</rscale>
<asrwt>0</asrwt>
<pdfrwt beam="1">  1        2 0.21756516E+00 0.18807455E+04</pdfrwt>
<pdfrwt beam="2">  1       -2 0.96201977E-01 0.18807455E+04</pdfrwt>
<totfact> 0.12057495E+01</totfact>
</mgrwt>
</event>
<event>
12    1  0.2045212E-008  0.1377768E+04  0.7818608E-02  0.8970070E-01
          1   -1    0    0  501    0  0.00000000000E+00  0.00000000000E+00  0.34667053306E+03  0.34667053306E+03  0.00000000000E+00 0. -1.
         -1   -1    0    0    0  501 -0.00000000000E+00 -0.00000000000E+00 -0.13689116237E+04  0.13689116237E+04  0.00000000000E+00 0.  1.
         23    2    1    2    0    0  0.15303530836E+03 -0.27397318688E+03 -0.63009458388E+03  0.70960809507E+03  0.89684732353E+02 0.  0.
        254    2    1    2    0    0 -0.15303530836E+03  0.27397318688E+03 -0.39214650673E+03  0.10059740617E+04  0.87162137265E+03 0.  0.
        -24    2    4    4    0    0 -0.16362996001E+03  0.58142440199E+03 -0.23767419707E+03  0.65255989212E+03  0.67203346674E+02 0.  0.
         24    2    4    4    0    0  0.10594651642E+02 -0.30745121511E+03 -0.15447230967E+03  0.35341416954E+03  0.80008652426E+02 0.  0.
         13    1    3    3    0    0 -0.85134713460E+00 -0.13398406404E+02 -0.36738192087E+01  0.13919016980E+02  0.00000000000E+00 0. -1.
        -13    1    3    3    0    0  0.15388665550E+03 -0.26057478048E+03 -0.62642076468E+03  0.69568907809E+03  0.00000000000E+00 0.  1.
          4    1    6    6  502    0  0.45211402221E+02 -0.19434165090E+03 -0.93998481842E+02  0.22056396522E+03  0.00000000000E+00 0. -1.
          1    1    5    5  503    0 -0.10598976847E+03  0.25610578913E+03 -0.11636605552E+03  0.30060782612E+03  0.00000000000E+00 0. -1.
         -2    1    5    5    0  503 -0.57640191536E+02  0.32531861286E+03 -0.12130814155E+03  0.35195206600E+03  0.00000000000E+00 0.  1.
         -3    1    6    6    0  502 -0.34616750579E+02 -0.11310956421E+03 -0.60473827824E+02  0.13285020432E+03  0.00000000000E+00 0.  1.
<mgrwt>
<rscale>  0 0.13777682E+04</rscale>
<asrwt>0</asrwt>
<pdfrwt beam="1">  1        1 0.53333928E-01 0.13777682E+04</pdfrwt>
<pdfrwt beam="2">  1       -1 0.21060179E+00 0.13777682E+04</pdfrwt>
<totfact> 0.90225460E+00</totfact>
</mgrwt>
</event>
<event>
12    1  0.2045212E-008  0.2492895E+04  0.7818608E-02  0.8405521E-01
         -1   -1    0    0    0  501 -0.00000000000E+00  0.00000000000E+00  0.43501341789E+03  0.43501341789E+03  0.00000000000E+00 0.  1.
          1   -1    0    0  501    0  0.00000000000E+00 -0.00000000000E+00 -0.35714560119E+04  0.35714560119E+04  0.00000000000E+00 0. -1.
         23    2    1    2    0    0  0.38803569643E+03  0.64237124554E+03 -0.26069908806E+04  0.27149669708E+04  0.10691904345E+03 0.  0.
        254    2    1    2    0    0 -0.38803569643E+03 -0.64237124554E+03 -0.52945171339E+03  0.12915024590E+04  0.90799062004E+03 0.  0.
        -24    2    4    4    0    0 -0.67499191778E+03 -0.47674025389E+03 -0.42228888010E+03  0.93419822297E+03  0.10725233231E+03 0.  0.
         24    2    4    4    0    0  0.28695622135E+03 -0.16563099165E+03 -0.10716283329E+03  0.35730423607E+03  0.80030905934E+02 0.  0.
         11    1    3    3    0    0  0.35194327485E+03  0.50906379625E+03 -0.20733418013E+04  0.21637366388E+04  0.00000000000E+00 0. -1.
        -11    1    3    3    0    0  0.36092421581E+02  0.13330744929E+03 -0.53364907937E+03  0.55123033193E+03  0.00000000000E+00 0.  1.
          2    1    6    6  502    0  0.42978671424E+02 -0.45677560235E+02 -0.48231576308E+02  0.79119470799E+02  0.00000000000E+00 0. -1.
          3    1    5    5  503    0 -0.19343409174E+03 -0.81840670842E+02 -0.12068123833E+03  0.24223667050E+03  0.00000000000E+00 0. -1.
         -4    1    5    5    0  503 -0.48155782605E+03 -0.39489958305E+03 -0.30160764177E+03  0.69196155247E+03  0.00000000000E+00 0.  1.
         -1    1    6    6    0  502  0.24397754993E+03 -0.11995343141E+03 -0.58931256979E+02  0.27818476527E+03  0.00000000000E+00 0.  1.
<mgrwt>
<rscale>  0 0.24928949E+04</rscale>
<asrwt>0</asrwt>
<pdfrwt beam="1">  1        1 0.54945475E+00 0.24928949E+04</pdfrwt>
<pdfrwt beam="2">  1       -1 0.66925144E-01 0.24928949E+04</pdfrwt>
<totfact> 0.44140346E-01</totfact>
</mgrwt>
</event>
<event>
11    1  0.2045212E-008  0.1248881E+04  0.7818608E-02  0.9071115E-01
         -1   -1    0    0    0  501 -0.00000000000E+00  0.00000000000E+00  0.34343384889E+03  0.34343384889E+03  0.00000000000E+00 0.  1.
          1   -1    0    0  501    0  0.00000000000E+00 -0.00000000000E+00 -0.11353737183E+04  0.11353737183E+04  0.00000000000E+00 0. -1.
         23    2    1    2    0    0 -0.15784611739E+03 -0.20082444819E+03 -0.35051690267E+03  0.44348373323E+03  0.92573575140E+02 0.  0.
        254    2    1    2    0    0  0.15784611739E+03  0.20082444819E+03 -0.44142296675E+03  0.10353238340E+04  0.90099686452E+03 0.  0.
         24    2    4    4    0    0  0.15644471427E+03 -0.46845981253E+02  0.23789527190E+03  0.29966446590E+03  0.80840195120E+02 0.  0.
         11    1    3    3    0    0 -0.25747064648E+02  0.53624483102E+01 -0.42653694185E+02  0.50109927335E+02  0.00000000000E+00 0.  1.
        -11    1    3    3    0    0 -0.13209905274E+03 -0.20618689650E+03 -0.30786320848E+03  0.39337380589E+03  0.00000000000E+00 0. -1.
          4    1    5    5  502    0  0.29220227563E+02  0.19846091858E+02  0.26834572809E+02  0.44359704222E+02  0.00000000000E+00 0. -1.
          1    1    4    4  503    0 -0.13818919211E+02  0.16808773302E+02 -0.44184541337E+01  0.22204056499E+02  0.00000000000E+00 0. -1.
         -2    1    4    4    0  503  0.15220322321E+02  0.23086165614E+03 -0.67489978452E+03  0.71345531159E+03  0.00000000000E+00 0.  1.
         -3    1    5    5    0  502  0.12722448671E+03 -0.66692073111E+02  0.21106069909E+03  0.25530476168E+03  0.00000000000E+00 0.  1.
<mgrwt>
<rscale>  0 0.12488807E+04</rscale>
<asrwt>0</asrwt>
<pdfrwt beam="1">  1        1 0.17467287E+00 0.12488807E+04</pdfrwt>
<pdfrwt beam="2">  1       -1 0.52835978E-01 0.12488807E+04</pdfrwt>
<totfact> 0.42469562E+01</totfact>
</mgrwt>
</event>
<event>
12    1  0.2045212E-008  0.2314847E+04  0.7818608E-02  0.8472090E-01
         -2   -1    0    0    0  501 -0.00000000000E+00  0.00000000000E+00  0.46311185892E+03  0.46311185892E+03  0.00000000000E+00 0. -1.
          2   -1    0    0  501    0  0.00000000000E+00 -0.00000000000E+00 -0.28926697596E+04  0.28926697596E+04  0.00000000000E+00 0.  1.
         23    2    1    2    0    0  0.72399517061E+03  0.65066954648E+03 -0.85127865676E+03  0.12963043163E+04  0.90496758674E+02 0.  0.
        254    2    1    2    0    0 -0.72399517061E+03 -0.65066954648E+03 -0.15782792439E+04  0.20594773022E+04  0.89607004224E+03 0.  0.
        -24    2    4    4    0    0 -0.82611930720E+02 -0.36424281722E+02  0.10952825735E+03  0.15060773014E+03  0.50346696255E+02 0.  0.
         24    2    4    4    0    0 -0.64138323989E+03 -0.61424526476E+03 -0.16878075013E+04  0.19088695720E+04  0.80119760531E+02 0.  0.
         13    1    3    3    0    0  0.60101170257E+03  0.52314921935E+03 -0.65116071088E+03  0.10290337428E+04  0.00000000000E+00 0. -1.
        -13    1    3    3    0    0  0.12298346804E+03  0.12752032713E+03 -0.20011794589E+03  0.26727057359E+03  0.00000000000E+00 0.  1.
          2    1    6    6  502    0 -0.49414980906E+03 -0.44609478459E+03 -0.13227549503E+04  0.14808326202E+04  0.00000000000E+00 0. -1.
          3    1    5    5  503    0 -0.70434477685E+02 -0.48268491385E+02  0.98484568750E+02  0.13034597496E+03  0.00000000000E+00 0. -1.
         -4    1    5    5    0  503 -0.12177453035E+02  0.11844209663E+02  0.11043688597E+02  0.20261755175E+02  0.00000000000E+00 0.  1.
         -1    1    6    6    0  502 -0.14723343083E+03 -0.16815048017E+03 -0.36505255099E+03  0.42803695181E+03  0.00000000000E+00 0.  1.
<mgrwt>
<rscale>  0 0.23148474E+04</rscale>
<asrwt>0</asrwt>
<pdfrwt beam="1">  1        2 0.44502612E+00 0.23148474E+04</pdfrwt>
<pdfrwt beam="2">  1       -2 0.71247978E-01 0.23148474E+04</pdfrwt>
<totfact> 0.32890467E+00</totfact>
</mgrwt>
</event>
<event>
11    1  0.2045212E-008  0.1259447E+04  0.7818608E-02  0.9062357E-01
          2   -1    0    0  501    0  0.00000000000E+00  0.00000000000E+00  0.15086139632E+04  0.15086139632E+04  0.00000000000E+00 0. -1.
         -2   -1    0    0    0  501 -0.00000000000E+00 -0.00000000000E+00 -0.26285846347E+03  0.26285846347E+03  0.00000000000E+00 0.  1.
         23    2    1    2    0    0  0.18759254492E+03  0.19100639869E+03  0.10764332807E+03  0.30283720542E+03  0.91917787481E+02 0.  0.
        254    2    1    2    0    0 -0.18759254492E+03 -0.19100639869E+03  0.11381121716E+04  0.14686352212E+04  0.88877201270E+03 0.  0.
         24    2    4    4    0    0  0.21310060176E+02  0.33406671619E+03  0.35080221631E+03  0.49136805922E+03  0.79534175775E+02 0.  0.
         11    1    3    3    0    0  0.46325318533E+02  0.48290126519E+01  0.34468471440E+02  0.57943334593E+02  0.00000000000E+00 0. -1.
        -11    1    3    3    0    0  0.14126722639E+03  0.18617738604E+03  0.73174856625E+02  0.24489387082E+03  0.00000000000E+00 0.  1.
          2    1    5    5  502    0 -0.28908147636E+02  0.12333236811E+03  0.14533392549E+03  0.19279134815E+03  0.00000000000E+00 0. -1.
          3    1    4    4  503    0 -0.68536600686E+02 -0.79546590675E+02  0.91898080962E+02  0.13953559763E+03  0.00000000000E+00 0. -1.
         -4    1    4    4    0  503 -0.14036600441E+03 -0.44552652421E+03  0.69541187436E+03  0.83773156438E+03  0.00000000000E+00 0.  1.
         -1    1    5    5    0  502  0.50218207812E+02  0.21073434808E+03  0.20546829082E+03  0.29857671106E+03  0.00000000000E+00 0.  1.
<mgrwt>
<rscale>  0 0.12594474E+04</rscale>
<asrwt>0</asrwt>
<pdfrwt beam="1">  1        2 0.23209445E+00 0.12594474E+04</pdfrwt>
<pdfrwt beam="2">  1       -2 0.40439764E-01 0.12594474E+04</pdfrwt>
<totfact> 0.71385560E+01</totfact>
</mgrwt>
</event>
<event>
12    1  0.2045212E-008  0.1338152E+04  0.7818608E-02  0.8999846E-01
         -2   -1    0    0    0  501 -0.00000000000E+00  0.00000000000E+00  0.50007901387E+03  0.50007901387E+03  0.00000000000E+00 0. -1.
          2   -1    0    0  501    0  0.00000000000E+00 -0.00000000000E+00 -0.89518417512E+03  0.89518417512E+03  0.00000000000E+00 0.  1.
         23    2    1    2    0    0  0.28280230908E+03  0.22036379029E+03 -0.79747010234E+02  0.37814462491E+03  0.89980140117E+02 0.  0.
        254    2    1    2    0    0 -0.28280230908E+03 -0.22036379029E+03 -0.31535815101E+03  0.10171185641E+04  0.89807686969E+03 0.  0.
        -24    2    4    4    0    0 -0.47392754387E+03 -0.22036778853E+03 -0.50988217742E+03  0.73311974340E+03  0.65692041026E+02 0.  0.
         24    2    4    4    0    0  0.19112523479E+03  0.39982404775E-02  0.19452402641E+03  0.28399882067E+03  0.79289834801E+02 0.  0.
         13    1    3    3    0    0  0.59960726485E+02  0.67775714246E+02 -0.57363139366E+02  0.10714180286E+03  0.00000000000E+00 0. -1.
        -13    1    3    3    0    0  0.22284158260E+03  0.15258807605E+03 -0.22383870868E+02  0.27100282205E+03  0.00000000000E+00 0.  1.
          2    1    6    6  502    0  0.29487070642E+02 -0.29026606974E+02  0.52764370240E+02  0.67053038815E+02  0.00000000000E+00 0. -1.
          1    1    5    5  503    0 -0.15636881406E+02 -0.73961131301E+01 -0.37775662021E+02  0.41547745916E+02  0.00000000000E+00 0. -1.
         -2    1    5    5    0  503 -0.45829066246E+03 -0.21297167540E+03 -0.47210651540E+03  0.69157199749E+03  0.00000000000E+00 0.  1.
         -1    1    6    6    0  502  0.16163816414E+03  0.29030605215E+02  0.14175965617E+03  0.21694578185E+03  0.00000000000E+00 0.  1.
<mgrwt>
<rscale>  0 0.13381522E+04</rscale>
<asrwt>0</asrwt>
<pdfrwt beam="1">  1        2 0.13772064E+00 0.13381522E+04</pdfrwt>
<pdfrwt beam="2">  1       -2 0.76935234E-01 0.13381522E+04</pdfrwt>
<totfact> 0.43590250E+01</totfact>
</mgrwt>
</event>
<event>
11    1  0.2045212E-008  0.1410145E+04  0.7818608E-02  0.8946508E-01
         -1   -1    0    0    0  501 -0.00000000000E+00  0.00000000000E+00  0.37720296127E+03  0.37720296127E+03  0.00000000000E+00 0.  1.
          1   -1    0    0  501    0  0.00000000000E+00 -0.00000000000E+00 -0.13179299108E+04  0.13179299108E+04  0.00000000000E+00 0. -1.
         23    2    1    2    0    0  0.26618306713E+03  0.16823497021E+03 -0.61886059849E+03  0.70025421973E+03  0.90615128213E+02 0.  0.
        254    2    1    2    0    0 -0.26618306713E+03 -0.16823497021E+03 -0.32186635106E+03  0.99487865236E+03  0.88714663644E+03 0.  0.
         24    2    4    4    0    0  0.11001493467E+03 -0.32110141854E+03  0.13070828254E+03  0.37254638953E+03  0.80602421730E+02 0.  0.
         11    1    3    3    0    0  0.56633731379E+01  0.16854683304E+02 -0.88601180543E+02  0.90367711812E+02  0.00000000000E+00 0. -1.
        -11    1    3    3    0    0  0.26051969399E+03  0.15138028690E+03 -0.53025941794E+03  0.60988650792E+03  0.00000000000E+00 0.  1.
          4    1    5    5  502    0  0.25387290727E+02 -0.11353675230E+03  0.84214022071E+02  0.14362141263E+03  0.00000000000E+00 0. -1.
          1    1    4    4  503    0 -0.34412293920E+03  0.11382942756E+03 -0.33171703501E+03  0.49133891275E+03  0.00000000000E+00 0. -1.
         -2    1    4    4    0  503 -0.32075062601E+02  0.39037020768E+02 -0.12085759859E+03  0.13099335009E+03  0.00000000000E+00 0.  1.
         -3    1    5    5    0  502  0.84627643947E+02 -0.20756466624E+03  0.46494260468E+02  0.22892497690E+03  0.00000000000E+00 0.  1.
<mgrwt>
<rscale>  0 0.14101448E+04</rscale>
<asrwt>0</asrwt>
<pdfrwt beam="1">  1        1 0.20275845E+00 0.14101448E+04</pdfrwt>
<pdfrwt beam="2">  1       -1 0.58031225E-01 0.14101448E+04</pdfrwt>
<totfact> 0.25740510E+01</totfact>
</mgrwt>
</event>
<event>
12    1  0.2045212E-008  0.2612207E+04  0.7818608E-02  0.8364067E-01
          1   -1    0    0  501    0  0.00000000000E+00  0.00000000000E+00  0.16634541689E+04  0.16634541689E+04  0.00000000000E+00 0.  1.
         -1   -1    0    0    0  501 -0.00000000000E+00 -0.00000000000E+00 -0.10255204170E+04  0.10255204170E+04  0.00000000000E+00 0. -1.
         23    2    1    2    0    0 -0.47808553169E+03  0.35874700896E+03 -0.72740860007E+03  0.94579313696E+03  0.90200855905E+02 0.  0.
        254    2    1    2    0    0  0.47808553169E+03 -0.35874700896E+03  0.13653423520E+04  0.17431814489E+04  0.90402247409E+03 0.  0.
        -24    2    4    4    0    0  0.48982505844E+03  0.17705622501E+03  0.81008219265E+03  0.96768019244E+03  0.94309603475E+02 0.  0.
         24    2    4    4    0    0 -0.11739526743E+02 -0.53580323396E+03  0.55526015934E+03  0.77550125648E+03  0.76586109896E+02 0.  0.
         13    1    3    3    0    0 -0.21302356727E+03  0.19569507528E+03 -0.29618751021E+03  0.41400802397E+03  0.00000000000E+00 0.  1.
        -13    1    3    3    0    0 -0.26506196442E+03  0.16305193367E+03 -0.43122108986E+03  0.53178511299E+03  0.00000000000E+00 0. -1.
          2    1    6    6  502    0  0.36685369560E+01 -0.51714966056E+03  0.52907039921E+03  0.73984641440E+03  0.00000000000E+00 0. -1.
          3    1    5    5  503    0  0.22298499670E+03  0.65978473256E+02  0.44438518941E+03  0.50155125785E+03  0.00000000000E+00 0. -1.
         -4    1    5    5    0  503  0.26684006174E+03  0.11107775175E+03  0.36569700324E+03  0.46612893459E+03  0.00000000000E+00 0.  1.
         -1    1    6    6    0  502 -0.15408063699E+02 -0.18653573406E+02  0.26189760134E+02  0.35654842078E+02  0.00000000000E+00 0.  1.
<mgrwt>
<rscale>  0 0.26122069E+04</rscale>
<asrwt>0</asrwt>
<pdfrwt beam="1">  1        1 0.25591603E+00 0.26122069E+04</pdfrwt>
<pdfrwt beam="2">  1       -1 0.15777237E+00 0.26122069E+04</pdfrwt>
<totfact> 0.13496559E+00</totfact>
</mgrwt>
</event>
<event>
12    1  0.2045212E-008  0.1413879E+04  0.7818608E-02  0.8943833E-01
          2   -1    0    0  501    0  0.00000000000E+00  0.00000000000E+00  0.14933687296E+04  0.14933687296E+04  0.00000000000E+00 0. -1.
         -2   -1    0    0    0  501 -0.00000000000E+00 -0.00000000000E+00 -0.33465492594E+03  0.33465492594E+03  0.00000000000E+00 0.  1.
         23    2    1    2    0    0 -0.30167499690E+03  0.79552843693E+02  0.71507109551E+03  0.78593253420E+03  0.95009567888E+02 0.  0.
        254    2    1    2    0    0  0.30167499690E+03 -0.79552843693E+02  0.44364270811E+03  0.10420911213E+04  0.88983065463E+03 0.  0.
        -24    2    4    4    0    0 -0.19298612697E+03  0.16484686827E+03 -0.82681795205E+02  0.27560600751E+03  0.68587585866E+02 0.  0.
         24    2    4    4    0    0  0.49466112387E+03 -0.24439971197E+03  0.52632450332E+03  0.76648511378E+03  0.77853067885E+02 0.  0.
         13    1    3    3    0    0 -0.67516083142E+02  0.52650748966E+02  0.13569746216E+03  0.16045037889E+03  0.00000000000E+00 0.  1.
        -13    1    3    3    0    0 -0.23415891376E+03  0.26902094727E+02  0.57937363335E+03  0.62548215531E+03  0.00000000000E+00 0. -1.
          4    1    6    6  502    0  0.59640642065E+02 -0.11895667030E+02  0.85691337362E+02  0.10507862951E+03  0.00000000000E+00 0. -1.
          1    1    5    5  503    0 -0.92450392891E+02  0.43103404425E+02 -0.12311332033E+02  0.10274506078E+03  0.00000000000E+00 0. -1.
         -2    1    5    5    0  503 -0.10053573408E+03  0.12174346385E+03 -0.70370463172E+02  0.17286094673E+03  0.00000000000E+00 0.  1.
         -3    1    6    6    0  502  0.43502048181E+03 -0.23250404494E+03  0.44063316595E+03  0.66140648428E+03  0.00000000000E+00 0.  1.
<mgrwt>
<rscale>  0 0.14138786E+04</rscale>
<asrwt>0</asrwt>
<pdfrwt beam="1">  1        2 0.22974903E+00 0.14138786E+04</pdfrwt>
<pdfrwt beam="2">  1       -2 0.51485374E-01 0.14138786E+04</pdfrwt>
<totfact> 0.44360368E+01</totfact>
</mgrwt>
</event>
<event>
11    1  0.2045212E-008  0.1467164E+04  0.7818608E-02  0.8906587E-01
          2   -1    0    0  501    0  0.00000000000E+00  0.00000000000E+00  0.31495380497E+04  0.31495380497E+04  0.00000000000E+00 0. -1.
         -2   -1    0    0    0  501 -0.00000000000E+00 -0.00000000000E+00 -0.17086396677E+03  0.17086396677E+03  0.00000000000E+00 0.  1.
         23    2    1    2    0    0 -0.33695900809E+03  0.30908804915E+02  0.26012307806E+03  0.43669125631E+03  0.92404059686E+02 0.  0.
        254    2    1    2    0    0  0.33695900809E+03 -0.30908804915E+02  0.27185510049E+04  0.28837107601E+04  0.90042848399E+03 0.  0.
         24    2    4    4    0    0 -0.14048007774E+03 -0.27519197487E+03  0.48863543784E+03  0.58309902845E+03  0.75990858575E+02 0.  0.
         11    1    3    3    0    0 -0.28523478280E+03  0.58634506018E+02  0.22762140594E+03  0.36960572379E+03  0.00000000000E+00 0.  1.
        -11    1    3    3    0    0 -0.51724225288E+02 -0.27725701102E+02  0.32501672116E+02  0.67085532520E+02  0.00000000000E+00 0. -1.
          2    1    5    5  502    0 -0.14073780815E+02 -0.52279603090E+02  0.43419152295E+02  0.69400655557E+02  0.00000000000E+00 0. -1.
          1    1    4    4  503    0  0.11482509311E+03  0.81665948172E+02  0.95076318259E+03  0.96114762574E+03  0.00000000000E+00 0. -1.
         -2    1    4    4    0  503  0.36261399272E+03  0.16261722179E+03  0.12791523844E+04  0.13394641060E+04  0.00000000000E+00 0.  1.
         -3    1    5    5    0  502 -0.12640629693E+03 -0.22291237178E+03  0.44521628554E+03  0.51369837289E+03  0.00000000000E+00 0.  1.
<mgrwt>
<rscale>  0 0.14671640E+04</rscale>
<asrwt>0</asrwt>
<pdfrwt beam="1">  1        2 0.48454427E+00 0.14671640E+04</pdfrwt>
<pdfrwt beam="2">  1       -2 0.26286766E-01 0.14671640E+04</pdfrwt>
<totfact> 0.17907313E+01</totfact>
</mgrwt>
</event>
<event>
11    1  0.2045212E-008  0.2420525E+04  0.7818608E-02  0.8431859E-01
          1   -1    0    0  501    0  0.00000000000E+00  0.00000000000E+00  0.38768294735E+04  0.38768294735E+04  0.00000000000E+00 0. -1.
         -1   -1    0    0    0  501 -0.00000000000E+00 -0.00000000000E+00 -0.37781790989E+03  0.37781790989E+03  0.00000000000E+00 0.  1.
         23    2    1    2    0    0  0.55123252195E+03  0.78151963692E+03  0.21864713171E+04  0.23881375608E+04  0.88960399390E+02 0.  0.
        254    2    1    2    0    0 -0.55123252195E+03 -0.78151963692E+03  0.13125402464E+04  0.18665098225E+04  0.92003629435E+03 0.  0.
         24    2    4    4    0    0 -0.15359328978E+03 -0.75295060878E+03  0.12048440602E+04  0.14313236044E+04  0.80700268439E+02 0.  0.
         13    1    3    3    0    0  0.17071842244E+03  0.28061111932E+03  0.66286966105E+03  0.73978616342E+03  0.00000000000E+00 0.  1.
        -13    1    3    3    0    0  0.38051409951E+03  0.50090851760E+03  0.15236016561E+04  0.16483513974E+04  0.00000000000E+00 0. -1.
          4    1    5    5  502    0 -0.91545619245E+02 -0.28340498402E+03  0.50489902164E+03  0.58619280738E+03  0.00000000000E+00 0. -1.
          3    1    4    4  503    0 -0.23452607285E+03  0.12416499754E+02  0.12511631226E+03  0.26610287466E+03  0.00000000000E+00 0. -1.
         -4    1    4    4    0  503 -0.16311315933E+03 -0.40985527898E+02 -0.17420125979E+02  0.16908334345E+03  0.00000000000E+00 0.  1.
         -3    1    5    5    0  502 -0.62047670533E+02 -0.46954562476E+03  0.69994503853E+03  0.84513079704E+03  0.00000000000E+00 0.  1.
<mgrwt>
<rscale>  0 0.24205252E+04</rscale>
<asrwt>0</asrwt>
<pdfrwt beam="1">  1        1 0.59643528E+00 0.24205252E+04</pdfrwt>
<pdfrwt beam="2">  1       -1 0.58125835E-01 0.24205252E+04</pdfrwt>
<totfact> 0.33006284E-01</totfact>
</mgrwt>
</event>
<event>
12    1  0.2045212E-008  0.2257324E+04  0.7818608E-02  0.8494940E-01
          1   -1    0    0  501    0  0.00000000000E+00  0.00000000000E+00  0.20000773156E+04  0.20000773156E+04  0.00000000000E+00 0. -1.
         -1   -1    0    0    0  501 -0.00000000000E+00 -0.00000000000E+00 -0.63691445835E+03  0.63691445835E+03  0.00000000000E+00 0.  1.
         23    2    1    2    0    0 -0.23143252120E+03 -0.89195670363E+03  0.48927633356E+03  0.10472268432E+04  0.90249418607E+02 0.  0.
        254    2    1    2    0    0  0.23143252120E+03  0.89195670363E+03  0.87388652373E+03  0.15897649308E+04  0.95630910574E+03 0.  0.
        -24    2    4    4    0    0  0.23484061165E+03  0.31322651861E+03  0.91972590668E+03  0.10037773566E+04  0.91718445715E+02 0.  0.
         24    2    4    4    0    0 -0.34080904480E+01  0.57873018503E+03 -0.45839382950E+02  0.58598757421E+03  0.79623777587E+02 0.  0.
         13    1    3    3    0    0  0.39999263415E+01 -0.69496123537E+02  0.48651285427E+02  0.84927369977E+02  0.00000000000E+00 0. -1.
        -13    1    3    3    0    0 -0.23543244754E+03 -0.82246058010E+03  0.44062504813E+03  0.96229947325E+03  0.00000000000E+00 0.  1.
          2    1    6    6  502    0  0.15797118184E+02  0.42572413335E+03 -0.63688149356E+02  0.43075139817E+03  0.00000000000E+00 0. -1.
          1    1    5    5  503    0  0.18386646555E+03  0.28744626632E+03  0.73342045256E+03  0.80891148676E+03  0.00000000000E+00 0. -1.
         -2    1    5    5    0  503  0.50974146098E+02  0.25780252285E+02  0.18630545412E+03  0.19486586980E+03  0.00000000000E+00 0.  1.
         -1    1    6    6    0  502 -0.19205208632E+02  0.15300605168E+03  0.17848766406E+02  0.15523617604E+03  0.00000000000E+00 0.  1.
<mgrwt>
<rscale>  0 0.22573242E+04</rscale>
<asrwt>0</asrwt>
<pdfrwt beam="1">  1        1 0.30770420E+00 0.22573242E+04</pdfrwt>
<pdfrwt beam="2">  1       -1 0.97986841E-01 0.22573242E+04</pdfrwt>
<totfact> 0.26982919E+00</totfact>
</mgrwt>
</event>
<event>
11    1  0.2045212E-008  0.1127148E+04  0.7818608E-02  0.9179129E-01
          1   -1    0    0  501    0  0.00000000000E+00  0.00000000000E+00  0.21193484304E+04  0.21193484304E+04  0.00000000000E+00 0. -1.
         -1   -1    0    0    0  501 -0.00000000000E+00 -0.00000000000E+00 -0.14986466239E+03  0.14986466239E+03  0.00000000000E+00 0.  1.
         23    2    1    2    0    0  0.58397926541E+02  0.84741137301E+02  0.64787206822E+03  0.66494565296E+03  0.10873420082E+03 0.  0.
        254    2    1    2    0    0 -0.58397926541E+02 -0.84741137301E+02  0.13216116998E+04  0.16042674398E+04  0.90356248004E+03 0.  0.
         24    2    4    4    0    0  0.27824968620E+02  0.26452535035E+03  0.62172786783E+02  0.28520232511E+03  0.82018418511E+02 0.  0.
         13    1    3    3    0    0 -0.24676721109E+02  0.39162238518E+02  0.33062987452E+03  0.33385436259E+03  0.00000000000E+00 0. -1.
        -13    1    3    3    0    0  0.83074647650E+02  0.45578898783E+02  0.31724219370E+03  0.33109129037E+03  0.00000000000E+00 0.  1.
          2    1    5    5  502    0 -0.76700765958E+01  0.18990137889E+02 -0.15002989382E+02  0.25387892832E+02  0.00000000000E+00 0. -1.
          1    1    4    4  503    0  0.29489426546E+02 -0.42203829464E+02  0.31651796103E+03  0.32067804595E+03  0.00000000000E+00 0. -1.
         -2    1    4    4    0  503 -0.11571232171E+03 -0.30706265818E+03  0.94292095196E+03  0.99838706878E+03  0.00000000000E+00 0.  1.
         -3    1    5    5    0  502  0.35495045216E+02  0.24553521246E+03  0.77175776165E+02  0.25981443227E+03  0.00000000000E+00 0.  1.
<mgrwt>
<rscale>  0 0.11271476E+04</rscale>
<asrwt>0</asrwt>
<pdfrwt beam="1">  1        1 0.32605358E+00 0.11271476E+04</pdfrwt>
<pdfrwt beam="2">  1       -1 0.23056103E-01 0.11271476E+04</pdfrwt>
<totfact> 0.39707773E+01</totfact>
</mgrwt>
</event>
<event>
12    1  0.2045212E-008  0.1239725E+04  0.7818608E-02  0.9078779E-01
          1   -1    0    0  501    0  0.00000000000E+00  0.00000000000E+00  0.12369898175E+04  0.12369898175E+04  0.00000000000E+00 0. -1.
         -1   -1    0    0    0  501 -0.00000000000E+00 -0.00000000000E+00 -0.31061666447E+03  0.31061666447E+03  0.00000000000E+00 0.  1.
         23    2    1    2    0    0  0.87084388863E+02  0.18329303933E+03  0.46255864151E+03  0.51322594654E+03  0.90886447375E+02 0.  0.
        254    2    1    2    0    0 -0.87084388863E+02 -0.18329303933E+03  0.46381451151E+03  0.10343805354E+04  0.90201949087E+03 0.  0.
        -24    2    4    4    0    0 -0.44587718737E+03 -0.15421327513E+03  0.45976375098E+03  0.66600733145E+03  0.97953347989E+02 0.  0.
         24    2    4    4    0    0  0.35879279851E+03 -0.29079764193E+02  0.40507605289E+01  0.36837320396E+03  0.78131323983E+02 0.  0.
         13    1    3    3    0    0  0.61742308397E+02  0.37647697759E+02  0.11961380575E+03  0.13977454818E+03  0.00000000000E+00 0.  1.
        -13    1    3    3    0    0  0.25342080466E+02  0.14564534157E+03  0.34294483576E+03  0.37345139836E+03  0.00000000000E+00 0. -1.
          4    1    6    6  502    0  0.12355254563E+03 -0.13939626612E+02 -0.35605016607E+02  0.12933391640E+03  0.00000000000E+00 0. -1.
          1    1    5    5  503    0 -0.22421082091E+03 -0.39691871426E+02  0.26570825351E+03  0.34992401012E+03  0.00000000000E+00 0. -1.
         -2    1    5    5    0  503 -0.22166636647E+03 -0.11452140371E+03  0.19405549746E+03  0.31608332133E+03  0.00000000000E+00 0.  1.
         -3    1    6    6    0  502  0.23524025288E+03 -0.15140137580E+02  0.39655777136E+02  0.23903928757E+03  0.00000000000E+00 0.  1.
<mgrwt>
<rscale>  0 0.12397252E+04</rscale>
<asrwt>0</asrwt>
<pdfrwt beam="1">  1        1 0.19030612E+00 0.12397252E+04</pdfrwt>
<pdfrwt beam="2">  1       -1 0.47787180E-01 0.12397252E+04</pdfrwt>
<totfact> 0.43338177E+01</totfact>
</mgrwt>
</event>
<event>
11    1  0.2045212E-008  0.1263820E+04  0.7818608E-02  0.9058759E-01
         -1   -1    0    0    0  501 -0.00000000000E+00  0.00000000000E+00  0.50940064999E+03  0.50940064999E+03  0.00000000000E+00 0.  1.
          1   -1    0    0  501    0  0.00000000000E+00 -0.00000000000E+00 -0.78388211724E+03  0.78388211724E+03  0.00000000000E+00 0. -1.
         23    2    1    2    0    0  0.50675323088E+02  0.23189776700E+03  0.93052599966E+02  0.27118814058E+03  0.92410272818E+02 0.  0.
        254    2    1    2    0    0 -0.50675323088E+02 -0.23189776700E+03 -0.36753406722E+03  0.10220946266E+04  0.92371617532E+03 0.  0.
         24    2    4    4    0    0  0.18664299351E+03 -0.15076021454E+03 -0.60504915576E+03  0.65642770995E+03  0.85138758437E+02 0.  0.
         11    1    3    3    0    0  0.42930156742E+02  0.13467714202E+03  0.76639574301E+01  0.14156153144E+03  0.00000000000E+00 0. -1.
        -11    1    3    3    0    0  0.77451663453E+01  0.97220624983E+02  0.85388642536E+02  0.12962660914E+03  0.00000000000E+00 0.  1.
          2    1    5    5  502    0  0.25010264911E+02  0.51901989669E+01 -0.32062155601E+02  0.40993088905E+02  0.00000000000E+00 0. -1.
          1    1    4    4  503    0 -0.14721977892E+03 -0.29773274822E+02  0.63460289892E+02  0.16305618538E+03  0.00000000000E+00 0. -1.
         -2    1    4    4    0  503 -0.90098537679E+02 -0.51364277640E+02  0.17405479865E+03  0.20261073131E+03  0.00000000000E+00 0.  1.
         -1    1    5    5    0  502  0.16163272860E+03 -0.15595041351E+03 -0.57298700016E+03  0.61543462105E+03  0.00000000000E+00 0.  1.
<mgrwt>
<rscale>  0 0.12638197E+04</rscale>
<asrwt>0</asrwt>
<pdfrwt beam="1">  1        1 0.12059725E+00 0.12638197E+04</pdfrwt>
<pdfrwt beam="2">  1       -1 0.78369331E-01 0.12638197E+04</pdfrwt>
<totfact> 0.36689163E+01</totfact>
</mgrwt>
</event>
<event>
11    1  0.2045212E-008  0.1781561E+04  0.7818608E-02  0.8716167E-01
          2   -1    0    0  501    0  0.00000000000E+00  0.00000000000E+00  0.20574826711E+04  0.20574826711E+04  0.00000000000E+00 0. -1.
         -2   -1    0    0    0  501 -0.00000000000E+00 -0.00000000000E+00 -0.38566039589E+03  0.38566039589E+03  0.00000000000E+00 0.  1.
         23    2    1    2    0    0 -0.13941331366E+02  0.65062925608E+03  0.82623763541E+03  0.10558908035E+04  0.93402190114E+02 0.  0.
        254    2    1    2    0    0  0.13941331366E+02 -0.65062925608E+03  0.84558463979E+03  0.13872522635E+04  0.88653407716E+03 0.  0.
         24    2    4    4    0    0  0.58242203516E+02 -0.27805768388E+03 -0.68259994638E+02  0.30308375899E+03  0.80573620152E+02 0.  0.
         11    1    3    3    0    0 -0.35217409944E+02  0.30742008496E+03  0.33248277375E+03  0.45419397777E+03  0.00000000000E+00 0.  1.
        -11    1    3    3    0    0  0.21276078578E+02  0.34320917113E+03  0.49375486165E+03  0.60169682571E+03  0.00000000000E+00 0. -1.
          4    1    5    5  502    0  0.52726608167E+02 -0.82370557745E+02 -0.74157934380E+01  0.98081588407E+02  0.00000000000E+00 0. -1.
          1    1    4    4  503    0 -0.21877223092E+03 -0.12815404111E+03  0.59185163701E+03  0.64387351826E+03  0.00000000000E+00 0. -1.
         -2    1    4    4    0  503  0.17447135877E+03 -0.24441753109E+03  0.32199299742E+03  0.44029498626E+03  0.00000000000E+00 0.  1.
         -3    1    5    5    0  502  0.55155953490E+01 -0.19568712613E+03 -0.60844201200E+02  0.20500217059E+03  0.00000000000E+00 0.  1.
<mgrwt>
<rscale>  0 0.17815606E+04</rscale>
<asrwt>0</asrwt>
<pdfrwt beam="1">  1        2 0.31653579E+00 0.17815606E+04</pdfrwt>
<pdfrwt beam="2">  1       -2 0.59332370E-01 0.17815606E+04</pdfrwt>
<totfact> 0.15562019E+01</totfact>
</mgrwt>
</event>
<event>
12    1  0.2617622E-008  0.1992231E+04  0.7818608E-02  0.8610262E-01
         -1   -1    0    0    0  501 -0.00000000000E+00  0.00000000000E+00  0.65271030447E+03  0.65271030447E+03  0.00000000000E+00 0.  1.
          1   -1    0    0  501    0  0.00000000000E+00 -0.00000000000E+00 -0.15201937916E+04  0.15201937916E+04  0.00000000000E+00 0. -1.
         23    2    1    2    0    0  0.78544913263E+01  0.36538328794E+03 -0.11214650721E+04  0.11828855586E+04  0.89261956343E+02 0.  0.
        254    2    1    2    0    0 -0.78544913263E+01 -0.36538328794E+03  0.25398158494E+03  0.99001853742E+03  0.88434349593E+03 0.  0.
        -24    2    4    4    0    0  0.17295831062E+03 -0.13606929598E+03  0.53221226593E+03  0.58007008132E+03  0.69296267673E+02 0.  0.
         24    2    4    4    0    0 -0.18081280194E+03 -0.22931399196E+03 -0.27823068099E+03  0.40994845610E+03  0.73261507997E+02 0.  0.
         13    1    3    3    0    0  0.11288135893E+02  0.40270872723E+02 -0.63066100075E+02  0.75673629359E+02  0.00000000000E+00 0.  1.
        -13    1    3    3    0    0 -0.34336445668E+01  0.32511241522E+03 -0.10583989720E+04  0.11072119293E+04  0.00000000000E+00 0. -1.
          4    1    6    6  502    0 -0.23886115617E+02 -0.80411350898E+02 -0.92006615704E+02  0.12450602076E+03  0.00000000000E+00 0. -1.
          1    1    5    5  503    0  0.55145894250E+02 -0.38049590553E+02  0.25122300416E+03  0.26000353615E+03  0.00000000000E+00 0. -1.
         -2    1    5    5    0  503  0.11781241637E+03 -0.98019705428E+02  0.28098926177E+03  0.32006654516E+03  0.00000000000E+00 0.  1.
         -3    1    6    6    0  502 -0.15692668633E+03 -0.14890264106E+03 -0.18622406529E+03  0.28544243534E+03  0.00000000000E+00 0.  1.
<mgrwt>
<rscale>  0 0.19922311E+04</rscale>
<asrwt>0</asrwt>
<pdfrwt beam="1">  1        1 0.23387597E+00 0.19922311E+04</pdfrwt>
<pdfrwt beam="2">  1       -1 0.10041697E+00 0.19922311E+04</pdfrwt>
<totfact> 0.55506840E+00</totfact>
</mgrwt>
</event>
<event>
11    1  0.2045212E-008  0.2148493E+04  0.7818608E-02  0.8540178E-01
         -2   -1    0    0    0  501 -0.00000000000E+00  0.00000000000E+00  0.96714455621E+03  0.96714455621E+03  0.00000000000E+00 0.  1.
          2   -1    0    0  501    0  0.00000000000E+00 -0.00000000000E+00 -0.11932083996E+04  0.11932083996E+04  0.00000000000E+00 0. -1.
         23    2    1    2    0    0  0.70493413536E+03 -0.37872014913E+03 -0.46244806651E+03  0.92875894632E+03  0.91508904424E+02 0.  0.
        254    2    1    2    0    0 -0.70493413536E+03  0.37872014913E+03  0.23638422314E+03  0.12315940095E+04  0.90586158804E+03 0.  0.
         24    2    4    4    0    0 -0.25003913504E+02  0.84536511617E+02  0.43782635812E+03  0.45349160073E+03  0.78683508988E+02 0.  0.
         11    1    3    3    0    0  0.16138797049E+03 -0.56804976198E+02 -0.68680932549E+02  0.18436364294E+03  0.00000000000E+00 0.  1.
        -11    1    3    3    0    0  0.54354616487E+03 -0.32191517294E+03 -0.39376713396E+03  0.74439530338E+03  0.00000000000E+00 0. -1.
          2    1    5    5  502    0 -0.41743548211E+02  0.79492649214E+02  0.26529801212E+03  0.28007970353E+03  0.00000000000E+00 0. -1.
          1    1    4    4  503    0 -0.60191478711E+03  0.22465600803E+03 -0.14236198306E+03  0.65805673547E+03  0.00000000000E+00 0. -1.
         -2    1    4    4    0  503 -0.78015434748E+02  0.69527629488E+02 -0.59080151920E+02  0.12004567327E+03  0.00000000000E+00 0.  1.
         -1    1    5    5    0  502  0.16739634707E+02  0.50438624028E+01  0.17252834600E+03  0.17341189720E+03  0.00000000000E+00 0.  1.
<mgrwt>
<rscale>  0 0.21484925E+04</rscale>
<asrwt>0</asrwt>
<pdfrwt beam="1">  1        2 0.18357052E+00 0.21484925E+04</pdfrwt>
<pdfrwt beam="2">  1       -2 0.14879147E+00 0.21484925E+04</pdfrwt>
<totfact> 0.53725773E+00</totfact>
</mgrwt>
</event>
<event>
11    1  0.2045212E-008  0.1699313E+04  0.7818608E-02  0.8761756E-01
          1   -1    0    0  501    0  0.00000000000E+00  0.00000000000E+00  0.28392911029E+04  0.28392911029E+04  0.00000000000E+00 0. -1.
         -1   -1    0    0    0  501 -0.00000000000E+00 -0.00000000000E+00 -0.25425941891E+03  0.25425941891E+03  0.00000000000E+00 0.  1.
         23    2    1    2    0    0 -0.52915731872E+03 -0.28017569853E+03  0.76419218837E+03  0.97513544924E+03  0.91616339140E+02 0.  0.
        254    2    1    2    0    0  0.52915731872E+03  0.28017569853E+03  0.18208394956E+04  0.21184150725E+04  0.90206433300E+03 0.  0.
         24    2    4    4    0    0 -0.73597841591E+02  0.87168689978E+02 -0.39016841321E+02  0.14669559329E+03  0.83559920917E+02 0.  0.
         11    1    3    3    0    0 -0.44056621303E+03 -0.24924965318E+03  0.59087125429E+03  0.77804422549E+03  0.00000000000E+00 0. -1.
        -11    1    3    3    0    0 -0.88591105697E+02 -0.30926045346E+02  0.17332093409E+03  0.19709122376E+03  0.00000000000E+00 0.  1.
          4    1    5    5  502    0 -0.32426008607E+02 -0.46321448633E+01  0.10716978377E+02  0.34463842295E+02  0.00000000000E+00 0. -1.
          3    1    4    4  503    0  0.16921319557E+03  0.58577945101E+02  0.78102466126E+03  0.80128896330E+03  0.00000000000E+00 0. -1.
         -4    1    4    4    0  503  0.43354196474E+03  0.13442906345E+03  0.10788316757E+04  0.11704305160E+04  0.00000000000E+00 0.  1.
         -3    1    5    5    0  502 -0.41171832983E+02  0.91800834841E+02 -0.49733819698E+02  0.11223175099E+03  0.00000000000E+00 0.  1.
<mgrwt>
<rscale>  0 0.16993134E+04</rscale>
<asrwt>0</asrwt>
<pdfrwt beam="1">  1        1 0.43681399E+00 0.16993134E+04</pdfrwt>
<pdfrwt beam="2">  1       -1 0.39116836E-01 0.16993134E+04</pdfrwt>
<totfact> 0.47314896E+00</totfact>
</mgrwt>
</event>
<event>
11    1  0.2045212E-008  0.1964179E+04  0.7818608E-02  0.8623554E-01
         -2   -1    0    0    0  501 -0.00000000000E+00  0.00000000000E+00  0.11622904959E+04  0.11622904959E+04  0.00000000000E+00 0.  1.
          2   -1    0    0  501    0  0.00000000000E+00 -0.00000000000E+00 -0.82982656070E+03  0.82982656070E+03  0.00000000000E+00 0. -1.
         23    2    1    2    0    0  0.76676311708E+03 -0.91445979452E+02  0.29353327507E+02  0.77577157689E+03  0.68351128745E+02 0.  0.
        254    2    1    2    0    0 -0.76676311708E+03  0.91445979452E+02  0.30311060764E+03  0.12163454797E+04  0.88956856990E+03 0.  0.
         24    2    4    4    0    0 -0.51957407980E+03  0.13694984625E+03 -0.24666190003E+03  0.59704539314E+03  0.83118131340E+02 0.  0.
         13    1    3    3    0    0  0.76463685867E+03 -0.90072591531E+02  0.24518313162E+02  0.77031405612E+03  0.00000000000E+00 0.  1.
        -13    1    3    3    0    0  0.21262584149E+01 -0.13733879206E+01  0.48350143459E+01  0.54575207698E+01  0.00000000000E+00 0. -1.
          2    1    5    5  502    0 -0.50510461565E+03  0.14341071681E+03 -0.24884070008E+03  0.58104991219E+03  0.00000000000E+00 0. -1.
          1    1    4    4  503    0 -0.25902313719E+03 -0.25489769540E+02  0.48408491655E+03  0.54961888649E+03  0.00000000000E+00 0. -1.
         -2    1    4    4    0  503  0.11834099914E+02 -0.20014097257E+02  0.65687591125E+02  0.69681200030E+02  0.00000000000E+00 0.  1.
         -1    1    5    5    0  502 -0.14469464154E+02 -0.64608705567E+01  0.21788000447E+01  0.15995480952E+02  0.00000000000E+00 0.  1.
<mgrwt>
<rscale>  0 0.19641787E+04</rscale>
<asrwt>0</asrwt>
<pdfrwt beam="1">  1        2 0.12766563E+00 0.19641787E+04</pdfrwt>
<pdfrwt beam="2">  1       -2 0.17881392E+00 0.19641787E+04</pdfrwt>
<totfact> 0.56436881E+00</totfact>
</mgrwt>
</event>
<event>
11    1  0.2045212E-008  0.2347446E+04  0.7818608E-02  0.8459445E-01
         -2   -1    0    0    0  501 -0.00000000000E+00  0.00000000000E+00  0.59413451846E+03  0.59413451846E+03  0.00000000000E+00 0.  1.
          2   -1    0    0  501    0  0.00000000000E+00 -0.00000000000E+00 -0.23187098259E+04  0.23187098259E+04  0.00000000000E+00 0. -1.
         23    2    1    2    0    0 -0.42099742322E+03 -0.58287774069E+03  0.92588169315E+02  0.73114300150E+03  0.94932758337E+02 0.  0.
        254    2    1    2    0    0  0.42099742322E+03  0.58287774069E+03 -0.18171634768E+04  0.21817013429E+04  0.96992389248E+03 0.  0.
         24    2    4    4    0    0  0.67498605653E+03  0.18011993257E+03 -0.10030134432E+04  0.12248381428E+04  0.78378200169E+02 0.  0.
         13    1    3    3    0    0 -0.33657524545E+02 -0.63387054573E+02 -0.17469244032E+02  0.73864214156E+02  0.00000000000E+00 0. -1.
        -13    1    3    3    0    0 -0.38733989868E+03 -0.51949068611E+03  0.11005741335E+03  0.65727878735E+03  0.00000000000E+00 0.  1.
          2    1    5    5  502    0  0.46205472281E+03  0.10871743422E+03 -0.73786484850E+03  0.87735886729E+03  0.00000000000E+00 0. -1.
          3    1    4    4  503    0 -0.17045588718E+03  0.37383132594E+03 -0.70948652533E+03  0.81986352483E+03  0.00000000000E+00 0. -1.
         -4    1    4    4    0  503 -0.83532746138E+02  0.28926482184E+02 -0.10466350822E+03  0.13699967519E+03  0.00000000000E+00 0.  1.
         -1    1    5    5    0  502  0.21293133372E+03  0.71402498345E+02 -0.26514859471E+03  0.34747927554E+03  0.00000000000E+00 0.  1.
<mgrwt>
<rscale>  0 0.23474459E+04</rscale>
<asrwt>0</asrwt>
<pdfrwt beam="1">  1        2 0.35672458E+00 0.23474459E+04</pdfrwt>
<pdfrwt beam="2">  1       -2 0.91405313E-01 0.23474459E+04</pdfrwt>
<totfact> 0.40730472E+00</totfact>
</mgrwt>
</event>
<event>
11    1  0.2045212E-008  0.1473122E+04  0.7818608E-02  0.8902526E-01
          1   -1    0    0  501    0  0.00000000000E+00  0.00000000000E+00  0.29723515719E+04  0.29723515719E+04  0.00000000000E+00 0. -1.
         -1   -1    0    0    0  501 -0.00000000000E+00 -0.00000000000E+00 -0.18252291935E+03  0.18252291935E+03  0.00000000000E+00 0.  1.
         23    2    1    2    0    0  0.10299388708E+03 -0.29122495269E+03  0.16285022826E+03  0.36083252441E+03  0.90885642322E+02 0.  0.
        254    2    1    2    0    0 -0.10299388708E+03  0.29122495269E+03  0.26269784243E+04  0.27940419669E+04  0.90013063323E+03 0.  0.
         24    2    4    4    0    0  0.96473626850E+02 -0.36084914870E+02 -0.45061768531E+01  0.13080811625E+03  0.80505750649E+02 0.  0.
         13    1    3    3    0    0  0.74170148552E+01 -0.56418570799E+02  0.71461429639E+02  0.91349894178E+02  0.00000000000E+00 0. -1.
        -13    1    3    3    0    0  0.95576872226E+02 -0.23480638189E+03  0.91388798617E+02  0.26948263023E+03  0.00000000000E+00 0.  1.
          2    1    5    5  502    0 -0.91468413871E+01 -0.22263018035E+02 -0.31874504152E+01  0.24278931598E+02  0.00000000000E+00 0. -1.
          3    1    4    4  503    0 -0.48708720125E+02  0.15886346467E+03  0.15156232677E+04  0.15247045712E+04  0.00000000000E+00 0. -1.
         -4    1    4    4    0  503 -0.15075879381E+03  0.16844640290E+03  0.11158613335E+04  0.11385292795E+04  0.00000000000E+00 0.  1.
         -1    1    5    5    0  502  0.10562046824E+03 -0.13821896836E+02 -0.13187264379E+01  0.10652918465E+03  0.00000000000E+00 0.  1.
<mgrwt>
<rscale>  0 0.14731222E+04</rscale>
<asrwt>0</asrwt>
<pdfrwt beam="1">  1        1 0.45728482E+00 0.14731222E+04</pdfrwt>
<pdfrwt beam="2">  1       -1 0.28080451E-01 0.14731222E+04</pdfrwt>
<totfact> 0.69985587E+00</totfact>
</mgrwt>
</event>
<event>
12    1  0.2045212E-008  0.1547584E+04  0.7818608E-02  0.8853413E-01
          1   -1    0    0  501    0  0.00000000000E+00  0.00000000000E+00  0.16810551574E+04  0.16810551574E+04  0.00000000000E+00 0. -1.
         -1   -1    0    0    0  501 -0.00000000000E+00 -0.00000000000E+00 -0.35617742234E+03  0.35617742234E+03  0.00000000000E+00 0.  1.
         23    2    1    2    0    0 -0.23321949097E+03 -0.48291357862E+02 -0.15045019889E+03  0.29609624699E+03  0.91182996905E+02 0.  0.
        254    2    1    2    0    0  0.23321949097E+03  0.48291357862E+02  0.14753279340E+04  0.17411363328E+04  0.89344268441E+03 0.  0.
        -24    2    4    4    0    0  0.29036925933E+03 -0.23215781189E+03  0.20249911678E+03  0.43424542517E+03  0.96703880995E+02 0.  0.
         24    2    4    4    0    0 -0.57149768365E+02  0.28044916975E+03  0.12728288172E+04  0.13068909076E+04  0.77154479174E+02 0.  0.
         11    1    3    3    0    0 -0.88952285799E+02 -0.63694601477E+02 -0.74190282677E+02  0.13218815926E+03  0.00000000000E+00 0. -1.
        -11    1    3    3    0    0 -0.14426720517E+03  0.15403243615E+02 -0.76259916210E+02  0.16390808772E+03  0.00000000000E+00 0.  1.
          4    1    6    6  502    0 -0.83493695263E+01  0.13712956617E+01  0.12386990634E+02  0.15000998641E+02  0.00000000000E+00 0. -1.
          3    1    5    5  503    0  0.11646443470E+03 -0.13692226390E+03  0.57917114358E+02  0.18885460819E+03  0.00000000000E+00 0. -1.
         -2    1    5    5    0  503  0.17390482464E+03 -0.95235547991E+02  0.14458200243E+03  0.24539081698E+03  0.00000000000E+00 0.  1.
         -3    1    6    6    0  502 -0.48800398839E+02  0.27907787409E+03  0.12604418266E+04  0.12918899090E+04  0.00000000000E+00 0.  1.
<mgrwt>
<rscale>  0 0.15475838E+04</rscale>
<asrwt>0</asrwt>
<pdfrwt beam="1">  1        1 0.25862387E+00 0.15475838E+04</pdfrwt>
<pdfrwt beam="2">  1       -1 0.54796527E-01 0.15475838E+04</pdfrwt>
<totfact> 0.15923282E+01</totfact>
</mgrwt>
</event>
<event>
11    1  0.2045212E-008  0.2242500E+04  0.7818608E-02  0.8500944E-01
         -2   -1    0    0    0  501 -0.00000000000E+00  0.00000000000E+00  0.99529524506E+03  0.99529524506E+03  0.00000000000E+00 0.  1.
          2   -1    0    0  501    0  0.00000000000E+00 -0.00000000000E+00 -0.12631444734E+04  0.12631444734E+04  0.00000000000E+00 0. -1.
         23    2    1    2    0    0  0.55498878858E+03  0.28948793768E+03 -0.76243573033E+03  0.99092204715E+03  0.93821314879E+02 0.  0.
        254    2    1    2    0    0 -0.55498878858E+03 -0.28948793768E+03  0.49458650194E+03  0.12675176714E+04  0.98497178528E+03 0.  0.
         24    2    4    4    0    0 -0.11649622418E+03 -0.23975685759E+03 -0.26335553761E+03  0.38312691283E+03  0.79845921250E+02 0.  0.
         13    1    3    3    0    0  0.27032364623E+03  0.11685166572E+03 -0.29308610129E+03  0.41548603859E+03  0.00000000000E+00 0.  1.
        -13    1    3    3    0    0  0.28466514235E+03  0.17263627196E+03 -0.46934962904E+03  0.57543600856E+03  0.00000000000E+00 0. -1.
          2    1    5    5  502    0 -0.43674777854E+01 -0.59824359015E+02 -0.27493463499E+02  0.65984235457E+02  0.00000000000E+00 0. -1.
          1    1    4    4  503    0 -0.29494936015E+03 -0.26533664119E+02  0.39719765734E+03  0.49544438576E+03  0.00000000000E+00 0. -1.
         -2    1    4    4    0  503 -0.14354320425E+03 -0.23197415976E+02  0.36074438221E+03  0.38894637277E+03  0.00000000000E+00 0.  1.
         -1    1    5    5    0  502 -0.11212874639E+03 -0.17993249857E+03 -0.23586207411E+03  0.31714267737E+03  0.00000000000E+00 0.  1.
<mgrwt>
<rscale>  0 0.22425001E+04</rscale>
<asrwt>0</asrwt>
<pdfrwt beam="1">  1        2 0.19432992E+00 0.22425001E+04</pdfrwt>
<pdfrwt beam="2">  1       -2 0.15312234E+00 0.22425001E+04</pdfrwt>
<totfact> 0.44892256E+00</totfact>
</mgrwt>
</event>
<event>
12    1  0.2045212E-008  0.2802961E+04  0.7818608E-02  0.8302350E-01
         -1   -1    0    0    0  501 -0.00000000000E+00  0.00000000000E+00  0.99512202582E+03  0.99512202582E+03  0.00000000000E+00 0.  1.
          1   -1    0    0  501    0  0.00000000000E+00 -0.00000000000E+00 -0.19737756029E+04  0.19737756029E+04  0.00000000000E+00 0. -1.
         23    2    1    2    0    0 -0.17156186697E+03 -0.17159268189E+03  0.86462941110E+03  0.90264084646E+03  0.91098608538E+02 0.  0.
        254    2    1    2    0    0  0.17156186697E+03  0.17159268189E+03 -0.18432829882E+04  0.20662567822E+04  0.90158049725E+03 0.  0.
        -24    2    4    4    0    0  0.23602376646E+03  0.49842341117E+03 -0.84331449950E+03  0.10091549255E+04  0.55508589221E+02 0.  0.
         24    2    4    4    0    0 -0.64461899493E+02 -0.32683072927E+03 -0.99996848868E+03  0.10571018567E+04  0.80954895471E+02 0.  0.
         13    1    3    3    0    0 -0.13013690546E+02 -0.21056324920E+02  0.25662449521E+02  0.35655101685E+02  0.00000000000E+00 0. -1.
        -13    1    3    3    0    0 -0.15854817642E+03 -0.15053635697E+03  0.83896696158E+03  0.86698574477E+03  0.00000000000E+00 0.  1.
          4    1    6    6  502    0 -0.56075743206E+02 -0.30025997182E+03 -0.96614369157E+03  0.10132789213E+04  0.00000000000E+00 0. -1.
          3    1    5    5  503    0  0.21715650031E+03  0.41911023146E+03 -0.70016506103E+03  0.84441781391E+03  0.00000000000E+00 0. -1.
         -4    1    5    5    0  503  0.18867266146E+02  0.79313179701E+02 -0.14314943846E+03  0.16473711160E+03  0.00000000000E+00 0.  1.
         -3    1    6    6    0  502 -0.83861562872E+01 -0.26570757450E+02 -0.33824797106E+02  0.43822935411E+02  0.00000000000E+00 0.  1.
<mgrwt>
<rscale>  0 0.28029610E+04</rscale>
<asrwt>0</asrwt>
<pdfrwt beam="1">  1        1 0.30365778E+00 0.28029610E+04</pdfrwt>
<pdfrwt beam="2">  1       -1 0.15309570E+00 0.28029610E+04</pdfrwt>
<totfact> 0.88693283E-01</totfact>
</mgrwt>
</event>
<event>
12    1  0.2045212E-008  0.1547612E+04  0.7818608E-02  0.8853394E-01
          1   -1    0    0  501    0  0.00000000000E+00  0.00000000000E+00  0.63930881577E+03  0.63930881577E+03  0.00000000000E+00 0. -1.
         -1   -1    0    0    0  501 -0.00000000000E+00 -0.00000000000E+00 -0.93659860901E+03  0.93659860901E+03  0.00000000000E+00 0.  1.
         23    2    1    2    0    0 -0.56494861934E+02  0.47069678395E+03  0.91844607764E+02  0.49129965647E+03  0.90514024485E+02 0.  0.
        254    2    1    2    0    0  0.56494861934E+02 -0.47069678395E+03 -0.38913440101E+03  0.10846077683E+04  0.89453971247E+03 0.  0.
        -24    2    4    4    0    0  0.39407008838E+03  0.72717764816E+01 -0.25246182651E+03  0.47853818118E+03  0.99587668505E+02 0.  0.
         24    2    4    4    0    0 -0.33757522644E+03 -0.47796856043E+03 -0.13667257450E+03  0.60606958713E+03  0.78930181498E+02 0.  0.
         11    1    3    3    0    0 -0.58990285925E+02  0.29459544752E+03  0.95147191508E+02  0.31514967807E+03  0.00000000000E+00 0. -1.
        -11    1    3    3    0    0  0.24954239911E+01  0.17610133643E+03 -0.33025837434E+01  0.17614997841E+03  0.00000000000E+00 0.  1.
          4    1    6    6  502    0 -0.21370601331E+03 -0.34442633584E+03 -0.12215684787E+03  0.42334626067E+03  0.00000000000E+00 0. -1.
          1    1    5    5  503    0  0.87037113924E+01  0.14474392312E+02 -0.27455337913E+02  0.32234425770E+02  0.00000000000E+00 0. -1.
         -2    1    5    5    0  503  0.38536637698E+03 -0.72026158303E+01 -0.22500648860E+03  0.44630375541E+03  0.00000000000E+00 0.  1.
         -3    1    6    6    0  502 -0.12386921313E+03 -0.13354222459E+03 -0.14515726630E+02  0.18272332645E+03  0.00000000000E+00 0.  1.
<mgrwt>
<rscale>  0 0.15476120E+04</rscale>
<asrwt>0</asrwt>
<pdfrwt beam="1">  1        1 0.98355203E-01 0.15476120E+04</pdfrwt>
<pdfrwt beam="2">  1       -1 0.14409209E+00 0.15476120E+04</pdfrwt>
<totfact> 0.11687191E+01</totfact>
</mgrwt>
</event>
<event>
12    1  0.2045212E-008  0.1396604E+04  0.7818608E-02  0.8956280E-01
          1   -1    0    0  501    0  0.00000000000E+00  0.00000000000E+00  0.97278975623E+03  0.97278975623E+03  0.00000000000E+00 0. -1.
         -1   -1    0    0    0  501 -0.00000000000E+00 -0.00000000000E+00 -0.50126555419E+03  0.50126555419E+03  0.00000000000E+00 0.  1.
         23    2    1    2    0    0  0.24925343354E+03 -0.21113951948E+03 -0.10237662118E+03  0.35379961978E+03  0.89364576726E+02 0.  0.
        254    2    1    2    0    0 -0.24925343354E+03  0.21113951948E+03  0.57390082322E+03  0.11202556906E+04  0.90493286310E+03 0.  0.
        -24    2    4    4    0    0  0.17237244446E+03  0.42400232268E+03  0.17956274773E+03  0.49995321872E+03  0.90665380869E+02 0.  0.
         24    2    4    4    0    0 -0.42162587801E+03 -0.21286280320E+03  0.39433807549E+03  0.62030247193E+03  0.78699967657E+02 0.  0.
         11    1    3    3    0    0  0.25651854394E+03 -0.19972092147E+03 -0.99194157143E+02  0.33989658820E+03  0.00000000000E+00 0.  1.
        -11    1    3    3    0    0 -0.72651104040E+01 -0.11418598006E+02 -0.31824640358E+01  0.13903031574E+02  0.00000000000E+00 0. -1.
          4    1    6    6  502    0 -0.12714269924E+03 -0.25722701463E+02  0.99167802840E+02  0.16328250507E+03  0.00000000000E+00 0. -1.
          1    1    5    5  503    0  0.15749830372E+03  0.33061099769E+03  0.10940600144E+03  0.38220285271E+03  0.00000000000E+00 0. -1.
         -2    1    5    5    0  503  0.14874140748E+02  0.93391324982E+02  0.70156746284E+02  0.11775036600E+03  0.00000000000E+00 0.  1.
         -3    1    6    6    0  502 -0.29448317876E+03 -0.18714010174E+03  0.29517027265E+03  0.45701996686E+03  0.00000000000E+00 0.  1.
<mgrwt>
<rscale>  0 0.13966044E+04</rscale>
<asrwt>0</asrwt>
<pdfrwt beam="1">  1        1 0.14965996E+00 0.13966044E+04</pdfrwt>
<pdfrwt beam="2">  1       -1 0.77117778E-01 0.13966044E+04</pdfrwt>
<totfact> 0.26149258E+01</totfact>
</mgrwt>
</event>
<event>
11    1  0.2045212E-008  0.3224019E+04  0.7818608E-02  0.8182503E-01
          1   -1    0    0  501    0  0.00000000000E+00  0.00000000000E+00  0.18201519314E+04  0.18201519314E+04  0.00000000000E+00 0. -1.
         -1   -1    0    0    0  501 -0.00000000000E+00 -0.00000000000E+00 -0.14276687562E+04  0.14276687562E+04  0.00000000000E+00 0.  1.
         23    2    1    2    0    0 -0.17662191578E+03 -0.12989720257E+04  0.88122910167E+03  0.15821508705E+04  0.90072320099E+02 0.  0.
        254    2    1    2    0    0  0.17662191578E+03  0.12989720257E+04 -0.48874592640E+03  0.16656698171E+04  0.90391356581E+03 0.  0.
         24    2    4    4    0    0 -0.10318529114E+03  0.10615106106E+04 -0.59083606983E+03  0.12217760543E+04  0.78724104082E+02 0.  0.
         11    1    3    3    0    0 -0.12735555987E+03 -0.86546475275E+03  0.53752358098E+03  0.10267328168E+04  0.00000000000E+00 0. -1.
        -11    1    3    3    0    0 -0.49266355903E+02 -0.43350727290E+03  0.34370552069E+03  0.55541805375E+03  0.00000000000E+00 0.  1.
          2    1    5    5  502    0 -0.10003047718E+03  0.10594950014E+04 -0.59208922701E+03  0.12178281517E+04  0.00000000000E+00 0. -1.
          3    1    4    4  503    0  0.11436516335E+03 -0.28204030973E+02  0.13089864724E+02  0.11851667609E+03  0.00000000000E+00 0. -1.
         -4    1    4    4    0  503  0.16544204356E+03  0.26566544600E+03  0.89000278709E+02  0.32537708676E+03  0.00000000000E+00 0.  1.
         -1    1    5    5    0  502 -0.31548139598E+01  0.20156092413E+01  0.12531571751E+01  0.39479025621E+01  0.00000000000E+00 0.  1.
<mgrwt>
<rscale>  0 0.32240186E+04</rscale>
<asrwt>0</asrwt>
<pdfrwt beam="1">  1        1 0.28002337E+00 0.32240186E+04</pdfrwt>
<pdfrwt beam="2">  1       -1 0.21964135E+00 0.32240186E+04</pdfrwt>
<totfact> 0.36475777E-01</totfact>
</mgrwt>
</event>
<event>
11    1  0.2045212E-008  0.1094686E+04  0.7818608E-02  0.9210387E-01
         -1   -1    0    0    0  501 -0.00000000000E+00  0.00000000000E+00  0.59283374596E+03  0.59283374596E+03  0.00000000000E+00 0.  1.
          1   -1    0    0  501    0  0.00000000000E+00 -0.00000000000E+00 -0.50534262939E+03  0.50534262939E+03  0.00000000000E+00 0. -1.
         23    2    1    2    0    0  0.11041238453E+03 -0.91942652749E+01  0.13018309771E+03  0.19359531988E+03  0.90862972539E+02 0.  0.
        254    2    1    2    0    0 -0.11041238453E+03  0.91942652749E+01 -0.42691981141E+02  0.90458105547E+03  0.89675462167E+03 0.  0.
         24    2    4    4    0    0  0.76475575927E+02 -0.28220603049E+03  0.28246015834E+03  0.41638048433E+03  0.90001162891E+02 0.  0.
         13    1    3    3    0    0  0.12164015082E+03 -0.19140946040E+02  0.95573333163E+02  0.15587483478E+03  0.00000000000E+00 0.  1.
        -13    1    3    3    0    0 -0.11227766288E+02  0.99466807651E+01  0.34609764546E+02  0.37720485097E+02  0.00000000000E+00 0. -1.
          2    1    5    5  502    0  0.36508353922E+02 -0.25330526492E+03  0.22617403825E+03  0.34154225613E+03  0.00000000000E+00 0. -1.
          1    1    4    4  503    0 -0.16905964472E+03  0.29534482635E+03 -0.28423890859E+03  0.44339766247E+03  0.00000000000E+00 0. -1.
         -2    1    4    4    0  503 -0.17828315734E+02 -0.39445305827E+01 -0.40913230895E+02  0.44802908674E+02  0.00000000000E+00 0.  1.
         -1    1    5    5    0  502  0.39967222005E+02 -0.28900765568E+02  0.56286120089E+02  0.74838228199E+02  0.00000000000E+00 0.  1.
<mgrwt>
<rscale>  0 0.10946856E+04</rscale>
<asrwt>0</asrwt>
<pdfrwt beam="1">  1        1 0.77745020E-01 0.10946856E+04</pdfrwt>
<pdfrwt beam="2">  1       -1 0.91205192E-01 0.10946856E+04</pdfrwt>
<totfact> 0.51092789E+01</totfact>
</mgrwt>
</event>
<event>
12    1  0.2045212E-008  0.1518531E+04  0.7818608E-02  0.8872223E-01
         -2   -1    0    0    0  501 -0.00000000000E+00  0.00000000000E+00  0.25287982267E+03  0.25287982267E+03  0.00000000000E+00 0. -1.
          2   -1    0    0  501    0  0.00000000000E+00 -0.00000000000E+00 -0.22796759917E+04  0.22796759917E+04  0.00000000000E+00 0.  1.
         23    2    1    2    0    0 -0.41334758529E+03  0.25060800625E+03 -0.74296759145E+03  0.89145420981E+03  0.95021929986E+02 0.  0.
        254    2    1    2    0    0  0.41334758529E+03 -0.25060800625E+03 -0.12838285776E+04  0.16411016046E+04  0.90074306041E+03 0.  0.
        -24    2    4    4    0    0  0.32907919083E+03 -0.55102525570E+03 -0.60001583934E+03  0.88528908424E+03  0.10860851237E+03 0.  0.
         24    2    4    4    0    0  0.84268394466E+02  0.30041724945E+03 -0.68381273828E+03  0.75581252037E+03  0.79378957167E+02 0.  0.
         11    1    3    3    0    0 -0.10944534854E+03  0.10965453354E+03 -0.19299123029E+03  0.24748336512E+03  0.00000000000E+00 0. -1.
        -11    1    3    3    0    0 -0.30390223676E+03  0.14095347271E+03 -0.54997636117E+03  0.64397084469E+03  0.00000000000E+00 0.  1.
          2    1    6    6  502    0  0.71466660199E+02  0.18194065793E+03 -0.49890267934E+03  0.53582998234E+03  0.00000000000E+00 0. -1.
          3    1    5    5  503    0  0.30511956224E+03 -0.53297649790E+03 -0.53824889046E+03  0.81662339096E+03  0.00000000000E+00 0. -1.
         -4    1    5    5    0  503  0.23959628587E+02 -0.18048757799E+02 -0.61766948877E+02  0.68665693280E+02  0.00000000000E+00 0.  1.
         -1    1    6    6    0  502  0.12801734268E+02  0.11847659152E+03 -0.18491005895E+03  0.21998253803E+03  0.00000000000E+00 0.  1.
<mgrwt>
<rscale>  0 0.15185309E+04</rscale>
<asrwt>0</asrwt>
<pdfrwt beam="1">  1        2 0.35071937E+00 0.15185309E+04</pdfrwt>
<pdfrwt beam="2">  1       -2 0.38904590E-01 0.15185309E+04</pdfrwt>
<totfact> 0.28087519E+01</totfact>
</mgrwt>
</event>
<event>
12    1  0.2045212E-008  0.1442331E+04  0.7818608E-02  0.8923735E-01
          1   -1    0    0  501    0  0.00000000000E+00  0.00000000000E+00  0.98271671226E+03  0.98271671226E+03  0.00000000000E+00 0. -1.
         -1   -1    0    0    0  501 -0.00000000000E+00 -0.00000000000E+00 -0.52922632327E+03  0.52922632327E+03  0.00000000000E+00 0.  1.
         23    2    1    2    0    0  0.40545451138E+02  0.61433722343E+02  0.59409695401E+03  0.60584548425E+03  0.93163963912E+02 0.  0.
        254    2    1    2    0    0 -0.40545451138E+02 -0.61433722343E+02 -0.14060656502E+03  0.90609755127E+03  0.89208997890E+03 0.  0.
        -24    2    4    4    0    0  0.18201353613E+03  0.29362877110E+03 -0.28228340065E+03  0.45641561778E+03  0.96356189859E+02 0.  0.
         24    2    4    4    0    0 -0.22255898727E+03 -0.35506249344E+03  0.14167683563E+03  0.44968193349E+03  0.80868031358E+02 0.  0.
         13    1    3    3    0    0  0.67143137918E+02  0.32716189442E+02  0.30012717545E+03  0.30928121745E+03  0.00000000000E+00 0.  1.
        -13    1    3    3    0    0 -0.26597686779E+02  0.28717532901E+02  0.29396977856E+03  0.29656426680E+03  0.00000000000E+00 0. -1.
          4    1    6    6  502    0 -0.22038104810E+03 -0.30729458343E+03  0.13434374064E+03  0.40130538000E+03  0.00000000000E+00 0. -1.
          1    1    5    5  503    0  0.19249509205E+03  0.27162413380E+03 -0.27222966402E+03  0.43005002093E+03  0.00000000000E+00 0. -1.
         -2    1    5    5    0  503 -0.10481555927E+02  0.22004637298E+02 -0.10053736623E+02  0.26365596852E+02  0.00000000000E+00 0.  1.
         -3    1    6    6    0  502 -0.21779391643E+01 -0.47767910014E+02  0.73330949913E+01  0.48376553497E+02  0.00000000000E+00 0.  1.
<mgrwt>
<rscale>  0 0.14423308E+04</rscale>
<asrwt>0</asrwt>
<pdfrwt beam="1">  1        1 0.15118719E+00 0.14423308E+04</pdfrwt>
<pdfrwt beam="2">  1       -1 0.81419434E-01 0.14423308E+04</pdfrwt>
<totfact> 0.22798581E+01</totfact>
</mgrwt>
</event>
<event>
12    1  0.2045212E-008  0.2022075E+04  0.7818608E-02  0.8596369E-01
         -4   -1    0    0    0  501 -0.00000000000E+00  0.00000000000E+00  0.15048873974E+04  0.15048873974E+04  0.00000000000E+00 0.  1.
          4   -1    0    0  501    0  0.00000000000E+00 -0.00000000000E+00 -0.67925169588E+03  0.67925169588E+03  0.00000000000E+00 0. -1.
         23    2    1    2    0    0 -0.80166898919E+03 -0.35103618718E+03  0.44710545701E+03  0.98692428256E+03  0.90645887251E+02 0.  0.
        254    2    1    2    0    0  0.80166898919E+03  0.35103618718E+03  0.37853024450E+03  0.11972148107E+04  0.72397415982E+03 0.  0.
        -24    2    4    4    0    0  0.90934327427E+03  0.39031401145E+03  0.35897605805E+03  0.10565443477E+04  0.90398729737E+02 0.  0.
         24    2    4    4    0    0 -0.10767428509E+03 -0.39277824272E+02  0.19554186457E+02  0.14067046306E+03  0.79178998604E+02 0.  0.
         13    1    3    3    0    0 -0.75117298210E+03 -0.32090844243E+03  0.43965692139E+03  0.92765364549E+03  0.00000000000E+00 0.  1.
        -13    1    3    3    0    0 -0.50496007087E+02 -0.30127744755E+02  0.74485356194E+01  0.59270637069E+02  0.00000000000E+00 0. -1.
          2    1    6    6  502    0 -0.11780381274E+03 -0.31236345695E+02  0.28223876513E+02  0.12510009910E+03  0.00000000000E+00 0. -1.
          1    1    5    5  503    0  0.63919041384E+03  0.27525311535E+03  0.29578854461E+03  0.75618749380E+03  0.00000000000E+00 0. -1.
         -2    1    5    5    0  503  0.27015286044E+03  0.11506089610E+03  0.63187513435E+02  0.30035685387E+03  0.00000000000E+00 0.  1.
         -1    1    6    6    0  502  0.10129527653E+02 -0.80414785770E+01 -0.86696900559E+01  0.15570363960E+02  0.00000000000E+00 0.  1.
<mgrwt>
<rscale>  0 0.20220755E+04</rscale>
<asrwt>0</asrwt>
<pdfrwt beam="1">  1        4 0.10450026E+00 0.20220755E+04</pdfrwt>
<pdfrwt beam="2">  1       -4 0.23152114E+00 0.20220755E+04</pdfrwt>
<totfact> 0.11357785E-01</totfact>
</mgrwt>
</event>
<event>
12    1  0.2045212E-008  0.1599312E+04  0.7818608E-02  0.8820971E-01
          2   -1    0    0  501    0  0.00000000000E+00  0.00000000000E+00  0.54335050627E+03  0.54335050627E+03  0.00000000000E+00 0. -1.
         -2   -1    0    0    0  501 -0.00000000000E+00 -0.00000000000E+00 -0.11768636991E+04  0.11768636991E+04  0.00000000000E+00 0.  1.
         23    2    1    2    0    0 -0.19787000785E+03 -0.48839457623E+03 -0.70174984635E+02  0.53939028358E+03  0.91299219350E+02 0.  0.
        254    2    1    2    0    0  0.19787000785E+03  0.48839457623E+03 -0.56333820818E+03  0.11808239218E+04  0.89404328492E+03 0.  0.
        -24    2    4    4    0    0 -0.26796014882E+03  0.49149778073E+03 -0.34508110895E+03  0.66014928550E+03  0.57822120161E+02 0.  0.
         24    2    4    4    0    0  0.46583015667E+03 -0.31032044945E+01 -0.21825709924E+03  0.52067463627E+03  0.80365109014E+02 0.  0.
         11    1    3    3    0    0 -0.61700045275E+02 -0.12985515750E+03  0.20683079057E+02  0.14524822641E+03  0.00000000000E+00 0. -1.
        -11    1    3    3    0    0 -0.13616996258E+03 -0.35853941874E+03 -0.90858063692E+02  0.39414205717E+03  0.00000000000E+00 0.  1.
          4    1    6    6  502    0  0.20562813366E+03 -0.26853825319E+02 -0.62949543774E+02  0.21671802497E+03  0.00000000000E+00 0. -1.
          3    1    5    5  503    0 -0.15939067095E+03  0.32937001676E+03 -0.24947487454E+03  0.44286307924E+03  0.00000000000E+00 0. -1.
         -4    1    5    5    0  503 -0.10856947787E+03  0.16212776397E+03 -0.95606234403E+02  0.21728620626E+03  0.00000000000E+00 0.  1.
         -3    1    6    6    0  502  0.26020202301E+03  0.23750620824E+02 -0.15530755546E+03  0.30395661130E+03  0.00000000000E+00 0.  1.
<mgrwt>
<rscale>  0 0.15993117E+04</rscale>
<asrwt>0</asrwt>
<pdfrwt beam="1">  1        2 0.83592386E-01 0.15993117E+04</pdfrwt>
<pdfrwt beam="2">  1       -2 0.18105595E+00 0.15993117E+04</pdfrwt>
<totfact> 0.95406284E+00</totfact>
</mgrwt>
</event>
<event>
11    1  0.2045212E-008  0.1668795E+04  0.7818608E-02  0.8779365E-01
         -1   -1    0    0    0  501 -0.00000000000E+00  0.00000000000E+00  0.44889764507E+03  0.44889764507E+03  0.00000000000E+00 0.  1.
          1   -1    0    0  501    0  0.00000000000E+00 -0.00000000000E+00 -0.15509525429E+04  0.15509525429E+04  0.00000000000E+00 0. -1.
         23    2    1    2    0    0 -0.54899098076E+03  0.23400005864E+03 -0.39703630251E+03  0.72315222795E+03  0.95729801367E+02 0.  0.
        254    2    1    2    0    0  0.54899098076E+03 -0.23400005864E+03 -0.70501859534E+03  0.12766979600E+04  0.88133951290E+03 0.  0.
         24    2    4    4    0    0  0.14261238396E+03 -0.28932441605E+03 -0.60976497924E+01  0.33214312544E+03  0.78961792430E+02 0.  0.
         11    1    3    3    0    0 -0.16650448370E+02  0.62103086178E+00  0.38019013698E+01  0.17090276893E+02  0.00000000000E+00 0.  1.
        -11    1    3    3    0    0 -0.53234053239E+03  0.23337902778E+03 -0.40083820388E+03  0.70606195105E+03  0.00000000000E+00 0. -1.
          4    1    5    5  502    0  0.32634427051E+01 -0.82643027712E+02  0.21796719444E+01  0.82736153267E+02  0.00000000000E+00 0. -1.
          1    1    4    4  503    0  0.32513806685E+03 -0.25877506693E+02 -0.10951530095E+03  0.34406105419E+03  0.00000000000E+00 0. -1.
         -2    1    4    4    0  503  0.81240529958E+02  0.81201864095E+02 -0.58940564459E+03  0.60049378042E+03  0.00000000000E+00 0.  1.
         -3    1    5    5    0  502  0.13934894125E+03 -0.20668138833E+03 -0.82773217369E+01  0.24940697217E+03  0.00000000000E+00 0.  1.
<mgrwt>
<rscale>  0 0.16687947E+04</rscale>
<asrwt>0</asrwt>
<pdfrwt beam="1">  1        1 0.23860808E+00 0.16687947E+04</pdfrwt>
<pdfrwt beam="2">  1       -1 0.69061176E-01 0.16687947E+04</pdfrwt>
<totfact> 0.12206442E+01</totfact>
</mgrwt>
</event>
<event>
11    1  0.2045212E-008  0.1655487E+04  0.7818608E-02  0.8787167E-01
          2   -1    0    0  501    0  0.00000000000E+00  0.00000000000E+00  0.66183735919E+03  0.66183735919E+03  0.00000000000E+00 0. -1.
         -2   -1    0    0    0  501 -0.00000000000E+00 -0.00000000000E+00 -0.10352382564E+04  0.10352382564E+04  0.00000000000E+00 0.  1.
         23    2    1    2    0    0 -0.55225474225E+03  0.16141002557E+03 -0.36987166625E+02  0.58365923446E+03  0.90838069021E+02 0.  0.
        254    2    1    2    0    0  0.55225474225E+03 -0.16141002557E+03 -0.33641373058E+03  0.11134163811E+04  0.89189872908E+03 0.  0.
         24    2    4    4    0    0  0.95457032739E+02 -0.31021582854E+03  0.13501931474E+03  0.35928635111E+03  0.74233155401E+02 0.  0.
         13    1    3    3    0    0 -0.16502856656E+03  0.80071526866E+02 -0.41033785073E+02  0.18796182781E+03  0.00000000000E+00 0.  1.
        -13    1    3    3    0    0 -0.38722617568E+03  0.81338498705E+02  0.40466184475E+01  0.39569740665E+03  0.00000000000E+00 0. -1.
          2    1    5    5  502    0  0.51842469162E+02 -0.10443524313E+03  0.81430878669E+02  0.14221585572E+03  0.00000000000E+00 0. -1.
          3    1    4    4  503    0  0.47934366420E+03  0.20593477952E+03 -0.45033982666E+03  0.68919187553E+03  0.00000000000E+00 0. -1.
         -4    1    4    4    0  503 -0.22545954692E+02 -0.57128976544E+02 -0.21093218664E+02  0.64938154482E+02  0.00000000000E+00 0.  1.
         -1    1    5    5    0  502  0.43614563577E+02 -0.20578058541E+03  0.53588436074E+02  0.21707049539E+03  0.00000000000E+00 0.  1.
<mgrwt>
<rscale>  0 0.16554871E+04</rscale>
<asrwt>0</asrwt>
<pdfrwt beam="1">  1        2 0.10182113E+00 0.16554871E+04</pdfrwt>
<pdfrwt beam="2">  1       -2 0.15926742E+00 0.16554871E+04</pdfrwt>
<totfact> 0.10699836E+01</totfact>
</mgrwt>
</event>
<event>
12    1  0.2045212E-008  0.2446762E+04  0.7818608E-02  0.8422201E-01
          1   -1    0    0  501    0  0.00000000000E+00  0.00000000000E+00  0.24397288304E+04  0.24397288304E+04  0.00000000000E+00 0. -1.
         -1   -1    0    0    0  501 -0.00000000000E+00 -0.00000000000E+00 -0.61345370706E+03  0.61345370706E+03  0.00000000000E+00 0.  1.
         23    2    1    2    0    0  0.43916977385E+03  0.20846997941E+03 -0.37647166257E+03  0.62164842745E+03  0.91575280810E+02 0.  0.
        254    2    1    2    0    0 -0.43916977385E+03 -0.20846997941E+03  0.22027467859E+04  0.24315341100E+04  0.90770860010E+03 0.  0.
        -24    2    4    4    0    0  0.39301837076E+02  0.25554089243E+03  0.11488098691E+04  0.11823558419E+04  0.10656190436E+03 0.  0.
         24    2    4    4    0    0 -0.47847161092E+03 -0.46401087184E+03  0.10539369168E+04  0.12491782681E+04  0.73635244407E+02 0.  0.
         11    1    3    3    0    0  0.15896123751E+03  0.11163197714E+03 -0.11117611092E+03  0.22380907263E+03  0.00000000000E+00 0. -1.
        -11    1    3    3    0    0  0.28020853634E+03  0.96838002272E+02 -0.26529555165E+03  0.39783935483E+03  0.00000000000E+00 0.  1.
          4    1    6    6  502    0 -0.54101307345E+02 -0.84291362356E+02  0.18251724529E+03  0.20819349186E+03  0.00000000000E+00 0. -1.
          3    1    5    5  503    0  0.13749253656E+02  0.51755112493E+02  0.47314206689E+03  0.47616283885E+03  0.00000000000E+00 0. -1.
         -4    1    5    5    0  503  0.25552583420E+02  0.20378577993E+03  0.67566780221E+03  0.70619300306E+03  0.00000000000E+00 0.  1.
         -3    1    6    6    0  502 -0.42437030358E+03 -0.37971950948E+03  0.87141967155E+03  0.10409847763E+04  0.00000000000E+00 0.  1.
<mgrwt>
<rscale>  0 0.24467617E+04</rscale>
<asrwt>0</asrwt>
<pdfrwt beam="1">  1        1 0.37534289E+00 0.24467617E+04</pdfrwt>
<pdfrwt beam="2">  1       -1 0.94377495E-01 0.24467617E+04</pdfrwt>
<totfact> 0.14461367E+00</totfact>
</mgrwt>
</event>
<event>
11    1  0.2045212E-008  0.1690535E+04  0.7818608E-02  0.8766781E-01
          2   -1    0    0  501    0  0.00000000000E+00  0.00000000000E+00  0.74761564076E+03  0.74761564076E+03  0.00000000000E+00 0. -1.
         -2   -1    0    0    0  501 -0.00000000000E+00 -0.00000000000E+00 -0.95567414862E+03  0.95567414862E+03  0.00000000000E+00 0.  1.
         23    2    1    2    0    0  0.28286387791E+03  0.32794258457E+03 -0.49549803594E+03  0.66426894167E+03  0.90424615321E+02 0.  0.
        254    2    1    2    0    0 -0.28286387791E+03 -0.32794258457E+03  0.28743952808E+03  0.10390208477E+04  0.89965800583E+03 0.  0.
         24    2    4    4    0    0 -0.37596470312E+03  0.18588299610E+03 -0.53461096667E+01  0.42656011137E+03  0.77607998858E+02 0.  0.
         11    1    3    3    0    0  0.17800232811E+03  0.15981281670E+03 -0.32031513631E+03  0.39978338102E+03  0.00000000000E+00 0.  1.
        -11    1    3    3    0    0  0.10486154979E+03  0.16812976788E+03 -0.17518289963E+03  0.26448556065E+03  0.00000000000E+00 0. -1.
          4    1    5    5  502    0 -0.37129009788E+03  0.17231555160E+03  0.41569973141E+01  0.40934858828E+03  0.00000000000E+00 0. -1.
          1    1    4    4  503    0  0.17400192641E+02 -0.38257578526E+03  0.24026659048E+03  0.45210068865E+03  0.00000000000E+00 0. -1.
         -2    1    4    4    0  503  0.75700632578E+02 -0.13124979541E+03  0.52519047259E+02  0.16036004768E+03  0.00000000000E+00 0.  1.
         -3    1    5    5    0  502 -0.46746052485E+01  0.13567444504E+02 -0.95031069808E+01  0.17211523085E+02  0.00000000000E+00 0.  1.
<mgrwt>
<rscale>  0 0.16905348E+04</rscale>
<asrwt>0</asrwt>
<pdfrwt beam="1">  1        2 0.11501779E+00 0.16905348E+04</pdfrwt>
<pdfrwt beam="2">  1       -2 0.14702679E+00 0.16905348E+04</pdfrwt>
<totfact> 0.11322927E+01</totfact>
</mgrwt>
</event>
<event>
12    1  0.2045212E-008  0.1873184E+04  0.7818608E-02  0.8668321E-01
          1   -1    0    0  501    0  0.00000000000E+00  0.00000000000E+00  0.11858852111E+04  0.11858852111E+04  0.00000000000E+00 0. -1.
         -1   -1    0    0    0  501 -0.00000000000E+00 -0.00000000000E+00 -0.73970429046E+03  0.73970429046E+03  0.00000000000E+00 0.  1.
         23    2    1    2    0    0 -0.13983484389E+03  0.33079705499E+03 -0.46453632796E+03  0.59510633183E+03  0.96835277858E+02 0.  0.
        254    2    1    2    0    0  0.13983484389E+03 -0.33079705499E+03  0.91071724864E+03  0.13304831698E+04  0.90099893613E+03 0.  0.
        -24    2    4    4    0    0 -0.22443586639E+03 -0.81154392539E+02 -0.58149178116E+02  0.26265562333E+03  0.93000838700E+02 0.  0.
         24    2    4    4    0    0  0.36427071028E+03 -0.24964266245E+03  0.96886642676E+03  0.10678275464E+04  0.80863506946E+02 0.  0.
         11    1    3    3    0    0 -0.13016334792E+03  0.20175154807E+03 -0.33355135238E+03  0.41097772320E+03  0.00000000000E+00 0.  1.
        -11    1    3    3    0    0 -0.96714959712E+01  0.12904550691E+03 -0.13098497557E+03  0.18412860863E+03  0.00000000000E+00 0. -1.
          4    1    6    6  502    0  0.21792087694E+03 -0.10377032033E+03  0.55640937673E+03  0.60650571514E+03  0.00000000000E+00 0. -1.
          3    1    5    5  503    0 -0.14356082290E+03 -0.94339603203E+02 -0.22340742703E+02  0.17323042282E+03  0.00000000000E+00 0. -1.
         -4    1    5    5    0  503 -0.80875043488E+02  0.13185210664E+02 -0.35808435414E+02  0.89425200510E+02  0.00000000000E+00 0.  1.
         -3    1    6    6    0  502  0.14634983334E+03 -0.14587234212E+03  0.41245705003E+03  0.46132183130E+03  0.00000000000E+00 0.  1.
<mgrwt>
<rscale>  0 0.18731838E+04</rscale>
<asrwt>0</asrwt>
<pdfrwt beam="1">  1        1 0.18244388E+00 0.18731838E+04</pdfrwt>
<pdfrwt beam="2">  1       -1 0.11380066E+00 0.18731838E+04</pdfrwt>
<totfact> 0.72242427E+00</totfact>
</mgrwt>
</event>
<event>
12    1  0.2045212E-008  0.1307787E+04  0.7818608E-02  0.9023413E-01
          1   -1    0    0  501    0  0.00000000000E+00  0.00000000000E+00  0.17076324325E+04  0.17076324325E+04  0.00000000000E+00 0. -1.
         -1   -1    0    0    0  501 -0.00000000000E+00 -0.00000000000E+00 -0.25039138066E+03  0.25039138066E+03  0.00000000000E+00 0.  1.
         23    2    1    2    0    0 -0.11379525855E+03  0.66773755388E+02  0.86356871210E+03  0.87721806847E+03  0.79702721752E+02 0.  0.
        254    2    1    2    0    0  0.11379525855E+03 -0.66773755388E+02  0.59367233971E+03  0.10808057447E+04  0.89346858672E+03 0.  0.
        -24    2    4    4    0    0 -0.13688058293E+03 -0.26585658365E+03 -0.86247264323E+02  0.32505036648E+03  0.93825013147E+02 0.  0.
         24    2    4    4    0    0  0.25067584147E+03  0.19908282826E+03  0.67991960403E+03  0.75575537817E+03  0.80019833030E+02 0.  0.
         13    1    3    3    0    0 -0.57602788820E+02  0.74769866163E+02  0.45161301083E+03  0.46137070314E+03  0.00000000000E+00 0. -1.
        -13    1    3    3    0    0 -0.56192469727E+02 -0.79961107752E+01  0.41195570128E+03  0.41584736534E+03  0.00000000000E+00 0.  1.
          2    1    6    6  502    0  0.24936867036E+03  0.19797782967E+03  0.63077751867E+03  0.70658349319E+03  0.00000000000E+00 0. -1.
          1    1    5    5  503    0 -0.11196945020E+03 -0.21739066794E+03 -0.10676402695E+03  0.26682282086E+03  0.00000000000E+00 0. -1.
         -2    1    5    5    0  503 -0.24911132731E+02 -0.48465915714E+02  0.20516762624E+02  0.58227545617E+02  0.00000000000E+00 0.  1.
         -1    1    6    6    0  502  0.13071711168E+01  0.11049985923E+01  0.49142085364E+02  0.49171884976E+02  0.00000000000E+00 0.  1.
<mgrwt>
<rscale>  0 0.13077866E+04</rscale>
<asrwt>0</asrwt>
<pdfrwt beam="1">  1        1 0.26271268E+00 0.13077866E+04</pdfrwt>
<pdfrwt beam="2">  1       -1 0.38521752E-01 0.13077866E+04</pdfrwt>
<totfact> 0.30178061E+01</totfact>
</mgrwt>
</event>
<event>
12    1  0.2045212E-008  0.2109228E+04  0.7818608E-02  0.8557189E-01
          2   -1    0    0  501    0  0.00000000000E+00  0.00000000000E+00  0.24428869193E+04  0.24428869193E+04  0.00000000000E+00 0. -1.
         -2   -1    0    0    0  501 -0.00000000000E+00 -0.00000000000E+00 -0.45528554466E+03  0.45528554466E+03  0.00000000000E+00 0.  1.
         23    2    1    2    0    0  0.30956082297E+03  0.63027307142E+03  0.13051782836E+03  0.71989490420E+03  0.90231490619E+02 0.  0.
        254    2    1    2    0    0 -0.30956082297E+03 -0.63027307142E+03  0.18570835463E+04  0.21782775598E+04  0.89613714455E+03 0.  0.
        -24    2    4    4    0    0 -0.34249640646E+03 -0.28526818847E+03  0.17481569507E+04  0.18066475352E+04  0.96129414858E+02 0.  0.
         24    2    4    4    0    0  0.32935583485E+02 -0.34500488295E+03  0.10892659563E+03  0.37163002460E+03  0.78299106214E+02 0.  0.
         11    1    3    3    0    0  0.27061960088E+03  0.54834689469E+03  0.81818413906E+02  0.61693884474E+03  0.00000000000E+00 0.  1.
        -11    1    3    3    0    0  0.38941222094E+02  0.81926176729E+02  0.48699414451E+02  0.10295605946E+03  0.00000000000E+00 0. -1.
          4    1    6    6  502    0 -0.47616677823E+01 -0.25256224977E+03  0.56421548975E+02  0.25883151794E+03  0.00000000000E+00 0. -1.
          1    1    5    5  503    0 -0.21896435747E+03 -0.16378248057E+03  0.12391329749E+04  0.12689446876E+04  0.00000000000E+00 0. -1.
         -2    1    5    5    0  503 -0.12353204899E+03 -0.12148570790E+03  0.50902397577E+03  0.53770284754E+03  0.00000000000E+00 0.  1.
         -3    1    6    6    0  502  0.37697251267E+02 -0.92442633179E+02  0.52505046654E+02  0.11279850667E+03  0.00000000000E+00 0.  1.
<mgrwt>
<rscale>  0 0.21092284E+04</rscale>
<asrwt>0</asrwt>
<pdfrwt beam="1">  1        2 0.37582875E+00 0.21092284E+04</pdfrwt>
<pdfrwt beam="2">  1       -2 0.70043932E-01 0.21092284E+04</pdfrwt>
<totfact> 0.64220961E+00</totfact>
</mgrwt>
</event>
<event>
12    1  0.2045212E-008  0.1056305E+04  0.7818608E-02  0.9248859E-01
         -1   -1    0    0    0  501 -0.00000000000E+00  0.00000000000E+00  0.62465966038E+03  0.62465966038E+03  0.00000000000E+00 0.  1.
          1   -1    0    0  501    0  0.00000000000E+00 -0.00000000000E+00 -0.44655514757E+03  0.44655514757E+03  0.00000000000E+00 0. -1.
         23    2    1    2    0    0  0.14709855031E+03  0.32361636273E+01  0.76249689195E+02  0.19055521855E+03  0.94068166528E+02 0.  0.
        254    2    1    2    0    0 -0.14709855031E+03 -0.32361636273E+01  0.10185482361E+03  0.88065958940E+03  0.86228675686E+03 0.  0.
        -24    2    4    4    0    0 -0.44453651582E+03 -0.26307389449E+02  0.27409722529E+03  0.52740112684E+03  0.68686731207E+02 0.  0.
         24    2    4    4    0    0  0.29743796551E+03  0.23071225821E+02 -0.17224240168E+03  0.35325846256E+03  0.78246224520E+02 0.  0.
         13    1    3    3    0    0  0.15740865325E+03 -0.10070427330E+02  0.67268831332E+02  0.17147592628E+03  0.00000000000E+00 0. -1.
        -13    1    3    3    0    0 -0.10310102937E+02  0.13306590957E+02  0.89808578633E+01  0.19079292268E+02  0.00000000000E+00 0.  1.
          4    1    6    6  502    0  0.25747854059E+03  0.16308007423E+02 -0.11341685414E+03  0.28182358449E+03  0.00000000000E+00 0. -1.
          3    1    5    5  503    0 -0.41238677196E+03 -0.34118984511E+02  0.23385798480E+03  0.47530675553E+03  0.00000000000E+00 0. -1.
         -4    1    5    5    0  503 -0.32149743857E+02  0.78115950623E+01  0.40239240487E+02  0.52094371313E+02  0.00000000000E+00 0.  1.
         -3    1    6    6    0  502  0.39959424920E+02  0.67632183980E+01 -0.58825547537E+02  0.71434878079E+02  0.00000000000E+00 0.  1.
<mgrwt>
<rscale>  0 0.10563049E+04</rscale>
<asrwt>0</asrwt>
<pdfrwt beam="1">  1        1 0.68700791E-01 0.10563049E+04</pdfrwt>
<pdfrwt beam="2">  1       -1 0.96101487E-01 0.10563049E+04</pdfrwt>
<totfact> 0.53972606E+01</totfact>
</mgrwt>
</event>
<event>
12    1  0.2045212E-008  0.1756863E+04  0.7818608E-02  0.8729581E-01
          1   -1    0    0  501    0  0.00000000000E+00  0.00000000000E+00  0.27844663197E+04  0.27844663197E+04  0.00000000000E+00 0. -1.
         -1   -1    0    0    0  501 -0.00000000000E+00 -0.00000000000E+00 -0.27712394468E+03  0.27712394468E+03  0.00000000000E+00 0.  1.
         23    2    1    2    0    0 -0.63780690269E+02 -0.64660303925E+03  0.84055229448E+03  0.10664108507E+04  0.92414695947E+02 0.  0.
        254    2    1    2    0    0  0.63780690269E+02  0.64660303925E+03  0.16667900806E+04  0.19951794136E+04  0.88339586435E+03 0.  0.
        -24    2    4    4    0    0 -0.30727091190E+03  0.64012472745E+03  0.99562059945E+03  0.12242110127E+04  0.57071407919E+02 0.  0.
         24    2    4    4    0    0  0.37105160217E+03  0.64783117998E+01  0.67116948110E+03  0.77096840092E+03  0.78756224285E+02 0.  0.
         11    1    3    3    0    0 -0.31071775918E+02 -0.58990384771E+03  0.76221741929E+03  0.96432743353E+03  0.00000000000E+00 0.  1.
        -11    1    3    3    0    0 -0.32708914352E+02 -0.56699191540E+02  0.78334875191E+02  0.10208341722E+03  0.00000000000E+00 0. -1.
          2    1    6    6  502    0  0.24253064901E+03 -0.13735693931E+02  0.50078146214E+03  0.55658948770E+03  0.00000000000E+00 0. -1.
          3    1    5    5  503    0 -0.61697997265E+02  0.11117673795E+03  0.14464387331E+03  0.19258442308E+03  0.00000000000E+00 0. -1.
         -4    1    5    5    0  503 -0.24557291463E+03  0.52894798950E+03  0.85097672614E+03  0.10316265896E+04  0.00000000000E+00 0.  1.
         -1    1    6    6    0  502  0.12852095316E+03  0.20214005730E+02  0.17038801896E+03  0.21437891322E+03  0.00000000000E+00 0.  1.
<mgrwt>
<rscale>  0 0.17568634E+04</rscale>
<asrwt>0</asrwt>
<pdfrwt beam="1">  1        1 0.42837941E+00 0.17568634E+04</pdfrwt>
<pdfrwt beam="2">  1       -1 0.42634455E-01 0.17568634E+04</pdfrwt>
<totfact> 0.43951281E+00</totfact>
</mgrwt>
</event>
<event>
12    1  0.2045212E-008  0.1463000E+04  0.7818608E-02  0.8909437E-01
          2   -1    0    0  501    0  0.00000000000E+00  0.00000000000E+00  0.91961772202E+03  0.91961772202E+03  0.00000000000E+00 0. -1.
         -2   -1    0    0    0  501 -0.00000000000E+00 -0.00000000000E+00 -0.58186390042E+03  0.58186390042E+03  0.00000000000E+00 0.  1.
         23    2    1    2    0    0  0.21618824978E+03  0.20901506010E+03  0.43880005474E+03  0.53966076650E+03  0.90904346261E+02 0.  0.
        254    2    1    2    0    0 -0.21618824978E+03 -0.20901506010E+03 -0.10104623314E+03  0.96182085594E+03  0.90800019989E+03 0.  0.
        -24    2    4    4    0    0 -0.27089324946E+03  0.29340985728E+03  0.79704147670E+02  0.41891447430E+03  0.98306096793E+02 0.  0.
         24    2    4    4    0    0  0.54704999683E+02 -0.50242491738E+03 -0.18075038081E+03  0.54290638165E+03  0.81567177706E+02 0.  0.
         11    1    3    3    0    0  0.17259357011E+03  0.20497608576E+03  0.35143325202E+03  0.44193785400E+03  0.00000000000E+00 0. -1.
        -11    1    3    3    0    0  0.43594679666E+02  0.40389743381E+01  0.87366802719E+02  0.97722912493E+02  0.00000000000E+00 0.  1.
          4    1    6    6  502    0  0.62072270408E+02 -0.21050031471E+03 -0.88906571501E+02  0.23678624898E+03  0.00000000000E+00 0. -1.
          1    1    5    5  503    0 -0.11211938332E+03  0.56236651379E+02  0.33054855486E+02  0.12971484320E+03  0.00000000000E+00 0. -1.
         -2    1    5    5    0  503 -0.15877386614E+03  0.23717320590E+03  0.46649292184E+02  0.28919963110E+03  0.00000000000E+00 0.  1.
         -3    1    6    6    0  502 -0.73672707258E+01 -0.29192460266E+03 -0.91843809308E+02  0.30612013267E+03  0.00000000000E+00 0.  1.
<mgrwt>
<rscale>  0 0.14630001E+04</rscale>
<asrwt>0</asrwt>
<pdfrwt beam="1">  1        2 0.14147965E+00 0.14630001E+04</pdfrwt>
<pdfrwt beam="2">  1       -2 0.89517524E-01 0.14630001E+04</pdfrwt>
<totfact> 0.29493600E+01</totfact>
</mgrwt>
</event>
<event>
12    1  0.2045212E-008  0.1239620E+04  0.7818608E-02  0.9078867E-01
          1   -1    0    0  501    0  0.00000000000E+00  0.00000000000E+00  0.18269511651E+04  0.18269511651E+04  0.00000000000E+00 0. -1.
         -1   -1    0    0    0  501 -0.00000000000E+00 -0.00000000000E+00 -0.21027629177E+03  0.21027629177E+03  0.00000000000E+00 0.  1.
         23    2    1    2    0    0  0.61236884208E+02 -0.19168452307E+03  0.76606523389E+02  0.23550517362E+03  0.95400288280E+02 0.  0.
        254    2    1    2    0    0 -0.61236884208E+02  0.19168452307E+03  0.15400683499E+04  0.18017222833E+04  0.91318111627E+03 0.  0.
        -24    2    4    4    0    0  0.16881807538E+03  0.18828222238E+03  0.34453283158E+02  0.27650933414E+03  0.10639852116E+03 0.  0.
         24    2    4    4    0    0 -0.23005495959E+03  0.34023006860E+01  0.15056150668E+04  0.15252129491E+04  0.80380039489E+02 0.  0.
         11    1    3    3    0    0 -0.47047610203E+01 -0.74193062999E+02  0.67586353421E+02  0.10047218790E+03  0.00000000000E+00 0. -1.
        -11    1    3    3    0    0  0.65941645228E+02 -0.11749146007E+03  0.90201699672E+01  0.13503298572E+03  0.00000000000E+00 0.  1.
          4    1    6    6  502    0 -0.68551710163E+02 -0.17856528048E+02  0.68010592930E+03  0.68378524964E+03  0.00000000000E+00 0. -1.
          1    1    5    5  503    0 -0.66087254180E+00  0.36224228135E+02 -0.21381511729E+02  0.42068996902E+02  0.00000000000E+00 0. -1.
         -2    1    5    5    0  503  0.16947894792E+03  0.15205799425E+03  0.55834794888E+02  0.23444033724E+03  0.00000000000E+00 0.  1.
         -3    1    6    6    0  502 -0.16150324942E+03  0.21258828734E+02  0.82550913749E+03  0.84142769948E+03  0.00000000000E+00 0.  1.
<mgrwt>
<rscale>  0 0.12396201E+04</rscale>
<asrwt>0</asrwt>
<pdfrwt beam="1">  1        1 0.28106940E+00 0.12396201E+04</pdfrwt>
<pdfrwt beam="2">  1       -1 0.32350200E-01 0.12396201E+04</pdfrwt>
<totfact> 0.34450251E+01</totfact>
</mgrwt>
</event>
<event>
12    1  0.2045212E-008  0.1946612E+04  0.7818608E-02  0.8631996E-01
          2   -1    0    0  501    0  0.00000000000E+00  0.00000000000E+00  0.64682847795E+03  0.64682847795E+03  0.00000000000E+00 0.  1.
         -2   -1    0    0    0  501 -0.00000000000E+00 -0.00000000000E+00 -0.14645691814E+04  0.14645691814E+04  0.00000000000E+00 0. -1.
         23    2    1    2    0    0  0.26612085693E+03 -0.10779787309E+03  0.44549749226E+03  0.53746490248E+03  0.89217788840E+02 0.  0.
        254    2    1    2    0    0 -0.26612085693E+03  0.10779787309E+03 -0.12632381957E+04  0.15739327569E+04  0.89389758481E+03 0.  0.
        -24    2    4    4    0    0 -0.55671883026E+03  0.20839946100E+03 -0.98182080258E+03  0.11495455198E+04  0.64160909681E+02 0.  0.
         24    2    4    4    0    0  0.29059797332E+03 -0.10060158791E+03 -0.28141739313E+03  0.42438723711E+03  0.79629870489E+02 0.  0.
         11    1    3    3    0    0  0.45946984446E+02 -0.59508249293E+02  0.10620250700E+03  0.13012044270E+03  0.00000000000E+00 0. -1.
        -11    1    3    3    0    0  0.22017387249E+03 -0.48289623795E+02  0.33929498526E+03  0.40734445978E+03  0.00000000000E+00 0.  1.
          4    1    6    6  502    0  0.28215666769E+02 -0.13404144348E+02 -0.68927442636E+02  0.75675539544E+02  0.00000000000E+00 0. -1.
          3    1    5    5  503    0 -0.22462246575E+03  0.61441919908E+02 -0.42855040492E+03  0.48773539055E+03  0.00000000000E+00 0. -1.
         -4    1    5    5    0  503 -0.33209636451E+03  0.14695754109E+03 -0.55327039766E+03  0.66181012921E+03  0.00000000000E+00 0.  1.
         -3    1    6    6    0  502  0.26238230656E+03 -0.87197443566E+02 -0.21248995049E+03  0.34871169756E+03  0.00000000000E+00 0.  1.
<mgrwt>
<rscale>  0 0.19466125E+04</rscale>
<asrwt>0</asrwt>
<pdfrwt beam="1">  1        2 0.99512072E-01 0.19466125E+04</pdfrwt>
<pdfrwt beam="2">  1       -2 0.22531834E+00 0.19466125E+04</pdfrwt>
<totfact> 0.38591584E+00</totfact>
</mgrwt>
</event>
<event>
12    1  0.2045212E-008  0.2012834E+04  0.7818608E-02  0.8600644E-01
         -1   -1    0    0    0  501 -0.00000000000E+00  0.00000000000E+00  0.78741398367E+03  0.78741398367E+03  0.00000000000E+00 0.  1.
          1   -1    0    0  501    0  0.00000000000E+00 -0.00000000000E+00 -0.12863312058E+04  0.12863312058E+04  0.00000000000E+00 0. -1.
         23    2    1    2    0    0 -0.80912827348E+02 -0.73337481777E+03  0.10374950280E+03  0.75077781901E+03  0.92292281399E+02 0.  0.
        254    2    1    2    0    0  0.80912827348E+02  0.73337481777E+03 -0.60266672492E+03  0.13229673704E+04  0.91795967937E+03 0.  0.
        -24    2    4    4    0    0  0.45417415977E+03  0.15603873852E+03 -0.22552840593E+03  0.53491362399E+03  0.68170872991E+02 0.  0.
         24    2    4    4    0    0 -0.37326133243E+03  0.57733607926E+03 -0.37713831898E+03  0.78805374645E+03  0.78450143056E+02 0.  0.
         11    1    3    3    0    0 -0.33339250336E+02 -0.20891275695E+03 -0.10861877648E+02  0.21183490273E+03  0.00000000000E+00 0. -1.
        -11    1    3    3    0    0 -0.47573577012E+02 -0.52446206083E+03  0.11461138045E+03  0.53894291628E+03  0.00000000000E+00 0.  1.
          4    1    6    6  502    0 -0.21301853647E+03  0.25992715025E+03 -0.19526858543E+03  0.38867575275E+03  0.00000000000E+00 0. -1.
          1    1    5    5  503    0  0.18922874891E+03  0.81812115613E+02 -0.64027277514E+02  0.21587087330E+03  0.00000000000E+00 0. -1.
         -2    1    5    5    0  503  0.26494541087E+03  0.74226622904E+02 -0.16150112842E+03  0.31904275069E+03  0.00000000000E+00 0.  1.
         -3    1    6    6    0  502 -0.16024279596E+03  0.31740892901E+03 -0.18186973355E+03  0.39937799370E+03  0.00000000000E+00 0.  1.
<mgrwt>
<rscale>  0 0.20128340E+04</rscale>
<asrwt>0</asrwt>
<pdfrwt beam="1">  1        1 0.19789710E+00 0.20128340E+04</pdfrwt>
<pdfrwt beam="2">  1       -1 0.12114062E+00 0.20128340E+04</pdfrwt>
<totfact> 0.51858062E+00</totfact>
</mgrwt>
</event>
<event>
12    1  0.2045212E-008  0.1874545E+04  0.7818608E-02  0.8667632E-01
          2   -1    0    0  501    0  0.00000000000E+00  0.00000000000E+00  0.56455804899E+03  0.56455804899E+03  0.00000000000E+00 0.  1.
         -2   -1    0    0    0  501 -0.00000000000E+00 -0.00000000000E+00 -0.15560482476E+04  0.15560482476E+04  0.00000000000E+00 0. -1.
         23    2    1    2    0    0 -0.37817835419E+03  0.41309443873E+02 -0.10477687556E+04  0.11183665816E+04  0.90548925821E+02 0.  0.
        254    2    1    2    0    0  0.37817835419E+03 -0.41309443873E+02  0.56278556989E+02  0.10022397150E+04  0.92552246463E+03 0.  0.
        -24    2    4    4    0    0  0.18427377589E+03 -0.46846125961E+03  0.10216489863E+03  0.52407586445E+03  0.10394743357E+03 0.  0.
         24    2    4    4    0    0  0.19390457830E+03  0.42715181574E+03 -0.45886341641E+02  0.47816385052E+03  0.80482621834E+02 0.  0.
         11    1    3    3    0    0 -0.34860896487E+03  0.61597778996E+02 -0.92350086275E+03  0.98902797749E+03  0.00000000000E+00 0. -1.
        -11    1    3    3    0    0 -0.29569389319E+02 -0.20288335123E+02 -0.12426789286E+03  0.12933860415E+03  0.00000000000E+00 0.  1.
          2    1    6    6  502    0  0.14299000529E+03  0.36553578375E+03 -0.59782843101E+02  0.39703468254E+03  0.00000000000E+00 0. -1.
          1    1    5    5  503    0  0.15384814360E+03 -0.36259053531E+03  0.35870419608E+02  0.39550958849E+03  0.00000000000E+00 0. -1.
         -2    1    5    5    0  503  0.30425632285E+02 -0.10587072430E+03  0.66294479022E+02  0.12856627596E+03  0.00000000000E+00 0.  1.
         -1    1    6    6    0  502  0.50914573011E+02  0.61616031988E+02  0.13896501461E+02  0.81129167971E+02  0.00000000000E+00 0.  1.
<mgrwt>
<rscale>  0 0.18745448E+04</rscale>
<asrwt>0</asrwt>
<pdfrwt beam="1">  1        2 0.86855086E-01 0.18745448E+04</pdfrwt>
<pdfrwt beam="2">  1       -2 0.23939203E+00 0.18745448E+04</pdfrwt>
<totfact> 0.37408266E+00</totfact>
</mgrwt>
</event>
<event>
11    1  0.2045212E-008  0.1760211E+04  0.7818608E-02  0.8727750E-01
          1   -1    0    0  501    0  0.00000000000E+00  0.00000000000E+00  0.62443302679E+03  0.62443302679E+03  0.00000000000E+00 0. -1.
         -1   -1    0    0    0  501 -0.00000000000E+00 -0.00000000000E+00 -0.12404628022E+04  0.12404628022E+04  0.00000000000E+00 0.  1.
         23    2    1    2    0    0  0.12418596846E+03  0.60954951007E+03 -0.41316078829E+03  0.75181284425E+03  0.86878972199E+02 0.  0.
        254    2    1    2    0    0 -0.12418596846E+03 -0.60954951007E+03 -0.20286898713E+03  0.11130829847E+04  0.90045829720E+03 0.  0.
         24    2    4    4    0    0  0.67131652865E+02 -0.35443432376E+03 -0.51980556294E+03  0.63784998437E+03  0.80773947675E+02 0.  0.
         11    1    3    3    0    0  0.77434697584E+02  0.50034489459E+03 -0.30445966470E+03  0.59079339313E+03  0.00000000000E+00 0. -1.
        -11    1    3    3    0    0  0.46751270876E+02  0.10920461548E+03 -0.10870112359E+03  0.16101945112E+03  0.00000000000E+00 0.  1.
          2    1    5    5  502    0  0.27297551575E+02 -0.30482875518E+03 -0.43010352843E+03  0.52787761031E+03  0.00000000000E+00 0. -1.
          1    1    4    4  503    0 -0.44778309243E+02 -0.25877442963E+02  0.14361488215E+03  0.15264328812E+03  0.00000000000E+00 0. -1.
         -2    1    4    4    0  503 -0.14653931208E+03 -0.22923774335E+03  0.17332169365E+03  0.32258971226E+03  0.00000000000E+00 0.  1.
         -1    1    5    5    0  502  0.39834101289E+02 -0.49605568579E+02 -0.89702034511E+02  0.10997237405E+03  0.00000000000E+00 0.  1.
<mgrwt>
<rscale>  0 0.17602113E+04</rscale>
<asrwt>0</asrwt>
<pdfrwt beam="1">  1        1 0.96066621E-01 0.17602113E+04</pdfrwt>
<pdfrwt beam="2">  1       -1 0.19084043E+00 0.17602113E+04</pdfrwt>
<totfact> 0.53322343E+00</totfact>
</mgrwt>
</event>
<event>
11    1  0.2045212E-008  0.1094744E+04  0.7818608E-02  0.9210330E-01
         -2   -1    0    0    0  501 -0.00000000000E+00  0.00000000000E+00  0.35538265514E+03  0.35538265514E+03  0.00000000000E+00 0.  1.
          2   -1    0    0  501    0  0.00000000000E+00 -0.00000000000E+00 -0.84308055057E+03  0.84308055057E+03  0.00000000000E+00 0. -1.
         23    2    1    2    0    0  0.10148903523E+02 -0.89151320235E+02 -0.22581492034E+03  0.25638647873E+03  0.81796638614E+02 0.  0.
        254    2    1    2    0    0 -0.10148903523E+02  0.89151320235E+02 -0.26188297509E+03  0.94207672697E+03  0.90048592921E+03 0.  0.
         24    2    4    4    0    0  0.14013472870E+03  0.16626283351E+03  0.27897092781E+03  0.36257282635E+03  0.79706987445E+02 0.  0.
         13    1    3    3    0    0 -0.24530725493E+02 -0.72850020198E+02 -0.10849023183E+03  0.13296244710E+03  0.00000000000E+00 0. -1.
        -13    1    3    3    0    0  0.34679629016E+02 -0.16301300037E+02 -0.11732468851E+03  0.12342403164E+03  0.00000000000E+00 0.  1.
          2    1    5    5  502    0  0.26981636273E+02  0.61050820710E+02  0.39430458163E+02  0.77524011999E+02  0.00000000000E+00 0. -1.
          3    1    4    4  503    0 -0.81996462167E+02  0.23983576158E+02 -0.24578557817E+03  0.26020988100E+03  0.00000000000E+00 0. -1.
         -4    1    4    4    0  503 -0.68287170053E+02 -0.10109508944E+03 -0.29506832474E+03  0.31929401962E+03  0.00000000000E+00 0.  1.
         -1    1    5    5    0  502  0.11315309242E+03  0.10521201280E+03  0.23954046965E+03  0.28504881435E+03  0.00000000000E+00 0.  1.
<mgrwt>
<rscale>  0 0.10947442E+04</rscale>
<asrwt>0</asrwt>
<pdfrwt beam="1">  1        2 0.12970470E+00 0.10947442E+04</pdfrwt>
<pdfrwt beam="2">  1       -2 0.54674255E-01 0.10947442E+04</pdfrwt>
<totfact> 0.10034758E+02</totfact>
</mgrwt>
</event>
<event>
11    1  0.2045212E-008  0.2423177E+04  0.7818608E-02  0.8430877E-01
          1   -1    0    0  501    0  0.00000000000E+00  0.00000000000E+00  0.17831011847E+04  0.17831011847E+04  0.00000000000E+00 0. -1.
         -1   -1    0    0    0  501 -0.00000000000E+00 -0.00000000000E+00 -0.82325476444E+03  0.82325476444E+03  0.00000000000E+00 0.  1.
         23    2    1    2    0    0 -0.59803643041E+02  0.10076844149E+04  0.75196310493E+03  0.12620057687E+04  0.90585282318E+02 0.  0.
        254    2    1    2    0    0  0.59803643041E+02 -0.10076844149E+04  0.20788331530E+03  0.13443501804E+04  0.86316717912E+03 0.  0.
         24    2    4    4    0    0  0.29881864938E+03 -0.29910279892E+03 -0.19298718113E+03  0.47168089641E+03  0.80521713960E+02 0.  0.
         13    1    3    3    0    0 -0.17468684649E+02  0.59954439948E+03  0.39541287128E+03  0.71840794864E+03  0.00000000000E+00 0. -1.
        -13    1    3    3    0    0 -0.42334958392E+02  0.40814001537E+03  0.35655023365E+03  0.54359782005E+03  0.00000000000E+00 0.  1.
          2    1    5    5  502    0  0.11714525505E+03 -0.84577074042E+02 -0.99478420647E+02  0.17542020525E+03  0.00000000000E+00 0. -1.
          1    1    4    4  503    0  0.26416856694E+02 -0.13697150160E+03  0.11430357101E+03  0.18034508287E+03  0.00000000000E+00 0. -1.
         -2    1    4    4    0  503 -0.26543186303E+03 -0.57161011433E+03  0.28656692542E+03  0.69232420112E+03  0.00000000000E+00 0.  1.
         -3    1    5    5    0  502  0.18167339433E+03 -0.21452572488E+03 -0.93508760484E+02  0.29626069117E+03  0.00000000000E+00 0.  1.
<mgrwt>
<rscale>  0 0.24231769E+04</rscale>
<asrwt>0</asrwt>
<pdfrwt beam="1">  1        1 0.27432326E+00 0.24231769E+04</pdfrwt>
<pdfrwt beam="2">  1       -1 0.12665458E+00 0.24231769E+04</pdfrwt>
<totfact> 0.20258642E+00</totfact>
</mgrwt>
</event>
<event>
11    1  0.2045212E-008  0.2052411E+04  0.7818608E-02  0.8582501E-01
          2   -1    0    0  501    0  0.00000000000E+00  0.00000000000E+00  0.18295017995E+04  0.18295017995E+04  0.00000000000E+00 0.  1.
         -2   -1    0    0    0  501 -0.00000000000E+00 -0.00000000000E+00 -0.57562009006E+03  0.57562009006E+03  0.00000000000E+00 0. -1.
         23    2    1    2    0    0 -0.67058611539E+03 -0.30725384212E+03  0.19546538002E+03  0.76856753125E+03  0.91644277763E+02 0.  0.
        254    2    1    2    0    0  0.67058611539E+03  0.30725384212E+03  0.10584163294E+04  0.16365543583E+04  0.10069629485E+04 0.  0.
         24    2    4    4    0    0  0.54591305927E+03  0.50334396225E+03  0.88504839272E+03  0.11580826685E+04  0.80427588244E+02 0.  0.
         11    1    3    3    0    0 -0.14448826814E+03 -0.49797197680E+02  0.59114975155E+01  0.15294301661E+03  0.00000000000E+00 0. -1.
        -11    1    3    3    0    0 -0.52609784725E+03 -0.25745664444E+03  0.18955388251E+03  0.61562451464E+03  0.00000000000E+00 0.  1.
          4    1    5    5  502    0  0.66620875481E+02  0.31616622984E+02  0.73599261936E+02  0.10418638710E+03  0.00000000000E+00 0. -1.
          1    1    4    4  503    0  0.14286451621E+03  0.81655188669E+02  0.91788917829E+02  0.18842251794E+03  0.00000000000E+00 0. -1.
         -4    1    4    4    0  503 -0.18191460088E+02 -0.27774530880E+03  0.81579018829E+02  0.29004917185E+03  0.00000000000E+00 0.  1.
         -3    1    5    5    0  502  0.47929218378E+03  0.47172733927E+03  0.81144913078E+03  0.10538962814E+04  0.00000000000E+00 0.  1.
<mgrwt>
<rscale>  0 0.20524113E+04</rscale>
<asrwt>0</asrwt>
<pdfrwt beam="1">  1        2 0.28146181E+00 0.20524113E+04</pdfrwt>
<pdfrwt beam="2">  1       -2 0.88556938E-01 0.20524113E+04</pdfrwt>
<totfact> 0.84320102E+00</totfact>
</mgrwt>
</event>
<event>
12    1  0.2045212E-008  0.1441284E+04  0.7818608E-02  0.8924465E-01
          2   -1    0    0  501    0  0.00000000000E+00  0.00000000000E+00  0.16720822071E+04  0.16720822071E+04  0.00000000000E+00 0. -1.
         -2   -1    0    0    0  501 -0.00000000000E+00 -0.00000000000E+00 -0.31058589705E+03  0.31058589705E+03  0.00000000000E+00 0.  1.
         23    2    1    2    0    0  0.14475613744E+03 -0.32090624211E+03  0.77334144128E+03  0.85454003218E+03  0.90810386239E+02 0.  0.
        254    2    1    2    0    0 -0.14475613744E+03  0.32090624211E+03  0.58815486877E+03  0.11281280720E+04  0.89599756782E+03 0.  0.
        -24    2    4    4    0    0 -0.26571968023E+03  0.72965876932E+02  0.74550692907E+03  0.80025241161E+03  0.93232898383E+02 0.  0.
         24    2    4    4    0    0  0.12096354279E+03  0.24794036517E+03 -0.15735206029E+03  0.32787566035E+03  0.81462717887E+02 0.  0.
         11    1    3    3    0    0  0.96463950951E+02 -0.23645880010E+03  0.64331487603E+03  0.69215033605E+03  0.00000000000E+00 0. -1.
        -11    1    3    3    0    0  0.48292186489E+02 -0.84447442011E+02  0.13002656525E+03  0.16238969613E+03  0.00000000000E+00 0.  1.
          4    1    6    6  502    0  0.10331251591E+03  0.20730348344E+03 -0.92662170225E+02  0.24946841079E+03  0.00000000000E+00 0. -1.
          3    1    5    5  503    0 -0.25331555620E+03  0.45245881816E+02  0.69742980656E+03  0.74338704314E+03  0.00000000000E+00 0. -1.
         -2    1    5    5    0  503 -0.12404124026E+02  0.27719995116E+02  0.48077122507E+02  0.56865368465E+02  0.00000000000E+00 0.  1.
         -3    1    6    6    0  502  0.17651026878E+02  0.40636881733E+02 -0.64689890070E+02  0.78407249563E+02  0.00000000000E+00 0.  1.
<mgrwt>
<rscale>  0 0.14412844E+04</rscale>
<asrwt>0</asrwt>
<pdfrwt beam="1">  1        2 0.25724341E+00 0.14412844E+04</pdfrwt>
<pdfrwt beam="2">  1       -2 0.47782447E-01 0.14412844E+04</pdfrwt>
<totfact> 0.40928853E+01</totfact>
</mgrwt>
</event>
<event>
12    1  0.2045212E-008  0.1618323E+04  0.7818608E-02  0.8809370E-01
          2   -1    0    0  501    0  0.00000000000E+00  0.00000000000E+00  0.14646853664E+04  0.14646853664E+04  0.00000000000E+00 0. -1.
         -2   -1    0    0    0  501 -0.00000000000E+00 -0.00000000000E+00 -0.44701930654E+03  0.44701930654E+03  0.00000000000E+00 0.  1.
         23    2    1    2    0    0 -0.52633038142E+03  0.80559968879E+02  0.32227455029E+03  0.62902116988E+03  0.91066829332E+02 0.  0.
        254    2    1    2    0    0  0.52633038142E+03 -0.80559968879E+02  0.69539150955E+03  0.12826835030E+04  0.93712007683E+03 0.  0.
        -24    2    4    4    0    0  0.78708144747E+02 -0.44441937254E+03  0.46651553605E+03  0.65700124414E+03  0.10153983791E+03 0.  0.
         24    2    4    4    0    0  0.44762223667E+03  0.36385940366E+03  0.22887597350E+03  0.62568225890E+03  0.79591114194E+02 0.  0.
         11    1    3    3    0    0 -0.52801338080E+03  0.83619701556E+02  0.31387759900E+03  0.61992703760E+03  0.00000000000E+00 0. -1.
        -11    1    3    3    0    0  0.16829993838E+01 -0.30597326772E+01  0.83969512887E+01  0.90941322800E+01  0.00000000000E+00 0.  1.
          4    1    6    6  502    0  0.28874199189E+03  0.20241987189E+03  0.10719589125E+03  0.36856030920E+03  0.00000000000E+00 0. -1.
          1    1    5    5  503    0  0.42053431025E+02 -0.40892793108E+03  0.42428955248E+03  0.59077251817E+03  0.00000000000E+00 0. -1.
         -2    1    5    5    0  503  0.36654713722E+02 -0.35491441455E+02  0.42225983575E+02  0.66228725969E+02  0.00000000000E+00 0.  1.
         -3    1    6    6    0  502  0.15888024478E+03  0.16143953177E+03  0.12168008225E+03  0.25712194970E+03  0.00000000000E+00 0.  1.
<mgrwt>
<rscale>  0 0.16183234E+04</rscale>
<asrwt>0</asrwt>
<pdfrwt beam="1">  1        2 0.22533621E+00 0.16183234E+04</pdfrwt>
<pdfrwt beam="2">  1       -2 0.68772202E-01 0.16183234E+04</pdfrwt>
<totfact> 0.24591349E+01</totfact>
</mgrwt>
</event>
<event>
11    1  0.2045212E-008  0.2054140E+04  0.7818608E-02  0.8581719E-01
         -1   -1    0    0    0  501 -0.00000000000E+00  0.00000000000E+00  0.14841518694E+04  0.14841518694E+04  0.00000000000E+00 0.  1.
          1   -1    0    0  501    0  0.00000000000E+00 -0.00000000000E+00 -0.71075796868E+03  0.71075796868E+03  0.00000000000E+00 0. -1.
         23    2    1    2    0    0  0.73558203914E+03  0.27798397287E+03  0.40823469799E+02  0.79266255117E+03  0.91056789201E+02 0.  0.
        254    2    1    2    0    0 -0.73558203914E+03 -0.27798397287E+03  0.73257043095E+03  0.14022472869E+04  0.90071193616E+03 0.  0.
         24    2    4    4    0    0 -0.29384990547E+03  0.23087191440E+03 -0.20402544057E+02  0.38277534363E+03  0.80318690751E+02 0.  0.
         13    1    3    3    0    0  0.59773744451E+03  0.18722765455E+03  0.25104605857E+02  0.62687677292E+03  0.00000000000E+00 0. -1.
        -13    1    3    3    0    0  0.13784459464E+03  0.90756318328E+02  0.15718863942E+02  0.16578577825E+03  0.00000000000E+00 0.  1.
          4    1    5    5  502    0 -0.74801105371E+02  0.47104008048E+02  0.28121735686E+02  0.92762195731E+02  0.00000000000E+00 0. -1.
          1    1    4    4  503    0 -0.19490672007E+03 -0.21729227991E+03  0.42728157836E+03  0.51746894752E+03  0.00000000000E+00 0. -1.
         -4    1    4    4    0  503 -0.24682541360E+03 -0.29156360736E+03  0.32569139665E+03  0.50200299580E+03  0.00000000000E+00 0.  1.
         -1    1    5    5    0  502 -0.21904880010E+03  0.18376790635E+03 -0.48524279743E+02  0.29001314789E+03  0.00000000000E+00 0.  1.
<mgrwt>
<rscale>  0 0.20541400E+04</rscale>
<asrwt>0</asrwt>
<pdfrwt beam="1">  1        1 0.10934738E+00 0.20541400E+04</pdfrwt>
<pdfrwt beam="2">  1       -1 0.22833106E+00 0.20541400E+04</pdfrwt>
<totfact> 0.23794783E+00</totfact>
</mgrwt>
</event>
<event>
12    1  0.2045212E-008  0.2499135E+04  0.7818608E-02  0.8403294E-01
         -2   -1    0    0    0  501 -0.00000000000E+00  0.00000000000E+00  0.96271655679E+03  0.96271655679E+03  0.00000000000E+00 0.  1.
          2   -1    0    0  501    0  0.00000000000E+00 -0.00000000000E+00 -0.16218886237E+04  0.16218886237E+04  0.00000000000E+00 0. -1.
         23    2    1    2    0    0  0.43176674152E+03  0.95535302974E+03  0.17647358091E+01  0.10528482193E+04  0.96769458183E+02 0.  0.
        254    2    1    2    0    0 -0.43176674152E+03 -0.95535302974E+03 -0.66093680276E+03  0.15317569613E+04  0.90017776057E+03 0.  0.
        -24    2    4    4    0    0 -0.41884752180E+03 -0.93738869562E+03 -0.18048092350E+03  0.10442944104E+04  0.62021275796E+02 0.  0.
         24    2    4    4    0    0 -0.12919219717E+02 -0.17964334117E+02 -0.48045587926E+03  0.48746255086E+03  0.79323786085E+02 0.  0.
         11    1    3    3    0    0  0.31814506618E+02  0.70205527029E+02 -0.25402776791E+02  0.81155898894E+02  0.00000000000E+00 0. -1.
        -11    1    3    3    0    0  0.39995223490E+03  0.88514750271E+03  0.27167512600E+02  0.97169232039E+03  0.00000000000E+00 0.  1.
          4    1    6    6  502    0  0.14958274945E+02 -0.30808033585E+02 -0.98663645978E+02  0.10443849846E+03  0.00000000000E+00 0. -1.
          1    1    5    5  503    0 -0.75269459547E+02 -0.21818348836E+03 -0.24288489478E+02  0.23207640305E+03  0.00000000000E+00 0. -1.
         -2    1    5    5    0  503 -0.34357806225E+03 -0.71920520726E+03 -0.15619243403E+03  0.81221800735E+03  0.00000000000E+00 0.  1.
         -3    1    6    6    0  502 -0.27877494663E+02  0.12843699467E+02 -0.38179223328E+03  0.38302405240E+03  0.00000000000E+00 0.  1.
<mgrwt>
<rscale>  0 0.24991351E+04</rscale>
<asrwt>0</asrwt>
<pdfrwt beam="1">  1        2 0.24952133E+00 0.24991351E+04</pdfrwt>
<pdfrwt beam="2">  1       -2 0.14811024E+00 0.24991351E+04</pdfrwt>
<totfact> 0.29968470E+00</totfact>
</mgrwt>
</event>
<event>
12    1  0.2045212E-008  0.1765617E+04  0.7818608E-02  0.8724801E-01
         -2   -1    0    0    0  501 -0.00000000000E+00  0.00000000000E+00  0.42445008916E+03  0.42445008916E+03  0.00000000000E+00 0.  1.
          2   -1    0    0  501    0  0.00000000000E+00 -0.00000000000E+00 -0.18361418298E+04  0.18361418298E+04  0.00000000000E+00 0. -1.
         23    2    1    2    0    0  0.46781613480E+03 -0.43224677504E+03 -0.39196897051E+03  0.75320242678E+03  0.89358890699E+02 0.  0.
        254    2    1    2    0    0 -0.46781613480E+03  0.43224677504E+03 -0.10197227701E+04  0.15073894921E+04  0.90923008238E+03 0.  0.
        -24    2    4    4    0    0 -0.14708902454E+03 -0.23409182144E+03 -0.56317164336E+03  0.63468934147E+03  0.96094215671E+02 0.  0.
         24    2    4    4    0    0 -0.32072711026E+03  0.66633859648E+03 -0.45655112673E+03  0.87270015068E+03  0.79332321668E+02 0.  0.
         13    1    3    3    0    0  0.39812917044E+03 -0.35315059225E+03 -0.36191104799E+03  0.64358510224E+03  0.00000000000E+00 0. -1.
        -13    1    3    3    0    0  0.69686964363E+02 -0.79096182787E+02 -0.30057922525E+02  0.10961732454E+03  0.00000000000E+00 0.  1.
          4    1    6    6  502    0 -0.31110714130E+03  0.64422761274E+03 -0.45637939401E+03  0.84858648449E+03  0.00000000000E+00 0. -1.
          1    1    5    5  503    0 -0.16119403300E+03 -0.21372477412E+03 -0.52197596132E+03  0.58661801843E+03  0.00000000000E+00 0. -1.
         -2    1    5    5    0  503  0.14105008462E+02 -0.20367047318E+02 -0.41195682033E+02  0.48071323036E+02  0.00000000000E+00 0.  1.
         -3    1    6    6    0  502 -0.96199689586E+01  0.22110983742E+02 -0.17173271592E+00  0.24113666186E+02  0.00000000000E+00 0.  1.
<mgrwt>
<rscale>  0 0.17656167E+04</rscale>
<asrwt>0</asrwt>
<pdfrwt beam="1">  1        2 0.28248336E+00 0.17656167E+04</pdfrwt>
<pdfrwt beam="2">  1       -2 0.65300014E-01 0.17656167E+04</pdfrwt>
<totfact> 0.16858284E+01</totfact>
</mgrwt>
</event>
<event>
12    1  0.2045212E-008  0.1713894E+04  0.7818608E-02  0.8753480E-01
          2   -1    0    0  501    0  0.00000000000E+00  0.00000000000E+00  0.23767413694E+04  0.23767413694E+04  0.00000000000E+00 0.  1.
         -2   -1    0    0    0  501 -0.00000000000E+00 -0.00000000000E+00 -0.30897677181E+03  0.30897677181E+03  0.00000000000E+00 0. -1.
         23    2    1    2    0    0  0.22375247027E+03 -0.58461912079E+03  0.74463854745E+03  0.97701618786E+03  0.90715933764E+02 0.  0.
        254    2    1    2    0    0 -0.22375247027E+03  0.58461912079E+03  0.13231260502E+04  0.17087019534E+04  0.88156402858E+03 0.  0.
        -24    2    4    4    0    0  0.19739879091E+03  0.28915758138E+03  0.10715443165E+04  0.11311384091E+04  0.93212063199E+02 0.  0.
         24    2    4    4    0    0 -0.42115126118E+03  0.29546153942E+03  0.25158173363E+03  0.57756354427E+03  0.74969146377E+02 0.  0.
         13    1    3    3    0    0  0.12815453474E+02 -0.35414305686E+01  0.25030962536E+02  0.28343017900E+02  0.00000000000E+00 0. -1.
        -13    1    3    3    0    0  0.21093701680E+03 -0.58107769023E+03  0.71960758491E+03  0.94867316996E+03  0.00000000000E+00 0.  1.
          2    1    6    6  502    0 -0.21666333448E+03  0.13869278473E+03  0.16553672967E+03  0.30591027755E+03  0.00000000000E+00 0. -1.
          3    1    5    5  503    0  0.20003491010E+03  0.25231909725E+03  0.10009675693E+04  0.10514822713E+04  0.00000000000E+00 0. -1.
         -4    1    5    5    0  503 -0.26361191894E+01  0.36838484132E+02  0.70576747257E+02  0.79656137810E+02  0.00000000000E+00 0.  1.
         -1    1    6    6    0  502 -0.20448792670E+03  0.15676875469E+03  0.86045003966E+02  0.27165326672E+03  0.00000000000E+00 0.  1.
<mgrwt>
<rscale>  0 0.17138937E+04</rscale>
<asrwt>0</asrwt>
<pdfrwt beam="1">  1        2 0.36565251E+00 0.17138937E+04</pdfrwt>
<pdfrwt beam="2">  1       -2 0.47534890E-01 0.17138937E+04</pdfrwt>
<totfact> 0.16358954E+01</totfact>
</mgrwt>
</event>
<event>
11    1  0.2045212E-008  0.2060819E+04  0.7818608E-02  0.8578702E-01
          1   -1    0    0  501    0  0.00000000000E+00  0.00000000000E+00  0.14704948422E+04  0.14704948422E+04  0.00000000000E+00 0. -1.
         -1   -1    0    0    0  501 -0.00000000000E+00 -0.00000000000E+00 -0.72203159258E+03  0.72203159258E+03  0.00000000000E+00 0.  1.
         23    2    1    2    0    0  0.82481679106E+02 -0.19170382718E+03 -0.55439551003E+03  0.59961055307E+03  0.92870065550E+02 0.  0.
        254    2    1    2    0    0 -0.82481679106E+02  0.19170382718E+03  0.13028587596E+04  0.15929158817E+04  0.89240488224E+03 0.  0.
         24    2    4    4    0    0 -0.28666931843E+03  0.30579528414E+03  0.23374572608E+03  0.48727006279E+03  0.84291136585E+02 0.  0.
         13    1    3    3    0    0  0.90154226301E+02 -0.19775363709E+03 -0.54106350810E+03  0.58308147398E+03  0.00000000000E+00 0.  1.
        -13    1    3    3    0    0 -0.76725471942E+01  0.60498099044E+01 -0.13332001927E+02  0.16529079094E+02  0.00000000000E+00 0. -1.
          4    1    5    5  502    0 -0.28141650770E+03  0.29806193472E+03  0.24092773774E+03  0.47548116949E+03  0.00000000000E+00 0. -1.
          1    1    4    4  503    0  0.19832329360E+03 -0.13851678541E+03  0.10371792506E+04  0.10650163504E+04  0.00000000000E+00 0. -1.
         -2    1    4    4    0  503  0.58643457180E+01  0.24425328454E+02  0.31933782915E+02  0.40629468518E+02  0.00000000000E+00 0.  1.
         -3    1    5    5    0  502 -0.52528107280E+01  0.77333494198E+01 -0.71820116566E+01  0.11788893300E+02  0.00000000000E+00 0.  1.
<mgrwt>
<rscale>  0 0.20608190E+04</rscale>
<asrwt>0</asrwt>
<pdfrwt beam="1">  1        1 0.22622997E+00 0.20608190E+04</pdfrwt>
<pdfrwt beam="2">  1       -1 0.11108178E+00 0.20608190E+04</pdfrwt>
<totfact> 0.47189846E+00</totfact>
</mgrwt>
</event>
<event>
11    1  0.2045212E-008  0.1346078E+04  0.7818608E-02  0.8993803E-01
          2   -1    0    0  501    0  0.00000000000E+00  0.00000000000E+00  0.15110099650E+04  0.15110099650E+04  0.00000000000E+00 0. -1.
         -2   -1    0    0    0  501 -0.00000000000E+00 -0.00000000000E+00 -0.29978701310E+03  0.29978701310E+03  0.00000000000E+00 0.  1.
         23    2    1    2    0    0 -0.87379124958E+02 -0.34359046063E+03  0.51826330366E+03  0.63453526961E+03  0.91370894404E+02 0.  0.
        254    2    1    2    0    0  0.87379124958E+02  0.34359046063E+03  0.69295964820E+03  0.11762617084E+04  0.88187811891E+03 0.  0.
         24    2    4    4    0    0 -0.29745273696E+03  0.34919225977E+03  0.55907223835E+03  0.72782604492E+03  0.82192572394E+02 0.  0.
         11    1    3    3    0    0 -0.60734692434E+02 -0.18917805151E+03  0.36372678238E+03  0.41445652397E+03  0.00000000000E+00 0.  1.
        -11    1    3    3    0    0 -0.26644432524E+02 -0.15441240912E+03  0.15453652128E+03  0.22007874565E+03  0.00000000000E+00 0. -1.
          2    1    5    5  502    0  0.24512119115E+01 -0.11385885380E+01  0.12048143728E+02  0.12347574296E+02  0.00000000000E+00 0. -1.
          3    1    4    4  503    0  0.10698349822E+03 -0.62657409529E+02 -0.20234802488E+02  0.12562192122E+03  0.00000000000E+00 0. -1.
         -4    1    4    4    0  503  0.27784836370E+03  0.57055610383E+02  0.15412221234E+03  0.32281374231E+03  0.00000000000E+00 0.  1.
         -1    1    5    5    0  502 -0.29990394887E+03  0.35033084831E+03  0.54702409462E+03  0.71547847062E+03  0.00000000000E+00 0.  1.
<mgrwt>
<rscale>  0 0.13460775E+04</rscale>
<asrwt>0</asrwt>
<pdfrwt beam="1">  1        2 0.23246307E+00 0.13460775E+04</pdfrwt>
<pdfrwt beam="2">  1       -2 0.46121080E-01 0.13460775E+04</pdfrwt>
<totfact> 0.54481081E+01</totfact>
</mgrwt>
</event>
<event>
12    1  0.2045212E-008  0.1233608E+04  0.7818608E-02  0.9083938E-01
          1   -1    0    0  501    0  0.00000000000E+00  0.00000000000E+00  0.16463535350E+04  0.16463535350E+04  0.00000000000E+00 0. -1.
         -1   -1    0    0    0  501 -0.00000000000E+00 -0.00000000000E+00 -0.23108466039E+03  0.23108466039E+03  0.00000000000E+00 0.  1.
         23    2    1    2    0    0 -0.25414482873E+03  0.44767896300E+02  0.48928607074E+03  0.56023474042E+03  0.88703702545E+02 0.  0.
        254    2    1    2    0    0  0.25414482873E+03 -0.44767896300E+02  0.92598280388E+03  0.13172034550E+04  0.90054818318E+03 0.  0.
        -24    2    4    4    0    0  0.18668360913E+02  0.19061866303E+03  0.94949512911E+03  0.97412563568E+03  0.10342036301E+03 0.  0.
         24    2    4    4    0    0  0.23547646782E+03 -0.23538655933E+03 -0.23512325231E+02  0.34307781930E+03  0.79331969909E+02 0.  0.
         13    1    3    3    0    0 -0.13134465095E+01  0.17753137363E+02  0.22535540834E+02  0.28718454496E+02  0.00000000000E+00 0.  1.
        -13    1    3    3    0    0 -0.25283138222E+03  0.27014758937E+02  0.46675052991E+03  0.53151628592E+03  0.00000000000E+00 0. -1.
          4    1    6    6  502    0  0.12472543764E+02 -0.11724180342E+02 -0.21174181172E+02  0.27228049892E+02  0.00000000000E+00 0. -1.
          1    1    5    5  503    0  0.30307562594E+02  0.58511523684E+01  0.18331937424E+03  0.18589991207E+03  0.00000000000E+00 0. -1.
         -2    1    5    5    0  503 -0.11639201681E+02  0.18476751067E+03  0.76617575487E+03  0.78822572361E+03  0.00000000000E+00 0.  1.
         -3    1    6    6    0  502  0.22300392405E+03 -0.22366237899E+03 -0.23381440584E+01  0.31584976941E+03  0.00000000000E+00 0.  1.
<mgrwt>
<rscale>  0 0.12336078E+04</rscale>
<asrwt>0</asrwt>
<pdfrwt beam="1">  1        1 0.25328515E+00 0.12336078E+04</pdfrwt>
<pdfrwt beam="2">  1       -1 0.35551487E-01 0.12336078E+04</pdfrwt>
<totfact> 0.38636771E+01</totfact>
</mgrwt>
</event>
<event>
12    1  0.2632799E-008  0.1877701E+04  0.7818608E-02  0.8666036E-01
          2   -1    0    0  501    0  0.00000000000E+00  0.00000000000E+00  0.95659147290E+03  0.95659147290E+03  0.00000000000E+00 0. -1.
         -2   -1    0    0    0  501 -0.00000000000E+00 -0.00000000000E+00 -0.92143895041E+03  0.92143895041E+03  0.00000000000E+00 0.  1.
         23    2    1    2    0    0  0.23221178362E+03  0.44539915612E+03 -0.49965241948E+03  0.71433066162E+03  0.91175836273E+02 0.  0.
        254    2    1    2    0    0 -0.23221178362E+03 -0.44539915612E+03  0.53480494198E+03  0.11636997617E+04  0.90325970167E+03 0.  0.
        -24    2    4    4    0    0  0.33491236888E+03 -0.14770725120E+03  0.27732616781E+03  0.46807338270E+03  0.90549220619E+02 0.  0.
         24    2    4    4    0    0 -0.56712415250E+03 -0.29769190492E+03  0.25747877417E+03  0.69562637899E+03  0.85734855215E+02 0.  0.
         11    1    3    3    0    0  0.39266930118E+02  0.12326379668E+03 -0.84322890686E+02  0.15442216572E+03  0.00000000000E+00 0. -1.
        -11    1    3    3    0    0  0.19294485350E+03  0.32213535944E+03 -0.41532952879E+03  0.55990849590E+03  0.00000000000E+00 0.  1.
          2    1    6    6  502    0 -0.56694175450E+03 -0.30164577032E+03  0.25666705936E+03  0.69158593328E+03  0.00000000000E+00 0. -1.
          3    1    5    5  503    0  0.33009454605E+03 -0.14032318185E+03  0.28359786517E+03  0.45725348968E+03  0.00000000000E+00 0. -1.
         -4    1    5    5    0  503  0.48178228346E+01 -0.73840693491E+01 -0.62716973689E+01  0.10819893017E+02  0.00000000000E+00 0.  1.
         -1    1    6    6    0  502 -0.18239799725E+00  0.39538653990E+01  0.81171480736E+00  0.40404457120E+01  0.00000000000E+00 0.  1.
<mgrwt>
<rscale>  0 0.18777014E+04</rscale>
<asrwt>0</asrwt>
<pdfrwt beam="1">  1        2 0.14716792E+00 0.18777014E+04</pdfrwt>
<pdfrwt beam="2">  1       -2 0.14175984E+00 0.18777014E+04</pdfrwt>
<totfact> 0.87668535E+00</totfact>
</mgrwt>
</event>
<event>
11    1  0.2045212E-008  0.1896293E+04  0.7818608E-02  0.8656704E-01
         -1   -1    0    0    0  501 -0.00000000000E+00  0.00000000000E+00  0.77611481104E+03  0.77611481104E+03  0.00000000000E+00 0.  1.
          1   -1    0    0  501    0  0.00000000000E+00 -0.00000000000E+00 -0.11583097966E+04  0.11583097966E+04  0.00000000000E+00 0. -1.
         23    2    1    2    0    0  0.67977533295E+03 -0.18025442408E+03 -0.36102520345E+03  0.79599940238E+03  0.93218508788E+02 0.  0.
        254    2    1    2    0    0 -0.67977533295E+03  0.18025442408E+03 -0.21169782065E+02  0.11384252052E+04  0.89497353453E+03 0.  0.
         24    2    4    4    0    0 -0.47945725529E+03 -0.31646680521E+03  0.23957108641E+02  0.58030300229E+03  0.78403654051E+02 0.  0.
         13    1    3    3    0    0  0.57856180899E+03 -0.16318349229E+03 -0.27070253239E+03  0.65927420700E+03  0.00000000000E+00 0.  1.
        -13    1    3    3    0    0  0.10121352397E+03 -0.17070931787E+02 -0.90322671056E+02  0.13672519538E+03  0.00000000000E+00 0. -1.
          2    1    5    5  502    0 -0.19886018951E+02 -0.16893658144E+02 -0.15409391389E+02  0.30303444988E+02  0.00000000000E+00 0. -1.
          3    1    4    4  503    0 -0.12792973084E+03  0.12969970505E+03 -0.17358513203E+02  0.18300094946E+03  0.00000000000E+00 0. -1.
         -4    1    4    4    0  503 -0.72388346821E+02  0.36702152424E+03 -0.27768377503E+02  0.37512125347E+03  0.00000000000E+00 0.  1.
         -1    1    5    5    0  502 -0.45957123634E+03 -0.29957314707E+03  0.39366500029E+02  0.54999955730E+03  0.00000000000E+00 0.  1.
<mgrwt>
<rscale>  0 0.18962926E+04</rscale>
<asrwt>0</asrwt>
<pdfrwt beam="1">  1        1 0.17820151E+00 0.18962926E+04</pdfrwt>
<pdfrwt beam="2">  1       -1 0.11940228E+00 0.18962926E+04</pdfrwt>
<totfact> 0.67275127E+00</totfact>
</mgrwt>
</event>
<event>
12    1  0.2045212E-008  0.2351941E+04  0.7818608E-02  0.8457719E-01
          1   -1    0    0  501    0  0.00000000000E+00  0.00000000000E+00  0.76984407355E+03  0.76984407355E+03  0.00000000000E+00 0. -1.
         -1   -1    0    0    0  501 -0.00000000000E+00 -0.00000000000E+00 -0.17963457448E+04  0.17963457448E+04  0.00000000000E+00 0.  1.
         23    2    1    2    0    0  0.24659339588E+02  0.52206785203E+03  0.47050203096E+03  0.70957828017E+03  0.94690281398E+02 0.  0.
        254    2    1    2    0    0 -0.24659339588E+02 -0.52206785203E+03 -0.14970037022E+04  0.18566115382E+04  0.96582782840E+03 0.  0.
        -24    2    4    4    0    0  0.38902945763E+03 -0.41972029543E+03 -0.47441537102E+03  0.74622026273E+03  0.65312257192E+02 0.  0.
         24    2    4    4    0    0 -0.41368879722E+03 -0.10234755661E+03 -0.10225883312E+04  0.11103912755E+04  0.75289084380E+02 0.  0.
         11    1    3    3    0    0  0.13216048770E+02  0.33920809095E+03  0.24301549448E+03  0.41748451884E+03  0.00000000000E+00 0. -1.
        -11    1    3    3    0    0  0.11443290819E+02  0.18285976108E+03  0.22748653648E+03  0.29209376133E+03  0.00000000000E+00 0.  1.
          2    1    6    6  502    0 -0.30875371071E+03 -0.98187028932E+02 -0.83069231957E+03  0.89163853456E+03  0.00000000000E+00 0. -1.
          1    1    5    5  503    0  0.36887174072E+03 -0.37131076561E+03 -0.43630610928E+03  0.68139640941E+03  0.00000000000E+00 0. -1.
         -2    1    5    5    0  503  0.20157716909E+02 -0.48409529813E+02 -0.38109261744E+02  0.64823853313E+02  0.00000000000E+00 0.  1.
         -1    1    6    6    0  502 -0.10493508651E+03 -0.41605276739E+01 -0.19189601166E+03  0.21875274093E+03  0.00000000000E+00 0.  1.
<mgrwt>
<rscale>  0 0.23519406E+04</rscale>
<asrwt>0</asrwt>
<pdfrwt beam="1">  1        1 0.11843755E+00 0.23519406E+04</pdfrwt>
<pdfrwt beam="2">  1       -1 0.27636088E+00 0.23519406E+04</pdfrwt>
<totfact> 0.99401079E-01</totfact>
</mgrwt>
</event>
<event>
11    1  0.2045212E-008  0.1264888E+04  0.7818608E-02  0.9057882E-01
          2   -1    0    0  501    0  0.00000000000E+00  0.00000000000E+00  0.15125895833E+04  0.15125895833E+04  0.00000000000E+00 0. -1.
         -2   -1    0    0    0  501 -0.00000000000E+00 -0.00000000000E+00 -0.26443759977E+03  0.26443759977E+03  0.00000000000E+00 0.  1.
         23    2    1    2    0    0  0.20167056193E+03 -0.20190063495E+03  0.17040138893E+03  0.34424501608E+03  0.89627650881E+02 0.  0.
        254    2    1    2    0    0 -0.20167056193E+03  0.20190063495E+03  0.10777505946E+04  0.14327821670E+04  0.89993528208E+03 0.  0.
         24    2    4    4    0    0  0.24166721691E+02  0.52403734624E+03  0.54405933113E+03  0.75999131149E+03  0.79919128281E+02 0.  0.
         13    1    3    3    0    0  0.55410425596E+02 -0.17268044583E+02  0.62086676298E+02  0.84989740570E+02  0.00000000000E+00 0. -1.
        -13    1    3    3    0    0  0.14626013633E+03 -0.18463259036E+03  0.10831471263E+03  0.25925527551E+03  0.00000000000E+00 0.  1.
          2    1    5    5  502    0  0.35490566664E+02  0.44858253731E+03  0.42749389371E+03  0.62067455422E+03  0.00000000000E+00 0. -1.
          3    1    4    4  503    0 -0.13103003783E+03 -0.27216909957E+03  0.40711444331E+03  0.50693891104E+03  0.00000000000E+00 0. -1.
         -4    1    4    4    0  503 -0.94807245794E+02 -0.49967611728E+02  0.12657682014E+03  0.16585194444E+03  0.00000000000E+00 0.  1.
         -1    1    5    5    0  502 -0.11323844973E+02  0.75454808932E+02  0.11656543741E+03  0.13931675727E+03  0.00000000000E+00 0.  1.
<mgrwt>
<rscale>  0 0.12648882E+04</rscale>
<asrwt>0</asrwt>
<pdfrwt beam="1">  1        2 0.23270609E+00 0.12648882E+04</pdfrwt>
<pdfrwt beam="2">  1       -2 0.40682708E-01 0.12648882E+04</pdfrwt>
<totfact> 0.70161437E+01</totfact>
</mgrwt>
</event>
<event>
11    1  0.2045212E-008  0.1753453E+04  0.7818608E-02  0.8731452E-01
         -1   -1    0    0    0  501 -0.00000000000E+00  0.00000000000E+00  0.40637819374E+03  0.40637819374E+03  0.00000000000E+00 0.  1.
          1   -1    0    0  501    0  0.00000000000E+00 -0.00000000000E+00 -0.18914638570E+04  0.18914638570E+04  0.00000000000E+00 0. -1.
         23    2    1    2    0    0 -0.35637084833E+03  0.51887918815E+03 -0.70634765289E+03  0.95051853671E+03  0.91228769856E+02 0.  0.
        254    2    1    2    0    0  0.35637084833E+03 -0.51887918815E+03 -0.77873801039E+03  0.13473235141E+04  0.90144992610E+03 0.  0.
         24    2    4    4    0    0  0.61393065114E+03 -0.47497628062E+03 -0.53235048781E+03  0.94444285214E+03  0.77858509674E+02 0.  0.
         13    1    3    3    0    0 -0.22596285131E+03  0.30003493362E+03 -0.48195050392E+03  0.61102901714E+03  0.00000000000E+00 0. -1.
        -13    1    3    3    0    0 -0.13040799701E+03  0.21884425454E+03 -0.22439714897E+03  0.33948951957E+03  0.00000000000E+00 0.  1.
          2    1    5    5  502    0  0.17111987242E+03 -0.11411631359E+03 -0.17973111916E+03  0.27314431892E+03  0.00000000000E+00 0. -1.
          1    1    4    4  503    0 -0.26601594999E+03 -0.22136787945E+01 -0.24283915353E+03  0.36019472582E+03  0.00000000000E+00 0. -1.
         -2    1    4    4    0  503  0.84561471716E+01 -0.41689228736E+02 -0.35483690560E+01  0.42685936097E+02  0.00000000000E+00 0.  1.
         -1    1    5    5    0  502  0.44281077872E+03 -0.36085996704E+03 -0.35261936865E+03  0.67129853323E+03  0.00000000000E+00 0.  1.
<mgrwt>
<rscale>  0 0.17534534E+04</rscale>
<asrwt>0</asrwt>
<pdfrwt beam="1">  1        1 0.29099444E+00 0.17534534E+04</pdfrwt>
<pdfrwt beam="2">  1       -1 0.62519722E-01 0.17534534E+04</pdfrwt>
<totfact> 0.86805496E+00</totfact>
</mgrwt>
</event>
<event>
12    1  0.2045212E-008  0.2807929E+04  0.7818608E-02  0.8300811E-01
          2   -1    0    0  501    0  0.00000000000E+00  0.00000000000E+00  0.22119009189E+04  0.22119009189E+04  0.00000000000E+00 0.  1.
         -2   -1    0    0    0  501 -0.00000000000E+00 -0.00000000000E+00 -0.89114118165E+03  0.89114118165E+03  0.00000000000E+00 0. -1.
         23    2    1    2    0    0 -0.66404671825E+03  0.11407580603E+03  0.17664441217E+04  0.18927287232E+04  0.90143501901E+02 0.  0.
        254    2    1    2    0    0  0.66404671825E+03 -0.11407580603E+03 -0.44568438447E+03  0.12103133773E+04  0.90125055743E+03 0.  0.
        -24    2    4    4    0    0  0.31415252531E+03  0.17387444790E+03  0.19652031932E+03  0.42022202003E+03  0.95090364530E+02 0.  0.
         24    2    4    4    0    0  0.34989419295E+03 -0.28795025393E+03 -0.64220470380E+03  0.79009135731E+03  0.80474693656E+02 0.  0.
         11    1    3    3    0    0 -0.32354464613E+03  0.95667646193E+02  0.81814614368E+03  0.88498392583E+03  0.00000000000E+00 0. -1.
        -11    1    3    3    0    0 -0.34050207212E+03  0.18408159841E+02  0.94829797803E+03  0.10077447974E+04  0.00000000000E+00 0.  1.
          2    1    6    6  502    0  0.19475720634E+03 -0.17555104947E+03 -0.30450050557E+03  0.40183217677E+03  0.00000000000E+00 0. -1.
          3    1    5    5  503    0  0.20407282632E+03  0.15504567401E+03  0.10976959065E+03  0.27880861267E+03  0.00000000000E+00 0. -1.
         -4    1    5    5    0  503  0.11007969899E+03  0.18828773889E+02  0.86750728675E+02  0.14141340736E+03  0.00000000000E+00 0.  1.
         -1    1    6    6    0  502  0.15513698661E+03 -0.11239920446E+03 -0.33770419822E+03  0.38825918054E+03  0.00000000000E+00 0.  1.
<mgrwt>
<rscale>  0 0.28079288E+04</rscale>
<asrwt>0</asrwt>
<pdfrwt beam="1">  1        2 0.34029245E+00 0.28079288E+04</pdfrwt>
<pdfrwt beam="2">  1       -2 0.13709864E+00 0.28079288E+04</pdfrwt>
<totfact> 0.16766164E+00</totfact>
</mgrwt>
</event>
<event>
11    1  0.2045212E-008  0.1532945E+04  0.7818608E-02  0.8862836E-01
         -1   -1    0    0    0  501 -0.00000000000E+00  0.00000000000E+00  0.17432967601E+04  0.17432967601E+04  0.00000000000E+00 0.  1.
          1   -1    0    0  501    0  0.00000000000E+00 -0.00000000000E+00 -0.33699366707E+03  0.33699366707E+03  0.00000000000E+00 0. -1.
         23    2    1    2    0    0 -0.43059995113E+03  0.90129826679E+02  0.75965721884E+03  0.88609919047E+03  0.12063573953E+03 0.  0.
        254    2    1    2    0    0  0.43059995113E+03 -0.90129826679E+02  0.64664587422E+03  0.11941912367E+04  0.90244230822E+03 0.  0.
         24    2    4    4    0    0 -0.35555667157E+02  0.12971916784E+03  0.58374007445E+03  0.60425730524E+03  0.79266313420E+02 0.  0.
         11    1    3    3    0    0 -0.10215527443E+03 -0.17848836253E+02  0.24554336759E+03  0.26654422976E+03  0.00000000000E+00 0.  1.
        -11    1    3    3    0    0 -0.32844467670E+03  0.10797866293E+03  0.51411385125E+03  0.61955496072E+03  0.00000000000E+00 0. -1.
          2    1    5    5  502    0  0.15499581209E+02  0.58485895351E+01  0.13295727709E+03  0.13398537439E+03  0.00000000000E+00 0. -1.
          3    1    4    4  503    0  0.12570882166E+02  0.53126719682E+02 -0.10139328986E+02  0.55527303328E+02  0.00000000000E+00 0. -1.
         -4    1    4    4    0  503  0.45358473613E+03 -0.27297571420E+03  0.73045128758E+02  0.53440662816E+03  0.00000000000E+00 0.  1.
         -1    1    5    5    0  502 -0.51055248366E+02  0.12387057831E+03  0.45078279736E+03  0.47027193085E+03  0.00000000000E+00 0.  1.
<mgrwt>
<rscale>  0 0.15329448E+04</rscale>
<asrwt>0</asrwt>
<pdfrwt beam="1">  1        1 0.51845181E-01 0.15329448E+04</pdfrwt>
<pdfrwt beam="2">  1       -1 0.26819950E+00 0.15329448E+04</pdfrwt>
<totfact> 0.38591828E+00</totfact>
</mgrwt>
</event>
<event>
12    1  0.2045212E-008  0.1940103E+04  0.7818608E-02  0.8635148E-01
         -2   -1    0    0    0  501 -0.00000000000E+00  0.00000000000E+00  0.44156375640E+03  0.44156375640E+03  0.00000000000E+00 0. -1.
          2   -1    0    0  501    0  0.00000000000E+00 -0.00000000000E+00 -0.21310620489E+04  0.21310620489E+04  0.00000000000E+00 0.  1.
         23    2    1    2    0    0 -0.53633584620E+03  0.87275482781E+02 -0.13662636183E+04  0.14734939028E+04  0.96098163027E+02 0.  0.
        254    2    1    2    0    0  0.53633584620E+03 -0.87275482781E+02 -0.32323467416E+03  0.10991319025E+04  0.89907571134E+03 0.  0.
        -24    2    4    4    0    0  0.18235175104E+03 -0.26513806187E+03 -0.54346007672E+03  0.63862828662E+03  0.94587951230E+02 0.  0.
         24    2    4    4    0    0  0.35398409516E+03  0.17786257909E+03  0.22022540256E+03  0.46050361589E+03  0.81391127602E+02 0.  0.
         13    1    3    3    0    0 -0.36019272613E+03  0.96956071640E+02 -0.86133100910E+03  0.93863218943E+03  0.00000000000E+00 0. -1.
        -13    1    3    3    0    0 -0.17614312007E+03 -0.96805888587E+01 -0.50493260923E+03  0.53486171335E+03  0.00000000000E+00 0.  1.
          2    1    6    6  502    0  0.22498979814E+03  0.13372022183E+03  0.18239862962E+03  0.31901530854E+03  0.00000000000E+00 0. -1.
          3    1    5    5  503    0  0.12953387035E+03 -0.24064016826E+03 -0.40671044142E+03  0.49000009929E+03  0.00000000000E+00 0. -1.
         -4    1    5    5    0  503  0.52817880696E+02 -0.24497893613E+02 -0.13674963530E+03  0.14862818733E+03  0.00000000000E+00 0.  1.
         -1    1    6    6    0  502  0.12899429702E+03  0.44142357259E+02  0.37826772939E+02  0.14148830735E+03  0.00000000000E+00 0.  1.
<mgrwt>
<rscale>  0 0.19401028E+04</rscale>
<asrwt>0</asrwt>
<pdfrwt beam="1">  1        2 0.32785570E+00 0.19401028E+04</pdfrwt>
<pdfrwt beam="2">  1       -2 0.67932885E-01 0.19401028E+04</pdfrwt>
<totfact> 0.10458434E+01</totfact>
</mgrwt>
</event>
<event>
11    1  0.2045212E-008  0.1923123E+04  0.7818608E-02  0.8643431E-01
         -1   -1    0    0    0  501 -0.00000000000E+00  0.00000000000E+00  0.59185182358E+03  0.59185182358E+03  0.00000000000E+00 0.  1.
          1   -1    0    0  501    0  0.00000000000E+00 -0.00000000000E+00 -0.15622162538E+04  0.15622162538E+04  0.00000000000E+00 0. -1.
         23    2    1    2    0    0 -0.43488389265E+03 -0.24899195109E+03 -0.10122362988E+04  0.11331373423E+04  0.90867596780E+02 0.  0.
        254    2    1    2    0    0  0.43488389265E+03  0.24899195109E+03  0.41871868583E+02  0.10209307351E+04  0.88849610052E+03 0.  0.
         24    2    4    4    0    0  0.56297238030E+03 -0.79907738975E+02 -0.14378852657E+03  0.59212043102E+03  0.81291553874E+02 0.  0.
         11    1    3    3    0    0 -0.25567368964E+03 -0.18137469121E+03 -0.55514247530E+03  0.63753351446E+03  0.00000000000E+00 0.  1.
        -11    1    3    3    0    0 -0.17921020301E+03 -0.67617259881E+02 -0.45709382347E+03  0.49560382783E+03  0.00000000000E+00 0. -1.
          2    1    5    5  502    0  0.18024640134E+03 -0.45906536849E+02 -0.80655330878E+02  0.20273494449E+03  0.00000000000E+00 0. -1.
          3    1    4    4  503    0  0.22316253663E+02  0.10432703767E+03  0.97449825888E+02  0.14449434083E+03  0.00000000000E+00 0. -1.
         -4    1    4    4    0  503 -0.15040474131E+03  0.22457265240E+03  0.88210569264E+02  0.28431596322E+03  0.00000000000E+00 0.  1.
         -1    1    5    5    0  502  0.38272597896E+03 -0.34001202127E+02 -0.63133195690E+02  0.38938548652E+03  0.00000000000E+00 0.  1.
<mgrwt>
<rscale>  0 0.19231230E+04</rscale>
<asrwt>0</asrwt>
<pdfrwt beam="1">  1        1 0.24034096E+00 0.19231230E+04</pdfrwt>
<pdfrwt beam="2">  1       -1 0.91054127E-01 0.19231230E+04</pdfrwt>
<totfact> 0.65120368E+00</totfact>
</mgrwt>
</event>
<event>
12    1  0.2045212E-008  0.1859813E+04  0.7818608E-02  0.8675123E-01
          2   -1    0    0  501    0  0.00000000000E+00  0.00000000000E+00  0.19537227837E+04  0.19537227837E+04  0.00000000000E+00 0. -1.
         -2   -1    0    0    0  501 -0.00000000000E+00 -0.00000000000E+00 -0.44260419318E+03  0.44260419318E+03  0.00000000000E+00 0.  1.
         23    2    1    2    0    0  0.68081448402E+03 -0.34005261211E+01  0.42511432793E+03  0.80790268966E+03  0.92003472291E+02 0.  0.
        254    2    1    2    0    0 -0.68081448402E+03  0.34005261211E+01  0.10860042626E+04  0.15884242872E+04  0.93817190995E+03 0.  0.
        -24    2    4    4    0    0 -0.44527005531E+03  0.45153221127E+03  0.66795985819E+03  0.92629965363E+03  0.98559201454E+02 0.  0.
         24    2    4    4    0    0 -0.23554442872E+03 -0.44813168515E+03  0.41804440440E+03  0.66212463359E+03  0.85701348976E+02 0.  0.
         11    1    3    3    0    0  0.34632306742E+03  0.30670929783E+02  0.25447666971E+03  0.43085815344E+03  0.00000000000E+00 0. -1.
        -11    1    3    3    0    0  0.33449141660E+03 -0.34071455904E+02  0.17063765822E+03  0.37704453622E+03  0.00000000000E+00 0.  1.
          4    1    6    6  502    0 -0.42193681446E+02 -0.13596830906E+03  0.81538173863E+02  0.16406145684E+03  0.00000000000E+00 0. -1.
          1    1    5    5  503    0 -0.37785413720E+03  0.32558711573E+03  0.52696079638E+03  0.72558142193E+03  0.00000000000E+00 0. -1.
         -2    1    5    5    0  503 -0.67415918107E+02  0.12594509554E+03  0.14099906181E+03  0.20071823170E+03  0.00000000000E+00 0.  1.
         -3    1    6    6    0  502 -0.19335074727E+03 -0.31216337609E+03  0.33650623054E+03  0.49806317675E+03  0.00000000000E+00 0.  1.
<mgrwt>
<rscale>  0 0.18598128E+04</rscale>
<asrwt>0</asrwt>
<pdfrwt beam="1">  1        2 0.30057273E+00 0.18598128E+04</pdfrwt>
<pdfrwt beam="2">  1       -2 0.68092954E-01 0.18598128E+04</pdfrwt>
<totfact> 0.13149415E+01</totfact>
</mgrwt>
</event>
<event>
12    1  0.2045212E-008  0.1201893E+04  0.7818608E-02  0.9111201E-01
         -1   -1    0    0    0  501 -0.00000000000E+00  0.00000000000E+00  0.30012457766E+03  0.30012457766E+03  0.00000000000E+00 0.  1.
          1   -1    0    0  501    0  0.00000000000E+00 -0.00000000000E+00 -0.12032891414E+04  0.12032891414E+04  0.00000000000E+00 0. -1.
         23    2    1    2    0    0 -0.75418516799E+02  0.11957334508E+03  0.62704949089E+02  0.17788725331E+03  0.87898957447E+02 0.  0.
        254    2    1    2    0    0  0.75418516799E+02 -0.11957334508E+03 -0.96586951278E+03  0.13255264657E+04  0.89673338179E+03 0.  0.
        -24    2    4    4    0    0  0.37303804543E+02 -0.11565523351E+03  0.14026462632E+03  0.21582151961E+03  0.11016830787E+03 0.  0.
         24    2    4    4    0    0  0.38114712257E+02 -0.39181115739E+01 -0.11061341391E+04  0.11097049461E+04  0.80276091059E+02 0.  0.
         11    1    3    3    0    0 -0.43361306490E+02  0.12066969862E+01  0.10655741452E+02  0.44667704710E+02  0.00000000000E+00 0. -1.
        -11    1    3    3    0    0 -0.32057210309E+02  0.11836664809E+03  0.52049207637E+02  0.13321954860E+03  0.00000000000E+00 0.  1.
          4    1    6    6  502    0  0.40093959951E+02  0.28260543702E+02 -0.86978536898E+03  0.87116747647E+03  0.00000000000E+00 0. -1.
          3    1    5    5  503    0  0.23138162598E+02 -0.13648421150E+03  0.11294467465E+03  0.17866117118E+03  0.00000000000E+00 0. -1.
         -4    1    5    5    0  503  0.14165641945E+02  0.20828977993E+02  0.27319951673E+02  0.37160348429E+02  0.00000000000E+00 0.  1.
         -3    1    6    6    0  502 -0.19792476940E+01 -0.32178655276E+02 -0.23634877012E+03  0.23853746962E+03  0.00000000000E+00 0.  1.
<mgrwt>
<rscale>  0 0.12018929E+04</rscale>
<asrwt>0</asrwt>
<pdfrwt beam="1">  1        1 0.18512141E+00 0.12018929E+04</pdfrwt>
<pdfrwt beam="2">  1       -1 0.46173011E-01 0.12018929E+04</pdfrwt>
<totfact> 0.49056977E+01</totfact>
</mgrwt>
</event>
<event>
12    1  0.2045212E-008  0.1840427E+04  0.7818608E-02  0.8685092E-01
          2   -1    0    0  501    0  0.00000000000E+00  0.00000000000E+00  0.12731330894E+04  0.12731330894E+04  0.00000000000E+00 0. -1.
         -2   -1    0    0    0  501 -0.00000000000E+00 -0.00000000000E+00 -0.66512488512E+03  0.66512488512E+03  0.00000000000E+00 0.  1.
         23    2    1    2    0    0 -0.51973206420E+03 -0.40646391940E+03 -0.40106198433E+01  0.66612015991E+03  0.91463905650E+02 0.  0.
        254    2    1    2    0    0  0.51973206420E+03  0.40646391940E+03  0.61201882414E+03  0.12721378146E+04  0.89912915757E+03 0.  0.
        -24    2    4    4    0    0 -0.16136789393E+03  0.34789025420E+03  0.37459631395E+03  0.54394433011E+03  0.92118454592E+02 0.  0.
         24    2    4    4    0    0  0.68109995813E+03  0.58573665201E+02  0.23742251019E+03  0.72819348453E+03  0.81044897060E+02 0.  0.
         13    1    3    3    0    0 -0.49341938685E+03 -0.37176771444E+03  0.16430008245E+02  0.61801607583E+03  0.00000000000E+00 0.  1.
        -13    1    3    3    0    0 -0.26312677344E+02 -0.34696204967E+02 -0.20440628088E+02  0.48104084076E+02  0.00000000000E+00 0. -1.
          4    1    6    6  502    0  0.82076377269E+02  0.23513270869E+02  0.52796329219E+02  0.10038355439E+03  0.00000000000E+00 0. -1.
          3    1    5    5  503    0 -0.63193719365E+02  0.17378596999E+03  0.23998807977E+03  0.30296747014E+03  0.00000000000E+00 0. -1.
         -4    1    5    5    0  503 -0.98174174570E+02  0.17410428421E+03  0.13460823418E+03  0.24097685997E+03  0.00000000000E+00 0.  1.
         -3    1    6    6    0  502  0.59902358086E+03  0.35060394332E+02  0.18462618097E+03  0.62780993014E+03  0.00000000000E+00 0.  1.
<mgrwt>
<rscale>  0 0.18404266E+04</rscale>
<asrwt>0</asrwt>
<pdfrwt beam="1">  1        2 0.19586663E+00 0.18404266E+04</pdfrwt>
<pdfrwt beam="2">  1       -2 0.10232691E+00 0.18404266E+04</pdfrwt>
<totfact> 0.12615179E+01</totfact>
</mgrwt>
</event>
<event>
12    1  0.2045212E-008  0.1939964E+04  0.7818608E-02  0.8635215E-01
          2   -1    0    0  501    0  0.00000000000E+00  0.00000000000E+00  0.19681151406E+04  0.19681151406E+04  0.00000000000E+00 0. -1.
         -2   -1    0    0    0  501 -0.00000000000E+00 -0.00000000000E+00 -0.47805412613E+03  0.47805412613E+03  0.00000000000E+00 0.  1.
         23    2    1    2    0    0 -0.67779744533E+02  0.44943161178E+03  0.13630745663E+04  0.14399794837E+04  0.94793315868E+02 0.  0.
        254    2    1    2    0    0  0.67779744533E+02 -0.44943161178E+03  0.12698644819E+03  0.10061897831E+04  0.88865598184E+03 0.  0.
        -24    2    4    4    0    0 -0.18126299369E+03  0.12708144068E+03  0.27172092045E+03  0.35692841760E+03  0.67525337720E+02 0.  0.
         24    2    4    4    0    0  0.24904273822E+03 -0.57651305247E+03 -0.14473447226E+03  0.64926136545E+03  0.78757019226E+02 0.  0.
         13    1    3    3    0    0 -0.10976217723E+02  0.81084150692E+02  0.14903294847E+03  0.17001745963E+03  0.00000000000E+00 0.  1.
        -13    1    3    3    0    0 -0.56803526810E+02  0.36834746109E+03  0.12140416178E+04  0.12699620241E+04  0.00000000000E+00 0. -1.
          4    1    6    6  502    0  0.11512070458E+03 -0.36187788591E+03 -0.94585643856E+02  0.39135000314E+03  0.00000000000E+00 0. -1.
          3    1    5    5  503    0 -0.11409439408E+03  0.11514897798E+03  0.17466769979E+03  0.23829734208E+03  0.00000000000E+00 0. -1.
         -4    1    5    5    0  503 -0.67168599614E+02  0.11932462699E+02  0.97053220659E+02  0.11863107553E+03  0.00000000000E+00 0.  1.
         -3    1    6    6    0  502  0.13392203364E+03 -0.21463516656E+03 -0.50148828403E+02  0.25791136231E+03  0.00000000000E+00 0.  1.
<mgrwt>
<rscale>  0 0.19399645E+04</rscale>
<asrwt>0</asrwt>
<pdfrwt beam="1">  1        2 0.30278694E+00 0.19399645E+04</pdfrwt>
<pdfrwt beam="2">  1       -2 0.73546790E-01 0.19399645E+04</pdfrwt>
<totfact> 0.10833694E+01</totfact>
</mgrwt>
</event>
<event>
11    1  0.2045212E-008  0.2746234E+04  0.7818608E-02  0.8320158E-01
          2   -1    0    0  501    0  0.00000000000E+00  0.00000000000E+00  0.13484502296E+04  0.13484502296E+04  0.00000000000E+00 0. -1.
         -2   -1    0    0    0  501 -0.00000000000E+00 -0.00000000000E+00 -0.13982345672E+04  0.13982345672E+04  0.00000000000E+00 0.  1.
         23    2    1    2    0    0  0.29189614542E+03  0.10548057319E+04  0.57454463244E+03  0.12395269050E+04  0.92232975105E+02 0.  0.
        254    2    1    2    0    0 -0.29189614542E+03 -0.10548057319E+04 -0.62432897004E+03  0.15071578918E+04  0.82699441126E+03 0.  0.
         24    2    4    4    0    0 -0.16438367296E+03 -0.40731632414E+03 -0.67556589258E+03  0.80976681231E+03  0.80027715548E+02 0.  0.
         11    1    3    3    0    0  0.24691273925E+03  0.75029919910E+03  0.43221323002E+03  0.90040161327E+03  0.00000000000E+00 0. -1.
        -11    1    3    3    0    0  0.44983406169E+02  0.30450653284E+03  0.14233140242E+03  0.33912529173E+03  0.00000000000E+00 0.  1.
          2    1    5    5  502    0 -0.96739088890E+02 -0.15979909703E+03 -0.23850153598E+03  0.30294749610E+03  0.00000000000E+00 0. -1.
          3    1    4    4  503    0  0.61683504189E+02 -0.20946112886E+03  0.17837887473E+02  0.21908219787E+03  0.00000000000E+00 0. -1.
         -4    1    4    4    0  503 -0.18919597665E+03 -0.43802827894E+03  0.33399035071E+02  0.47830888166E+03  0.00000000000E+00 0.  1.
         -1    1    5    5    0  502 -0.67644584069E+02 -0.24751722712E+03 -0.43706435660E+03  0.50681931621E+03  0.00000000000E+00 0.  1.
<mgrwt>
<rscale>  0 0.27462336E+04</rscale>
<asrwt>0</asrwt>
<pdfrwt beam="1">  1        2 0.20745388E+00 0.27462336E+04</pdfrwt>
<pdfrwt beam="2">  1       -2 0.21511301E+00 0.27462336E+04</pdfrwt>
<totfact> 0.14378175E+00</totfact>
</mgrwt>
</event>
<event>
11    1  0.2530818E-008  0.1754968E+04  0.7818608E-02  0.8730621E-01
          2   -1    0    0  501    0  0.00000000000E+00  0.00000000000E+00  0.21184027243E+04  0.21184027243E+04  0.00000000000E+00 0. -1.
         -2   -1    0    0    0  501 -0.00000000000E+00 -0.00000000000E+00 -0.36347105153E+03  0.36347105153E+03  0.00000000000E+00 0.  1.
         23    2    1    2    0    0 -0.26286424603E+03  0.58012038188E+03  0.51822667468E+03  0.82523771550E+03  0.82590141108E+02 0.  0.
        254    2    1    2    0    0  0.26286424603E+03 -0.58012038188E+03  0.12367049981E+04  0.16566360603E+04  0.89964799491E+03 0.  0.
         24    2    4    4    0    0  0.40677618685E+03  0.50097953404E+02  0.43735726208E+03  0.60465664867E+03  0.79697032378E+02 0.  0.
         13    1    3    3    0    0 -0.26532893097E+03  0.53715551717E+03  0.48672759795E+03  0.77190624161E+03  0.00000000000E+00 0.  1.
        -13    1    3    3    0    0  0.24646849354E+01  0.42964864715E+02  0.31499076731E+02  0.53331473885E+02  0.00000000000E+00 0. -1.
          4    1    5    5  502    0  0.35261100594E+03  0.60084996931E+02  0.34402264684E+03  0.49628249002E+03  0.00000000000E+00 0. -1.
          3    1    4    4  503    0 -0.16220834558E+03 -0.63656801893E+03  0.73979592567E+03  0.98935757022E+03  0.00000000000E+00 0. -1.
         -4    1    4    4    0  503  0.18296404771E+02  0.63496836466E+01  0.59551810330E+02  0.62621841426E+02  0.00000000000E+00 0.  1.
         -3    1    5    5    0  502  0.54165180911E+02 -0.99870435270E+01  0.93334615238E+02  0.10837415865E+03  0.00000000000E+00 0.  1.
<mgrwt>
<rscale>  0 0.17549679E+04</rscale>
<asrwt>0</asrwt>
<pdfrwt beam="1">  1        2 0.32590811E+00 0.17549679E+04</pdfrwt>
<pdfrwt beam="2">  1       -2 0.55918624E-01 0.17549679E+04</pdfrwt>
<totfact> 0.16332184E+01</totfact>
</mgrwt>
</event>
<event>
11    1  0.2045212E-008  0.1632270E+04  0.7818608E-02  0.8800965E-01
         -2   -1    0    0    0  501 -0.00000000000E+00  0.00000000000E+00  0.88126884931E+03  0.88126884931E+03  0.00000000000E+00 0.  1.
          2   -1    0    0  501    0  0.00000000000E+00 -0.00000000000E+00 -0.75581467988E+03  0.75581467988E+03  0.00000000000E+00 0. -1.
         23    2    1    2    0    0 -0.50421445876E+03  0.10699541252E+03  0.23015834807E+03  0.57186969964E+03  0.91552441005E+02 0.  0.
        254    2    1    2    0    0  0.50421445876E+03 -0.10699541252E+03 -0.10470417864E+03  0.10652138296E+04  0.92630302759E+03 0.  0.
         24    2    4    4    0    0  0.32695187929E+03  0.10340691700E+03  0.32267904942E+03  0.47731578923E+03  0.78218104380E+02 0.  0.
         11    1    3    3    0    0 -0.74339160110E+02  0.25231204928E+02  0.23501809232E+01  0.78539466374E+02  0.00000000000E+00 0. -1.
        -11    1    3    3    0    0 -0.42987529865E+03  0.81764207592E+02  0.22780816715E+03  0.49333023327E+03  0.00000000000E+00 0.  1.
          2    1    5    5  502    0  0.75716381400E+02 -0.92312105683E+01  0.65024320047E+02  0.10023147140E+03  0.00000000000E+00 0. -1.
          3    1    4    4  503    0  0.10598821493E+03 -0.13155472434E+03 -0.23864002289E+02  0.17061546766E+03  0.00000000000E+00 0. -1.
         -4    1    4    4    0  503  0.71274364540E+02 -0.78847605186E+02 -0.40351922577E+03  0.41728257266E+03  0.00000000000E+00 0.  1.
         -1    1    5    5    0  502  0.25123549789E+03  0.11263812757E+03  0.25765472937E+03  0.37708431783E+03  0.00000000000E+00 0.  1.
<mgrwt>
<rscale>  0 0.16322695E+04</rscale>
<asrwt>0</asrwt>
<pdfrwt beam="1">  1        2 0.11627918E+00 0.16322695E+04</pdfrwt>
<pdfrwt beam="2">  1       -2 0.13557982E+00 0.16322695E+04</pdfrwt>
<totfact> 0.13852960E+01</totfact>
</mgrwt>
</event>
<event>
12    1  0.2045212E-008  0.2269792E+04  0.7818608E-02  0.8489928E-01
         -2   -1    0    0    0  501 -0.00000000000E+00  0.00000000000E+00  0.52834447528E+03  0.52834447528E+03  0.00000000000E+00 0.  1.
          2   -1    0    0  501    0  0.00000000000E+00 -0.00000000000E+00 -0.24377824173E+04  0.24377824173E+04  0.00000000000E+00 0. -1.
         23    2    1    2    0    0 -0.29236495004E+03  0.52374506826E+03  0.15753662848E+03  0.62674193316E+03  0.90562138468E+02 0.  0.
        254    2    1    2    0    0  0.29236495004E+03 -0.52374506826E+03 -0.20669745705E+04  0.23393849594E+04  0.91681620444E+03 0.  0.
        -24    2    4    4    0    0 -0.14660956293E+03 -0.69028070213E+02 -0.17694099494E+02  0.19335017598E+03  0.10398062788E+03 0.  0.
         24    2    4    4    0    0  0.43897451297E+03 -0.45471699805E+03 -0.20492804710E+04  0.21460347835E+04  0.80303620823E+02 0.  0.
         11    1    3    3    0    0 -0.27062448172E+03  0.44932957223E+03  0.16230350413E+03  0.54906930531E+03  0.00000000000E+00 0.  1.
        -11    1    3    3    0    0 -0.21740468317E+02  0.74415496037E+02 -0.47668756444E+01  0.77672627846E+02  0.00000000000E+00 0. -1.
          2    1    6    6  502    0  0.38027994553E+03 -0.36524976153E+03 -0.17735471144E+04  0.18502674381E+04  0.00000000000E+00 0. -1.
          3    1    5    5  503    0 -0.15875593093E+03 -0.50621809694E+02 -0.26459136492E+01  0.16665237497E+03  0.00000000000E+00 0. -1.
         -4    1    5    5    0  503  0.12146367998E+02 -0.18406260518E+02 -0.15048185844E+02  0.26697801015E+02  0.00000000000E+00 0.  1.
         -1    1    6    6    0  502  0.58694567440E+02 -0.89467236524E+02 -0.27573335659E+03  0.29576734538E+03  0.00000000000E+00 0.  1.
<mgrwt>
<rscale>  0 0.22697919E+04</rscale>
<asrwt>0</asrwt>
<pdfrwt beam="1">  1        2 0.37504345E+00 0.22697919E+04</pdfrwt>
<pdfrwt beam="2">  1       -2 0.81283766E-01 0.22697919E+04</pdfrwt>
<totfact> 0.45831096E+00</totfact>
</mgrwt>
</event>
<event>
11    1  0.2045212E-008  0.1972946E+04  0.7818608E-02  0.8619375E-01
          1   -1    0    0  501    0  0.00000000000E+00  0.00000000000E+00  0.17284641606E+04  0.17284641606E+04  0.00000000000E+00 0. -1.
         -1   -1    0    0    0  501 -0.00000000000E+00 -0.00000000000E+00 -0.56300217914E+03  0.56300217914E+03  0.00000000000E+00 0.  1.
         23    2    1    2    0    0  0.20707252971E+03 -0.16065611737E+03  0.13134126753E+04  0.13423721775E+04  0.90668554400E+02 0.  0.
        254    2    1    2    0    0 -0.20707252971E+03  0.16065611737E+03 -0.14795069376E+03  0.94909416229E+03  0.90011160447E+03 0.  0.
         24    2    4    4    0    0 -0.28568778189E+03  0.20313402197E+03  0.30662180356E+03  0.47223923670E+03  0.78179451622E+02 0.  0.
         11    1    3    3    0    0  0.73278418433E+02 -0.20073160625E+02  0.52258688165E+03  0.52808115594E+03  0.00000000000E+00 0.  1.
        -11    1    3    3    0    0  0.13379411128E+03 -0.14058295674E+03  0.79082579361E+03  0.81429102156E+03  0.00000000000E+00 0. -1.
          2    1    5    5  502    0 -0.31520638168E+02  0.18111065171E+02  0.69597370615E+02  0.78519776545E+02  0.00000000000E+00 0. -1.
          3    1    4    4  503    0 -0.68306869289E+01 -0.32055203466E+02 -0.32727990243E+02  0.46317552813E+02  0.00000000000E+00 0. -1.
         -2    1    4    4    0  503  0.85445939102E+02 -0.10422701139E+02 -0.42184450708E+03  0.43053737278E+03  0.00000000000E+00 0.  1.
         -1    1    5    5    0  502 -0.25416714372E+03  0.18502295680E+03  0.23702443295E+03  0.39371946015E+03  0.00000000000E+00 0.  1.
<mgrwt>
<rscale>  0 0.19729461E+04</rscale>
<asrwt>0</asrwt>
<pdfrwt beam="1">  1        1 0.26591756E+00 0.19729461E+04</pdfrwt>
<pdfrwt beam="2">  1       -1 0.86615721E-01 0.19729461E+04</pdfrwt>
<totfact> 0.55680095E+00</totfact>
</mgrwt>
</event>
<event>
12    1  0.2045212E-008  0.1747223E+04  0.7818608E-02  0.8734880E-01
         -2   -1    0    0    0  501 -0.00000000000E+00  0.00000000000E+00  0.53053317652E+03  0.53053317652E+03  0.00000000000E+00 0. -1.
          2   -1    0    0  501    0  0.00000000000E+00 -0.00000000000E+00 -0.14385479679E+04  0.14385479679E+04  0.00000000000E+00 0.  1.
         23    2    1    2    0    0 -0.23095147785E+03  0.36440075960E+03 -0.86257737143E+03  0.96865943543E+03  0.90193577575E+02 0.  0.
        254    2    1    2    0    0  0.23095147785E+03 -0.36440075960E+03 -0.45437419979E+02  0.10004217090E+04  0.90147242776E+03 0.  0.
        -24    2    4    4    0    0  0.51730418891E+03 -0.10159720978E+03  0.15843679338E+03  0.55456242355E+03  0.67168796451E+02 0.  0.
         24    2    4    4    0    0 -0.28635271106E+03 -0.26280354983E+03 -0.20387421336E+03  0.44585928547E+03  0.78499851150E+02 0.  0.
         11    1    3    3    0    0 -0.21236033959E+03  0.33444659050E+03 -0.83386757327E+03  0.92319367713E+03  0.00000000000E+00 0.  1.
        -11    1    3    3    0    0 -0.18591138259E+02  0.29954169104E+02 -0.28709798153E+02  0.45465758307E+02  0.00000000000E+00 0. -1.
          4    1    6    6  502    0 -0.51894800535E+01 -0.32893084691E+02 -0.18398686605E+02  0.38044676270E+02  0.00000000000E+00 0. -1.
          1    1    5    5  503    0  0.22695250625E+03 -0.16505528389E+02  0.48636177812E+02  0.23269153477E+03  0.00000000000E+00 0. -1.
         -2    1    5    5    0  503  0.29035168266E+03 -0.85091681387E+02  0.10980061557E+03  0.32187088878E+03  0.00000000000E+00 0.  1.
         -3    1    6    6    0  502 -0.28116323101E+03 -0.22991046513E+03 -0.18547552676E+03  0.40781460920E+03  0.00000000000E+00 0.  1.
<mgrwt>
<rscale>  0 0.17472234E+04</rscale>
<asrwt>0</asrwt>
<pdfrwt beam="1">  1        2 0.22131507E+00 0.17472234E+04</pdfrwt>
<pdfrwt beam="2">  1       -2 0.81620489E-01 0.17472234E+04</pdfrwt>
<totfact> 0.17228438E+01</totfact>
</mgrwt>
</event>
<event>
11    1  0.2045212E-008  0.2920727E+04  0.7818608E-02  0.8266737E-01
         -1   -1    0    0    0  501 -0.00000000000E+00  0.00000000000E+00  0.25903714193E+04  0.25903714193E+04  0.00000000000E+00 0.  1.
          1   -1    0    0  501    0  0.00000000000E+00 -0.00000000000E+00 -0.82330325044E+03  0.82330325044E+03  0.00000000000E+00 0. -1.
         23    2    1    2    0    0 -0.48185657484E+03  0.96937915068E+02  0.22283313636E+04  0.22836847280E+04  0.90402171763E+02 0.  0.
        254    2    1    2    0    0  0.48185657484E+03 -0.96937915068E+02 -0.46126319470E+03  0.11299899418E+04  0.90693484646E+03 0.  0.
         24    2    4    4    0    0 -0.76501013045E+02 -0.33974915494E+03 -0.21051611018E+02  0.35697321339E+03  0.75530202382E+02 0.  0.
         11    1    3    3    0    0 -0.40354538498E+03  0.55046296948E+02  0.19252863945E+04  0.19678939691E+04  0.00000000000E+00 0.  1.
        -11    1    3    3    0    0 -0.78311189861E+02  0.41891618120E+02  0.30304496906E+03  0.31579075889E+03  0.00000000000E+00 0. -1.
          4    1    5    5  502    0 -0.24013817001E+02 -0.21705600484E+03  0.14527923947E+02  0.21886304672E+03  0.00000000000E+00 0. -1.
          1    1    4    4  503    0  0.38288526454E+03  0.10535646266E+03 -0.36035656710E+03  0.53624431510E+03  0.00000000000E+00 0. -1.
         -2    1    4    4    0  503  0.17547232335E+03  0.13745477721E+03 -0.79855016579E+02  0.23677241332E+03  0.00000000000E+00 0.  1.
         -3    1    5    5    0  502 -0.52487196044E+02 -0.12269315010E+03 -0.35579534965E+02  0.13811016667E+03  0.00000000000E+00 0.  1.
<mgrwt>
<rscale>  0 0.29207268E+04</rscale>
<asrwt>0</asrwt>
<pdfrwt beam="1">  1        1 0.12666204E+00 0.29207268E+04</pdfrwt>
<pdfrwt beam="2">  1       -1 0.39851868E+00 0.29207268E+04</pdfrwt>
<totfact> 0.13233802E-01</totfact>
</mgrwt>
</event>
<event>
11    1  0.2045212E-008  0.2003979E+04  0.7818608E-02  0.8604763E-01
          1   -1    0    0  501    0  0.00000000000E+00  0.00000000000E+00  0.85830004408E+03  0.85830004408E+03  0.00000000000E+00 0. -1.
         -1   -1    0    0    0  501 -0.00000000000E+00 -0.00000000000E+00 -0.11697345028E+04  0.11697345028E+04  0.00000000000E+00 0.  1.
         23    2    1    2    0    0 -0.24526538241E+03  0.76653918817E+03 -0.14110905917E+03  0.82205593835E+03  0.90148568382E+02 0.  0.
        254    2    1    2    0    0  0.24526538241E+03 -0.76653918817E+03 -0.17032539958E+03  0.12059786086E+04  0.88183684870E+03 0.  0.
         24    2    4    4    0    0  0.18665165265E+03 -0.13439555880E+03 -0.60933609447E+02  0.25138680376E+03  0.81125918718E+02 0.  0.
         13    1    3    3    0    0 -0.22275755548E+03  0.69463695450E+03 -0.15415904527E+03  0.74559133466E+03  0.00000000000E+00 0. -1.
        -13    1    3    3    0    0 -0.22507826931E+02  0.71902233675E+02  0.13049986099E+02  0.76464603692E+02  0.00000000000E+00 0.  1.
          4    1    5    5  502    0  0.15268663639E+03 -0.13293755810E+03 -0.73154389020E+02  0.21526069757E+03  0.00000000000E+00 0. -1.
          3    1    4    4  503    0 -0.23176257911E+03 -0.58759715487E+03 -0.17108280761E+03  0.65441090803E+03  0.00000000000E+00 0. -1.
         -4    1    4    4    0  503  0.29037630887E+03 -0.44546474507E+02  0.61691017477E+02  0.30018089676E+03  0.00000000000E+00 0.  1.
         -3    1    5    5    0  502  0.33965016259E+02 -0.14580006931E+01  0.12220779573E+02  0.36126106196E+02  0.00000000000E+00 0.  1.
<mgrwt>
<rscale>  0 0.20039792E+04</rscale>
<asrwt>0</asrwt>
<pdfrwt beam="1">  1        1 0.13204616E+00 0.20039792E+04</pdfrwt>
<pdfrwt beam="2">  1       -1 0.17995915E+00 0.20039792E+04</pdfrwt>
<totfact> 0.38057700E+00</totfact>
</mgrwt>
</event>
<event>
12    1  0.2045212E-008  0.1859242E+04  0.7818608E-02  0.8675415E-01
          1   -1    0    0  501    0  0.00000000000E+00  0.00000000000E+00  0.19301735558E+04  0.19301735558E+04  0.00000000000E+00 0. -1.
         -1   -1    0    0    0  501 -0.00000000000E+00 -0.00000000000E+00 -0.44772914430E+03  0.44772914430E+03  0.00000000000E+00 0.  1.
         23    2    1    2    0    0  0.22505855468E+03  0.35595049958E+03  0.13003895260E+04  0.13699236065E+04  0.91245037771E+02 0.  0.
        254    2    1    2    0    0 -0.22505855468E+03 -0.35595049958E+03  0.18205488550E+03  0.10079790937E+04  0.89751086945E+03 0.  0.
        -24    2    4    4    0    0 -0.18237141278E+03  0.21111014501E+03 -0.17056954987E+03  0.33423240673E+03  0.69213472979E+02 0.  0.
         24    2    4    4    0    0 -0.42687141891E+02 -0.56706064459E+03  0.35262443537E+03  0.67374668695E+03  0.78807607630E+02 0.  0.
         13    1    3    3    0    0  0.21452136834E+03  0.28115506696E+03  0.11148757332E+04  0.11696219431E+04  0.00000000000E+00 0. -1.
        -13    1    3    3    0    0  0.10537186336E+02  0.74795432619E+02  0.18551379282E+03  0.20030166341E+03  0.00000000000E+00 0.  1.
          4    1    6    6  502    0 -0.53635840735E+02 -0.43319319024E+03  0.23799164078E+03  0.49716512807E+03  0.00000000000E+00 0. -1.
          3    1    5    5  503    0 -0.98719353546E+02  0.11779248805E+03 -0.53499423330E+02  0.16273527369E+03  0.00000000000E+00 0. -1.
         -4    1    5    5    0  503 -0.83652059238E+02  0.93317656959E+02 -0.11707012654E+03  0.17149713305E+03  0.00000000000E+00 0.  1.
         -3    1    6    6    0  502  0.10948698844E+02 -0.13386745435E+03  0.11463279459E+03  0.17658155888E+03  0.00000000000E+00 0.  1.
<mgrwt>
<rscale>  0 0.18592417E+04</rscale>
<asrwt>0</asrwt>
<pdfrwt beam="1">  1        1 0.29694977E+00 0.18592417E+04</pdfrwt>
<pdfrwt beam="2">  1       -1 0.68881408E-01 0.18592417E+04</pdfrwt>
<totfact> 0.66545344E+00</totfact>
</mgrwt>
</event>
<event>
12    1  0.2045212E-008  0.2672339E+04  0.7818608E-02  0.8344036E-01
         -1   -1    0    0    0  501 -0.00000000000E+00  0.00000000000E+00  0.26539923550E+04  0.26539923550E+04  0.00000000000E+00 0.  1.
          1   -1    0    0  501    0  0.00000000000E+00 -0.00000000000E+00 -0.67270293430E+03  0.67270293430E+03  0.00000000000E+00 0. -1.
         23    2    1    2    0    0  0.65250821219E+03  0.94244738612E+03  0.50092318472E+03  0.12542460091E+04  0.90746745337E+02 0.  0.
        254    2    1    2    0    0 -0.65250821219E+03 -0.94244738612E+03  0.14803662360E+04  0.20724492802E+04  0.88858752174E+03 0.  0.
        -24    2    4    4    0    0 -0.33259521948E+03 -0.18509365763E+03  0.22026878624E+02  0.39623359975E+03  0.10787325930E+03 0.  0.
         24    2    4    4    0    0 -0.31991299271E+03 -0.75735372849E+03  0.14583393574E+04  0.16762156805E+04  0.83763555358E+02 0.  0.
         11    1    3    3    0    0  0.28804896979E+03  0.37066504960E+03  0.16542880587E+03  0.49772630813E+03  0.00000000000E+00 0.  1.
        -11    1    3    3    0    0  0.36445924240E+03  0.57178233652E+03  0.33549437885E+03  0.75651970098E+03  0.00000000000E+00 0. -1.
          4    1    6    6  502    0 -0.16225825100E+03 -0.44178796638E+03  0.76211067423E+03  0.89572151198E+03  0.00000000000E+00 0. -1.
          3    1    5    5  503    0 -0.10926813998E+03 -0.63355210341E+01  0.10292702076E+02  0.10993454852E+03  0.00000000000E+00 0. -1.
         -4    1    5    5    0  503 -0.22332707950E+03 -0.17875813659E+03  0.11734176548E+02  0.28629905123E+03  0.00000000000E+00 0.  1.
         -3    1    6    6    0  502 -0.15765474170E+03 -0.31556576211E+03  0.69622868313E+03  0.78049416847E+03  0.00000000000E+00 0.  1.
<mgrwt>
<rscale>  0 0.26723386E+04</rscale>
<asrwt>0</asrwt>
<pdfrwt beam="1">  1        1 0.10349276E+00 0.26723386E+04</pdfrwt>
<pdfrwt beam="2">  1       -1 0.40830651E+00 0.26723386E+04</pdfrwt>
<totfact> 0.15884508E-01</totfact>
</mgrwt>
</event>
<event>
11    1  0.2045212E-008  0.2924724E+04  0.7818608E-02  0.8265559E-01
          1   -1    0    0  501    0  0.00000000000E+00  0.00000000000E+00  0.21241457552E+04  0.21241457552E+04  0.00000000000E+00 0. -1.
         -1   -1    0    0    0  501 -0.00000000000E+00 -0.00000000000E+00 -0.10067587728E+04  0.10067587728E+04  0.00000000000E+00 0.  1.
         23    2    1    2    0    0 -0.42436118504E+03 -0.11207368791E+04 -0.92826076968E+02  0.12054868488E+04  0.91914604808E+02 0.  0.
        254    2    1    2    0    0  0.42436118504E+03  0.11207368791E+04  0.12102130594E+04  0.19254176792E+04  0.89804455503E+03 0.  0.
         24    2    4    4    0    0  0.45861342240E+03  0.11394595881E+04  0.12804765104E+04  0.17766303560E+04  0.90005021297E+02 0.  0.
         11    1    3    3    0    0 -0.37371075352E+03 -0.97464555190E+03 -0.11135144304E+03  0.10497584594E+04  0.00000000000E+00 0. -1.
        -11    1    3    3    0    0 -0.50650431522E+02 -0.14609132715E+03  0.18525366072E+02  0.15572838942E+03  0.00000000000E+00 0.  1.
          2    1    5    5  502    0  0.14476880363E+03  0.28008788750E+03  0.29182260486E+03  0.42961338891E+03  0.00000000000E+00 0. -1.
          1    1    4    4  503    0  0.23319707592E+02 -0.48216069577E+02 -0.37973509739E+00  0.53560641580E+02  0.00000000000E+00 0. -1.
         -2    1    4    4    0  503 -0.57571944950E+02  0.29493360522E+02 -0.69883715879E+02  0.95226681688E+02  0.00000000000E+00 0.  1.
         -1    1    5    5    0  502  0.31384461877E+03  0.85937170061E+03  0.98865390555E+03  0.13470169670E+04  0.00000000000E+00 0.  1.
<mgrwt>
<rscale>  0 0.29247238E+04</rscale>
<asrwt>0</asrwt>
<pdfrwt beam="1">  1        1 0.32679165E+00 0.29247238E+04</pdfrwt>
<pdfrwt beam="2">  1       -1 0.15488597E+00 0.29247238E+04</pdfrwt>
<totfact> 0.67202728E-01</totfact>
</mgrwt>
</event>
<event>
12    1  0.2045212E-008  0.1507675E+04  0.7818608E-02  0.8879365E-01
         -1   -1    0    0    0  501 -0.00000000000E+00  0.00000000000E+00  0.36930419029E+03  0.36930419029E+03  0.00000000000E+00 0.  1.
          1   -1    0    0  501    0  0.00000000000E+00 -0.00000000000E+00 -0.15387605908E+04  0.15387605908E+04  0.00000000000E+00 0. -1.
         23    2    1    2    0    0 -0.40416328215E+03 -0.23546762788E+03 -0.52329377698E+03  0.70768978001E+03  0.90528919606E+02 0.  0.
        254    2    1    2    0    0  0.40416328215E+03  0.23546762788E+03 -0.64616262358E+03  0.12003750011E+04  0.89698441726E+03 0.  0.
        -24    2    4    4    0    0 -0.23306483947E+03 -0.72747510677E+02 -0.44146716552E+02  0.26775214345E+03  0.10065216357E+03 0.  0.
         24    2    4    4    0    0  0.63722812163E+03  0.30821513856E+03 -0.60201590702E+03  0.93262285768E+03  0.79410274692E+02 0.  0.
         11    1    3    3    0    0 -0.23700061861E+03 -0.10932473884E+03 -0.23389387233E+03  0.35046759516E+03  0.00000000000E+00 0.  1.
        -11    1    3    3    0    0 -0.16716266355E+03 -0.12614288904E+03 -0.28939990465E+03  0.35722218485E+03  0.00000000000E+00 0. -1.
          4    1    6    6  502    0  0.30768914559E+03  0.17656432718E+03 -0.26054394453E+03  0.44014851923E+03  0.00000000000E+00 0. -1.
          1    1    5    5  503    0 -0.43227756767E+02 -0.47027600146E+02 -0.41478040296E+02  0.76162076898E+02  0.00000000000E+00 0. -1.
         -2    1    5    5    0  503 -0.18983708271E+03 -0.25719910531E+02 -0.26686762560E+01  0.19159006655E+03  0.00000000000E+00 0.  1.
         -3    1    6    6    0  502  0.32953897603E+03  0.13165081138E+03 -0.34147196249E+03  0.49247433845E+03  0.00000000000E+00 0.  1.
<mgrwt>
<rscale>  0 0.15076747E+04</rscale>
<asrwt>0</asrwt>
<pdfrwt beam="1">  1        1 0.23673240E+00 0.15076747E+04</pdfrwt>
<pdfrwt beam="2">  1       -1 0.56816029E-01 0.15076747E+04</pdfrwt>
<totfact> 0.18642839E+01</totfact>
</mgrwt>
</event>
<event>
11    1  0.2045212E-008  0.1326332E+04  0.7818608E-02  0.9008941E-01
         -2   -1    0    0    0  501 -0.00000000000E+00  0.00000000000E+00  0.28871193648E+03  0.28871193648E+03  0.00000000000E+00 0.  1.
          2   -1    0    0  501    0  0.00000000000E+00 -0.00000000000E+00 -0.15232792103E+04  0.15232792103E+04  0.00000000000E+00 0. -1.
         23    2    1    2    0    0 -0.15899525394E+03 -0.19075183221E+03 -0.84707129472E+01  0.26608683012E+03  0.95208696651E+02 0.  0.
        254    2    1    2    0    0  0.15899525394E+03  0.19075183221E+03 -0.12260965609E+04  0.15459043167E+04  0.90820792082E+03 0.  0.
         24    2    4    4    0    0  0.21878311529E+03 -0.32024780520E+03 -0.60532150932E+03  0.72321311806E+03  0.78729767076E+02 0.  0.
         11    1    3    3    0    0 -0.88216841308E+02 -0.14967991714E+03  0.28893451446E+02  0.17612813580E+03  0.00000000000E+00 0.  1.
        -11    1    3    3    0    0 -0.70778412633E+02 -0.41071915074E+02 -0.37364164393E+02  0.89958694319E+02  0.00000000000E+00 0. -1.
          2    1    5    5  502    0  0.19117809569E+03 -0.30069866223E+03 -0.51066153033E+03  0.62269089305E+03  0.00000000000E+00 0. -1.
          3    1    4    4  503    0  0.50948203948E+01  0.45039304096E+03 -0.50292915030E+03  0.67514263586E+03  0.00000000000E+00 0. -1.
         -4    1    4    4    0  503 -0.64882681748E+02  0.60606596454E+02 -0.11784590130E+03  0.14754856278E+03  0.00000000000E+00 0.  1.
         -1    1    5    5    0  502  0.27605019606E+02 -0.19549142972E+02 -0.94659978993E+02  0.10052222501E+03  0.00000000000E+00 0.  1.
<mgrwt>
<rscale>  0 0.13263316E+04</rscale>
<asrwt>0</asrwt>
<pdfrwt beam="1">  1        2 0.23435065E+00 0.13263316E+04</pdfrwt>
<pdfrwt beam="2">  1       -2 0.44417221E-01 0.13263316E+04</pdfrwt>
<totfact> 0.57901512E+01</totfact>
</mgrwt>
</event>
<event>
11    1  0.2045212E-008  0.1794478E+04  0.7818608E-02  0.8709241E-01
         -1   -1    0    0    0  501 -0.00000000000E+00  0.00000000000E+00  0.56942391431E+03  0.56942391431E+03  0.00000000000E+00 0.  1.
          1   -1    0    0  501    0  0.00000000000E+00 -0.00000000000E+00 -0.14137762570E+04  0.14137762570E+04  0.00000000000E+00 0. -1.
         23    2    1    2    0    0 -0.60869325404E+03 -0.23522255206E+03 -0.15544522925E+03  0.67654531025E+03  0.87824888317E+02 0.  0.
        254    2    1    2    0    0  0.60869325404E+03  0.23522255206E+03 -0.68890711349E+03  0.13066548611E+04  0.89828547161E+03 0.  0.
         24    2    4    4    0    0 -0.86788872854E+02 -0.21158142701E+02  0.10667172855E+03  0.16182776563E+03  0.82640139188E+02 0.  0.
         13    1    3    3    0    0 -0.34199668225E+03 -0.14853322188E+03 -0.13037239400E+03  0.39499469590E+03  0.00000000000E+00 0.  1.
        -13    1    3    3    0    0 -0.26669657179E+03 -0.86689330184E+02 -0.25072835251E+02  0.28155061435E+03  0.00000000000E+00 0. -1.
          2    1    5    5  502    0  0.63612426484E+01  0.15819701178E+02  0.33986114134E+02  0.38023470480E+02  0.00000000000E+00 0. -1.
          1    1    4    4  503    0  0.53578942057E+02  0.23812547616E+02  0.36064014664E+02  0.68835700110E+02  0.00000000000E+00 0. -1.
         -2    1    4    4    0  503  0.64190318484E+03  0.23256814714E+03 -0.83164285671E+03  0.10759913954E+04  0.00000000000E+00 0.  1.
         -1    1    5    5    0  502 -0.93150115503E+02 -0.36977843879E+02  0.72685614413E+02  0.12380429515E+03  0.00000000000E+00 0.  1.
<mgrwt>
<rscale>  0 0.17944782E+04</rscale>
<asrwt>0</asrwt>
<pdfrwt beam="1">  1        1 0.21750404E+00 0.17944782E+04</pdfrwt>
<pdfrwt beam="2">  1       -1 0.87603679E-01 0.17944782E+04</pdfrwt>
<totfact> 0.90924518E+00</totfact>
</mgrwt>
</event>
<event>
12    1  0.2045212E-008  0.1449981E+04  0.7818608E-02  0.8918414E-01
          1   -1    0    0  501    0  0.00000000000E+00  0.00000000000E+00  0.13210507772E+04  0.13210507772E+04  0.00000000000E+00 0. -1.
         -1   -1    0    0    0  501 -0.00000000000E+00 -0.00000000000E+00 -0.39787332356E+03  0.39787332356E+03  0.00000000000E+00 0.  1.
         23    2    1    2    0    0 -0.39702801768E+03 -0.12982542138E+03  0.48001841557E+03  0.64304115509E+03  0.92727347618E+02 0.  0.
        254    2    1    2    0    0  0.39702801768E+03  0.12982542138E+03  0.44315903809E+03  0.10758829457E+04  0.88693195507E+03 0.  0.
        -24    2    4    4    0    0  0.33325966023E+03  0.39515341198E+03 -0.27542000365E+02  0.52564570548E+03  0.91305124562E+02 0.  0.
         24    2    4    4    0    0  0.63768357446E+02 -0.26532799060E+03  0.47070103846E+03  0.55023724021E+03  0.82074398568E+02 0.  0.
         11    1    3    3    0    0 -0.34904363138E+03 -0.78811818104E+02  0.39925654846E+03  0.53614228593E+03  0.00000000000E+00 0. -1.
        -11    1    3    3    0    0 -0.47984386299E+02 -0.51013603277E+02  0.80761867106E+02  0.10689886915E+03  0.00000000000E+00 0.  1.
          4    1    6    6  502    0 -0.73076823693E+00  0.57578750503E+01  0.56926066315E+01  0.81297550746E+01  0.00000000000E+00 0. -1.
          3    1    5    5  503    0  0.24529779825E+03  0.32603472995E+03 -0.51487014507E+02  0.41124271133E+03  0.00000000000E+00 0. -1.
         -4    1    5    5    0  503  0.87961861981E+02  0.69118682032E+02  0.23945014141E+02  0.11440299415E+03  0.00000000000E+00 0.  1.
         -3    1    6    6    0  502  0.64499125683E+02 -0.27108586565E+03  0.46500843182E+03  0.54210748513E+03  0.00000000000E+00 0.  1.
<mgrwt>
<rscale>  0 0.14499805E+04</rscale>
<asrwt>0</asrwt>
<pdfrwt beam="1">  1        1 0.20323858E+00 0.14499805E+04</pdfrwt>
<pdfrwt beam="2">  1       -1 0.61211281E-01 0.14499805E+04</pdfrwt>
<totfact> 0.22970579E+01</totfact>
</mgrwt>
</event>
<event>
11    1  0.2045212E-008  0.2397173E+04  0.7818608E-02  0.8440563E-01
         -1   -1    0    0    0  501 -0.00000000000E+00  0.00000000000E+00  0.74058775167E+03  0.74058775167E+03  0.00000000000E+00 0.  1.
          1   -1    0    0  501    0  0.00000000000E+00 -0.00000000000E+00 -0.19398241999E+04  0.19398241999E+04  0.00000000000E+00 0. -1.
         23    2    1    2    0    0  0.78462115692E+02 -0.18348701554E+02 -0.16388452872E+04  0.16433343647E+04  0.90779844965E+02 0.  0.
        254    2    1    2    0    0 -0.78462115692E+02  0.18348701554E+02  0.43960883900E+03  0.10370775869E+04  0.93583172175E+03 0.  0.
         24    2    4    4    0    0 -0.42656246026E+03  0.15914217562E+03  0.43433870496E+03  0.63424302958E+03  0.79576035185E+02 0.  0.
         11    1    3    3    0    0 -0.13375196881E+02  0.75596642287E+01 -0.57855067090E+03  0.57875463126E+03  0.00000000000E+00 0.  1.
        -11    1    3    3    0    0  0.91837312573E+02 -0.25908365783E+02 -0.10602946163E+04  0.10645797334E+04  0.00000000000E+00 0. -1.
          2    1    5    5  502    0 -0.30871479826E+03  0.90144375490E+02  0.26513312483E+03  0.41680500115E+03  0.00000000000E+00 0. -1.
          1    1    4    4  503    0  0.85525354650E+02  0.14784948598E+02  0.40172641092E+02  0.95640065273E+02  0.00000000000E+00 0. -1.
         -2    1    4    4    0  503  0.26257498992E+03 -0.15557842267E+03 -0.34902507050E+02  0.30719449203E+03  0.00000000000E+00 0.  1.
         -1    1    5    5    0  502 -0.11784766201E+03  0.68997800133E+02  0.16920558013E+03  0.21743802843E+03  0.00000000000E+00 0.  1.
<mgrwt>
<rscale>  0 0.23971734E+04</rscale>
<asrwt>0</asrwt>
<pdfrwt beam="1">  1        1 0.29843449E+00 0.23971734E+04</pdfrwt>
<pdfrwt beam="2">  1       -1 0.11393658E+00 0.23971734E+04</pdfrwt>
<totfact> 0.20593054E+00</totfact>
</mgrwt>
</event>
<event>
12    1  0.2045212E-008  0.1386768E+04  0.7818608E-02  0.8963452E-01
         -1   -1    0    0    0  501 -0.00000000000E+00  0.00000000000E+00  0.30525699586E+03  0.30525699586E+03  0.00000000000E+00 0.  1.
          1   -1    0    0  501    0  0.00000000000E+00 -0.00000000000E+00 -0.15750058947E+04  0.15750058947E+04  0.00000000000E+00 0. -1.
         23    2    1    2    0    0  0.34345793905E+03 -0.19974937608E+03 -0.24109257852E+03  0.47509758969E+03  0.98635283602E+02 0.  0.
        254    2    1    2    0    0 -0.34345793905E+03  0.19974937608E+03 -0.10286563204E+04  0.14051653009E+04  0.87091476526E+03 0.  0.
        -24    2    4    4    0    0 -0.26177305400E+03 -0.59999188646E+02  0.48837824980E+02  0.29081665390E+03  0.10032028009E+03 0.  0.
         24    2    4    4    0    0 -0.81684885045E+02  0.25974856472E+03 -0.10774941453E+04  0.11143486470E+04  0.81471078004E+02 0.  0.
         11    1    3    3    0    0  0.22877807216E+03 -0.83947438026E+02 -0.17090568526E+03  0.29764967983E+03  0.00000000000E+00 0. -1.
        -11    1    3    3    0    0  0.11467986689E+03 -0.11580193805E+03 -0.70186893268E+02  0.17744790986E+03  0.00000000000E+00 0.  1.
          2    1    6    6  502    0 -0.91488509679E+02  0.16313377462E+03 -0.72082809406E+03  0.74469854103E+03  0.00000000000E+00 0. -1.
          3    1    5    5  503    0 -0.94049958454E+02 -0.41370213616E+02  0.64536369844E+02  0.12133355798E+03  0.00000000000E+00 0. -1.
         -4    1    5    5    0  503 -0.16772309555E+03 -0.18628975031E+02 -0.15698544864E+02  0.16948309592E+03  0.00000000000E+00 0.  1.
         -1    1    6    6    0  502  0.98036246344E+01  0.96614790103E+02 -0.35666605128E+03  0.36965010599E+03  0.00000000000E+00 0.  1.
<mgrwt>
<rscale>  0 0.13867683E+04</rscale>
<asrwt>0</asrwt>
<pdfrwt beam="1">  1        1 0.24230860E+00 0.13867683E+04</pdfrwt>
<pdfrwt beam="2">  1       -1 0.46962615E-01 0.13867683E+04</pdfrwt>
<totfact> 0.25613377E+01</totfact>
</mgrwt>
</event>
<event>
12    1  0.2045212E-008  0.2247213E+04  0.7818608E-02  0.8499030E-01
         -2   -1    0    0    0  501 -0.00000000000E+00  0.00000000000E+00  0.90926713341E+03  0.90926713341E+03  0.00000000000E+00 0. -1.
          2   -1    0    0  501    0  0.00000000000E+00 -0.00000000000E+00 -0.13884720969E+04  0.13884720969E+04  0.00000000000E+00 0.  1.
         23    2    1    2    0    0  0.55516695324E+03 -0.45912952422E+03  0.44729428605E+03  0.85299456653E+03  0.92289144624E+02 0.  0.
        254    2    1    2    0    0 -0.55516695324E+03  0.45912952422E+03 -0.92649924954E+03  0.14447446638E+04  0.84254140440E+03 0.  0.
        -24    2    4    4    0    0  0.15441168664E+02 -0.42540403342E+02 -0.60900918811E+03  0.61739481774E+03  0.90752708810E+02 0.  0.
         24    2    4    4    0    0 -0.57060812190E+03  0.50166992756E+03 -0.31749006143E+03  0.82734984604E+03  0.80258853940E+02 0.  0.
         13    1    3    3    0    0  0.50691376714E+03 -0.38574672476E+03  0.37452960940E+03  0.73894149383E+03  0.00000000000E+00 0. -1.
        -13    1    3    3    0    0  0.48253186098E+02 -0.73382799454E+02  0.72764676649E+02  0.11405307270E+03  0.00000000000E+00 0.  1.
          4    1    6    6  502    0 -0.24648530046E+03  0.22307055223E+03 -0.96313423534E+02  0.34610944825E+03  0.00000000000E+00 0. -1.
          3    1    5    5  503    0  0.55260845058E+00 -0.43687778376E+02 -0.59597309779E+03  0.59757247313E+03  0.00000000000E+00 0. -1.
         -4    1    5    5    0  503  0.14888560214E+02  0.11473750344E+01 -0.13036090321E+02  0.19822344603E+02  0.00000000000E+00 0.  1.
         -1    1    6    6    0  502 -0.32412282144E+03  0.27859937533E+03 -0.22117663789E+03  0.48124039779E+03  0.00000000000E+00 0.  1.
<mgrwt>
<rscale>  0 0.22472134E+04</rscale>
<asrwt>0</asrwt>
<pdfrwt beam="1">  1        2 0.21361109E+00 0.22472134E+04</pdfrwt>
<pdfrwt beam="2">  1       -2 0.13988725E+00 0.22472134E+04</pdfrwt>
<totfact> 0.48157552E+00</totfact>
</mgrwt>
</event>
<event>
11    1  0.2045212E-008  0.2589440E+04  0.7818608E-02  0.8371797E-01
         -2   -1    0    0    0  501 -0.00000000000E+00  0.00000000000E+00  0.21460675346E+04  0.21460675346E+04  0.00000000000E+00 0.  1.
          2   -1    0    0  501    0  0.00000000000E+00 -0.00000000000E+00 -0.78110303233E+03  0.78110303233E+03  0.00000000000E+00 0. -1.
         23    2    1    2    0    0  0.97793864665E+03 -0.47509507441E+03  0.97133075290E+03  0.14607888946E+04  0.91331466774E+02 0.  0.
        254    2    1    2    0    0 -0.97793864665E+03  0.47509507441E+03  0.39363374937E+03  0.14663816723E+04  0.90180283536E+03 0.  0.
         24    2    4    4    0    0 -0.10026846138E+04  0.98379727386E+02  0.21154434992E+03  0.10325976648E+04  0.80323843898E+02 0.  0.
         13    1    3    3    0    0  0.95314911697E+03 -0.45240460623E+03  0.92236067134E+03  0.14013965802E+04  0.00000000000E+00 0.  1.
        -13    1    3    3    0    0  0.24789529684E+02 -0.22690468181E+02  0.48970081562E+02  0.59392314456E+02  0.00000000000E+00 0. -1.
          2    1    5    5  502    0 -0.98382253929E+03  0.84912786221E+02  0.20531055465E+03  0.10085977364E+04  0.00000000000E+00 0. -1.
          1    1    4    4  503    0  0.42265233963E+02  0.60235450971E+02  0.56797278985E+02  0.92954776401E+02  0.00000000000E+00 0. -1.
         -2    1    4    4    0  503 -0.17519266831E+02  0.31647989605E+03  0.12529212047E+03  0.34082923109E+03  0.00000000000E+00 0.  1.
         -1    1    5    5    0  502 -0.18862074490E+02  0.13466941165E+02  0.62337952696E+01  0.23999928372E+02  0.00000000000E+00 0.  1.
<mgrwt>
<rscale>  0 0.25894400E+04</rscale>
<asrwt>0</asrwt>
<pdfrwt beam="1">  1        2 0.12016970E+00 0.25894400E+04</pdfrwt>
<pdfrwt beam="2">  1       -2 0.33016423E+00 0.25894400E+04</pdfrwt>
<totfact> 0.65208881E-01</totfact>
</mgrwt>
</event>
<event>
12    1  0.2045212E-008  0.2883409E+04  0.7818608E-02  0.8277831E-01
         -2   -1    0    0    0  501 -0.00000000000E+00  0.00000000000E+00  0.11216092080E+04  0.11216092080E+04  0.00000000000E+00 0.  1.
          2   -1    0    0  501    0  0.00000000000E+00 -0.00000000000E+00 -0.18531512200E+04  0.18531512200E+04  0.00000000000E+00 0. -1.
         23    2    1    2    0    0  0.12971777290E+04 -0.11733653570E+02 -0.46497870375E+03  0.13811746309E+04  0.92900090820E+02 0.  0.
        254    2    1    2    0    0 -0.12971777290E+04  0.11733653570E+02 -0.26656330829E+03  0.15935857971E+04  0.88637010105E+03 0.  0.
        -24    2    4    4    0    0  0.10943763660E+03  0.76013676065E+02 -0.86452882937E+02  0.17201164439E+03  0.66024462028E+02 0.  0.
         24    2    4    4    0    0 -0.14066153656E+04 -0.64280022495E+02 -0.18011042536E+03  0.14215741527E+04  0.75727129722E+02 0.  0.
         11    1    3    3    0    0  0.11512064722E+04  0.11058614129E+02 -0.39020194377E+03  0.12155888250E+04  0.00000000000E+00 0. -1.
        -11    1    3    3    0    0  0.14597125680E+03 -0.22792267698E+02 -0.74776759985E+02  0.16558580589E+03  0.00000000000E+00 0.  1.
          2    1    6    6  502    0 -0.45862568919E+02  0.64284398613E+01  0.45318108134E+01  0.46532111237E+02  0.00000000000E+00 0. -1.
          3    1    5    5  503    0 -0.79182875815E+01  0.13698274089E+02 -0.98429706089E+01  0.18634002835E+02  0.00000000000E+00 0. -1.
         -4    1    5    5    0  503  0.11735592418E+03  0.62315401976E+02 -0.76609912328E+02  0.15337764156E+03  0.00000000000E+00 0.  1.
         -1    1    6    6    0  502 -0.13607527967E+04 -0.70708462356E+02 -0.18464223617E+03  0.13750420414E+04  0.00000000000E+00 0.  1.
<mgrwt>
<rscale>  0 0.28834087E+04</rscale>
<asrwt>0</asrwt>
<pdfrwt beam="1">  1        2 0.28510018E+00 0.28834087E+04</pdfrwt>
<pdfrwt beam="2">  1       -2 0.17255526E+00 0.28834087E+04</pdfrwt>
<totfact> 0.14245310E+00</totfact>
</mgrwt>
</event>
<event>
12    1  0.2045212E-008  0.1763242E+04  0.7818608E-02  0.8726095E-01
         -1   -1    0    0    0  501 -0.00000000000E+00  0.00000000000E+00  0.39002077125E+03  0.39002077125E+03  0.00000000000E+00 0.  1.
          1   -1    0    0  501    0  0.00000000000E+00 -0.00000000000E+00 -0.19928567903E+04  0.19928567903E+04  0.00000000000E+00 0. -1.
         23    2    1    2    0    0 -0.16886484210E+03  0.30947460721E+03 -0.13333635683E+04  0.13821175160E+04  0.90003085406E+02 0.  0.
        254    2    1    2    0    0  0.16886484210E+03 -0.30947460721E+03 -0.26947245072E+03  0.10007600455E+04  0.89700356721E+03 0.  0.
        -24    2    4    4    0    0 -0.51964073570E+02  0.18510119067E+03 -0.39112233953E+03  0.43981525634E+03  0.59144395325E+02 0.  0.
         24    2    4    4    0    0  0.22082891567E+03 -0.49457579788E+03  0.12164988882E+03  0.56094478916E+03  0.80558867903E+02 0.  0.
         13    1    3    3    0    0 -0.64433837815E+01  0.21922871556E+02 -0.30865239503E+02  0.38403027243E+02  0.00000000000E+00 0.  1.
        -13    1    3    3    0    0 -0.16242145832E+03  0.28755173565E+03 -0.13024983288E+04  0.13437144888E+04  0.00000000000E+00 0. -1.
          2    1    6    6  502    0  0.47534145208E+02 -0.10034266207E+03  0.59113610892E+02  0.12578777280E+03  0.00000000000E+00 0. -1.
          3    1    5    5  503    0 -0.48176387082E+02  0.16389223954E+03 -0.29129742978E+03  0.33769190551E+03  0.00000000000E+00 0. -1.
         -4    1    5    5    0  503 -0.37876864878E+01  0.21208951136E+02 -0.99824909753E+02  0.10212335083E+03  0.00000000000E+00 0.  1.
         -1    1    6    6    0  502  0.17329477046E+03 -0.39423313581E+03  0.62536277924E+02  0.43515701637E+03  0.00000000000E+00 0.  1.
<mgrwt>
<rscale>  0 0.17632419E+04</rscale>
<asrwt>0</asrwt>
<pdfrwt beam="1">  1        1 0.30659336E+00 0.17632419E+04</pdfrwt>
<pdfrwt beam="2">  1       -1 0.60003194E-01 0.17632419E+04</pdfrwt>
<totfact> 0.80343352E+00</totfact>
</mgrwt>
</event>
<event>
11    1  0.2045212E-008  0.2239041E+04  0.7818608E-02  0.8502352E-01
          1   -1    0    0  501    0  0.00000000000E+00  0.00000000000E+00  0.12244456992E+04  0.12244456992E+04  0.00000000000E+00 0. -1.
         -1   -1    0    0    0  501 -0.00000000000E+00 -0.00000000000E+00 -0.10235867941E+04  0.10235867941E+04  0.00000000000E+00 0.  1.
         23    2    1    2    0    0  0.20251317656E+03  0.91459837910E+03  0.10397102082E+03  0.94755176460E+03  0.97686189939E+02 0.  0.
        254    2    1    2    0    0 -0.20251317656E+03 -0.91459837910E+03  0.96887884263E+02  0.13004807287E+04  0.89686179644E+03 0.  0.
         24    2    4    4    0    0  0.23490480051E+03 -0.58469997142E+03  0.12159420053E+03  0.64575216683E+03  0.71808004367E+02 0.  0.
         13    1    3    3    0    0  0.94537181247E+01  0.99202469207E+02  0.39296768783E+02  0.10712020687E+03  0.00000000000E+00 0. -1.
        -13    1    3    3    0    0  0.19305945844E+03  0.81539590989E+03  0.64674252039E+02  0.84043155773E+03  0.00000000000E+00 0.  1.
          4    1    5    5  502    0  0.38405368202E+02 -0.64716376561E+02  0.35660940250E+02  0.83275953080E+02  0.00000000000E+00 0. -1.
          3    1    4    4  503    0 -0.10789910023E+03 -0.19895808519E+03  0.13747956410E+03  0.26481534329E+03  0.00000000000E+00 0. -1.
         -4    1    4    4    0  503 -0.32951887684E+03 -0.13094032249E+03 -0.16218588036E+03  0.38991321859E+03  0.00000000000E+00 0.  1.
         -3    1    5    5    0  502  0.19649943231E+03 -0.51998359486E+03  0.85933260276E+02  0.56247621375E+03  0.00000000000E+00 0.  1.
<mgrwt>
<rscale>  0 0.22390413E+04</rscale>
<asrwt>0</asrwt>
<pdfrwt beam="1">  1        1 0.18837626E+00 0.22390413E+04</pdfrwt>
<pdfrwt beam="2">  1       -1 0.15747489E+00 0.22390413E+04</pdfrwt>
<totfact> 0.28467535E+00</totfact>
</mgrwt>
</event>
<event>
12    1  0.2045212E-008  0.1395465E+04  0.7818608E-02  0.8957108E-01
          2   -1    0    0  501    0  0.00000000000E+00  0.00000000000E+00  0.18633433133E+04  0.18633433133E+04  0.00000000000E+00 0. -1.
         -2   -1    0    0    0  501 -0.00000000000E+00 -0.00000000000E+00 -0.26126737952E+03  0.26126737952E+03  0.00000000000E+00 0.  1.
         23    2    1    2    0    0  0.27250311970E+03  0.21433911065E+03  0.77396854057E+03  0.85475421562E+03  0.10666893982E+03 0.  0.
        254    2    1    2    0    0 -0.27250311970E+03 -0.21433911065E+03  0.82810739323E+03  0.12698564772E+04  0.89809487996E+03 0.  0.
        -24    2    4    4    0    0  0.27125238213E+03 -0.28620976176E+03  0.38461629621E+03  0.55979807798E+03  0.99751241934E+02 0.  0.
         24    2    4    4    0    0 -0.54375550183E+03  0.71870651111E+02  0.44349109701E+03  0.71005839923E+03  0.81628064574E+02 0.  0.
         13    1    3    3    0    0 -0.10804759228E+01  0.31289636677E+02  0.98333150790E+02  0.10319698317E+03  0.00000000000E+00 0. -1.
        -13    1    3    3    0    0  0.27358359563E+03  0.18304947397E+03  0.67563538978E+03  0.75155723245E+03  0.00000000000E+00 0.  1.
          2    1    6    6  502    0 -0.27876198356E+03 -0.17801253648E+01  0.24131675149E+03  0.36870745433E+03  0.00000000000E+00 0. -1.
          3    1    5    5  503    0  0.14681553214E+03 -0.84180383621E+02  0.16952361189E+03  0.23953996003E+03  0.00000000000E+00 0. -1.
         -4    1    5    5    0  503  0.12443684999E+03 -0.20202937814E+03  0.21509268432E+03  0.32025811795E+03  0.00000000000E+00 0.  1.
         -1    1    6    6    0  502 -0.26499351827E+03  0.73650776476E+02  0.20217434552E+03  0.34135094491E+03  0.00000000000E+00 0.  1.
<mgrwt>
<rscale>  0 0.13954653E+04</rscale>
<asrwt>0</asrwt>
<pdfrwt beam="1">  1        2 0.28666819E+00 0.13954653E+04</pdfrwt>
<pdfrwt beam="2">  1       -2 0.40194983E-01 0.13954653E+04</pdfrwt>
<totfact> 0.45396138E+01</totfact>
</mgrwt>
</event>
<event>
12    1  0.2045212E-008  0.1322464E+04  0.7818608E-02  0.9011938E-01
          1   -1    0    0  501    0  0.00000000000E+00  0.00000000000E+00  0.55359332534E+03  0.55359332534E+03  0.00000000000E+00 0. -1.
         -1   -1    0    0    0  501 -0.00000000000E+00 -0.00000000000E+00 -0.78979925746E+03  0.78979925746E+03  0.00000000000E+00 0.  1.
         23    2    1    2    0    0  0.26501713077E+02 -0.15768144571E+03  0.23256571432E+03  0.29691869165E+03  0.92239464738E+02 0.  0.
        254    2    1    2    0    0 -0.26501713077E+02  0.15768144571E+03 -0.46877164644E+03  0.10464738912E+04  0.92184324549E+03 0.  0.
        -24    2    4    4    0    0 -0.41526491398E+03  0.29272565138E+03 -0.20778565977E+03  0.55269030379E+03  0.64485934445E+02 0.  0.
         24    2    4    4    0    0  0.38876320090E+03 -0.13504420567E+03 -0.26098598667E+03  0.49378358736E+03  0.79591344054E+02 0.  0.
         13    1    3    3    0    0  0.33313135925E+02 -0.88819739455E+02  0.19803715384E+03  0.21958466577E+03  0.00000000000E+00 0. -1.
        -13    1    3    3    0    0 -0.68114228485E+01 -0.68861706251E+02  0.34528560486E+02  0.77334025877E+02  0.00000000000E+00 0.  1.
          2    1    6    6  502    0  0.34248342230E+03 -0.11601137588E+03 -0.19455926679E+03  0.41061763501E+03  0.00000000000E+00 0. -1.
          1    1    5    5  503    0 -0.35959009959E+03  0.23886504047E+03 -0.19684714033E+03  0.47445794749E+03  0.00000000000E+00 0. -1.
         -2    1    5    5    0  503 -0.55674814390E+02  0.53860610914E+02 -0.10938519447E+02  0.78232356305E+02  0.00000000000E+00 0.  1.
         -1    1    6    6    0  502  0.46279778600E+02 -0.19032829793E+02 -0.66426719875E+02  0.83165952351E+02  0.00000000000E+00 0.  1.
<mgrwt>
<rscale>  0 0.13224638E+04</rscale>
<asrwt>0</asrwt>
<pdfrwt beam="1">  1        1 0.85168204E-01 0.13224638E+04</pdfrwt>
<pdfrwt beam="2">  1       -1 0.12150758E+00 0.13224638E+04</pdfrwt>
<totfact> 0.22641546E+01</totfact>
</mgrwt>
</event>
<event>
12    1  0.2045212E-008  0.2938084E+04  0.7818608E-02  0.8261636E-01
         -1   -1    0    0    0  501 -0.00000000000E+00  0.00000000000E+00  0.17103994814E+04  0.17103994814E+04  0.00000000000E+00 0.  1.
          1   -1    0    0  501    0  0.00000000000E+00 -0.00000000000E+00 -0.12617426333E+04  0.12617426333E+04  0.00000000000E+00 0. -1.
         23    2    1    2    0    0 -0.18613865506E+03 -0.12934450250E+04  0.45059653719E+03  0.13851918061E+04  0.89841353418E+02 0.  0.
        254    2    1    2    0    0  0.18613865506E+03  0.12934450250E+04 -0.19396890358E+01  0.15869503086E+04  0.90042206097E+03 0.  0.
        -24    2    4    4    0    0  0.20944149638E+03  0.75633609264E+03  0.42301094816E+03  0.89713057020E+03  0.99974858311E+02 0.  0.
         24    2    4    4    0    0 -0.23302841327E+02  0.53710893237E+03 -0.42495063720E+03  0.68981973838E+03  0.78988605212E+02 0.  0.
         11    1    3    3    0    0  0.60404815970E+01 -0.60532052054E+02  0.33970232588E+02  0.69674912600E+02  0.00000000000E+00 0.  1.
        -11    1    3    3    0    0 -0.19217913665E+03 -0.12329129730E+04  0.41662630460E+03  0.13155168935E+04  0.00000000000E+00 0. -1.
          4    1    6    6  502    0  0.16619160267E+02  0.28928752217E+03 -0.26120082430E+03  0.39011451855E+03  0.00000000000E+00 0. -1.
          1    1    5    5  503    0  0.59517564109E+02  0.11477955973E+03  0.41443579687E+02  0.13577281784E+03  0.00000000000E+00 0. -1.
         -2    1    5    5    0  503  0.14992393227E+03  0.64155653291E+03  0.38156736848E+03  0.76135775236E+03  0.00000000000E+00 0.  1.
         -1    1    6    6    0  502 -0.39922001595E+02  0.24782141020E+03 -0.16374981290E+03  0.29970521982E+03  0.00000000000E+00 0.  1.
<mgrwt>
<rscale>  0 0.29380837E+04</rscale>
<asrwt>0</asrwt>
<pdfrwt beam="1">  1        1 0.19411425E+00 0.29380837E+04</pdfrwt>
<pdfrwt beam="2">  1       -1 0.26313838E+00 0.29380837E+04</pdfrwt>
<totfact> 0.47199274E-01</totfact>
</mgrwt>
</event>
<event>
12    1  0.2045212E-008  0.1460742E+04  0.7818608E-02  0.8910987E-01
          2   -1    0    0  501    0  0.00000000000E+00  0.00000000000E+00  0.20448702315E+04  0.20448702315E+04  0.00000000000E+00 0. -1.
         -2   -1    0    0    0  501 -0.00000000000E+00 -0.00000000000E+00 -0.26086840422E+03  0.26086840422E+03  0.00000000000E+00 0.  1.
         23    2    1    2    0    0  0.20697898430E+03  0.13657769883E+03 -0.38085181205E+02  0.26674738352E+03  0.90608596859E+02 0.  0.
        254    2    1    2    0    0 -0.20697898430E+03 -0.13657769883E+03  0.18220870085E+04  0.20389912522E+04  0.88090322527E+03 0.  0.
        -24    2    4    4    0    0 -0.22967441483E+02 -0.39497635563E+03  0.37470127698E+03  0.55506487633E+03  0.10565105344E+03 0.  0.
         24    2    4    4    0    0 -0.18401154282E+03  0.25839865680E+03  0.14473857315E+04  0.14839263759E+04  0.80510368802E+02 0.  0.
         11    1    3    3    0    0  0.96711886017E+02  0.24968689041E+02 -0.45328565838E+02  0.10968729740E+03  0.00000000000E+00 0. -1.
        -11    1    3    3    0    0  0.11026709828E+03  0.11160900979E+03  0.72433846328E+01  0.15706008612E+03  0.00000000000E+00 0.  1.
          4    1    6    6  502    0 -0.14969322221E+02  0.29778966461E+02  0.29960502685E+03  0.30145321290E+03  0.00000000000E+00 0. -1.
          1    1    5    5  503    0 -0.32081273204E+02 -0.50676588627E+02  0.90280103051E+02  0.10838736888E+03  0.00000000000E+00 0. -1.
         -2    1    5    5    0  503  0.91138317205E+01 -0.34429976701E+03  0.28442117393E+03  0.44667750746E+03  0.00000000000E+00 0.  1.
         -3    1    6    6    0  502 -0.16904222060E+03  0.22861969034E+03  0.11477807047E+04  0.11824731630E+04  0.00000000000E+00 0.  1.
<mgrwt>
<rscale>  0 0.14607423E+04</rscale>
<asrwt>0</asrwt>
<pdfrwt beam="1">  1        2 0.31459541E+00 0.14607423E+04</pdfrwt>
<pdfrwt beam="2">  1       -2 0.40133602E-01 0.14607423E+04</pdfrwt>
<totfact> 0.35934662E+01</totfact>
</mgrwt>
</event>
<event>
12    1  0.2045212E-008  0.1208329E+04  0.7818608E-02  0.9105598E-01
         -2   -1    0    0    0  501 -0.00000000000E+00  0.00000000000E+00  0.15207777608E+03  0.15207777608E+03  0.00000000000E+00 0. -1.
          2   -1    0    0  501    0  0.00000000000E+00 -0.00000000000E+00 -0.24001826735E+04  0.24001826735E+04  0.00000000000E+00 0.  1.
         23    2    1    2    0    0 -0.81220098027E+01  0.19726360170E+03 -0.15892407461E+03  0.27067027384E+03  0.95008631462E+02 0.  0.
        254    2    1    2    0    0  0.81220098027E+01 -0.19726360170E+03 -0.20891808228E+04  0.22815901757E+04  0.89554359138E+03 0.  0.
        -24    2    4    4    0    0  0.45197653557E+02 -0.34850894617E+03 -0.26650812059E+03  0.45079458904E+03  0.93208742696E+02 0.  0.
         24    2    4    4    0    0 -0.37075643754E+02  0.15124534447E+03 -0.18226727022E+04  0.18307955867E+04  0.73667790255E+02 0.  0.
         11    1    3    3    0    0  0.17462856964E+02  0.69479780645E+02 -0.92871266787E+01  0.72240168977E+02  0.00000000000E+00 0. -1.
        -11    1    3    3    0    0 -0.25584866767E+02  0.12778382105E+03 -0.14963694793E+03  0.19843010486E+03  0.00000000000E+00 0.  1.
          2    1    6    6  502    0 -0.56358761461E+00  0.34680006743E+02 -0.16381089713E+03  0.16744261858E+03  0.00000000000E+00 0. -1.
          1    1    5    5  503    0  0.32888139704E+02 -0.11200403164E+03 -0.14005576163E+03  0.18232429680E+03  0.00000000000E+00 0. -1.
         -2    1    5    5    0  503  0.12309513853E+02 -0.23650491453E+03 -0.12645235896E+03  0.26847029224E+03  0.00000000000E+00 0.  1.
         -1    1    6    6    0  502 -0.36512056140E+02  0.11656533773E+03 -0.16588618051E+04  0.16633529681E+04  0.00000000000E+00 0.  1.
<mgrwt>
<rscale>  0 0.12083285E+04</rscale>
<asrwt>0</asrwt>
<pdfrwt beam="1">  1        2 0.36925888E+00 0.12083285E+04</pdfrwt>
<pdfrwt beam="2">  1       -2 0.23396580E-01 0.12083285E+04</pdfrwt>
<totfact> 0.63706537E+01</totfact>
</mgrwt>
</event>
<event>
12    1  0.2045212E-008  0.1775175E+04  0.7818608E-02  0.8719614E-01
          2   -1    0    0  501    0  0.00000000000E+00  0.00000000000E+00  0.12386548986E+04  0.12386548986E+04  0.00000000000E+00 0. -1.
         -2   -1    0    0    0  501 -0.00000000000E+00 -0.00000000000E+00 -0.63602151814E+03  0.63602151814E+03  0.00000000000E+00 0.  1.
         23    2    1    2    0    0  0.26605080272E+03 -0.24395031271E+03 -0.35338330845E+03  0.51279880830E+03  0.88250044813E+02 0.  0.
        254    2    1    2    0    0 -0.26605080272E+03  0.24395031271E+03  0.95601668887E+03  0.13618776084E+04  0.90024881348E+03 0.  0.
        -24    2    4    4    0    0 -0.53658429652E+03  0.11095286205E+03  0.88388107173E+03  0.10418792426E+04  0.63508758198E+02 0.  0.
         24    2    4    4    0    0  0.27053349380E+03  0.13299745066E+03  0.72135617139E+02  0.31999836579E+03  0.79490337110E+02 0.  0.
         11    1    3    3    0    0  0.21756873431E+02 -0.44786462772E+02 -0.86443764139E+02  0.99758273580E+02  0.00000000000E+00 0.  1.
        -11    1    3    3    0    0  0.24429392929E+03 -0.19916384994E+03 -0.26693954431E+03  0.41304053472E+03  0.00000000000E+00 0. -1.
          4    1    6    6  502    0  0.25102522083E+02 -0.98904288684E+01  0.12834693316E+02  0.29877860543E+02  0.00000000000E+00 0. -1.
          1    1    5    5  503    0 -0.15865643987E+02  0.15551010542E+02  0.35088602282E+02  0.41530261234E+02  0.00000000000E+00 0. -1.
         -2    1    5    5    0  503 -0.52071865253E+03  0.95401851509E+02  0.84879246944E+03  0.10003489814E+04  0.00000000000E+00 0.  1.
         -3    1    6    6    0  502  0.24543097172E+03  0.14288787953E+03  0.59300923824E+02  0.29012050524E+03  0.00000000000E+00 0.  1.
<mgrwt>
<rscale>  0 0.17751745E+04</rscale>
<asrwt>0</asrwt>
<pdfrwt beam="1">  1        2 0.19056229E+00 0.17751745E+04</pdfrwt>
<pdfrwt beam="2">  1       -2 0.97849465E-01 0.17751745E+04</pdfrwt>
<totfact> 0.14777645E+01</totfact>
</mgrwt>
</event>
<event>
12    1  0.2045212E-008  0.1736800E+04  0.7818608E-02  0.8740650E-01
         -1   -1    0    0    0  501 -0.00000000000E+00  0.00000000000E+00  0.45164305108E+03  0.45164305108E+03  0.00000000000E+00 0.  1.
          1   -1    0    0  501    0  0.00000000000E+00 -0.00000000000E+00 -0.16697230805E+04  0.16697230805E+04  0.00000000000E+00 0. -1.
         23    2    1    2    0    0  0.35211245566E+03 -0.13170728623E+03 -0.10574663866E+04  0.11293470008E+04  0.12593450180E+03 0.  0.
        254    2    1    2    0    0 -0.35211245566E+03  0.13170728623E+03 -0.16061364282E+03  0.99201913078E+03  0.90386681702E+03 0.  0.
        -24    2    4    4    0    0  0.28512688613E+02 -0.33013020585E+03 -0.17538266384E+03  0.38810867452E+03  0.10035107490E+03 0.  0.
         24    2    4    4    0    0 -0.38062514428E+03  0.46183749208E+03  0.14769021018E+02  0.60391045627E+03  0.79500601627E+02 0.  0.
         13    1    3    3    0    0  0.17431369605E+01  0.71389948591E+01 -0.10160653315E+03  0.10187193604E+03  0.00000000000E+00 0.  1.
        -13    1    3    3    0    0  0.35036931870E+03 -0.13884628109E+03 -0.95585985341E+03  0.10274750647E+04  0.00000000000E+00 0. -1.
          2    1    6    6  502    0 -0.33774846599E+03  0.38466607461E+03  0.35821762675E+02  0.51315223269E+03  0.00000000000E+00 0. -1.
          1    1    5    5  503    0  0.60510433904E+02 -0.13310679237E+03 -0.83412544741E+02  0.16833473618E+03  0.00000000000E+00 0. -1.
         -2    1    5    5    0  503 -0.31997745290E+02 -0.19702341348E+03 -0.91970119098E+02  0.21977393834E+03  0.00000000000E+00 0.  1.
         -1    1    6    6    0  502 -0.42876678285E+02  0.77171417467E+02 -0.21052741657E+02  0.90758223571E+02  0.00000000000E+00 0.  1.
<mgrwt>
<rscale>  0 0.17368003E+04</rscale>
<asrwt>0</asrwt>
<pdfrwt beam="1">  1        1 0.25688047E+00 0.17368003E+04</pdfrwt>
<pdfrwt beam="2">  1       -1 0.69483547E-01 0.17368003E+04</pdfrwt>
<totfact> 0.99334329E+00</totfact>
</mgrwt>
</event>
<event>
12    1  0.2045212E-008  0.1864139E+04  0.7818608E-02  0.8672916E-01
         -2   -1    0    0    0  501 -0.00000000000E+00  0.00000000000E+00  0.84497706769E+03  0.84497706769E+03  0.00000000000E+00 0. -1.
          2   -1    0    0  501    0  0.00000000000E+00 -0.00000000000E+00 -0.10281380929E+04  0.10281380929E+04  0.00000000000E+00 0.  1.
         23    2    1    2    0    0  0.29794333042E+03 -0.25975269053E+03 -0.66233331569E+03  0.77674784176E+03  0.91706598563E+02 0.  0.
        254    2    1    2    0    0 -0.29794333042E+03  0.25975269053E+03  0.47917229049E+03  0.10963673188E+04  0.90342322608E+03 0.  0.
        -24    2    4    4    0    0 -0.52260069287E+03  0.43509769809E+03  0.36557552986E+03  0.77891818266E+03  0.10318224739E+03 0.  0.
         24    2    4    4    0    0  0.22465736245E+03 -0.17534500755E+03  0.11359676062E+03  0.31744913615E+03  0.81565481933E+02 0.  0.
         13    1    3    3    0    0  0.23894897218E+03 -0.15280215258E+03 -0.46177106343E+03  0.54192031163E+03  0.00000000000E+00 0.  1.
        -13    1    3    3    0    0  0.58994358239E+02 -0.10695053795E+03 -0.20056225226E+03  0.23482753012E+03  0.00000000000E+00 0. -1.
          2    1    6    6  502    0  0.16456391169E+03 -0.10991959014E+03  0.39574540669E+02  0.20181610837E+03  0.00000000000E+00 0. -1.
          1    1    5    5  503    0 -0.38243828390E+03  0.28373392941E+03  0.29838868720E+03  0.56196066796E+03  0.00000000000E+00 0. -1.
         -2    1    5    5    0  503 -0.14016240898E+03  0.15136376867E+03  0.67186842667E+02  0.21695751470E+03  0.00000000000E+00 0.  1.
         -1    1    6    6    0  502  0.60093450762E+02 -0.65425417410E+02  0.74022219955E+02  0.11563302779E+03  0.00000000000E+00 0.  1.
<mgrwt>
<rscale>  0 0.18641385E+04</rscale>
<asrwt>0</asrwt>
<pdfrwt beam="1">  1        2 0.15817509E+00 0.18641385E+04</pdfrwt>
<pdfrwt beam="2">  1       -2 0.12999647E+00 0.18641385E+04</pdfrwt>
<totfact> 0.98587069E+00</totfact>
</mgrwt>
</event>
<event>
12    1  0.2045212E-008  0.1356222E+04  0.7818608E-02  0.8986132E-01
         -2   -1    0    0    0  501 -0.00000000000E+00  0.00000000000E+00  0.15298013156E+03  0.15298013156E+03  0.00000000000E+00 0.  1.
          2   -1    0    0  501    0  0.00000000000E+00 -0.00000000000E+00 -0.30058437669E+04  0.30058437669E+04  0.00000000000E+00 0. -1.
         23    2    1    2    0    0  0.50599444964E+01  0.10214894884E+03 -0.16879239501E+04  0.16935560942E+04  0.92655122978E+02 0.  0.
        254    2    1    2    0    0 -0.50599444964E+01 -0.10214894884E+03 -0.11649396852E+04  0.14652678043E+04  0.88287329632E+03 0.  0.
        -24    2    4    4    0    0 -0.23015173423E+03 -0.36704505169E+03 -0.32316838682E+03  0.55111163012E+03  0.10767697929E+03 0.  0.
         24    2    4    4    0    0  0.22509178973E+03  0.26489610285E+03 -0.84177129834E+03  0.91415617415E+03  0.79160172476E+02 0.  0.
         11    1    3    3    0    0  0.45302417307E+02  0.30916160290E+02 -0.79622055484E+03  0.79810731730E+03  0.00000000000E+00 0. -1.
        -11    1    3    3    0    0 -0.40242472811E+02  0.71232788553E+02 -0.89170339530E+03  0.89544877686E+03  0.00000000000E+00 0.  1.
          4    1    6    6  502    0  0.22272906565E+03  0.27021459618E+03 -0.82045540796E+03  0.89206011071E+03  0.00000000000E+00 0. -1.
          3    1    5    5  503    0 -0.16706226003E+03 -0.25681369778E+03 -0.28514314084E+03  0.41853277633E+03  0.00000000000E+00 0. -1.
         -4    1    5    5    0  503 -0.63089474196E+02 -0.11023135391E+03 -0.38025245981E+02  0.13257885378E+03  0.00000000000E+00 0.  1.
         -3    1    6    6    0  502  0.23627240811E+01 -0.53184933321E+01 -0.21315890387E+02  0.22096063436E+02  0.00000000000E+00 0.  1.
<mgrwt>
<rscale>  0 0.13562218E+04</rscale>
<asrwt>0</asrwt>
<pdfrwt beam="1">  1        2 0.46243750E+00 0.13562218E+04</pdfrwt>
<pdfrwt beam="2">  1       -2 0.23535405E-01 0.13562218E+04</pdfrwt>
<totfact> 0.27247032E+01</totfact>
</mgrwt>
</event>
<event>
11    1  0.2045212E-008  0.1422042E+04  0.7818608E-02  0.8938016E-01
          1   -1    0    0  501    0  0.00000000000E+00  0.00000000000E+00  0.80421710953E+03  0.80421710953E+03  0.00000000000E+00 0. -1.
         -1   -1    0    0    0  501 -0.00000000000E+00 -0.00000000000E+00 -0.62862462417E+03  0.62862462417E+03  0.00000000000E+00 0.  1.
         23    2    1    2    0    0  0.20494236835E+03  0.34722976552E+03  0.15267101992E+03  0.43911973241E+03  0.83353552178E+02 0.  0.
        254    2    1    2    0    0 -0.20494236835E+03 -0.34722976552E+03  0.22921465432E+02  0.99372200129E+03  0.90795822473E+03 0.  0.
         24    2    4    4    0    0 -0.76446824151E+02 -0.48591417871E+03  0.31280702917E+03  0.58829177725E+03  0.79260782794E+02 0.  0.
         11    1    3    3    0    0  0.18358420704E+03  0.34094317632E+03  0.15420495551E+03  0.41680280572E+03  0.00000000000E+00 0. -1.
        -11    1    3    3    0    0  0.21358161314E+02  0.62865891927E+01 -0.15339355827E+01  0.22316926687E+02  0.00000000000E+00 0.  1.
          2    1    5    5  502    0 -0.19962686450E+01 -0.13642317989E+03  0.52463684553E+02  0.14617697252E+03  0.00000000000E+00 0. -1.
          3    1    4    4  503    0  0.58995279578E+01 -0.49848391430E+02 -0.69892886912E+02  0.86050463097E+02  0.00000000000E+00 0. -1.
         -4    1    4    4    0  503 -0.13439507216E+03  0.18853280462E+03 -0.21999267683E+03  0.31937976094E+03  0.00000000000E+00 0.  1.
         -1    1    5    5    0  502 -0.74450555506E+02 -0.34949099882E+03  0.26034334462E+03  0.44211480473E+03  0.00000000000E+00 0.  1.
<mgrwt>
<rscale>  0 0.14220417E+04</rscale>
<asrwt>0</asrwt>
<pdfrwt beam="1">  1        1 0.12372571E+00 0.14220417E+04</pdfrwt>
<pdfrwt beam="2">  1       -1 0.96711480E-01 0.14220417E+04</pdfrwt>
<totfact> 0.21956078E+01</totfact>
</mgrwt>
</event>
<event>
11    1  0.2045212E-008  0.1710584E+04  0.7818608E-02  0.8755351E-01
         -1   -1    0    0    0  501 -0.00000000000E+00  0.00000000000E+00  0.24826617470E+03  0.24826617470E+03  0.00000000000E+00 0.  1.
          1   -1    0    0  501    0  0.00000000000E+00 -0.00000000000E+00 -0.29465313903E+04  0.29465313903E+04  0.00000000000E+00 0. -1.
         23    2    1    2    0    0 -0.44881730432E+03  0.27894133080E+03 -0.15689689347E+04  0.16581629420E+04  0.92712380601E+02 0.  0.
        254    2    1    2    0    0  0.44881730432E+03 -0.27894133080E+03 -0.11292962809E+04  0.15366346230E+04  0.89815958262E+03 0.  0.
         24    2    4    4    0    0 -0.19044642510E+03 -0.31995647861E+03 -0.32327796694E+03  0.49966276250E+03  0.80698471399E+02 0.  0.
         11    1    3    3    0    0 -0.23819734710E+02  0.20463248672E+02 -0.43564885364E+02  0.53703105540E+02  0.00000000000E+00 0.  1.
        -11    1    3    3    0    0 -0.42499756961E+03  0.25847808213E+03 -0.15254040493E+04  0.16044598365E+04  0.00000000000E+00 0. -1.
          4    1    5    5  502    0 -0.11152910565E+03 -0.20766638652E+03 -0.15327002871E+03  0.28116858145E+03  0.00000000000E+00 0. -1.
          1    1    4    4  503    0  0.54205203758E+03  0.73088939642E+02 -0.71323546221E+03  0.89881434629E+03  0.00000000000E+00 0. -1.
         -2    1    4    4    0  503  0.97211691838E+02 -0.32073791826E+02 -0.92782851759E+02  0.13815751421E+03  0.00000000000E+00 0.  1.
         -3    1    5    5    0  502 -0.78917319449E+02 -0.11229009210E+03 -0.17000793823E+03  0.21849418105E+03  0.00000000000E+00 0.  1.
<mgrwt>
<rscale>  0 0.17105836E+04</rscale>
<asrwt>0</asrwt>
<pdfrwt beam="1">  1        1 0.45331253E+00 0.17105836E+04</pdfrwt>
<pdfrwt beam="2">  1       -1 0.38194795E-01 0.17105836E+04</pdfrwt>
<totfact> 0.41340130E+00</totfact>
</mgrwt>
</event>
<event>
11    1  0.2045212E-008  0.1205846E+04  0.7818608E-02  0.9107755E-01
         -1   -1    0    0    0  501 -0.00000000000E+00  0.00000000000E+00  0.19054583962E+03  0.19054583962E+03  0.00000000000E+00 0.  1.
          1   -1    0    0  501    0  0.00000000000E+00 -0.00000000000E+00 -0.19077614271E+04  0.19077614271E+04  0.00000000000E+00 0. -1.
         23    2    1    2    0    0 -0.64963665511E+02  0.16139570412E+03 -0.44135693374E+03  0.48337331447E+03  0.92655097180E+02 0.  0.
        254    2    1    2    0    0  0.64963665511E+02 -0.16139570412E+03 -0.12758586537E+04  0.16149339522E+04  0.97464224957E+03 0.  0.
         24    2    4    4    0    0 -0.41880720271E+03  0.57292524721E+02 -0.44787988121E+03  0.62108469614E+03  0.80423288621E+02 0.  0.
         11    1    3    3    0    0  0.15409595539E+02  0.11697456761E+01 -0.18594696864E+02  0.24178227626E+02  0.00000000000E+00 0. -1.
        -11    1    3    3    0    0 -0.80373261051E+02  0.16022595844E+03 -0.42276223688E+03  0.45919508684E+03  0.00000000000E+00 0.  1.
          4    1    5    5  502    0 -0.64566838559E+01  0.12228203214E+02 -0.61830277871E+01  0.15147526296E+02  0.00000000000E+00 0. -1.
          1    1    4    4  503    0  0.89930496633E+02 -0.39606670577E+02 -0.68500048801E+02  0.11978497095E+03  0.00000000000E+00 0. -1.
         -2    1    4    4    0  503  0.39384037159E+03 -0.17908155826E+03 -0.75947872373E+03  0.87406428517E+03  0.00000000000E+00 0.  1.
         -3    1    5    5    0  502 -0.41235051885E+03  0.45064321507E+02 -0.44169685342E+03  0.60593716984E+03  0.00000000000E+00 0.  1.
<mgrwt>
<rscale>  0 0.12058458E+04</rscale>
<asrwt>0</asrwt>
<pdfrwt beam="1">  1        1 0.29350176E+00 0.12058458E+04</pdfrwt>
<pdfrwt beam="2">  1       -1 0.29314744E-01 0.12058458E+04</pdfrwt>
<totfact> 0.36232405E+01</totfact>
</mgrwt>
</event>
<event>
12    1  0.2045212E-008  0.1380644E+04  0.7818608E-02  0.8967950E-01
         -1   -1    0    0    0  501 -0.00000000000E+00  0.00000000000E+00  0.11770884279E+04  0.11770884279E+04  0.00000000000E+00 0.  1.
          1   -1    0    0  501    0  0.00000000000E+00 -0.00000000000E+00 -0.40485001802E+03  0.40485001802E+03  0.00000000000E+00 0. -1.
         23    2    1    2    0    0  0.30634368391E+02  0.14727603954E+03 -0.17493335460E+03  0.24838687434E+03  0.92009045455E+02 0.  0.
        254    2    1    2    0    0 -0.30634368391E+02 -0.14727603954E+03  0.94717176443E+03  0.13335515715E+04  0.92660495694E+03 0.  0.
        -24    2    4    4    0    0 -0.16691132102E+03  0.12846041442E+03 -0.91612045212E+02  0.24723177820E+03  0.91483977647E+02 0.  0.
         24    2    4    4    0    0  0.13627695263E+03 -0.27573645396E+03  0.10387838096E+04  0.10863197933E+04  0.80105494939E+02 0.  0.
         11    1    3    3    0    0  0.48624777951E+02  0.11496580341E+03 -0.84645633354E+02  0.15081905792E+03  0.00000000000E+00 0.  1.
        -11    1    3    3    0    0 -0.17990409560E+02  0.32310236129E+02 -0.90287721243E+02  0.97567816426E+02  0.00000000000E+00 0. -1.
          4    1    6    6  502    0  0.54061035220E+02 -0.14579353235E+03  0.39683733089E+03  0.42621381582E+03  0.00000000000E+00 0. -1.
          3    1    5    5  503    0 -0.35695256532E+02  0.38577474594E+02  0.16302265450E+02  0.55028508464E+02  0.00000000000E+00 0. -1.
         -4    1    5    5    0  503 -0.13121606449E+03  0.89882939822E+02 -0.10791431066E+03  0.19220326974E+03  0.00000000000E+00 0.  1.
         -3    1    6    6    0  502  0.82215917414E+02 -0.12994292161E+03  0.64194647875E+03  0.66010597750E+03  0.00000000000E+00 0.  1.
<mgrwt>
<rscale>  0 0.13806437E+04</rscale>
<asrwt>0</asrwt>
<pdfrwt beam="1">  1        1 0.62284619E-01 0.13806437E+04</pdfrwt>
<pdfrwt beam="2">  1       -1 0.18109053E+00 0.13806437E+04</pdfrwt>
<totfact> 0.11782312E+01</totfact>
</mgrwt>
</event>
<event>
12    1  0.2045212E-008  0.1328540E+04  0.7818608E-02  0.9007234E-01
          1   -1    0    0  501    0  0.00000000000E+00  0.00000000000E+00  0.73989659179E+03  0.73989659179E+03  0.00000000000E+00 0. -1.
         -1   -1    0    0    0  501 -0.00000000000E+00 -0.00000000000E+00 -0.59637379462E+03  0.59637379462E+03  0.00000000000E+00 0.  1.
         23    2    1    2    0    0  0.11361808274E+02  0.28608995961E+03  0.23753694544E+03  0.38568307248E+03  0.10174023921E+03 0.  0.
        254    2    1    2    0    0 -0.11361808274E+02 -0.28608995961E+03 -0.94014148260E+02  0.95058731392E+03  0.90155478238E+03 0.  0.
        -24    2    4    4    0    0  0.38689604406E+03 -0.34697461920E+03 -0.10998537735E+03  0.53999797402E+03  0.97062317255E+02 0.  0.
         24    2    4    4    0    0 -0.39825785234E+03  0.60884659585E+02  0.15971229088E+02  0.41058933991E+03  0.77538810725E+02 0.  0.
         11    1    3    3    0    0  0.36591199790E+02  0.26620512592E+03  0.19329655112E+03  0.33101003254E+03  0.00000000000E+00 0. -1.
        -11    1    3    3    0    0 -0.25229391516E+02  0.19884833697E+02  0.44240394320E+02  0.54673039947E+02  0.00000000000E+00 0.  1.
          4    1    6    6  502    0 -0.37382713207E+03  0.38046802429E+02  0.64349868273E+01  0.37581337509E+03  0.00000000000E+00 0. -1.
          3    1    5    5  503    0  0.29318418109E+03 -0.31331550858E+03 -0.90501224749E+02  0.43853625123E+03  0.00000000000E+00 0. -1.
         -4    1    5    5    0  503  0.93711862969E+02 -0.33659110623E+02 -0.19484152599E+02  0.10146172279E+03  0.00000000000E+00 0.  1.
         -3    1    6    6    0  502 -0.24430720269E+02  0.22837857157E+02  0.95362422602E+01  0.34775964815E+02  0.00000000000E+00 0.  1.
<mgrwt>
<rscale>  0 0.13285405E+04</rscale>
<asrwt>0</asrwt>
<pdfrwt beam="1">  1        1 0.11383025E+00 0.13285405E+04</pdfrwt>
<pdfrwt beam="2">  1       -1 0.91749814E-01 0.13285405E+04</pdfrwt>
<totfact> 0.28401710E+01</totfact>
</mgrwt>
</event>
<event>
11    1  0.2045212E-008  0.2465182E+04  0.7818608E-02  0.8415496E-01
         -2   -1    0    0    0  501 -0.00000000000E+00  0.00000000000E+00  0.85371640300E+03  0.85371640300E+03  0.00000000000E+00 0.  1.
          2   -1    0    0  501    0  0.00000000000E+00 -0.00000000000E+00 -0.17796082214E+04  0.17796082214E+04  0.00000000000E+00 0. -1.
         23    2    1    2    0    0 -0.43535036237E+03 -0.26041691088E+03 -0.13985493009E+04  0.14905095878E+04  0.91278577340E+02 0.  0.
        254    2    1    2    0    0  0.43535036237E+03  0.26041691088E+03  0.47265748250E+03  0.11428150366E+04  0.90844603951E+03 0.  0.
         24    2    4    4    0    0  0.47240065164E+02  0.76629302067E+02 -0.25177463694E+03  0.27977018078E+03  0.82323827388E+02 0.  0.
         13    1    3    3    0    0 -0.29604079769E+03 -0.16408091827E+03 -0.80489418373E+03  0.87316513251E+03  0.00000000000E+00 0. -1.
        -13    1    3    3    0    0 -0.13930956468E+03 -0.96335992608E+02 -0.59365511721E+03  0.61734445529E+03  0.00000000000E+00 0.  1.
          4    1    5    5  502    0  0.25229866931E+02 -0.13830187735E+02 -0.54370350436E+02  0.61513862541E+02  0.00000000000E+00 0. -1.
          1    1    4    4  503    0  0.23294392515E+02  0.72710253251E+02  0.20422120827E+03  0.21802685972E+03  0.00000000000E+00 0. -1.
         -2    1    4    4    0  503  0.36481590469E+03  0.11107735556E+03  0.52021091117E+03  0.64501799613E+03  0.00000000000E+00 0.  1.
         -3    1    5    5    0  502  0.22010198234E+02  0.90459489802E+02 -0.19740428651E+03  0.21825631824E+03  0.00000000000E+00 0.  1.
<mgrwt>
<rscale>  0 0.24651821E+04</rscale>
<asrwt>0</asrwt>
<pdfrwt beam="1">  1        2 0.27378588E+00 0.24651821E+04</pdfrwt>
<pdfrwt beam="2">  1       -2 0.13134098E+00 0.24651821E+04</pdfrwt>
<totfact> 0.33523872E+00</totfact>
</mgrwt>
</event>
<event>
12    1  0.2045212E-008  0.1502352E+04  0.7818608E-02  0.8882890E-01
         -2   -1    0    0    0  501 -0.00000000000E+00  0.00000000000E+00  0.17853801934E+03  0.17853801934E+03  0.00000000000E+00 0.  1.
          2   -1    0    0  501    0  0.00000000000E+00 -0.00000000000E+00 -0.31604794084E+04  0.31604794084E+04  0.00000000000E+00 0. -1.
         23    2    1    2    0    0  0.16872547088E+03 -0.44504662154E+03 -0.99411500284E+03  0.11059345198E+04  0.91059010095E+02 0.  0.
        254    2    1    2    0    0 -0.16872547088E+03  0.44504662154E+03 -0.19878263862E+04  0.22330829080E+04  0.89926122577E+03 0.  0.
        -24    2    4    4    0    0  0.18711824585E+03  0.44354154864E+03 -0.49612907853E+03  0.69750523302E+03  0.92882421533E+02 0.  0.
         24    2    4    4    0    0 -0.35584371674E+03  0.15050729022E+01 -0.14916973077E+04  0.15355776750E+04  0.78809402962E+02 0.  0.
         11    1    3    3    0    0  0.10235212728E+03 -0.23990027319E+03 -0.44209414156E+03  0.51329847948E+03  0.00000000000E+00 0. -1.
        -11    1    3    3    0    0  0.66373343598E+02 -0.20514634834E+03 -0.55202086128E+03  0.59263604030E+03  0.00000000000E+00 0.  1.
          4    1    6    6  502    0 -0.48315724484E+02 -0.24900017106E+02 -0.27661954203E+03  0.28190918949E+03  0.00000000000E+00 0. -1.
          1    1    5    5  503    0  0.19776713619E+03  0.41430096986E+03 -0.46163937036E+03  0.65105148955E+03  0.00000000000E+00 0. -1.
         -2    1    5    5    0  503 -0.10648890334E+02  0.29240578781E+02 -0.34489708166E+02  0.46453743468E+02  0.00000000000E+00 0.  1.
         -3    1    6    6    0  502 -0.30752799225E+03  0.26405090009E+02 -0.12150777657E+04  0.12536684855E+04  0.00000000000E+00 0.  1.
<mgrwt>
<rscale>  0 0.15023525E+04</rscale>
<asrwt>0</asrwt>
<pdfrwt beam="1">  1        2 0.48622757E+00 0.15023525E+04</pdfrwt>
<pdfrwt beam="2">  1       -2 0.27467389E-01 0.15023525E+04</pdfrwt>
<totfact> 0.16201088E+01</totfact>
</mgrwt>
</event>
<event>
12    1  0.2045212E-008  0.1348183E+04  0.7818608E-02  0.8992205E-01
          1   -1    0    0  501    0  0.00000000000E+00  0.00000000000E+00  0.77610666501E+03  0.77610666501E+03  0.00000000000E+00 0. -1.
         -1   -1    0    0    0  501 -0.00000000000E+00 -0.00000000000E+00 -0.58548576735E+03  0.58548576735E+03  0.00000000000E+00 0.  1.
         23    2    1    2    0    0 -0.23892329579E+03  0.19134085049E+03 -0.13893753708E+03  0.34839355824E+03  0.91535620801E+02 0.  0.
        254    2    1    2    0    0  0.23892329579E+03 -0.19134085049E+03  0.32955843475E+03  0.10131988741E+04  0.90789180759E+03 0.  0.
        -24    2    4    4    0    0 -0.47111241044E+02  0.32279151042E+03  0.99806632840E+01  0.33911839527E+03  0.92129496562E+02 0.  0.
         24    2    4    4    0    0  0.28603453683E+03 -0.51413236091E+03  0.31957777146E+03  0.67408047886E+03  0.78145372046E+02 0.  0.
         13    1    3    3    0    0 -0.11344165636E+03  0.12702994606E+03 -0.36681072926E+02  0.17421572175E+03  0.00000000000E+00 0. -1.
        -13    1    3    3    0    0 -0.12548163943E+03  0.64310904429E+02 -0.10225646416E+03  0.17417783649E+03  0.00000000000E+00 0.  1.
          4    1    6    6  502    0  0.13570626904E+03 -0.26775212871E+03  0.20524893705E+03  0.36364064686E+03  0.00000000000E+00 0. -1.
          1    1    5    5  503    0  0.22237329970E+02  0.49809052289E+02 -0.14386544302E+02  0.56412881428E+02  0.00000000000E+00 0. -1.
         -2    1    5    5    0  503 -0.69348571014E+02  0.27298245813E+03  0.24367207586E+02  0.28270551384E+03  0.00000000000E+00 0.  1.
         -3    1    6    6    0  502  0.15032826780E+03 -0.24638023220E+03  0.11432883441E+03  0.31043983200E+03  0.00000000000E+00 0.  1.
<mgrwt>
<rscale>  0 0.13481831E+04</rscale>
<asrwt>0</asrwt>
<pdfrwt beam="1">  1        1 0.11940103E+00 0.13481831E+04</pdfrwt>
<pdfrwt beam="2">  1       -1 0.90074733E-01 0.13481831E+04</pdfrwt>
<totfact> 0.27405257E+01</totfact>
</mgrwt>
</event>
<event>
12    1  0.2045212E-008  0.1983921E+04  0.7818608E-02  0.8614175E-01
          2   -1    0    0  501    0  0.00000000000E+00  0.00000000000E+00  0.12654098574E+04  0.12654098574E+04  0.00000000000E+00 0. -1.
         -2   -1    0    0    0  501 -0.00000000000E+00 -0.00000000000E+00 -0.77760215571E+03  0.77760215571E+03  0.00000000000E+00 0.  1.
         23    2    1    2    0    0  0.88174285236E+01  0.37145664791E+03  0.89765729241E+03  0.97656611253E+03  0.99171413249E+02 0.  0.
        254    2    1    2    0    0 -0.88174285236E+01 -0.37145664791E+03 -0.40984959075E+03  0.10664459005E+04  0.91174140163E+03 0.  0.
        -24    2    4    4    0    0 -0.23526560012E+03 -0.58955176930E+03 -0.16025305417E+03  0.65714082693E+03  0.56849219592E+02 0.  0.
         24    2    4    4    0    0  0.22644817160E+03  0.21809512139E+03 -0.24959653658E+03  0.40930507362E+03  0.79924688464E+02 0.  0.
         11    1    3    3    0    0 -0.29283685153E+02  0.29663395631E+03  0.65065008821E+03  0.71567784341E+03  0.00000000000E+00 0. -1.
        -11    1    3    3    0    0  0.38101113677E+02  0.74822691603E+02  0.24700720420E+03  0.26088826912E+03  0.00000000000E+00 0.  1.
          2    1    6    6  502    0  0.96105272764E+02  0.62264893355E+02 -0.51521275207E+02  0.12556903359E+03  0.00000000000E+00 0. -1.
          1    1    5    5  503    0 -0.10604613113E+03 -0.27679216031E+03 -0.10380687917E+03  0.31406297155E+03  0.00000000000E+00 0. -1.
         -2    1    5    5    0  503 -0.12921946899E+03 -0.31275960899E+03 -0.56446175000E+02  0.34307785538E+03  0.00000000000E+00 0.  1.
         -1    1    6    6    0  502  0.13034289883E+03  0.15583022803E+03 -0.19807526137E+03  0.28373604003E+03  0.00000000000E+00 0.  1.
<mgrwt>
<rscale>  0 0.19839208E+04</rscale>
<asrwt>0</asrwt>
<pdfrwt beam="1">  1        2 0.19467844E+00 0.19839208E+04</pdfrwt>
<pdfrwt beam="2">  1       -2 0.11963110E+00 0.19839208E+04</pdfrwt>
<totfact> 0.86236503E+00</totfact>
</mgrwt>
</event>
<event>
11    1  0.2045212E-008  0.1404022E+04  0.7818608E-02  0.8950912E-01
          3   -1    0    0  501    0  0.00000000000E+00  0.00000000000E+00  0.41346637386E+03  0.41346637386E+03  0.00000000000E+00 0. -1.
         -3   -1    0    0    0  501 -0.00000000000E+00 -0.00000000000E+00 -0.11919222041E+04  0.11919222041E+04  0.00000000000E+00 0.  1.
         23    2    1    2    0    0 -0.11748190003E+03 -0.21903246512E+03  0.13917260734E+03  0.29883479592E+03  0.90310591883E+02 0.  0.
        254    2    1    2    0    0  0.11748190003E+03  0.21903246512E+03 -0.91762843754E+03  0.13065537820E+04  0.89624975216E+03 0.  0.
         24    2    4    4    0    0 -0.13903892549E+03 -0.27843167389E+03 -0.14599300750E+03  0.35235161965E+03  0.77341358935E+02 0.  0.
         11    1    3    3    0    0 -0.33447386099E+02 -0.66029014790E+02  0.91870125114E+02  0.11797744835E+03  0.00000000000E+00 0. -1.
        -11    1    3    3    0    0 -0.84034513929E+02 -0.15300345033E+03  0.47302482230E+02  0.18085734757E+03  0.00000000000E+00 0.  1.
          4    1    5    5  502    0 -0.12809811696E+03 -0.23017940498E+03 -0.14925258633E+03  0.30276727131E+03  0.00000000000E+00 0. -1.
          1    1    4    4  503    0  0.28403656463E+02  0.71556165882E+02 -0.85874796949E+02  0.11533227357E+03  0.00000000000E+00 0. -1.
         -2    1    4    4    0  503  0.22811716905E+03  0.42590797313E+03 -0.68576063309E+03  0.83886988877E+03  0.00000000000E+00 0.  1.
         -3    1    5    5    0  502 -0.10940808527E+02 -0.48252268910E+02  0.32595788349E+01  0.49584348341E+02  0.00000000000E+00 0.  1.
<mgrwt>
<rscale>  0 0.14040224E+04</rscale>
<asrwt>0</asrwt>
<pdfrwt beam="1">  1        3 0.63610213E-01 0.14040224E+04</pdfrwt>
<pdfrwt beam="2">  1       -3 0.18337264E+00 0.14040224E+04</pdfrwt>
<totfact> 0.11477740E+00</totfact>
</mgrwt>
</event>
<event>
11    1  0.2045212E-008  0.1647301E+04  0.7818608E-02  0.8792005E-01
         -2   -1    0    0    0  501 -0.00000000000E+00  0.00000000000E+00  0.74990204883E+03  0.74990204883E+03  0.00000000000E+00 0.  1.
          2   -1    0    0  501    0  0.00000000000E+00 -0.00000000000E+00 -0.90465116533E+03  0.90465116533E+03  0.00000000000E+00 0. -1.
         23    2    1    2    0    0  0.15532506485E+03 -0.55621834304E+03 -0.14758169151E+03  0.60288124928E+03  0.90447355730E+02 0.  0.
        254    2    1    2    0    0 -0.15532506485E+03  0.55621834304E+03 -0.71674249824E+01  0.10516719649E+04  0.87889580089E+03 0.  0.
         24    2    4    4    0    0  0.38369088624E+02  0.54729275673E+03 -0.29538355819E+03  0.62806823079E+03  0.78846100376E+02 0.  0.
         13    1    3    3    0    0  0.13677396594E+02 -0.55712958737E+02 -0.44497863044E+02  0.72602098897E+02  0.00000000000E+00 0.  1.
        -13    1    3    3    0    0  0.14164766826E+03 -0.50050538431E+03 -0.10308382847E+03  0.53027915039E+03  0.00000000000E+00 0. -1.
          2    1    5    5  502    0 -0.91634991107E+00  0.14176042262E+03 -0.40326441735E+02  0.14738751312E+03  0.00000000000E+00 0. -1.
          3    1    4    4  503    0  0.26158974357E+02 -0.67338075584E+02  0.10489178577E+03  0.12736167039E+03  0.00000000000E+00 0. -1.
         -4    1    4    4    0  503 -0.21985312784E+03  0.76263661896E+02  0.18332434744E+03  0.29624206371E+03  0.00000000000E+00 0.  1.
         -1    1    5    5    0  502  0.39285438535E+02  0.40553233411E+03 -0.25505711645E+03  0.48068071767E+03  0.00000000000E+00 0.  1.
<mgrwt>
<rscale>  0 0.16473005E+04</rscale>
<asrwt>0</asrwt>
<pdfrwt beam="1">  1        2 0.13917710E+00 0.16473005E+04</pdfrwt>
<pdfrwt beam="2">  1       -2 0.11536955E+00 0.16473005E+04</pdfrwt>
<totfact> 0.16272716E+01</totfact>
</mgrwt>
</event>
<event>
12    1  0.2045212E-008  0.1570212E+04  0.7818608E-02  0.8839060E-01
         -1   -1    0    0    0  501 -0.00000000000E+00  0.00000000000E+00  0.37058481922E+03  0.37058481922E+03  0.00000000000E+00 0.  1.
          1   -1    0    0  501    0  0.00000000000E+00 -0.00000000000E+00 -0.16632933841E+04  0.16632933841E+04  0.00000000000E+00 0. -1.
         23    2    1    2    0    0 -0.51263530235E+03  0.14255085869E+03 -0.41689347884E+03  0.68173588286E+03  0.88588604003E+02 0.  0.
        254    2    1    2    0    0  0.51263530235E+03 -0.14255085869E+03 -0.87581508605E+03  0.13521423205E+04  0.88211172158E+03 0.  0.
        -24    2    4    4    0    0 -0.11941319501E+03 -0.95270076032E+02 -0.64834305769E+03  0.67385702794E+03  0.10197389425E+03 0.  0.
         24    2    4    4    0    0  0.63204849736E+03 -0.47280782660E+02 -0.22747202835E+03  0.67828529254E+03  0.81281233803E+02 0.  0.
         13    1    3    3    0    0 -0.37586025421E+03  0.10029543085E+03 -0.25261806998E+03  0.46383832681E+03  0.00000000000E+00 0.  1.
        -13    1    3    3    0    0 -0.13677504814E+03  0.42255427838E+02 -0.16427540886E+03  0.21789755605E+03  0.00000000000E+00 0. -1.
          4    1    6    6  502    0  0.53295544554E+03 -0.10057365258E+02 -0.19424315229E+03  0.56733857593E+03  0.00000000000E+00 0. -1.
          3    1    5    5  503    0 -0.10695857997E+03 -0.11047134392E+03 -0.62350031427E+03  0.64218120305E+03  0.00000000000E+00 0. -1.
         -4    1    5    5    0  503 -0.12454615044E+02  0.15201267891E+02 -0.24842743426E+02  0.31675824888E+02  0.00000000000E+00 0.  1.
         -3    1    6    6    0  502  0.99093051822E+02 -0.37223417402E+02 -0.33228876064E+02  0.11094671661E+03  0.00000000000E+00 0.  1.
<mgrwt>
<rscale>  0 0.15702118E+04</rscale>
<asrwt>0</asrwt>
<pdfrwt beam="1">  1        1 0.25589129E+00 0.15702118E+04</pdfrwt>
<pdfrwt beam="2">  1       -1 0.57013050E-01 0.15702118E+04</pdfrwt>
<totfact> 0.15128271E+01</totfact>
</mgrwt>
</event>
<event>
11    1  0.2045212E-008  0.2909465E+04  0.7818608E-02  0.8270067E-01
          1   -1    0    0  501    0  0.00000000000E+00  0.00000000000E+00  0.12175727278E+04  0.12175727278E+04  0.00000000000E+00 0. -1.
         -1   -1    0    0    0  501 -0.00000000000E+00 -0.00000000000E+00 -0.17380869091E+04  0.17380869091E+04  0.00000000000E+00 0.  1.
         23    2    1    2    0    0 -0.21177819813E+03 -0.95980842592E+03  0.64563143276E+03  0.11794067155E+04  0.89877883745E+02 0.  0.
        254    2    1    2    0    0  0.21177819813E+03  0.95980842592E+03 -0.11661456141E+04  0.17762529214E+04  0.91054743298E+03 0.  0.
         24    2    4    4    0    0 -0.29480115912E+03  0.35106680507E+03 -0.68574226904E+03  0.82879159612E+03  0.80606607661E+02 0.  0.
         13    1    3    3    0    0 -0.21463864207E+03 -0.84108378565E+03  0.56015466675E+03  0.10330851523E+04  0.00000000000E+00 0. -1.
        -13    1    3    3    0    0  0.28604439361E+01 -0.11872464026E+03  0.85476766014E+02  0.14632156325E+03  0.00000000000E+00 0.  1.
          4    1    5    5  502    0 -0.97798385231E+02  0.17770215007E+03 -0.31109039287E+03  0.37137556574E+03  0.00000000000E+00 0. -1.
          1    1    4    4  503    0  0.51440359441E+03  0.55917892100E+03 -0.47711031998E+03  0.89717689508E+03  0.00000000000E+00 0. -1.
         -2    1    4    4    0  503 -0.78242371555E+01  0.49562699846E+02 -0.32930250726E+01  0.50284430167E+02  0.00000000000E+00 0.  1.
         -3    1    5    5    0  502 -0.19700277389E+03  0.17336465500E+03 -0.37465187618E+03  0.45741603038E+03  0.00000000000E+00 0.  1.
<mgrwt>
<rscale>  0 0.29094654E+04</rscale>
<asrwt>0</asrwt>
<pdfrwt beam="1">  1        1 0.18731888E+00 0.29094654E+04</pdfrwt>
<pdfrwt beam="2">  1       -1 0.26739799E+00 0.29094654E+04</pdfrwt>
<totfact> 0.47793679E-01</totfact>
</mgrwt>
</event>
<event>
12    1  0.2045212E-008  0.2769142E+04  0.7818608E-02  0.8312913E-01
          1   -1    0    0  501    0  0.00000000000E+00  0.00000000000E+00  0.18100840329E+04  0.18100840329E+04  0.00000000000E+00 0. -1.
         -1   -1    0    0    0  501 -0.00000000000E+00 -0.00000000000E+00 -0.10590874656E+04  0.10590874656E+04  0.00000000000E+00 0.  1.
         23    2    1    2    0    0 -0.74384419449E+03  0.92689543214E+03 -0.23479596085E+02  0.11924785510E+04  0.94944591235E+02 0.  0.
        254    2    1    2    0    0  0.74384419449E+03 -0.92689543214E+03  0.77447616333E+03  0.16766929475E+04  0.89389405681E+03 0.  0.
        -24    2    4    4    0    0 -0.11073100022E+03 -0.41382761758E+03  0.44122293592E+03  0.62251479702E+03  0.96604046723E+02 0.  0.
         24    2    4    4    0    0  0.85457519472E+03 -0.51306781456E+03  0.33325322741E+03  0.10541781505E+04  0.81832228329E+02 0.  0.
         11    1    3    3    0    0 -0.74168705911E+03  0.90574982116E+03 -0.19409073754E+02  0.11708369418E+04  0.00000000000E+00 0. -1.
        -11    1    3    3    0    0 -0.21571353833E+01  0.21145610976E+02 -0.40705223310E+01  0.21641609198E+02  0.00000000000E+00 0.  1.
          2    1    6    6  502    0  0.84681270712E+03 -0.51266857834E+03  0.33679758950E+03  0.10456354281E+04  0.00000000000E+00 0. -1.
          3    1    5    5  503    0 -0.10000116095E+03 -0.37901841084E+03  0.35473823544E+03  0.52867230269E+03  0.00000000000E+00 0. -1.
         -4    1    5    5    0  503 -0.10729839269E+02 -0.34809206739E+02  0.86484700484E+02  0.93842494331E+02  0.00000000000E+00 0.  1.
         -1    1    6    6    0  502  0.77624875986E+01 -0.39923621456E+00 -0.35443620914E+01  0.85427223944E+01  0.00000000000E+00 0.  1.
<mgrwt>
<rscale>  0 0.27691423E+04</rscale>
<asrwt>0</asrwt>
<pdfrwt beam="1">  1        1 0.27847447E+00 0.27691423E+04</pdfrwt>
<pdfrwt beam="2">  1       -1 0.16293653E+00 0.27691423E+04</pdfrwt>
<totfact> 0.96662907E-01</totfact>
</mgrwt>
</event>
<event>
12    1  0.2045212E-008  0.2015310E+04  0.7818608E-02  0.8599496E-01
          3   -1    0    0  501    0  0.00000000000E+00  0.00000000000E+00  0.10408248060E+04  0.10408248060E+04  0.00000000000E+00 0. -1.
         -3   -1    0    0    0  501 -0.00000000000E+00 -0.00000000000E+00 -0.97554245155E+03  0.97554245155E+03  0.00000000000E+00 0.  1.
         23    2    1    2    0    0 -0.59826550991E+03 -0.12992901020E+03 -0.47453793742E+03  0.78025421989E+03  0.93846819714E+02 0.  0.
        254    2    1    2    0    0  0.59826550991E+03  0.12992901020E+03  0.53982029191E+03  0.12361130377E+04  0.92831370041E+03 0.  0.
        -24    2    4    4    0    0  0.32878143515E+03  0.50780401290E+03  0.17079241510E+03  0.63770076798E+03  0.10737817663E+03 0.  0.
         24    2    4    4    0    0  0.26948407476E+03 -0.37787500269E+03  0.36902787680E+03  0.59841226971E+03  0.80650396605E+02 0.  0.
         13    1    3    3    0    0 -0.16777372327E+03 -0.18806243945E+02 -0.18088126525E+03  0.24742620950E+03  0.00000000000E+00 0. -1.
        -13    1    3    3    0    0 -0.43049178664E+03 -0.11112276626E+03 -0.29365667217E+03  0.53282801039E+03  0.00000000000E+00 0.  1.
          4    1    6    6  502    0  0.17542886642E+03 -0.30409317519E+03  0.28675758272E+03  0.45329665521E+03  0.00000000000E+00 0. -1.
          3    1    5    5  503    0  0.24887122237E+03  0.34157849727E+03  0.72804533821E+02  0.42885108752E+03  0.00000000000E+00 0. -1.
         -4    1    5    5    0  503  0.79910212778E+02  0.16622551563E+03  0.97987881281E+02  0.20884968047E+03  0.00000000000E+00 0.  1.
         -3    1    6    6    0  502  0.94055208336E+02 -0.73781827501E+02  0.82270294083E+02  0.14511561450E+03  0.00000000000E+00 0.  1.
<mgrwt>
<rscale>  0 0.20153102E+04</rscale>
<asrwt>0</asrwt>
<pdfrwt beam="1">  1        3 0.16012689E+00 0.20153102E+04</pdfrwt>
<pdfrwt beam="2">  1       -3 0.15008345E+00 0.20153102E+04</pdfrwt>
<totfact> 0.21286383E-01</totfact>
</mgrwt>
</event>
<event>
11    1  0.2045212E-008  0.1608664E+04  0.7818608E-02  0.8815243E-01
         -1   -1    0    0    0  501 -0.00000000000E+00  0.00000000000E+00  0.35588595105E+03  0.35588595105E+03  0.00000000000E+00 0.  1.
          1   -1    0    0  501    0  0.00000000000E+00 -0.00000000000E+00 -0.18178583224E+04  0.18178583224E+04  0.00000000000E+00 0. -1.
         23    2    1    2    0    0  0.21623136598E+03 -0.43129747115E+02  0.17257835083E+03  0.29484619456E+03  0.92384049223E+02 0.  0.
        254    2    1    2    0    0 -0.21623136598E+03  0.43129747115E+02 -0.16345507222E+04  0.18788980789E+04  0.89993652485E+03 0.  0.
         24    2    4    4    0    0  0.14450456532E+03 -0.12981271712E+03 -0.52580380815E+02  0.21455436065E+03  0.74404074498E+02 0.  0.
         11    1    3    3    0    0  0.18639313554E+03 -0.15843595810E+02  0.17243070719E+03  0.25441259656E+03  0.00000000000E+00 0.  1.
        -11    1    3    3    0    0  0.29838230437E+02 -0.27286151305E+02  0.14764364160E+00  0.40433598001E+02  0.00000000000E+00 0. -1.
          2    1    5    5  502    0  0.14271683773E+03 -0.99740919191E+02 -0.58833776921E+02  0.18378726843E+03  0.00000000000E+00 0. -1.
          3    1    4    4  503    0 -0.15484906729E+03  0.22637644866E-01 -0.11133749564E+04  0.11240916456E+04  0.00000000000E+00 0. -1.
         -4    1    4    4    0  503 -0.20588686401E+03  0.17291982659E+03 -0.46859538501E+03  0.54025207270E+03  0.00000000000E+00 0.  1.
         -1    1    5    5    0  502  0.17877275961E+01 -0.30071797925E+02  0.62533961054E+01  0.30767092214E+02  0.00000000000E+00 0.  1.
<mgrwt>
<rscale>  0 0.16086643E+04</rscale>
<asrwt>0</asrwt>
<pdfrwt beam="1">  1        1 0.27967051E+00 0.16086643E+04</pdfrwt>
<pdfrwt beam="2">  1       -1 0.54751686E-01 0.16086643E+04</pdfrwt>
<totfact> 0.12805373E+01</totfact>
</mgrwt>
</event>
<event>
12    1  0.2045212E-008  0.1814756E+04  0.7818608E-02  0.8698491E-01
          2   -1    0    0  501    0  0.00000000000E+00  0.00000000000E+00  0.10622370894E+04  0.10622370894E+04  0.00000000000E+00 0. -1.
         -2   -1    0    0    0  501 -0.00000000000E+00 -0.00000000000E+00 -0.77509556012E+03  0.77509556012E+03  0.00000000000E+00 0.  1.
         23    2    1    2    0    0  0.66213236612E+03  0.38946809971E+01  0.28734156943E+03  0.72762396402E+03  0.91853234459E+02 0.  0.
        254    2    1    2    0    0 -0.66213236612E+03 -0.38946809971E+01 -0.20004014764E+00  0.11097086855E+04  0.89051607951E+03 0.  0.
        -24    2    4    4    0    0 -0.42781271885E+03  0.23798276605E+03  0.35456304675E+03  0.61407351222E+03  0.10822109290E+03 0.  0.
         24    2    4    4    0    0 -0.23431964728E+03 -0.24187744705E+03 -0.35476308690E+03  0.49563517328E+03  0.79918587811E+02 0.  0.
         13    1    3    3    0    0  0.62482192563E+03 -0.68591386174E+01  0.28964554590E+03  0.68872638166E+03  0.00000000000E+00 0.  1.
        -13    1    3    3    0    0  0.37310440490E+02  0.10753819615E+02 -0.23039764635E+01  0.38897582359E+02  0.00000000000E+00 0. -1.
          2    1    6    6  502    0 -0.19365408595E+03 -0.18600027288E+03 -0.23245248119E+03  0.35515090107E+03  0.00000000000E+00 0. -1.
          1    1    5    5  503    0 -0.42113135538E+03  0.24369006010E+03  0.35857793199E+03  0.60441260509E+03  0.00000000000E+00 0. -1.
         -2    1    5    5    0  503 -0.66813634659E+01 -0.57072940494E+01 -0.40148852435E+01  0.96609071338E+01  0.00000000000E+00 0.  1.
         -3    1    6    6    0  502 -0.40665561322E+02 -0.55877174169E+02 -0.12231060571E+03  0.14048427221E+03  0.00000000000E+00 0.  1.
<mgrwt>
<rscale>  0 0.18147565E+04</rscale>
<asrwt>0</asrwt>
<pdfrwt beam="1">  1        2 0.16342109E+00 0.18147565E+04</pdfrwt>
<pdfrwt beam="2">  1       -2 0.11924547E+00 0.18147565E+04</pdfrwt>
<totfact> 0.11698395E+01</totfact>
</mgrwt>
</event>
<event>
12    1  0.2045212E-008  0.2375941E+04  0.7818608E-02  0.8448566E-01
          1   -1    0    0  501    0  0.00000000000E+00  0.00000000000E+00  0.86692606949E+03  0.86692606949E+03  0.00000000000E+00 0. -1.
         -1   -1    0    0    0  501 -0.00000000000E+00 -0.00000000000E+00 -0.16279063856E+04  0.16279063856E+04  0.00000000000E+00 0.  1.
         23    2    1    2    0    0 -0.42252690110E+03 -0.32606030720E+03  0.57999642157E+03  0.79567271135E+03  0.10888024827E+03 0.  0.
        254    2    1    2    0    0  0.42252690110E+03  0.32606030720E+03 -0.13409767376E+04  0.16991597437E+04  0.89670559142E+03 0.  0.
        -24    2    4    4    0    0 -0.14858885805E+03 -0.14908097384E+03 -0.63583911383E+03  0.67189035228E+03  0.53305546687E+02 0.  0.
         24    2    4    4    0    0  0.57111575915E+03  0.47514128104E+03 -0.70513762381E+03  0.10272693914E+04  0.78299979461E+02 0.  0.
         11    1    3    3    0    0 -0.35187173693E+03 -0.28801973484E+03  0.43141979230E+03  0.62681107528E+03  0.00000000000E+00 0. -1.
        -11    1    3    3    0    0 -0.70655164167E+02 -0.38040572357E+02  0.14857662927E+03  0.16886163606E+03  0.00000000000E+00 0.  1.
          4    1    6    6  502    0  0.26623928861E+03  0.25292956216E+03 -0.30549537323E+03  0.47768624146E+03  0.00000000000E+00 0. -1.
          3    1    5    5  503    0 -0.28574007661E+02 -0.50553505008E+02 -0.23388796416E+03  0.24098902581E+03  0.00000000000E+00 0. -1.
         -4    1    5    5    0  503 -0.12001485039E+03 -0.98527468833E+02 -0.40195114967E+03  0.43090132646E+03  0.00000000000E+00 0.  1.
         -3    1    6    6    0  502  0.30487647054E+03  0.22221171887E+03 -0.39964225058E+03  0.54958314998E+03  0.00000000000E+00 0.  1.
<mgrwt>
<rscale>  0 0.23759415E+04</rscale>
<asrwt>0</asrwt>
<pdfrwt beam="1">  1        1 0.13337324E+00 0.23759415E+04</pdfrwt>
<pdfrwt beam="2">  1       -1 0.25044713E+00 0.23759415E+04</pdfrwt>
<totfact> 0.12052540E+00</totfact>
</mgrwt>
</event>
<event>
12    1  0.2045212E-008  0.1425702E+04  0.7818608E-02  0.8935421E-01
          2   -1    0    0  501    0  0.00000000000E+00  0.00000000000E+00  0.17552883668E+04  0.17552883668E+04  0.00000000000E+00 0. -1.
         -2   -1    0    0    0  501 -0.00000000000E+00 -0.00000000000E+00 -0.28950034632E+03  0.28950034632E+03  0.00000000000E+00 0.  1.
         23    2    1    2    0    0  0.24774826522E+03  0.28612135572E+03  0.69984280493E+03  0.80100067693E+03  0.92614792124E+02 0.  0.
        254    2    1    2    0    0 -0.24774826522E+03 -0.28612135572E+03  0.76594521559E+03  0.12437880362E+04  0.90393139821E+03 0.  0.
        -24    2    4    4    0    0  0.12917264958E+03 -0.50429936770E+03  0.51980896772E+03  0.73744955078E+03  0.51254769104E+02 0.  0.
         24    2    4    4    0    0 -0.37692091480E+03  0.21817801198E+03  0.24613624787E+03  0.50633848546E+03  0.78259749652E+02 0.  0.
         11    1    3    3    0    0  0.15519587485E+03  0.14094497131E+03  0.46241301612E+03  0.50771748245E+03  0.00000000000E+00 0. -1.
        -11    1    3    3    0    0  0.92552390375E+02  0.14517638441E+03  0.23742978881E+03  0.29328319448E+03  0.00000000000E+00 0.  1.
          4    1    6    6  502    0 -0.12789046262E+03  0.33632774277E+02  0.65244887064E+02  0.14745856782E+03  0.00000000000E+00 0. -1.
          3    1    5    5  503    0  0.52640147085E+02 -0.18199324568E+03  0.22355081310E+03  0.29303155563E+03  0.00000000000E+00 0. -1.
         -4    1    5    5    0  503  0.76532502493E+02 -0.32230612202E+03  0.29625815463E+03  0.44441799515E+03  0.00000000000E+00 0.  1.
         -3    1    6    6    0  502 -0.24903045218E+03  0.18454523770E+03  0.18089136080E+03  0.35887991764E+03  0.00000000000E+00 0.  1.
<mgrwt>
<rscale>  0 0.14257021E+04</rscale>
<asrwt>0</asrwt>
<pdfrwt beam="1">  1        2 0.27004436E+00 0.14257021E+04</pdfrwt>
<pdfrwt beam="2">  1       -2 0.44538516E-01 0.14257021E+04</pdfrwt>
<totfact> 0.42432873E+01</totfact>
</mgrwt>
</event>
<event>
12    1  0.2045212E-008  0.3597557E+04  0.7818608E-02  0.8091051E-01
         -1   -1    0    0    0  501 -0.00000000000E+00  0.00000000000E+00  0.14556160980E+04  0.14556160980E+04  0.00000000000E+00 0.  1.
          1   -1    0    0  501    0  0.00000000000E+00 -0.00000000000E+00 -0.22228417607E+04  0.22228417607E+04  0.00000000000E+00 0. -1.
         23    2    1    2    0    0  0.83408123063E+03  0.75567865528E+03 -0.16146682492E+04  0.19702192910E+04  0.88706090198E+02 0.  0.
        254    2    1    2    0    0 -0.83408123063E+03 -0.75567865528E+03  0.84744258655E+03  0.17082385676E+04  0.96601156160E+03 0.  0.
        -24    2    4    4    0    0 -0.56510224573E+03 -0.96138233322E+02 -0.28366120967E+02  0.57640808428E+03  0.53465266937E+02 0.  0.
         24    2    4    4    0    0 -0.26897898490E+03 -0.65954042196E+03  0.87580870752E+03  0.11318304834E+04  0.81584853930E+02 0.  0.
         13    1    3    3    0    0  0.29965050638E+03  0.32525280622E+03 -0.66252545845E+03  0.79656750940E+03  0.00000000000E+00 0.  1.
        -13    1    3    3    0    0  0.53443072425E+03  0.43042584906E+03 -0.95214279077E+03  0.11736517817E+04  0.00000000000E+00 0. -1.
          2    1    6    6  502    0 -0.16811420692E+03 -0.42998517126E+03  0.62656550046E+03  0.77828912393E+03  0.00000000000E+00 0. -1.
          3    1    5    5  503    0 -0.34066282503E+03 -0.81019562888E+02 -0.30071237141E+02  0.35145356625E+03  0.00000000000E+00 0. -1.
         -4    1    5    5    0  503 -0.22443942071E+03 -0.15118670435E+02  0.17051161739E+01  0.22495451803E+03  0.00000000000E+00 0.  1.
         -1    1    6    6    0  502 -0.10086477798E+03 -0.22955525070E+03  0.24924320706E+03  0.35354135943E+03  0.00000000000E+00 0.  1.
<mgrwt>
<rscale>  0 0.35975571E+04</rscale>
<asrwt>0</asrwt>
<pdfrwt beam="1">  1        1 0.34197565E+00 0.35975571E+04</pdfrwt>
<pdfrwt beam="2">  1       -1 0.22394094E+00 0.35975571E+04</pdfrwt>
<totfact> 0.17615519E-01</totfact>
</mgrwt>
</event>
<event>
12    1  0.2045212E-008  0.1604788E+04  0.7818608E-02  0.8817612E-01
          1   -1    0    0  501    0  0.00000000000E+00  0.00000000000E+00  0.43368229029E+04  0.43368229029E+04  0.00000000000E+00 0. -1.
         -1   -1    0    0    0  501 -0.00000000000E+00 -0.00000000000E+00 -0.14845808284E+03  0.14845808284E+03  0.00000000000E+00 0.  1.
         23    2    1    2    0    0 -0.79146922673E+02  0.36404020884E+03  0.25457697064E+04  0.25745175030E+04  0.91692234684E+02 0.  0.
        254    2    1    2    0    0  0.79146922673E+02 -0.36404020884E+03  0.16425951136E+04  0.19107634827E+04  0.90227981842E+03 0.  0.
        -24    2    4    4    0    0  0.30854047465E+03 -0.23766116081E+03  0.19973249819E+03  0.44203985889E+03  0.61855591172E+02 0.  0.
         24    2    4    4    0    0 -0.22939355197E+03 -0.12637904803E+03  0.14428626154E+04  0.14687236238E+04  0.81874848765E+02 0.  0.
         13    1    3    3    0    0  0.73960392217E+01  0.18116528091E+03  0.12186048162E+04  0.12320199911E+04  0.00000000000E+00 0.  1.
        -13    1    3    3    0    0 -0.86542961894E+02  0.18287492793E+03  0.13271648903E+04  0.13424975119E+04  0.00000000000E+00 0. -1.
          2    1    6    6  502    0 -0.14059026633E+03 -0.12039061519E+03  0.10061434481E+04  0.10230269602E+04  0.00000000000E+00 0. -1.
          3    1    5    5  503    0  0.17222463818E+03 -0.11919639547E+03  0.74650831845E+02  0.22235524141E+03  0.00000000000E+00 0. -1.
         -4    1    5    5    0  503  0.13631583647E+03 -0.11846476533E+03  0.12508166635E+03  0.21968461747E+03  0.00000000000E+00 0.  1.
         -1    1    6    6    0  502 -0.88803285642E+02 -0.59884328466E+01  0.43671916733E+03  0.44569666364E+03  0.00000000000E+00 0.  1.
<mgrwt>
<rscale>  0 0.16047884E+04</rscale>
<asrwt>0</asrwt>
<pdfrwt beam="1">  1        1 0.66720343E+00 0.16047884E+04</pdfrwt>
<pdfrwt beam="2">  1       -1 0.22839708E-01 0.16047884E+04</pdfrwt>
<totfact> 0.75149342E-01</totfact>
</mgrwt>
</event>
<event>
12    1  0.2045212E-008  0.3807699E+04  0.7818608E-02  0.8044505E-01
         -2   -1    0    0    0  501 -0.00000000000E+00  0.00000000000E+00  0.20672812089E+04  0.20672812089E+04  0.00000000000E+00 0.  1.
          2   -1    0    0  501    0  0.00000000000E+00 -0.00000000000E+00 -0.17533378717E+04  0.17533378717E+04  0.00000000000E+00 0. -1.
         23    2    1    2    0    0 -0.13723960051E+04  0.63062835654E+03 -0.83478747715E+03  0.17281651132E+04  0.92312553691E+02 0.  0.
        254    2    1    2    0    0  0.13723960051E+04 -0.63062835654E+03  0.11487308143E+04  0.20924539674E+04  0.88182662891E+03 0.  0.
        -24    2    4    4    0    0  0.20542024188E+03 -0.52689219108E+03  0.41929326304E+03  0.71013686958E+03  0.93137942354E+02 0.  0.
         24    2    4    4    0    0  0.11669757632E+04 -0.10373616545E+03  0.72943755122E+03  0.13823170979E+04  0.78280227641E+02 0.  0.
         11    1    3    3    0    0 -0.97983091569E+03  0.45840464924E+03 -0.55042365597E+03  0.12137420018E+04  0.00000000000E+00 0. -1.
        -11    1    3    3    0    0 -0.39256508936E+03  0.17222370730E+03 -0.28436382118E+03  0.51442311140E+03  0.00000000000E+00 0.  1.
          4    1    6    6  502    0  0.13940963541E+03 -0.35849535677E+01  0.59821764995E+02  0.15174498971E+03  0.00000000000E+00 0. -1.
          3    1    5    5  503    0  0.25713419741E+01 -0.66464689478E+02  0.76265498798E+02  0.10119581540E+03  0.00000000000E+00 0. -1.
         -4    1    5    5    0  503  0.20284889990E+03 -0.46042750160E+03  0.34302776424E+03  0.60894105418E+03  0.00000000000E+00 0.  1.
         -3    1    6    6    0  502  0.10275661278E+04 -0.10015121189E+03  0.66961578623E+03  0.12305721082E+04  0.00000000000E+00 0.  1.
<mgrwt>
<rscale>  0 0.38076987E+04</rscale>
<asrwt>0</asrwt>
<pdfrwt beam="1">  1        2 0.26974429E+00 0.38076987E+04</pdfrwt>
<pdfrwt beam="2">  1       -2 0.31804326E+00 0.38076987E+04</pdfrwt>
<totfact> 0.18067597E-01</totfact>
</mgrwt>
</event>
<event>
12    1  0.2045212E-008  0.2366354E+04  0.7818608E-02  0.8452209E-01
         -2   -1    0    0    0  501 -0.00000000000E+00  0.00000000000E+00  0.15636184352E+04  0.15636184352E+04  0.00000000000E+00 0.  1.
          2   -1    0    0  501    0  0.00000000000E+00 -0.00000000000E+00 -0.89529983208E+03  0.89529983208E+03  0.00000000000E+00 0. -1.
         23    2    1    2    0    0  0.51047221497E+03  0.17416057584E+03  0.11768540739E+04  0.12975630024E+04  0.88150130964E+02 0.  0.
        254    2    1    2    0    0 -0.51047221497E+03 -0.17416057584E+03 -0.50853547076E+03  0.11613552649E+04  0.89399325378E+03 0.  0.
        -24    2    4    4    0    0 -0.38185908774E+03 -0.25557102323E+03 -0.73921111924E+03  0.87259702525E+03  0.62125508896E+02 0.  0.
         24    2    4    4    0    0 -0.12861312723E+03  0.81410447384E+02  0.23067564848E+03  0.28875823963E+03  0.83672389201E+02 0.  0.
         13    1    3    3    0    0  0.10308211576E+03  0.94093918910E+01  0.28746953595E+03  0.30553754817E+03  0.00000000000E+00 0. -1.
        -13    1    3    3    0    0  0.40739009921E+03  0.16475118395E+03  0.88938453794E+03  0.99202545425E+03  0.00000000000E+00 0.  1.
          4    1    6    6  502    0 -0.13850320460E+03  0.80935714081E+02  0.22747997177E+03  0.27835384864E+03  0.00000000000E+00 0. -1.
          3    1    5    5  503    0 -0.35249396038E+03 -0.21265761193E+03 -0.65597776769E+03  0.77445599211E+03  0.00000000000E+00 0. -1.
         -2    1    5    5    0  503 -0.29365127363E+02 -0.42913411299E+02 -0.83233351554E+02  0.98141033138E+02  0.00000000000E+00 0.  1.
         -3    1    6    6    0  502  0.98900773751E+01  0.47473330227E+00  0.31956767141E+01  0.10404390989E+02  0.00000000000E+00 0.  1.
<mgrwt>
<rscale>  0 0.23663536E+04</rscale>
<asrwt>0</asrwt>
<pdfrwt beam="1">  1        2 0.13773844E+00 0.23663536E+04</pdfrwt>
<pdfrwt beam="2">  1       -2 0.24055668E+00 0.23663536E+04</pdfrwt>
<totfact> 0.19569609E+00</totfact>
</mgrwt>
</event>
<event>
12    1  0.2045212E-008  0.1172350E+04  0.7818608E-02  0.9137409E-01
         -1   -1    0    0    0  501 -0.00000000000E+00  0.00000000000E+00  0.44461289082E+03  0.44461289082E+03  0.00000000000E+00 0.  1.
          1   -1    0    0  501    0  0.00000000000E+00 -0.00000000000E+00 -0.77280940269E+03  0.77280940269E+03  0.00000000000E+00 0. -1.
         23    2    1    2    0    0 -0.35282735088E+02 -0.11034705568E+03 -0.24714790050E+03  0.28907042024E+03  0.95174991678E+02 0.  0.
        254    2    1    2    0    0  0.35282735088E+02  0.11034705568E+03 -0.81048611366E+02  0.92835187327E+03  0.91752219543E+03 0.  0.
        -24    2    4    4    0    0  0.25934016430E+03 -0.22766671984E+03 -0.29204739264E+03  0.46449769372E+03  0.10666288851E+03 0.  0.
         24    2    4    4    0    0 -0.22405742921E+03  0.33801377552E+03  0.21099878128E+03  0.46385417955E+03  0.78645852799E+02 0.  0.
         13    1    3    3    0    0  0.28897491980E+02 -0.17223421427E+02 -0.84642654575E+02  0.91082875789E+02  0.00000000000E+00 0.  1.
        -13    1    3    3    0    0 -0.64180227068E+02 -0.93123634252E+02 -0.16250524593E+03  0.19798754445E+03  0.00000000000E+00 0. -1.
          2    1    6    6  502    0 -0.22360078966E+03  0.29780651321E+03  0.18366484420E+03  0.41523343729E+03  0.00000000000E+00 0. -1.
          1    1    5    5  503    0  0.24933807462E+03 -0.17233973887E+03 -0.22805416295E+03  0.37931406814E+03  0.00000000000E+00 0. -1.
         -2    1    5    5    0  503  0.10002089674E+02 -0.55326980964E+02 -0.63993229695E+02  0.85183625582E+02  0.00000000000E+00 0.  1.
         -1    1    6    6    0  502 -0.45663954695E+00  0.40207262308E+02  0.27333937074E+02  0.48620742260E+02  0.00000000000E+00 0.  1.
<mgrwt>
<rscale>  0 0.11723498E+04</rscale>
<asrwt>0</asrwt>
<pdfrwt beam="1">  1        1 0.11889375E+00 0.11723498E+04</pdfrwt>
<pdfrwt beam="2">  1       -1 0.68401984E-01 0.11723498E+04</pdfrwt>
<totfact> 0.50137775E+01</totfact>
</mgrwt>
</event>
<event>
11    1  0.2045212E-008  0.1564762E+04  0.7818608E-02  0.8842493E-01
          2   -1    0    0  501    0  0.00000000000E+00  0.00000000000E+00  0.10951931039E+04  0.10951931039E+04  0.00000000000E+00 0. -1.
         -2   -1    0    0    0  501 -0.00000000000E+00 -0.00000000000E+00 -0.55891534508E+03  0.55891534508E+03  0.00000000000E+00 0.  1.
         23    2    1    2    0    0  0.40583296085E+01 -0.35417173993E+03 -0.21975251792E+03  0.42662218857E+03  0.90891315528E+02 0.  0.
        254    2    1    2    0    0 -0.40583296085E+01  0.35417173993E+03  0.75603027677E+03  0.12274862605E+04  0.89982589916E+03 0.  0.
         24    2    4    4    0    0  0.18577523721E+02 -0.24958557031E+03  0.42997788836E+03  0.50413722496E+03  0.81457202341E+02 0.  0.
         11    1    3    3    0    0 -0.31909439230E+02 -0.59213533513E+02 -0.54821886607E+02  0.86774962485E+02  0.00000000000E+00 0. -1.
        -11    1    3    3    0    0  0.35967768839E+02 -0.29495820642E+03 -0.16493063131E+03  0.33984722608E+03  0.00000000000E+00 0.  1.
          2    1    5    5  502    0  0.34564269003E+02 -0.12769897582E+03  0.28394224090E+03  0.31324896374E+03  0.00000000000E+00 0. -1.
          3    1    4    4  503    0 -0.10772556382E+03  0.20810742235E+03  0.17044756323E+03  0.28976864590E+03  0.00000000000E+00 0. -1.
         -4    1    4    4    0  503  0.85089710490E+02  0.39564988790E+03  0.15560482518E+03  0.43358038960E+03  0.00000000000E+00 0.  1.
         -3    1    5    5    0  502 -0.15986745282E+02 -0.12188659449E+03  0.14603564746E+03  0.19088826122E+03  0.00000000000E+00 0.  1.
<mgrwt>
<rscale>  0 0.15647623E+04</rscale>
<asrwt>0</asrwt>
<pdfrwt beam="1">  1        2 0.16849125E+00 0.15647623E+04</pdfrwt>
<pdfrwt beam="2">  1       -2 0.85986977E-01 0.15647623E+04</pdfrwt>
<totfact> 0.24757154E+01</totfact>
</mgrwt>
</event>
<event>
12    1  0.2045212E-008  0.2489035E+04  0.7818608E-02  0.8406902E-01
          1   -1    0    0  501    0  0.00000000000E+00  0.00000000000E+00  0.33982900684E+04  0.33982900684E+04  0.00000000000E+00 0. -1.
         -1   -1    0    0    0  501 -0.00000000000E+00 -0.00000000000E+00 -0.45576557653E+03  0.45576557653E+03  0.00000000000E+00 0.  1.
         23    2    1    2    0    0 -0.74073160573E+03  0.75001535777E+03  0.17110821254E+04  0.20118267914E+04  0.91862126993E+02 0.  0.
        254    2    1    2    0    0  0.74073160573E+03 -0.75001535777E+03  0.12314423665E+04  0.18422288535E+04  0.87530023308E+03 0.  0.
        -24    2    4    4    0    0  0.58259617707E+03 -0.89186067738E+03  0.12096530457E+04  0.16152677569E+04  0.10486020217E+03 0.  0.
         24    2    4    4    0    0  0.15813542866E+03  0.14184531962E+03  0.21789320768E+02  0.22696109661E+03  0.76874289451E+02 0.  0.
         11    1    3    3    0    0 -0.20866513859E+02  0.20768634568E+02  0.83524770231E+02  0.88561474833E+02  0.00000000000E+00 0.  1.
        -11    1    3    3    0    0 -0.71986509187E+03  0.72924672320E+03  0.16275573551E+04  0.19232653166E+04  0.00000000000E+00 0. -1.
          2    1    6    6  502    0  0.14963577887E+03  0.14796597495E+03  0.92776025895E+01  0.21064394122E+03  0.00000000000E+00 0. -1.
          3    1    5    5  503    0  0.47859502502E+03 -0.65515035732E+03  0.93903366075E+03  0.12409912992E+04  0.00000000000E+00 0. -1.
         -4    1    5    5    0  503  0.10400115205E+03 -0.23671032006E+03  0.27061938497E+03  0.37427645768E+03  0.00000000000E+00 0.  1.
         -1    1    6    6    0  502  0.84996497841E+01 -0.61206553328E+01  0.12511718178E+02  0.16317155387E+02  0.00000000000E+00 0.  1.
<mgrwt>
<rscale>  0 0.24890349E+04</rscale>
<asrwt>0</asrwt>
<pdfrwt beam="1">  1        1 0.52281384E+00 0.24890349E+04</pdfrwt>
<pdfrwt beam="2">  1       -1 0.70117783E-01 0.24890349E+04</pdfrwt>
<totfact> 0.54911769E-01</totfact>
</mgrwt>
</event>
<event>
11    1  0.2045212E-008  0.1197219E+04  0.7818608E-02  0.9115294E-01
          1   -1    0    0  501    0  0.00000000000E+00  0.00000000000E+00  0.58518967857E+03  0.58518967857E+03  0.00000000000E+00 0. -1.
         -1   -1    0    0    0  501 -0.00000000000E+00 -0.00000000000E+00 -0.61233687065E+03  0.61233687065E+03  0.00000000000E+00 0.  1.
         23    2    1    2    0    0  0.22187408074E+03  0.19480019883E+02 -0.90721875614E+02  0.25694883130E+03  0.90469134605E+02 0.  0.
        254    2    1    2    0    0 -0.22187408074E+03 -0.19480019883E+02  0.63574683536E+02  0.94057771792E+03  0.91161237606E+03 0.  0.
         24    2    4    4    0    0  0.21806411348E+03 -0.56865301323E+02  0.32878787320E+03  0.40648626041E+03  0.79649194966E+02 0.  0.
         11    1    3    3    0    0  0.65053455420E+02  0.28158434619E+02  0.81586844188E+01  0.71354142372E+02  0.00000000000E+00 0. -1.
        -11    1    3    3    0    0  0.15682062532E+03 -0.86784147365E+01 -0.98880560033E+02  0.18559468893E+03  0.00000000000E+00 0.  1.
          4    1    5    5  502    0 -0.55363470634E+01 -0.86610936861E+01  0.13879258526E+02  0.17271349104E+02  0.00000000000E+00 0. -1.
          1    1    4    4  503    0 -0.39136394050E+02 -0.35434366346E+02 -0.11039671305E+02  0.53936314299E+02  0.00000000000E+00 0. -1.
         -2    1    4    4    0  503 -0.40080180017E+03  0.72819647786E+02 -0.25417351835E+03  0.48015514321E+03  0.00000000000E+00 0.  1.
         -3    1    5    5    0  502  0.22360046054E+03 -0.48204207637E+02  0.31490861467E+03  0.38921491131E+03  0.00000000000E+00 0.  1.
<mgrwt>
<rscale>  0 0.11972188E+04</rscale>
<asrwt>0</asrwt>
<pdfrwt beam="1">  1        1 0.90029182E-01 0.11972188E+04</pdfrwt>
<pdfrwt beam="2">  1       -1 0.94205672E-01 0.11972188E+04</pdfrwt>
<totfact> 0.38373834E+01</totfact>
</mgrwt>
</event>
<event>
12    1  0.2045212E-008  0.1265326E+04  0.7818608E-02  0.9057523E-01
         -2   -1    0    0    0  501 -0.00000000000E+00  0.00000000000E+00  0.20591105736E+03  0.20591105736E+03  0.00000000000E+00 0.  1.
          2   -1    0    0  501    0  0.00000000000E+00 -0.00000000000E+00 -0.19438597050E+04  0.19438597050E+04  0.00000000000E+00 0. -1.
         23    2    1    2    0    0 -0.84334837135E+02 -0.24761357987E+03 -0.72580630392E+03  0.77568394372E+03  0.80411069135E+02 0.  0.
        254    2    1    2    0    0  0.84334837135E+02  0.24761357987E+03 -0.10121423437E+04  0.13740868186E+04  0.89177217468E+03 0.  0.
        -24    2    4    4    0    0  0.93022756994E+02 -0.21938953211E+03  0.94185599340E+01  0.24803505145E+03  0.68173875899E+02 0.  0.
         24    2    4    4    0    0 -0.86879198592E+01  0.46700311198E+03 -0.10215609036E+04  0.11260517672E+04  0.78984276826E+02 0.  0.
         13    1    3    3    0    0 -0.89729099406E+02 -0.25145809527E+03 -0.70582708369E+03  0.75463524767E+03  0.00000000000E+00 0. -1.
        -13    1    3    3    0    0  0.53942622707E+01  0.38445154060E+01 -0.19979220232E+02  0.21048696046E+02  0.00000000000E+00 0.  1.
          4    1    6    6  502    0  0.22556465756E+02  0.38874742904E+03 -0.84609388063E+03  0.93140120925E+03  0.00000000000E+00 0. -1.
          3    1    5    5  503    0  0.14230388040E+02 -0.82921255891E+02  0.29552571922E+02  0.89172827305E+02  0.00000000000E+00 0. -1.
         -4    1    5    5    0  503  0.78792368954E+02 -0.13646827622E+03 -0.20134011988E+02  0.15886222414E+03  0.00000000000E+00 0.  1.
         -3    1    6    6    0  502 -0.31244385615E+02  0.78255682937E+02 -0.17546702300E+03  0.19465055794E+03  0.00000000000E+00 0.  1.
<mgrwt>
<rscale>  0 0.12653256E+04</rscale>
<asrwt>0</asrwt>
<pdfrwt beam="1">  1        2 0.29905535E+00 0.12653256E+04</pdfrwt>
<pdfrwt beam="2">  1       -2 0.31678623E-01 0.12653256E+04</pdfrwt>
<totfact> 0.65352381E+01</totfact>
</mgrwt>
</event>
<event>
12    1  0.2045212E-008  0.1474223E+04  0.7818608E-02  0.8901778E-01
          1   -1    0    0  501    0  0.00000000000E+00  0.00000000000E+00  0.63277175837E+03  0.63277175837E+03  0.00000000000E+00 0.  1.
         -1   -1    0    0    0  501 -0.00000000000E+00 -0.00000000000E+00 -0.85865568667E+03  0.85865568667E+03  0.00000000000E+00 0. -1.
         23    2    1    2    0    0  0.73965012221E+02 -0.48458270009E+02  0.38683998345E+03  0.40772249854E+03  0.93666621884E+02 0.  0.
        254    2    1    2    0    0 -0.73965012221E+02  0.48458270009E+02 -0.61272391175E+03  0.10837049465E+04  0.88947557139E+03 0.  0.
        -24    2    4    4    0    0  0.12624032016E+03  0.84763845782E+02  0.18295187016E+03  0.25850080866E+03  0.10114224289E+03 0.  0.
         24    2    4    4    0    0 -0.20020533238E+03 -0.36305575774E+02 -0.79567578191E+03  0.82520413785E+03  0.80384384520E+02 0.  0.
         13    1    3    3    0    0  0.29628128882E+02 -0.55265427053E+02  0.10472111521E+03  0.12205984360E+03  0.00000000000E+00 0. -1.
        -13    1    3    3    0    0  0.44336883339E+02  0.68071570446E+01  0.28211886824E+03  0.28566265494E+03  0.00000000000E+00 0.  1.
          2    1    6    6  502    0 -0.92619578798E+01 -0.45315806159E+01 -0.55436049277E+01  0.11706863040E+02  0.00000000000E+00 0. -1.
          3    1    5    5  503    0 -0.13402219355E+02  0.26968433355E+02  0.19447681033E+02  0.35848684478E+02  0.00000000000E+00 0. -1.
         -4    1    5    5    0  503  0.13964253952E+03  0.57795412427E+02  0.16350418912E+03  0.22265212418E+03  0.00000000000E+00 0.  1.
         -1    1    6    6    0  502 -0.19094337450E+03 -0.31773995158E+02 -0.79013217698E+03  0.81349727481E+03  0.00000000000E+00 0.  1.
<mgrwt>
<rscale>  0 0.14742226E+04</rscale>
<asrwt>0</asrwt>
<pdfrwt beam="1">  1        1 0.97349501E-01 0.14742226E+04</pdfrwt>
<pdfrwt beam="2">  1       -1 0.13210087E+00 0.14742226E+04</pdfrwt>
<totfact> 0.14961533E+01</totfact>
</mgrwt>
</event>
<event>
12    1  0.2045212E-008  0.1634446E+04  0.7818608E-02  0.8799661E-01
          2   -1    0    0  501    0  0.00000000000E+00  0.00000000000E+00  0.26232550902E+04  0.26232550902E+04  0.00000000000E+00 0. -1.
         -2   -1    0    0    0  501 -0.00000000000E+00 -0.00000000000E+00 -0.25458968955E+03  0.25458968955E+03  0.00000000000E+00 0.  1.
         23    2    1    2    0    0 -0.52137802144E+03 -0.23488600698E+03  0.79126826124E+03  0.98061645019E+03  0.92177457228E+02 0.  0.
        254    2    1    2    0    0  0.52137802144E+03  0.23488600698E+03  0.15773971394E+04  0.18972283296E+04  0.88559986536E+03 0.  0.
        -24    2    4    4    0    0  0.28089173104E+03 -0.23921160513E+03  0.22413239635E+03  0.44113857781E+03  0.90805050243E+02 0.  0.
         24    2    4    4    0    0  0.24048629040E+03  0.47409761211E+03  0.13532647431E+04  0.14560897518E+04  0.79181428507E+02 0.  0.
         13    1    3    3    0    0 -0.46768999548E+03 -0.19753667538E+03  0.64860660893E+03  0.82367785155E+03  0.00000000000E+00 0.  1.
        -13    1    3    3    0    0 -0.53688025961E+02 -0.37349331606E+02  0.14266165230E+03  0.15693859863E+03  0.00000000000E+00 0. -1.
          2    1    6    6  502    0  0.45550279516E+02  0.84948193619E+02  0.33771077389E+03  0.35119736668E+03  0.00000000000E+00 0. -1.
          1    1    5    5  503    0  0.11807379258E+03 -0.45082179514E+02  0.67871534510E+02  0.14345859543E+03  0.00000000000E+00 0. -1.
         -2    1    5    5    0  503  0.16281793845E+03 -0.19412942562E+03  0.15626086184E+03  0.29767998239E+03  0.00000000000E+00 0.  1.
         -1    1    6    6    0  502  0.19493601088E+03  0.38914941849E+03  0.10155539692E+04  0.11048923851E+04  0.00000000000E+00 0.  1.
<mgrwt>
<rscale>  0 0.16344463E+04</rscale>
<asrwt>0</asrwt>
<pdfrwt beam="1">  1        2 0.40357769E+00 0.16344463E+04</pdfrwt>
<pdfrwt beam="2">  1       -2 0.39167646E-01 0.16344463E+04</pdfrwt>
<totfact> 0.17427018E+01</totfact>
</mgrwt>
</event>
<event>
11    1  0.2045212E-008  0.1633994E+04  0.7818608E-02  0.8799932E-01
         -2   -1    0    0    0  501 -0.00000000000E+00  0.00000000000E+00  0.38735951350E+03  0.38735951350E+03  0.00000000000E+00 0.  1.
          2   -1    0    0  501    0  0.00000000000E+00 -0.00000000000E+00 -0.17231636900E+04  0.17231636900E+04  0.00000000000E+00 0. -1.
         23    2    1    2    0    0  0.34793487677E+03 -0.22073124285E+03 -0.96502265083E+03  0.10531433578E+04  0.89784493787E+02 0.  0.
        254    2    1    2    0    0 -0.34793487677E+03  0.22073124285E+03 -0.37078152569E+03  0.10573798458E+04  0.90044002488E+03 0.  0.
         24    2    4    4    0    0  0.25174251133E+03  0.13657985235E+03  0.11520349375E+02  0.29816243614E+03  0.82096113174E+02 0.  0.
         13    1    3    3    0    0  0.20153071958E+02  0.83440915109E+01 -0.51145136652E+02  0.55602114849E+02  0.00000000000E+00 0.  1.
        -13    1    3    3    0    0  0.32778180481E+03 -0.22907533436E+03 -0.91387751418E+03  0.99754124291E+03  0.00000000000E+00 0. -1.
          4    1    5    5  502    0  0.17080809147E+02 -0.88471321808E+01 -0.91845699176E+01  0.21316240605E+02  0.00000000000E+00 0. -1.
          3    1    4    4  503    0 -0.20579190649E+03  0.50220307464E+02 -0.27954186764E+03  0.35073643070E+03  0.00000000000E+00 0. -1.
         -4    1    4    4    0  503 -0.39388548161E+03  0.33931083032E+02 -0.10276000743E+03  0.40848097893E+03  0.00000000000E+00 0.  1.
         -3    1    5    5    0  502  0.23466170218E+03  0.14542698453E+03  0.20704919292E+02  0.27684619554E+03  0.00000000000E+00 0.  1.
<mgrwt>
<rscale>  0 0.16339937E+04</rscale>
<asrwt>0</asrwt>
<pdfrwt beam="1">  1        2 0.26510211E+00 0.16339937E+04</pdfrwt>
<pdfrwt beam="2">  1       -2 0.59593771E-01 0.16339937E+04</pdfrwt>
<totfact> 0.23921222E+01</totfact>
</mgrwt>
</event>
<event>
11    1  0.2045212E-008  0.2062970E+04  0.7818608E-02  0.8577733E-01
          2   -1    0    0  501    0  0.00000000000E+00  0.00000000000E+00  0.25593188382E+04  0.25593188382E+04  0.00000000000E+00 0. -1.
         -2   -1    0    0    0  501 -0.00000000000E+00 -0.00000000000E+00 -0.41572039798E+03  0.41572039798E+03  0.00000000000E+00 0.  1.
         23    2    1    2    0    0 -0.16730294429E+03 -0.30804694038E+03 -0.21479301552E+03  0.42106214115E+03  0.90962050054E+02 0.  0.
        254    2    1    2    0    0  0.16730294429E+03  0.30804694038E+03  0.23583914557E+04  0.25539770950E+04  0.91537181013E+03 0.  0.
         24    2    4    4    0    0 -0.14159240876E+03 -0.19836623523E+03  0.23104533729E+03  0.34498331005E+03  0.78955448395E+02 0.  0.
         13    1    3    3    0    0 -0.64873385531E+02 -0.17543762505E+03 -0.70362086126E+02  0.19984428838E+03  0.00000000000E+00 0.  1.
        -13    1    3    3    0    0 -0.10242955876E+03 -0.13260931533E+03 -0.14443092940E+03  0.22121785277E+03  0.00000000000E+00 0. -1.
          2    1    5    5  502    0 -0.86469546119E+02 -0.59454674734E+02  0.11569533910E+03  0.15619619792E+03  0.00000000000E+00 0. -1.
          1    1    4    4  503    0  0.19606188008E+03  0.28754897611E+03  0.11905883298E+04  0.12404133365E+04  0.00000000000E+00 0. -1.
         -4    1    4    4    0  503  0.11283347297E+03  0.21886419950E+03  0.93675778864E+03  0.96858044840E+03  0.00000000000E+00 0.  1.
         -1    1    5    5    0  502 -0.55122862644E+02 -0.13891156050E+03  0.11534999818E+03  0.18878711213E+03  0.00000000000E+00 0.  1.
<mgrwt>
<rscale>  0 0.20629697E+04</rscale>
<asrwt>0</asrwt>
<pdfrwt beam="1">  1        2 0.39374135E+00 0.20629697E+04</pdfrwt>
<pdfrwt beam="2">  1       -2 0.63956986E-01 0.20629697E+04</pdfrwt>
<totfact> 0.67206605E+00</totfact>
</mgrwt>
</event>
<event>
11    1  0.2045212E-008  0.1132621E+04  0.7818608E-02  0.9173968E-01
          2   -1    0    0  501    0  0.00000000000E+00  0.00000000000E+00  0.32024913137E+04  0.32024913137E+04  0.00000000000E+00 0.  1.
         -2   -1    0    0    0  501 -0.00000000000E+00 -0.00000000000E+00 -0.10014313074E+03  0.10014313074E+03  0.00000000000E+00 0. -1.
         23    2    1    2    0    0  0.73195702990E+02  0.17385905496E+03  0.43783742851E+03  0.48546180942E+03  0.91580416452E+02 0.  0.
        254    2    1    2    0    0 -0.73195702990E+02 -0.17385905496E+03  0.26645107544E+04  0.28171726350E+04  0.89513100324E+03 0.  0.
         24    2    4    4    0    0  0.17313949035E+03 -0.29686474321E+03  0.69125617300E+03  0.77598176121E+03  0.78782219729E+02 0.  0.
         13    1    3    3    0    0  0.84691661328E+02  0.16244002536E+03  0.33924875828E+03  0.38555046276E+03  0.00000000000E+00 0. -1.
        -13    1    3    3    0    0 -0.11495958338E+02  0.11419029597E+02  0.98588670226E+02  0.99911346663E+02  0.00000000000E+00 0.  1.
          4    1    5    5  502    0  0.10822965262E+03 -0.16282428910E+03  0.47238562043E+03  0.51124708431E+03  0.00000000000E+00 0. -1.
          1    1    4    4  503    0 -0.18631345362E+03  0.23116861193E+03  0.18208760207E+04  0.18449230642E+04  0.00000000000E+00 0. -1.
         -2    1    4    4    0  503 -0.60021739728E+02 -0.10816292367E+03  0.15237856072E+03  0.19626780955E+03  0.00000000000E+00 0.  1.
         -3    1    5    5    0  502  0.64909837736E+02 -0.13404045411E+03  0.21887055257E+03  0.26473467690E+03  0.00000000000E+00 0.  1.
<mgrwt>
<rscale>  0 0.11326209E+04</rscale>
<asrwt>0</asrwt>
<pdfrwt beam="1">  1        2 0.49269089E+00 0.11326209E+04</pdfrwt>
<pdfrwt beam="2">  1       -2 0.15406638E-01 0.11326209E+04</pdfrwt>
<totfact> 0.43911559E+01</totfact>
</mgrwt>
</event>
<event>
12    1  0.2045212E-008  0.1454601E+04  0.7818608E-02  0.8915217E-01
         -2   -1    0    0    0  501 -0.00000000000E+00  0.00000000000E+00  0.21423402248E+04  0.21423402248E+04  0.00000000000E+00 0. -1.
          2   -1    0    0  501    0  0.00000000000E+00 -0.00000000000E+00 -0.24691042063E+03  0.24691042063E+03  0.00000000000E+00 0.  1.
         23    2    1    2    0    0  0.41281024197E+02 -0.12509552124E+03  0.12350759126E+04  0.12453686474E+04  0.90429784246E+02 0.  0.
        254    2    1    2    0    0 -0.41281024197E+02  0.12509552124E+03  0.66035389158E+03  0.11438819980E+04  0.92468683927E+03 0.  0.
        -24    2    4    4    0    0  0.22764383285E+03  0.32706618061E+03  0.68271437222E+03  0.79751326178E+03  0.10552008123E+03 0.  0.
         24    2    4    4    0    0 -0.26892485705E+03 -0.20197065937E+03 -0.22360480644E+02  0.34636873617E+03  0.79740731830E+02 0.  0.
         13    1    3    3    0    0 -0.16194127811E+02 -0.51131569730E+02  0.70843296410E+03  0.71046038019E+03  0.00000000000E+00 0. -1.
        -13    1    3    3    0    0  0.57475152008E+02 -0.73963951509E+02  0.52664294845E+03  0.53490826725E+03  0.00000000000E+00 0.  1.
          4    1    6    6  502    0 -0.18776903948E+03 -0.15508684799E+03 -0.50080246082E+02  0.24863059678E+03  0.00000000000E+00 0. -1.
          3    1    5    5  503    0  0.23553472351E+03  0.28786626894E+03  0.60715832656E+03  0.71202867097E+03  0.00000000000E+00 0. -1.
         -4    1    5    5    0  503 -0.78908906516E+01  0.39199911676E+02  0.75556045658E+02  0.85484590812E+02  0.00000000000E+00 0.  1.
         -3    1    6    6    0  502 -0.81155817576E+02 -0.46883811382E+02  0.27719765437E+02  0.97738139393E+02  0.00000000000E+00 0.  1.
<mgrwt>
<rscale>  0 0.14546011E+04</rscale>
<asrwt>0</asrwt>
<pdfrwt beam="1">  1        2 0.37986220E-01 0.14546011E+04</pdfrwt>
<pdfrwt beam="2">  1       -2 0.32959079E+00 0.14546011E+04</pdfrwt>
<totfact> 0.27806754E+00</totfact>
</mgrwt>
</event>
<event>
11    1  0.2045212E-008  0.1777826E+04  0.7818608E-02  0.8718181E-01
          1   -1    0    0  501    0  0.00000000000E+00  0.00000000000E+00  0.12478403092E+04  0.12478403092E+04  0.00000000000E+00 0. -1.
         -1   -1    0    0    0  501 -0.00000000000E+00 -0.00000000000E+00 -0.63322729714E+03  0.63322729714E+03  0.00000000000E+00 0.  1.
         23    2    1    2    0    0 -0.44512966584E+03  0.24733208239E+03 -0.20944534413E+03  0.55854251561E+03  0.93748659582E+02 0.  0.
        254    2    1    2    0    0  0.44512966584E+03 -0.24733208239E+03  0.82405835617E+03  0.13225250907E+04  0.90038150958E+03 0.  0.
         24    2    4    4    0    0  0.39144521096E+03 -0.12238537025E+03 -0.64938406536E+02  0.42287304890E+03  0.79981790501E+02 0.  0.
         13    1    3    3    0    0 -0.44953967643E+03  0.24782470875E+03 -0.20715345595E+03  0.55354815623E+03  0.00000000000E+00 0.  1.
        -13    1    3    3    0    0  0.44100105929E+01 -0.49262635899E+00 -0.22918881826E+01  0.49943593784E+01  0.00000000000E+00 0. -1.
          4    1    5    5  502    0  0.12736940646E+03 -0.75979996871E+02 -0.39904148194E+02  0.15358472147E+03  0.00000000000E+00 0. -1.
          3    1    4    4  503    0  0.23433296324E+02 -0.56660222635E+02  0.32519916193E+03  0.33092898804E+03  0.00000000000E+00 0. -1.
         -4    1    4    4    0  503  0.30251158558E+02 -0.68286489505E+02  0.56379760078E+03  0.56872305377E+03  0.00000000000E+00 0.  1.
         -3    1    5    5    0  502  0.26407580450E+03 -0.46405373382E+02 -0.25034258342E+02  0.26928832743E+03  0.00000000000E+00 0.  1.
<mgrwt>
<rscale>  0 0.17778263E+04</rscale>
<asrwt>0</asrwt>
<pdfrwt beam="1">  1        1 0.19197543E+00 0.17778263E+04</pdfrwt>
<pdfrwt beam="2">  1       -1 0.97419585E-01 0.17778263E+04</pdfrwt>
<totfact> 0.94328399E+00</totfact>
</mgrwt>
</event>
<event>
11    1  0.2045212E-008  0.1386063E+04  0.7818608E-02  0.8963969E-01
         -4   -1    0    0    0  501 -0.00000000000E+00  0.00000000000E+00  0.40833316611E+03  0.40833316611E+03  0.00000000000E+00 0. -1.
          4   -1    0    0  501    0  0.00000000000E+00 -0.00000000000E+00 -0.11762267074E+04  0.11762267074E+04  0.00000000000E+00 0.  1.
         23    2    1    2    0    0  0.12687109846E+03 -0.30618892348E+03 -0.45262158902E+03  0.57075336339E+03  0.10509598701E+03 0.  0.
        254    2    1    2    0    0 -0.12687109846E+03  0.30618892348E+03 -0.31527195230E+03  0.10138065101E+04  0.90474267260E+03 0.  0.
         24    2    4    4    0    0  0.22642999254E+03 -0.16952908903E+03 -0.12380581410E+03  0.31879852787E+03  0.79334533583E+02 0.  0.
         13    1    3    3    0    0  0.28672491095E+01 -0.56844039433E+02 -0.29215244567E+02  0.63976530475E+02  0.00000000000E+00 0. -1.
        -13    1    3    3    0    0  0.12400384935E+03 -0.24934488404E+03 -0.42340634446E+03  0.50677683291E+03  0.00000000000E+00 0.  1.
          4    1    5    5  502    0  0.16241487786E+03 -0.82592307760E+02 -0.53269307363E+02  0.18983598436E+03  0.00000000000E+00 0. -1.
          1    1    4    4  503    0 -0.27328792904E+03  0.31531176708E+03 -0.27242344280E+03  0.49831951076E+03  0.00000000000E+00 0. -1.
         -2    1    4    4    0  503 -0.80013161951E+02  0.16040624543E+03  0.80957304601E+02  0.19668847151E+03  0.00000000000E+00 0.  1.
         -3    1    5    5    0  502  0.64015114673E+02 -0.86936781275E+02 -0.70536506741E+02  0.12896254351E+03  0.00000000000E+00 0.  1.
<mgrwt>
<rscale>  0 0.13860626E+04</rscale>
<asrwt>0</asrwt>
<pdfrwt beam="1">  1        4 0.18095795E+00 0.13860626E+04</pdfrwt>
<pdfrwt beam="2">  1       -4 0.62820487E-01 0.13860626E+04</pdfrwt>
<totfact> 0.81823229E-01</totfact>
</mgrwt>
</event>
<event>
12    1  0.2045212E-008  0.1651815E+04  0.7818608E-02  0.8789334E-01
         -2   -1    0    0    0  501 -0.00000000000E+00  0.00000000000E+00  0.10235944965E+04  0.10235944965E+04  0.00000000000E+00 0. -1.
          2   -1    0    0  501    0  0.00000000000E+00 -0.00000000000E+00 -0.66639946167E+03  0.66639946167E+03  0.00000000000E+00 0.  1.
         23    2    1    2    0    0 -0.40860093327E+03  0.23603152225E+02  0.53892101060E+03  0.68300851399E+03  0.92482122907E+02 0.  0.
        254    2    1    2    0    0  0.40860093327E+03 -0.23603152225E+02 -0.18172597576E+03  0.10069854442E+04  0.90193321432E+03 0.  0.
        -24    2    4    4    0    0  0.34139729195E+03 -0.43630284469E+03 -0.81048019926E+02  0.56961889725E+03  0.10480755379E+03 0.  0.
         24    2    4    4    0    0  0.67203641315E+02  0.41269969247E+03 -0.10067795583E+03  0.43736654694E+03  0.79473769410E+02 0.  0.
         13    1    3    3    0    0 -0.30830868615E+03  0.48901140248E+02  0.44305427164E+03  0.54198030877E+03  0.00000000000E+00 0. -1.
        -13    1    3    3    0    0 -0.10029224712E+03 -0.25297988023E+02  0.95866738956E+02  0.14102820522E+03  0.00000000000E+00 0.  1.
          4    1    6    6  502    0 -0.13147526715E+01  0.15909237757E+03 -0.98303840614E+01  0.15940122216E+03  0.00000000000E+00 0. -1.
          3    1    5    5  503    0  0.76418454799E+02 -0.78381148546E+02 -0.57529630561E+02  0.12366504386E+03  0.00000000000E+00 0. -1.
         -2    1    5    5    0  503  0.26497883715E+03 -0.35792169615E+03 -0.23518389365E+02  0.44595385339E+03  0.00000000000E+00 0.  1.
         -3    1    6    6    0  502  0.68518393987E+02  0.25360731490E+03 -0.90847571768E+02  0.27796532478E+03  0.00000000000E+00 0.  1.
<mgrwt>
<rscale>  0 0.16518145E+04</rscale>
<asrwt>0</asrwt>
<pdfrwt beam="1">  1        2 0.10252299E+00 0.16518145E+04</pdfrwt>
<pdfrwt beam="2">  1       -2 0.15747608E+00 0.16518145E+04</pdfrwt>
<totfact> 0.10942811E+01</totfact>
</mgrwt>
</event>
<event>
11    1  0.2045212E-008  0.1315182E+04  0.7818608E-02  0.9017612E-01
         -2   -1    0    0    0  501 -0.00000000000E+00  0.00000000000E+00  0.10241636685E+04  0.10241636685E+04  0.00000000000E+00 0.  1.
          2   -1    0    0  501    0  0.00000000000E+00 -0.00000000000E+00 -0.42222323281E+03  0.42222323281E+03  0.00000000000E+00 0. -1.
         23    2    1    2    0    0  0.55428812290E+02  0.25715845124E+03 -0.83594793718E+02  0.29067803318E+03  0.91119740785E+02 0.  0.
        254    2    1    2    0    0 -0.55428812290E+02 -0.25715845124E+03  0.68553522941E+03  0.11557088681E+04  0.89246939155E+03 0.  0.
         24    2    4    4    0    0 -0.56869991766E+02 -0.54025125928E+03  0.20987423621E+03  0.58771928970E+03  0.79127424740E+02 0.  0.
         13    1    3    3    0    0  0.60046400203E+02  0.94070667980E+02 -0.11126438328E+02  0.11215461819E+03  0.00000000000E+00 0.  1.
        -13    1    3    3    0    0 -0.46175879130E+01  0.16308778326E+03 -0.72468355390E+02  0.17852341499E+03  0.00000000000E+00 0. -1.
          4    1    5    5  502    0  0.62676130976E+01 -0.63665749901E+02  0.49626621868E+02  0.80965500570E+02  0.00000000000E+00 0. -1.
          3    1    4    4  503    0 -0.28288586871E+02  0.57013681589E+01  0.26149599635E+02  0.38942923710E+02  0.00000000000E+00 0. -1.
         -4    1    4    4    0  503  0.29729766348E+02  0.27739143988E+03  0.44951139356E+03  0.52904665472E+03  0.00000000000E+00 0.  1.
         -3    1    5    5    0  502 -0.63137604864E+02 -0.47658550938E+03  0.16024761434E+03  0.50675378913E+03  0.00000000000E+00 0.  1.
<mgrwt>
<rscale>  0 0.13151817E+04</rscale>
<asrwt>0</asrwt>
<pdfrwt beam="1">  1        2 0.64957420E-01 0.13151817E+04</pdfrwt>
<pdfrwt beam="2">  1       -2 0.15756364E+00 0.13151817E+04</pdfrwt>
<totfact> 0.19211404E+01</totfact>
</mgrwt>
</event>
<event>
12    1  0.2045212E-008  0.2008128E+04  0.7818608E-02  0.8602830E-01
         -1   -1    0    0    0  501 -0.00000000000E+00  0.00000000000E+00  0.62702994114E+03  0.62702994114E+03  0.00000000000E+00 0.  1.
          1   -1    0    0  501    0  0.00000000000E+00 -0.00000000000E+00 -0.16078092901E+04  0.16078092901E+04  0.00000000000E+00 0. -1.
         23    2    1    2    0    0  0.74111025196E+02 -0.14765231396E+03  0.47716940593E+03  0.51269013450E+03  0.88695446247E+02 0.  0.
        254    2    1    2    0    0 -0.74111025196E+02  0.14765231396E+03 -0.14579487548E+04  0.17221490967E+04  0.90160373204E+03 0.  0.
        -24    2    4    4    0    0 -0.17200345846E+03  0.35529908524E+02  0.50143029529E+02  0.20452434772E+03  0.92023482217E+02 0.  0.
         24    2    4    4    0    0  0.97892433263E+02  0.11212240543E+03 -0.15080917844E+04  0.15176247490E+04  0.81790502619E+02 0.  0.
         11    1    3    3    0    0  0.46687918339E+02 -0.14465160810E+03  0.44536312526E+03  0.47058704061E+03  0.00000000000E+00 0.  1.
        -11    1    3    3    0    0  0.27423106857E+02 -0.30007058590E+01  0.31806280665E+02  0.42103093890E+02  0.00000000000E+00 0. -1.
          2    1    6    6  502    0  0.40385145745E+02  0.10245755722E+03 -0.10745477769E+04  0.10801765763E+04  0.00000000000E+00 0. -1.
          3    1    5    5  503    0 -0.80331479381E+02  0.30258480333E+01  0.68413850998E+02  0.10555925987E+03  0.00000000000E+00 0. -1.
         -4    1    5    5    0  503 -0.91671979078E+02  0.32504060491E+02 -0.18270821469E+02  0.98965087853E+02  0.00000000000E+00 0.  1.
         -3    1    6    6    0  502  0.57507287518E+02  0.96648482097E+01 -0.43354400742E+03  0.43744817268E+03  0.00000000000E+00 0.  1.
<mgrwt>
<rscale>  0 0.20081280E+04</rscale>
<asrwt>0</asrwt>
<pdfrwt beam="1">  1        1 0.24735527E+00 0.20081280E+04</pdfrwt>
<pdfrwt beam="2">  1       -1 0.96466147E-01 0.20081280E+04</pdfrwt>
<totfact> 0.52846761E+00</totfact>
</mgrwt>
</event>
<event>
12    1  0.2045212E-008  0.1916106E+04  0.7818608E-02  0.8646881E-01
         -1   -1    0    0    0  501 -0.00000000000E+00  0.00000000000E+00  0.14721566395E+04  0.14721566395E+04  0.00000000000E+00 0.  1.
          1   -1    0    0  501    0  0.00000000000E+00 -0.00000000000E+00 -0.62348385529E+03  0.62348385529E+03  0.00000000000E+00 0. -1.
         23    2    1    2    0    0  0.17401595257E+03  0.70925798704E+02  0.11210502605E+04  0.11405074552E+04  0.93228473605E+02 0.  0.
        254    2    1    2    0    0 -0.17401595257E+03 -0.70925798704E+02 -0.27237747630E+03  0.95513303951E+03  0.89597857837E+03 0.  0.
        -24    2    4    4    0    0  0.22876916157E+03  0.28265502115E+03 -0.16366595473E+03  0.40239599909E+03  0.53914794619E+02 0.  0.
         24    2    4    4    0    0 -0.40278511415E+03 -0.35358081986E+03 -0.10871152157E+03  0.55273704042E+03  0.80279490412E+02 0.  0.
         11    1    3    3    0    0  0.11106237130E+03  0.76069202367E+02  0.56186151251E+03  0.57776269619E+03  0.00000000000E+00 0. -1.
        -11    1    3    3    0    0  0.62953581272E+02 -0.51434036631E+01  0.55918874796E+03  0.56274475905E+03  0.00000000000E+00 0.  1.
          2    1    6    6  502    0 -0.46488189391E+02 -0.33172420941E+02 -0.37444499269E+02  0.68290934899E+02  0.00000000000E+00 0. -1.
          1    1    5    5  503    0  0.29472713503E+02  0.12905096503E+02 -0.16177268711E+02  0.36012308729E+02  0.00000000000E+00 0. -1.
         -2    1    5    5    0  503  0.19929644807E+03  0.26974992465E+03 -0.14748868602E+03  0.36638369036E+03  0.00000000000E+00 0.  1.
         -1    1    6    6    0  502 -0.35629692476E+03 -0.32040839892E+03 -0.71267022306E+02  0.48444610552E+03  0.00000000000E+00 0.  1.
<mgrwt>
<rscale>  0 0.19161064E+04</rscale>
<asrwt>0</asrwt>
<pdfrwt beam="1">  1        1 0.95920593E-01 0.19161064E+04</pdfrwt>
<pdfrwt beam="2">  1       -1 0.22648564E+00 0.19161064E+04</pdfrwt>
<totfact> 0.30135675E+00</totfact>
</mgrwt>
</event>
<event>
11    1  0.2045212E-008  0.1953007E+04  0.7818608E-02  0.8628912E-01
          1   -1    0    0  501    0  0.00000000000E+00  0.00000000000E+00  0.13948676634E+04  0.13948676634E+04  0.00000000000E+00 0. -1.
         -1   -1    0    0    0  501 -0.00000000000E+00 -0.00000000000E+00 -0.68361957636E+03  0.68361957636E+03  0.00000000000E+00 0.  1.
         23    2    1    2    0    0 -0.14419789027E+03 -0.16625304158E+03 -0.49896271950E+03  0.55293892519E+03  0.91348531177E+02 0.  0.
        254    2    1    2    0    0  0.14419789027E+03  0.16625304158E+03  0.12102108066E+04  0.15255483146E+04  0.90236043708E+03 0.  0.
         24    2    4    4    0    0  0.20748566776E+03  0.17432710525E+03 -0.23801968849E+02  0.28336944791E+03  0.79318776688E+02 0.  0.
         11    1    3    3    0    0 -0.12591055412E+03 -0.17038249185E+03 -0.40437927324E+03  0.45651534235E+03  0.00000000000E+00 0.  1.
        -11    1    3    3    0    0 -0.18287336154E+02  0.41294502729E+01 -0.94583446258E+02  0.96423582848E+02  0.00000000000E+00 0. -1.
          2    1    5    5  502    0  0.20320264429E+03  0.14851063302E+03 -0.60746875208E+01  0.25176104662E+03  0.00000000000E+00 0. -1.
          3    1    4    4  503    0  0.38337477369E+02  0.12824991926E+01  0.43182946919E+03  0.43352981147E+03  0.00000000000E+00 0. -1.
         -4    1    4    4    0  503 -0.10162525485E+03 -0.93565628666E+01  0.80218330624E+03  0.80864905522E+03  0.00000000000E+00 0.  1.
         -1    1    5    5    0  502  0.42830234649E+01  0.25816472229E+02 -0.17727281328E+02  0.31608401283E+02  0.00000000000E+00 0.  1.
<mgrwt>
<rscale>  0 0.19530067E+04</rscale>
<asrwt>0</asrwt>
<pdfrwt beam="1">  1        1 0.21459502E+00 0.19530067E+04</pdfrwt>
<pdfrwt beam="2">  1       -1 0.10517224E+00 0.19530067E+04</pdfrwt>
<totfact> 0.61196206E+00</totfact>
</mgrwt>
</event>
<event>
11    1  0.2045212E-008  0.2325755E+04  0.7818608E-02  0.8467835E-01
         -1   -1    0    0    0  501 -0.00000000000E+00  0.00000000000E+00  0.58973469250E+03  0.58973469250E+03  0.00000000000E+00 0.  1.
          1   -1    0    0  501    0  0.00000000000E+00 -0.00000000000E+00 -0.22930380876E+04  0.22930380876E+04  0.00000000000E+00 0. -1.
         23    2    1    2    0    0 -0.57411331998E+03  0.10836526159E+03  0.25955679915E+03  0.64581385127E+03  0.91414793174E+02 0.  0.
        254    2    1    2    0    0  0.57411331998E+03 -0.10836526159E+03 -0.19628601942E+04  0.22369589288E+04  0.89989775695E+03 0.  0.
         24    2    4    4    0    0  0.35515670924E+03 -0.33988285964E+03 -0.17660705317E+04  0.18349351961E+04  0.79532412166E+02 0.  0.
         13    1    3    3    0    0 -0.78352735075E+02  0.36791075338E+02  0.13037634959E+02  0.87536930741E+02  0.00000000000E+00 0. -1.
        -13    1    3    3    0    0 -0.49576058491E+03  0.71574186248E+02  0.24651916419E+03  0.55827692053E+03  0.00000000000E+00 0.  1.
          4    1    5    5  502    0  0.17392958312E+03 -0.21597113339E+03 -0.10468338433E+04  0.10829386529E+04  0.00000000000E+00 0. -1.
          3    1    4    4  503    0 -0.12051683084E+02  0.62873290662E+02 -0.44744375927E+02  0.78104756071E+02  0.00000000000E+00 0. -1.
         -4    1    4    4    0  503  0.23100829383E+03  0.16864430740E+03 -0.15204528659E+03  0.32391897661E+03  0.00000000000E+00 0.  1.
         -3    1    5    5    0  502  0.18122712612E+03 -0.12391172625E+03 -0.71923668839E+03  0.75199654325E+03  0.00000000000E+00 0.  1.
<mgrwt>
<rscale>  0 0.23257550E+04</rscale>
<asrwt>0</asrwt>
<pdfrwt beam="1">  1        1 0.35277509E+00 0.23257550E+04</pdfrwt>
<pdfrwt beam="2">  1       -1 0.90728413E-01 0.23257550E+04</pdfrwt>
<totfact> 0.20133022E+00</totfact>
</mgrwt>
</event>
<event>
11    1  0.2045212E-008  0.1670329E+04  0.7818608E-02  0.8778470E-01
         -2   -1    0    0    0  501 -0.00000000000E+00  0.00000000000E+00  0.27557806857E+03  0.27557806857E+03  0.00000000000E+00 0. -1.
          2   -1    0    0  501    0  0.00000000000E+00 -0.00000000000E+00 -0.25310432585E+04  0.25310432585E+04  0.00000000000E+00 0.  1.
         23    2    1    2    0    0  0.33007827689E+03  0.23050293947E+03 -0.95402035602E+02  0.42491597102E+03  0.96792355337E+02 0.  0.
        254    2    1    2    0    0 -0.33007827689E+03 -0.23050293947E+03 -0.21600631543E+04  0.23817053560E+04  0.91900179456E+03 0.  0.
         24    2    4    4    0    0  0.19306107816E+03 -0.24487006374E+03 -0.80690969168E+03  0.86850466432E+03  0.77221586378E+02 0.  0.
         11    1    3    3    0    0  0.40836818541E+01  0.12220354168E+02 -0.22421104052E+02  0.25859609827E+02  0.00000000000E+00 0.  1.
        -11    1    3    3    0    0  0.32599459504E+03  0.21828258530E+03 -0.72980931550E+02  0.39905636119E+03  0.00000000000E+00 0. -1.
          4    1    5    5  502    0  0.18846158562E+03 -0.19726933951E+03 -0.66663301552E+03  0.72030031164E+03  0.00000000000E+00 0. -1.
          3    1    4    4  503    0 -0.34821405357E+03  0.19152486156E+03 -0.10386436902E+04  0.11120771173E+04  0.00000000000E+00 0. -1.
         -2    1    4    4    0  503 -0.17492530148E+03 -0.17715773729E+03 -0.31450977242E+03  0.40112357439E+03  0.00000000000E+00 0.  1.
         -3    1    5    5    0  502  0.45994925328E+01 -0.47600724236E+02 -0.14027667616E+03  0.14820435268E+03  0.00000000000E+00 0.  1.
<mgrwt>
<rscale>  0 0.16703293E+04</rscale>
<asrwt>0</asrwt>
<pdfrwt beam="1">  1        2 0.38939126E+00 0.16703293E+04</pdfrwt>
<pdfrwt beam="2">  1       -2 0.42396627E-01 0.16703293E+04</pdfrwt>
<totfact> 0.16828608E+01</totfact>
</mgrwt>
</event>
<event>
12    1  0.2045212E-008  0.2938669E+04  0.7818608E-02  0.8261464E-01
          1   -1    0    0  501    0  0.00000000000E+00  0.00000000000E+00  0.24871068822E+04  0.24871068822E+04  0.00000000000E+00 0. -1.
         -1   -1    0    0    0  501 -0.00000000000E+00 -0.00000000000E+00 -0.86805424432E+03  0.86805424432E+03  0.00000000000E+00 0.  1.
         23    2    1    2    0    0 -0.10686953100E+04 -0.81027131064E+03  0.72532127115E+03  0.15273399688E+04  0.89594484232E+02 0.  0.
        254    2    1    2    0    0  0.10686953100E+04  0.81027131064E+03  0.89373136679E+03  0.18278211578E+04  0.86227905367E+03 0.  0.
        -24    2    4    4    0    0  0.71595318829E+03  0.94270127508E+02  0.16433410050E+03  0.74368060592E+03  0.67670689836E+02 0.  0.
         24    2    4    4    0    0  0.35274212166E+03  0.71600118313E+03  0.72939726629E+03  0.10841405518E+04  0.79092764761E+02 0.  0.
         11    1    3    3    0    0 -0.86387553951E+03 -0.65797759270E+03  0.62621842498E+03  0.12535409750E+04  0.00000000000E+00 0. -1.
        -11    1    3    3    0    0 -0.20481977045E+03 -0.15229371794E+03  0.99102846172E+02  0.27379899380E+03  0.00000000000E+00 0.  1.
          4    1    6    6  502    0  0.22286998461E+03  0.50357434280E+03  0.46252687127E+03  0.71915871365E+03  0.00000000000E+00 0. -1.
          3    1    5    5  503    0  0.60435649474E+03  0.92944723628E+02  0.15973359566E+03  0.63198126235E+03  0.00000000000E+00 0. -1.
         -4    1    5    5    0  503  0.11159669356E+03  0.13254038801E+01  0.46005048375E+01  0.11169934357E+03  0.00000000000E+00 0.  1.
         -3    1    6    6    0  502  0.12987213705E+03  0.21242684033E+03  0.26687039501E+03  0.36498183819E+03  0.00000000000E+00 0.  1.
<mgrwt>
<rscale>  0 0.29386689E+04</rscale>
<asrwt>0</asrwt>
<pdfrwt beam="1">  1        1 0.38263182E+00 0.29386689E+04</pdfrwt>
<pdfrwt beam="2">  1       -1 0.13354681E+00 0.29386689E+04</pdfrwt>
<totfact> 0.56010398E-01</totfact>
</mgrwt>
</event>
<event>
12    1  0.2045212E-008  0.2284699E+04  0.7818608E-02  0.8483979E-01
          2   -1    0    0  501    0  0.00000000000E+00  0.00000000000E+00  0.75447407511E+03  0.75447407511E+03  0.00000000000E+00 0. -1.
         -2   -1    0    0    0  501 -0.00000000000E+00 -0.00000000000E+00 -0.17296312742E+04  0.17296312742E+04  0.00000000000E+00 0.  1.
         23    2    1    2    0    0 -0.89692248644E+03  0.22794265048E+03 -0.70370981113E+03  0.11661140002E+04  0.90479636446E+02 0.  0.
        254    2    1    2    0    0  0.89692248644E+03 -0.22794265048E+03 -0.27144738798E+03  0.13179913491E+04  0.89832606184E+03 0.  0.
        -24    2    4    4    0    0  0.44874468521E+03  0.15591214197E+03  0.23132562522E+03  0.53871676350E+03  0.10499437067E+03 0.  0.
         24    2    4    4    0    0  0.44817780122E+03 -0.38385479245E+03 -0.50277301320E+03  0.77927458563E+03  0.79248557169E+02 0.  0.
         13    1    3    3    0    0 -0.97728724381E+01 -0.43118155726E+01 -0.18446430906E+02  0.21315994051E+02  0.00000000000E+00 0. -1.
        -13    1    3    3    0    0 -0.88714961400E+03  0.23225446605E+03 -0.68526338023E+03  0.11447980062E+04  0.00000000000E+00 0.  1.
          2    1    6    6  502    0  0.37827930344E+03 -0.35221344048E+03 -0.45703506459E+03  0.68994970058E+03  0.00000000000E+00 0. -1.
          1    1    5    5  503    0  0.18760064328E+03  0.63486954914E+02  0.40001061702E+02  0.20205118099E+03  0.00000000000E+00 0. -1.
         -2    1    5    5    0  503  0.26114404193E+03  0.92425187059E+02  0.19132456352E+03  0.33666558251E+03  0.00000000000E+00 0.  1.
         -1    1    6    6    0  502  0.69898497779E+02 -0.31641351974E+02 -0.45737948613E+02  0.89324885053E+02  0.00000000000E+00 0.  1.
<mgrwt>
<rscale>  0 0.22846986E+04</rscale>
<asrwt>0</asrwt>
<pdfrwt beam="1">  1        2 0.11607294E+00 0.22846986E+04</pdfrwt>
<pdfrwt beam="2">  1       -2 0.26609711E+00 0.22846986E+04</pdfrwt>
<totfact> 0.17294829E+00</totfact>
</mgrwt>
</event>
<event>
12    1  0.2045212E-008  0.1415736E+04  0.7818608E-02  0.8942506E-01
         -1   -1    0    0    0  501 -0.00000000000E+00  0.00000000000E+00  0.34227265996E+03  0.34227265996E+03  0.00000000000E+00 0.  1.
          1   -1    0    0  501    0  0.00000000000E+00 -0.00000000000E+00 -0.14639705764E+04  0.14639705764E+04  0.00000000000E+00 0. -1.
         23    2    1    2    0    0  0.40867959705E+03 -0.70285552144E+02 -0.27657663409E+03  0.50658364966E+03  0.90406236974E+02 0.  0.
        254    2    1    2    0    0 -0.40867959705E+03  0.70285552144E+02 -0.84512128231E+03  0.12996595867E+04  0.89606137486E+03 0.  0.
        -24    2    4    4    0    0  0.13292183349E+03  0.79501608203E+02  0.10086671408E+03  0.20629600740E+03  0.91625482999E+02 0.  0.
         24    2    4    4    0    0 -0.54160143054E+03 -0.92160560589E+01 -0.94598799639E+03  0.10933635793E+04  0.84460534647E+02 0.  0.
         13    1    3    3    0    0  0.38185988735E+03 -0.66790273294E+02 -0.22467823780E+03  0.44806051457E+03  0.00000000000E+00 0.  1.
        -13    1    3    3    0    0  0.26819709706E+02 -0.34952788499E+01 -0.51898396293E+02  0.58523135090E+02  0.00000000000E+00 0. -1.
          4    1    6    6  502    0 -0.50200888240E+03 -0.31138769975E+01 -0.82313463855E+03  0.96414378980E+03  0.00000000000E+00 0. -1.
          1    1    5    5  503    0  0.11425107896E+03  0.98699624606E+02  0.73191819368E+02  0.16778548019E+03  0.00000000000E+00 0. -1.
         -2    1    5    5    0  503  0.18670754525E+02 -0.19198016403E+02  0.27674894709E+02  0.38510527204E+02  0.00000000000E+00 0.  1.
         -3    1    6    6    0  502 -0.39592548140E+02 -0.61021790614E+01 -0.12285335784E+03  0.12921978947E+03  0.00000000000E+00 0.  1.
<mgrwt>
<rscale>  0 0.14157360E+04</rscale>
<asrwt>0</asrwt>
<pdfrwt beam="1">  1        1 0.22522624E+00 0.14157360E+04</pdfrwt>
<pdfrwt beam="2">  1       -1 0.52657332E-01 0.14157360E+04</pdfrwt>
<totfact> 0.24528333E+01</totfact>
</mgrwt>
</event>
<event>
11    1  0.2045212E-008  0.1503811E+04  0.7818608E-02  0.8881923E-01
          1   -1    0    0  501    0  0.00000000000E+00  0.00000000000E+00  0.42443021871E+03  0.42443021871E+03  0.00000000000E+00 0. -1.
         -1   -1    0    0    0  501 -0.00000000000E+00 -0.00000000000E+00 -0.13320484843E+04  0.13320484843E+04  0.00000000000E+00 0.  1.
         23    2    1    2    0    0 -0.38312826507E+02  0.24781796559E+03 -0.82003229390E+03  0.86308379390E+03  0.97872649399E+02 0.  0.
        254    2    1    2    0    0  0.38312826507E+02 -0.24781796559E+03 -0.87585971731E+02  0.89339490916E+03  0.85299562984E+03 0.  0.
         24    2    4    4    0    0 -0.20734393694E+03 -0.10176584850E+02  0.29364594096E+03  0.36842462548E+03  0.80085547703E+02 0.  0.
         11    1    3    3    0    0 -0.81338368010E+01  0.13011027835E+02 -0.81181268521E+01  0.17359439219E+02  0.00000000000E+00 0. -1.
        -11    1    3    3    0    0 -0.30178989706E+02  0.23480693775E+03 -0.81191416705E+03  0.84572435468E+03  0.00000000000E+00 0.  1.
          4    1    5    5  502    0 -0.33358181278E+02 -0.20323529211E+02  0.19721909125E+02  0.43758059798E+02  0.00000000000E+00 0. -1.
          1    1    4    4  503    0  0.14690630988E+03 -0.11368815864E+03 -0.12573016456E+03  0.22430901805E+03  0.00000000000E+00 0. -1.
         -2    1    4    4    0  503  0.98750453572E+02 -0.12395322210E+03 -0.25550174813E+03  0.30066126563E+03  0.00000000000E+00 0.  1.
         -3    1    5    5    0  502 -0.17398575566E+03  0.10146944361E+02  0.27392403184E+03  0.32466656568E+03  0.00000000000E+00 0.  1.
<mgrwt>
<rscale>  0 0.15038107E+04</rscale>
<asrwt>0</asrwt>
<pdfrwt beam="1">  1        1 0.65296958E-01 0.15038107E+04</pdfrwt>
<pdfrwt beam="2">  1       -1 0.20493053E+00 0.15038107E+04</pdfrwt>
<totfact> 0.74589136E+00</totfact>
</mgrwt>
</event>
<event>
12    1  0.2045212E-008  0.1968538E+04  0.7818608E-02  0.8621473E-01
          2   -1    0    0  501    0  0.00000000000E+00  0.00000000000E+00  0.11934065624E+04  0.11934065624E+04  0.00000000000E+00 0. -1.
         -2   -1    0    0    0  501 -0.00000000000E+00 -0.00000000000E+00 -0.81178188042E+03  0.81178188042E+03  0.00000000000E+00 0.  1.
         23    2    1    2    0    0  0.29302458744E+02  0.66945289005E+03  0.54816215819E+03  0.87056668353E+03  0.91535745528E+02 0.  0.
        254    2    1    2    0    0 -0.29302458744E+02 -0.66945289005E+03 -0.16653747617E+03  0.11346217593E+04  0.90033660355E+03 0.  0.
        -24    2    4    4    0    0 -0.80264545627E+02 -0.87401888318E+03 -0.20345589483E+03  0.90640550407E+03  0.99122304344E+02 0.  0.
         24    2    4    4    0    0  0.50962086883E+02  0.20456599314E+03  0.36918418656E+02  0.22821625526E+03  0.79216852255E+02 0.  0.
         13    1    3    3    0    0  0.53487973317E+02  0.48670203220E+03  0.42965712268E+03  0.65141774193E+03  0.00000000000E+00 0. -1.
        -13    1    3    3    0    0 -0.24185514572E+02  0.18275085784E+03  0.11850503552E+03  0.21914894159E+03  0.00000000000E+00 0.  1.
          2    1    6    6  502    0  0.14051105450E+02  0.10590970680E+03 -0.19684916508E+02  0.10863606904E+03  0.00000000000E+00 0. -1.
          1    1    5    5  503    0  0.21000780354E+02 -0.85719731189E+02 -0.13980626473E+02  0.89355262896E+02  0.00000000000E+00 0. -1.
         -2    1    5    5    0  503 -0.10126532598E+03 -0.78829915200E+03 -0.18947526836E+03  0.81705024117E+03  0.00000000000E+00 0.  1.
         -1    1    6    6    0  502  0.36910981433E+02  0.98656286334E+02  0.56603335165E+02  0.11958018622E+03  0.00000000000E+00 0.  1.
<mgrwt>
<rscale>  0 0.19685384E+04</rscale>
<asrwt>0</asrwt>
<pdfrwt beam="1">  1        2 0.18360101E+00 0.19685384E+04</pdfrwt>
<pdfrwt beam="2">  1       -2 0.12488952E+00 0.19685384E+04</pdfrwt>
<totfact> 0.85565145E+00</totfact>
</mgrwt>
</event>
<event>
11    1  0.2045212E-008  0.1497892E+04  0.7818608E-02  0.8885856E-01
         -2   -1    0    0    0  501 -0.00000000000E+00  0.00000000000E+00  0.32736249185E+03  0.32736249185E+03  0.00000000000E+00 0.  1.
          2   -1    0    0  501    0  0.00000000000E+00 -0.00000000000E+00 -0.17134534817E+04  0.17134534817E+04  0.00000000000E+00 0. -1.
         23    2    1    2    0    0  0.32849487723E+03  0.33810022767E+03 -0.48492892233E+03  0.68242882369E+03  0.91281933469E+02 0.  0.
        254    2    1    2    0    0 -0.32849487723E+03 -0.33810022767E+03 -0.90116206752E+03  0.13583871499E+04  0.90050093207E+03 0.  0.
         24    2    4    4    0    0 -0.54182713530E+03 -0.67995394392E+02 -0.81651625687E+03  0.98554490385E+03  0.79999634789E+02 0.  0.
         13    1    3    3    0    0  0.53843015489E+01  0.25478538632E+02 -0.52619373156E+02  0.58710689532E+02  0.00000000000E+00 0. -1.
        -13    1    3    3    0    0  0.32311057568E+03  0.31262168903E+03 -0.43230954917E+03  0.62371813416E+03  0.00000000000E+00 0.  1.
          4    1    5    5  502    0 -0.98366419307E+02 -0.44095860072E+02 -0.16088619343E+03  0.19366146896E+03  0.00000000000E+00 0. -1.
          1    1    4    4  503    0  0.84876604261E+01 -0.10887838704E+01 -0.28911187914E+02  0.30150996939E+02  0.00000000000E+00 0. -1.
         -2    1    4    4    0  503  0.20484459764E+03 -0.26901604940E+03 -0.55734622733E+02  0.34269124907E+03  0.00000000000E+00 0.  1.
         -3    1    5    5    0  502 -0.44346071599E+03 -0.23899534320E+02 -0.65563006344E+03  0.79188343489E+03  0.00000000000E+00 0.  1.
<mgrwt>
<rscale>  0 0.14978924E+04</rscale>
<asrwt>0</asrwt>
<pdfrwt beam="1">  1        2 0.26360823E+00 0.14978924E+04</pdfrwt>
<pdfrwt beam="2">  1       -2 0.50363459E-01 0.14978924E+04</pdfrwt>
<totfact> 0.34727620E+01</totfact>
</mgrwt>
</event>
<event>
11    1  0.2045212E-008  0.2668096E+04  0.7818608E-02  0.8345431E-01
          1   -1    0    0  501    0  0.00000000000E+00  0.00000000000E+00  0.13303109698E+04  0.13303109698E+04  0.00000000000E+00 0. -1.
         -1   -1    0    0    0  501 -0.00000000000E+00 -0.00000000000E+00 -0.13377958315E+04  0.13377958315E+04  0.00000000000E+00 0.  1.
         23    2    1    2    0    0  0.53741919317E+03 -0.19037946812E+03  0.10313346376E+04  0.11820293593E+04  0.92078990547E+02 0.  0.
        254    2    1    2    0    0 -0.53741919317E+03  0.19037946812E+03 -0.10388194993E+04  0.14860774420E+04  0.89678117764E+03 0.  0.
         24    2    4    4    0    0 -0.22681497895E+03  0.21639926814E+02 -0.64378478837E+03  0.68750686425E+03  0.79331668045E+02 0.  0.
         13    1    3    3    0    0  0.43099672510E+03 -0.11334329818E+03  0.77537052717E+03  0.89431780408E+03  0.00000000000E+00 0. -1.
        -13    1    3    3    0    0  0.10642246808E+03 -0.77036169933E+02  0.25596411041E+03  0.28771155522E+03  0.00000000000E+00 0.  1.
          4    1    5    5  502    0 -0.55140128682E+00 -0.12121568858E+02 -0.41528759341E+02  0.43265162977E+02  0.00000000000E+00 0. -1.
          1    1    4    4  503    0 -0.47404630676E+03  0.23953522803E+02 -0.25025376395E+03  0.53658235023E+03  0.00000000000E+00 0. -1.
         -2    1    4    4    0  503  0.16344209254E+03  0.14478601850E+03 -0.14478094694E+03  0.26198822753E+03  0.00000000000E+00 0.  1.
         -3    1    5    5    0  502 -0.22626357766E+03  0.33761495671E+02 -0.60225602902E+03  0.64424170128E+03  0.00000000000E+00 0.  1.
<mgrwt>
<rscale>  0 0.26680963E+04</rscale>
<asrwt>0</asrwt>
<pdfrwt beam="1">  1        1 0.20466323E+00 0.26680963E+04</pdfrwt>
<pdfrwt beam="2">  1       -1 0.20581474E+00 0.26680963E+04</pdfrwt>
<totfact> 0.10344668E+00</totfact>
</mgrwt>
</event>
<event>
11    1  0.2045212E-008  0.1963684E+04  0.7818608E-02  0.8623790E-01
         -1   -1    0    0    0  501 -0.00000000000E+00  0.00000000000E+00  0.17894487982E+04  0.17894487982E+04  0.00000000000E+00 0.  1.
          1   -1    0    0  501    0  0.00000000000E+00 -0.00000000000E+00 -0.53872118003E+03  0.53872118003E+03  0.00000000000E+00 0. -1.
         23    2    1    2    0    0 -0.12009944510E+03 -0.35136799942E+03  0.13191677240E+04  0.13733459056E+04  0.89398795665E+02 0.  0.
        254    2    1    2    0    0  0.12009944510E+03  0.35136799942E+03 -0.68440105811E+02  0.95482407264E+03  0.87699578898E+03 0.  0.
         24    2    4    4    0    0 -0.10215947123E+03  0.40033311983E+03 -0.35841499793E+03  0.55284056510E+03  0.80425215480E+02 0.  0.
         11    1    3    3    0    0 -0.46470329671E+01 -0.57299441811E+02  0.32950265000E+03  0.33447992063E+03  0.00000000000E+00 0. -1.
        -11    1    3    3    0    0 -0.11545241213E+03 -0.29406855761E+03  0.98966507399E+03  0.10388659850E+04  0.00000000000E+00 0.  1.
          4    1    5    5  502    0 -0.27614398195E+02  0.26738220271E+02 -0.47544007890E+02  0.61138532017E+02  0.00000000000E+00 0. -1.
          3    1    4    4  503    0  0.10214459188E+03  0.45712488650E+02  0.63394747288E+02  0.12861587481E+03  0.00000000000E+00 0. -1.
         -4    1    4    4    0  503  0.12011432445E+03 -0.94677609061E+02  0.22658014483E+03  0.27336763273E+03  0.00000000000E+00 0.  1.
         -3    1    5    5    0  502 -0.74545073030E+02  0.37359489956E+03 -0.31087099004E+03  0.49170203308E+03  0.00000000000E+00 0.  1.
<mgrwt>
<rscale>  0 0.19636843E+04</rscale>
<asrwt>0</asrwt>
<pdfrwt beam="1">  1        1 0.82880182E-01 0.19636843E+04</pdfrwt>
<pdfrwt beam="2">  1       -1 0.27529981E+00 0.19636843E+04</pdfrwt>
<totfact> 0.17749240E+00</totfact>
</mgrwt>
</event>
<event>
11    1  0.2045212E-008  0.2839048E+04  0.7818608E-02  0.8291247E-01
         -2   -1    0    0    0  501 -0.00000000000E+00  0.00000000000E+00  0.17113239285E+04  0.17113239285E+04  0.00000000000E+00 0.  1.
          2   -1    0    0  501    0  0.00000000000E+00 -0.00000000000E+00 -0.11774792913E+04  0.11774792913E+04  0.00000000000E+00 0. -1.
         23    2    1    2    0    0  0.91224738326E+03  0.87844356912E+03  0.95662208632E+02  0.12742759656E+04  0.10377661589E+03 0.  0.
        254    2    1    2    0    0 -0.91224738326E+03 -0.87844356912E+03  0.43818242860E+03  0.16145272541E+04  0.90046433644E+03 0.  0.
         24    2    4    4    0    0 -0.11406270128E+03 -0.18225495067E+03 -0.25576305462E+03  0.34325866540E+03  0.78642255808E+02 0.  0.
         11    1    3    3    0    0  0.23730353018E+03  0.27572300602E+03 -0.49360536357E+01  0.36381383441E+03  0.00000000000E+00 0.  1.
        -11    1    3    3    0    0  0.67494385308E+03  0.60272056310E+03  0.10059826227E+03  0.91046213121E+03  0.00000000000E+00 0. -1.
          4    1    5    5  502    0 -0.62178800488E+02 -0.11994722155E+03 -0.21125859443E+03  0.25076629141E+03  0.00000000000E+00 0. -1.
          1    1    4    4  503    0 -0.74434816441E+03 -0.68140520808E+03  0.65213453169E+03  0.12015184954E+04  0.00000000000E+00 0. -1.
         -2    1    4    4    0  503 -0.53836517567E+02 -0.14783410369E+02  0.41810951527E+02  0.69750093287E+02  0.00000000000E+00 0.  1.
         -3    1    5    5    0  502 -0.51883900793E+02 -0.62307729118E+02 -0.44504460185E+02  0.92492373987E+02  0.00000000000E+00 0.  1.
<mgrwt>
<rscale>  0 0.28390481E+04</rscale>
<asrwt>0</asrwt>
<pdfrwt beam="1">  1        2 0.18115066E+00 0.28390481E+04</pdfrwt>
<pdfrwt beam="2">  1       -2 0.26328061E+00 0.28390481E+04</pdfrwt>
<totfact> 0.90288934E-01</totfact>
</mgrwt>
</event>
<event>
12    1  0.2045212E-008  0.1659586E+04  0.7818608E-02  0.8784756E-01
          2   -1    0    0  501    0  0.00000000000E+00  0.00000000000E+00  0.50480023598E+03  0.50480023598E+03  0.00000000000E+00 0. -1.
         -2   -1    0    0    0  501 -0.00000000000E+00 -0.00000000000E+00 -0.13640169310E+04  0.13640169310E+04  0.00000000000E+00 0.  1.
         23    2    1    2    0    0 -0.21762969934E+03 -0.14014681764E+03  0.28344442998E+03  0.39511866232E+03  0.93670677900E+02 0.  0.
        254    2    1    2    0    0  0.21762969934E+03  0.14014681764E+03 -0.11426611250E+04  0.14736985046E+04  0.89392897900E+03 0.  0.
        -24    2    4    4    0    0  0.13449612933E+03 -0.28749575528E+03 -0.92084725242E+03  0.97854560955E+03  0.94068217699E+02 0.  0.
         24    2    4    4    0    0  0.83133570016E+02  0.42764257292E+03 -0.22181387253E+03  0.49515289506E+03  0.78648806760E+02 0.  0.
         11    1    3    3    0    0 -0.11455974232E+03 -0.40764568894E+02  0.18491790193E+03  0.22131496807E+03  0.00000000000E+00 0. -1.
        -11    1    3    3    0    0 -0.10306995702E+03 -0.99382248748E+02  0.98526528053E+02  0.17380369425E+03  0.00000000000E+00 0.  1.
          4    1    6    6  502    0 -0.70928799431E+01  0.16111462305E+03 -0.77856255291E+02  0.17908050478E+03  0.00000000000E+00 0. -1.
          1    1    5    5  503    0  0.86738256507E+02 -0.85519559777E+02 -0.38952414198E+03  0.40812519824E+03  0.00000000000E+00 0. -1.
         -2    1    5    5    0  503  0.47757872818E+02 -0.20197619550E+03 -0.53132311044E+03  0.57042041132E+03  0.00000000000E+00 0.  1.
         -3    1    6    6    0  502  0.90226449959E+02  0.26652794987E+03 -0.14395761724E+03  0.31607239028E+03  0.00000000000E+00 0.  1.
<mgrwt>
<rscale>  0 0.16595856E+04</rscale>
<asrwt>0</asrwt>
<pdfrwt beam="1">  1        2 0.77661575E-01 0.16595856E+04</pdfrwt>
<pdfrwt beam="2">  1       -2 0.20984876E+00 0.16595856E+04</pdfrwt>
<totfact> 0.66655846E+00</totfact>
</mgrwt>
</event>
<event>
12    1  0.2045212E-008  0.1628764E+04  0.7818608E-02  0.8803069E-01
          1   -1    0    0  501    0  0.00000000000E+00  0.00000000000E+00  0.18677333662E+04  0.18677333662E+04  0.00000000000E+00 0. -1.
         -1   -1    0    0    0  501 -0.00000000000E+00 -0.00000000000E+00 -0.35509254081E+03  0.35509254081E+03  0.00000000000E+00 0.  1.
         23    2    1    2    0    0  0.43956075026E+03 -0.89256511157E+02  0.96649172075E+03  0.10693496664E+04  0.90675712103E+02 0.  0.
        254    2    1    2    0    0 -0.43956075026E+03  0.89256511157E+02  0.54614910467E+03  0.11534762407E+04  0.91161845927E+03 0.  0.
        -24    2    4    4    0    0 -0.50457632383E+02 -0.77058569474E+01  0.70726833716E+03  0.71487631237E+03  0.90632711207E+02 0.  0.
         24    2    4    4    0    0 -0.38910311787E+03  0.96962368104E+02 -0.16111923249E+03  0.43859992829E+03  0.74883595367E+02 0.  0.
         13    1    3    3    0    0  0.23079554819E+03 -0.18080245664E+02  0.57755924730E+03  0.62222838611E+03  0.00000000000E+00 0. -1.
        -13    1    3    3    0    0  0.20876520207E+03 -0.71176265493E+02  0.38893247345E+03  0.44712128027E+03  0.00000000000E+00 0.  1.
          2    1    6    6  502    0 -0.42277789648E+01  0.47970963536E+01 -0.15733879011E+02  0.16983556669E+02  0.00000000000E+00 0. -1.
          3    1    5    5  503    0 -0.18998940790E+02 -0.38984613225E+02  0.15875339238E+03  0.16457034791E+03  0.00000000000E+00 0. -1.
         -4    1    5    5    0  503 -0.31458691592E+02  0.31278756278E+02  0.54851494478E+03  0.55030596446E+03  0.00000000000E+00 0.  1.
         -1    1    6    6    0  502 -0.38487533891E+03  0.92165271751E+02 -0.14538535348E+03  0.42161637163E+03  0.00000000000E+00 0.  1.
<mgrwt>
<rscale>  0 0.16287642E+04</rscale>
<asrwt>0</asrwt>
<pdfrwt beam="1">  1        1 0.28734359E+00 0.16287642E+04</pdfrwt>
<pdfrwt beam="2">  1       -1 0.54629623E-01 0.16287642E+04</pdfrwt>
<totfact> 0.11876553E+01</totfact>
</mgrwt>
</event>
<event>
12    1  0.2045212E-008  0.1676289E+04  0.7818608E-02  0.8775004E-01
         -2   -1    0    0    0  501 -0.00000000000E+00  0.00000000000E+00  0.30477594418E+03  0.30477594418E+03  0.00000000000E+00 0.  1.
          2   -1    0    0  501    0  0.00000000000E+00 -0.00000000000E+00 -0.23049260429E+04  0.23049260429E+04  0.00000000000E+00 0. -1.
         23    2    1    2    0    0 -0.35459324413E+03 -0.26523536811E+03 -0.10241963126E+03  0.46387306783E+03  0.92748438831E+02 0.  0.
        254    2    1    2    0    0  0.35459324413E+03  0.26523536811E+03 -0.18977304674E+04  0.21458289192E+04  0.89839560010E+03 0.  0.
        -24    2    4    4    0    0  0.64470093877E+03  0.11401520955E+03 -0.13737688415E+04  0.15231796486E+04  0.64781506933E+02 0.  0.
         24    2    4    4    0    0 -0.29010769464E+03  0.15122015856E+03 -0.52396162597E+03  0.62264927064E+03  0.78270798477E+02 0.  0.
         13    1    3    3    0    0 -0.16591121624E+03 -0.10054652199E+03 -0.19064183772E+01  0.19400971416E+03  0.00000000000E+00 0.  1.
        -13    1    3    3    0    0 -0.18868202789E+03 -0.16468884612E+03 -0.10051321288E+03  0.26986335366E+03  0.00000000000E+00 0. -1.
          4    1    6    6  502    0 -0.18138588581E+03  0.68241684082E+02 -0.36245126479E+03  0.41100935070E+03  0.00000000000E+00 0. -1.
          3    1    5    5  503    0  0.41166719424E+03  0.77134328144E+02 -0.80557335191E+03  0.90794713982E+03  0.00000000000E+00 0. -1.
         -4    1    5    5    0  503  0.23303374453E+03  0.36880881405E+02 -0.56819548954E+03  0.61523250876E+03  0.00000000000E+00 0.  1.
         -3    1    6    6    0  502 -0.10872180883E+03  0.82978474480E+02 -0.16151036118E+03  0.21163991993E+03  0.00000000000E+00 0.  1.
<mgrwt>
<rscale>  0 0.16762888E+04</rscale>
<asrwt>0</asrwt>
<pdfrwt beam="1">  1        2 0.35460401E+00 0.16762888E+04</pdfrwt>
<pdfrwt beam="2">  1       -2 0.46888606E-01 0.16762888E+04</pdfrwt>
<totfact> 0.18531892E+01</totfact>
</mgrwt>
</event>
<event>
12    1  0.2045212E-008  0.3148466E+04  0.7818608E-02  0.8202561E-01
          1   -1    0    0  501    0  0.00000000000E+00  0.00000000000E+00  0.18513819684E+04  0.18513819684E+04  0.00000000000E+00 0. -1.
         -1   -1    0    0    0  501 -0.00000000000E+00 -0.00000000000E+00 -0.13385727201E+04  0.13385727201E+04  0.00000000000E+00 0.  1.
         23    2    1    2    0    0  0.95571538615E+03  0.10841608247E+04  0.21889835961E+03  0.14645173517E+04  0.89988823728E+02 0.  0.
        254    2    1    2    0    0 -0.95571538615E+03 -0.10841608247E+04  0.29391088870E+03  0.17254373368E+04  0.89551873201E+03 0.  0.
        -24    2    4    4    0    0 -0.19133066365E+02 -0.66419962808E+03  0.65293723560E+02  0.67061598195E+03  0.62732007309E+02 0.  0.
         24    2    4    4    0    0 -0.93658231978E+03 -0.41996119666E+03  0.22861716514E+03  0.10548213548E+04  0.82634338816E+02 0.  0.
         13    1    3    3    0    0  0.75934316168E+03  0.80720040987E+03  0.18063193968E+03  0.11228545928E+04  0.00000000000E+00 0. -1.
        -13    1    3    3    0    0  0.19637222446E+03  0.27696041487E+03  0.38266419938E+02  0.34166275893E+03  0.00000000000E+00 0.  1.
          4    1    6    6  502    0 -0.58570752199E+02 -0.29605661354E+02 -0.54302283155E+01  0.65852225300E+02  0.00000000000E+00 0. -1.
          1    1    5    5  503    0 -0.50450791256E+00 -0.29295150155E+02 -0.10072849589E+02  0.30982618509E+02  0.00000000000E+00 0. -1.
         -2    1    5    5    0  503 -0.18628558452E+02 -0.63490447792E+03  0.75366573149E+02  0.63963336344E+03  0.00000000000E+00 0.  1.
         -1    1    6    6    0  502 -0.87801156758E+03 -0.39035553531E+03  0.23404739345E+03  0.98896912952E+03  0.00000000000E+00 0.  1.
<mgrwt>
<rscale>  0 0.31484659E+04</rscale>
<asrwt>0</asrwt>
<pdfrwt beam="1">  1        1 0.28482799E+00 0.31484659E+04</pdfrwt>
<pdfrwt beam="2">  1       -1 0.20593427E+00 0.31484659E+04</pdfrwt>
<totfact> 0.43288888E-01</totfact>
</mgrwt>
</event>
<event>
11    1  0.2045212E-008  0.2287085E+04  0.7818608E-02  0.8483031E-01
         -2   -1    0    0    0  501 -0.00000000000E+00  0.00000000000E+00  0.53550112260E+03  0.53550112260E+03  0.00000000000E+00 0.  1.
          2   -1    0    0  501    0  0.00000000000E+00 -0.00000000000E+00 -0.24419927619E+04  0.24419927619E+04  0.00000000000E+00 0. -1.
         23    2    1    2    0    0 -0.83026524373E+03  0.24578590789E+02 -0.14507285244E+04  0.16741577790E+04  0.90810437218E+02 0.  0.
        254    2    1    2    0    0  0.83026524373E+03 -0.24578590789E+02 -0.45576311499E+03  0.13033361055E+04  0.89499748880E+03 0.  0.
         24    2    4    4    0    0  0.53907462805E+03 -0.21917041114E+03 -0.64346266461E+03  0.87125610235E+03  0.80036687899E+02 0.  0.
         11    1    3    3    0    0 -0.80704320779E+03  0.91845694552E+01 -0.14129679185E+04  0.16272312172E+04  0.00000000000E+00 0. -1.
        -11    1    3    3    0    0 -0.23222035943E+02  0.15394021334E+02 -0.37760605866E+02  0.46926561791E+02  0.00000000000E+00 0.  1.
          2    1    5    5  502    0  0.20242725891E+03 -0.71899873810E+02 -0.18335702809E+03  0.28242908270E+03  0.00000000000E+00 0. -1.
          3    1    4    4  503    0  0.38508854844E+02  0.73651886967E+02 -0.17371498210E+02  0.84907604520E+02  0.00000000000E+00 0. -1.
         -4    1    4    4    0  503  0.25268176084E+03  0.12093993339E+03  0.20507104783E+03  0.34717239868E+03  0.00000000000E+00 0.  1.
         -1    1    5    5    0  502  0.33664736913E+03 -0.14727053733E+03 -0.46010563652E+03  0.58882701965E+03  0.00000000000E+00 0.  1.
<mgrwt>
<rscale>  0 0.22870854E+04</rscale>
<asrwt>0</asrwt>
<pdfrwt beam="1">  1        2 0.37569119E+00 0.22870854E+04</pdfrwt>
<pdfrwt beam="2">  1       -2 0.82384789E-01 0.22870854E+04</pdfrwt>
<totfact> 0.44146733E+00</totfact>
</mgrwt>
</event>
<event>
12    1  0.2045212E-008  0.1546287E+04  0.7818608E-02  0.8854243E-01
         -2   -1    0    0    0  501 -0.00000000000E+00  0.00000000000E+00  0.11954684889E+04  0.11954684889E+04  0.00000000000E+00 0.  1.
          2   -1    0    0  501    0  0.00000000000E+00 -0.00000000000E+00 -0.50001404075E+03  0.50001404075E+03  0.00000000000E+00 0. -1.
         23    2    1    2    0    0  0.20282789676E+03  0.33025417716E+03  0.59321305156E+03  0.71372722497E+03  0.85427453984E+02 0.  0.
        254    2    1    2    0    0 -0.20282789676E+03 -0.33025417716E+03  0.10224139655E+03  0.98175530465E+03  0.89620488606E+03 0.  0.
        -24    2    4    4    0    0  0.16784041219E+03  0.22190625897E+03  0.12847641912E+03  0.31228502384E+03  0.60024612547E+02 0.  0.
         24    2    4    4    0    0 -0.37066830894E+03 -0.55216043612E+03 -0.26235022566E+02  0.66947028081E+03  0.72291341125E+02 0.  0.
         11    1    3    3    0    0  0.88319363863E+01 -0.32671265258E+01  0.26613184797E+02  0.28230104873E+02  0.00000000000E+00 0. -1.
        -11    1    3    3    0    0  0.19399596037E+03  0.33352130368E+03  0.56659986676E+03  0.68549712010E+03  0.00000000000E+00 0.  1.
          2    1    6    6  502    0 -0.27779859855E+03 -0.42997289439E+03  0.90681593126E+01  0.51198728772E+03  0.00000000000E+00 0. -1.
          3    1    5    5  503    0  0.13065871258E+03  0.20223808633E+03  0.12133990237E+03  0.26962068660E+03  0.00000000000E+00 0. -1.
         -4    1    5    5    0  503  0.37181699609E+02  0.19668172638E+02  0.71365167489E+01  0.42664337239E+02  0.00000000000E+00 0.  1.
         -1    1    6    6    0  502 -0.92869710395E+02 -0.12218754173E+03 -0.35303181879E+02  0.15748299309E+03  0.00000000000E+00 0.  1.
<mgrwt>
<rscale>  0 0.15462872E+04</rscale>
<asrwt>0</asrwt>
<pdfrwt beam="1">  1        2 0.76925237E-01 0.15462872E+04</pdfrwt>
<pdfrwt beam="2">  1       -2 0.18391823E+00 0.15462872E+04</pdfrwt>
<totfact> 0.10093489E+01</totfact>
</mgrwt>
</event>
<event>
12    1  0.2045212E-008  0.1920888E+04  0.7818608E-02  0.8644528E-01
          2   -1    0    0  501    0  0.00000000000E+00  0.00000000000E+00  0.22433377455E+04  0.22433377455E+04  0.00000000000E+00 0. -1.
         -2   -1    0    0    0  501 -0.00000000000E+00 -0.00000000000E+00 -0.41119662832E+03  0.41119662832E+03  0.00000000000E+00 0.  1.
         23    2    1    2    0    0  0.64192196235E+02 -0.37573318059E+03 -0.16345007457E+03  0.42845693864E+03  0.10753306625E+03 0.  0.
        254    2    1    2    0    0 -0.64192196235E+02  0.37573318059E+03  0.19955911917E+04  0.22260774352E+04  0.90980244107E+03 0.  0.
        -24    2    4    4    0    0  0.12066797284E+03 -0.26404974722E+03  0.78283383103E+03  0.83983505825E+03  0.90615061552E+02 0.  0.
         24    2    4    4    0    0 -0.18486016907E+03  0.63978292782E+03  0.12127573607E+04  0.13862423769E+04  0.85976943369E+02 0.  0.
         11    1    3    3    0    0  0.72273133633E+02 -0.29798326840E+03 -0.16896277396E+03  0.35009406318E+03  0.00000000000E+00 0.  1.
        -11    1    3    3    0    0 -0.80809373980E+01 -0.77749912196E+02  0.55126993920E+01  0.78362875459E+02  0.00000000000E+00 0. -1.
          4    1    6    6  502    0 -0.17450598297E+03  0.51748591306E+03  0.10347819715E+04  0.11700503138E+04  0.00000000000E+00 0. -1.
          1    1    5    5  503    0  0.94324824237E+02 -0.10945121794E+03  0.43262463600E+03  0.45611491672E+03  0.00000000000E+00 0. -1.
         -2    1    5    5    0  503  0.26343148600E+02 -0.15459852928E+03  0.35020919503E+03  0.38372014153E+03  0.00000000000E+00 0.  1.
         -1    1    6    6    0  502 -0.10354186103E+02  0.12229701475E+03  0.17797538917E+03  0.21619206308E+03  0.00000000000E+00 0.  1.
<mgrwt>
<rscale>  0 0.19208882E+04</rscale>
<asrwt>0</asrwt>
<pdfrwt beam="1">  1        2 0.34512888E+00 0.19208882E+04</pdfrwt>
<pdfrwt beam="2">  1       -2 0.63261021E-01 0.19208882E+04</pdfrwt>
<totfact> 0.10562861E+01</totfact>
</mgrwt>
</event>
<event>
12    1  0.2045212E-008  0.1224231E+04  0.7818608E-02  0.9091908E-01
         -1   -1    0    0    0  501 -0.00000000000E+00  0.00000000000E+00  0.41097594725E+03  0.41097594725E+03  0.00000000000E+00 0.  1.
          1   -1    0    0  501    0  0.00000000000E+00 -0.00000000000E+00 -0.91169631890E+03  0.91169631890E+03  0.00000000000E+00 0. -1.
         23    2    1    2    0    0  0.10972726485E+03 -0.19976967159E+03  0.42925704983E+02  0.24848544893E+03  0.89187487020E+02 0.  0.
        254    2    1    2    0    0 -0.10972726485E+03  0.19976967159E+03 -0.54364607663E+03  0.10741868172E+04  0.89798567212E+03 0.  0.
        -24    2    4    4    0    0 -0.29151524763E+03 -0.26559595778E+03 -0.33952670606E+03  0.52865080487E+03  0.93117866020E+02 0.  0.
         24    2    4    4    0    0  0.18178798278E+03  0.46536562937E+03 -0.20411937057E+03  0.54553601236E+03  0.79578789011E+02 0.  0.
         13    1    3    3    0    0  0.90328957241E+02 -0.72383022122E+02  0.24541410773E+02  0.11832541253E+03  0.00000000000E+00 0. -1.
        -13    1    3    3    0    0  0.19398307609E+02 -0.12738664947E+03  0.18384294209E+02  0.13016003640E+03  0.00000000000E+00 0.  1.
          4    1    6    6  502    0  0.17923087417E+03  0.42527187135E+03 -0.16684127379E+03  0.49072994759E+03  0.00000000000E+00 0. -1.
          1    1    5    5  503    0 -0.24834117057E+03 -0.19771092346E+03 -0.22666969796E+03  0.39005396835E+03  0.00000000000E+00 0. -1.
         -2    1    5    5    0  503 -0.43174077059E+02 -0.67885034321E+02 -0.11285700811E+03  0.13859683652E+03  0.00000000000E+00 0.  1.
         -3    1    6    6    0  502  0.25571086070E+01  0.40093758016E+02 -0.37278096782E+02  0.54806064774E+02  0.00000000000E+00 0.  1.
<mgrwt>
<rscale>  0 0.12242308E+04</rscale>
<asrwt>0</asrwt>
<pdfrwt beam="1">  1        1 0.14026097E+00 0.12242308E+04</pdfrwt>
<pdfrwt beam="2">  1       -1 0.63227069E-01 0.12242308E+04</pdfrwt>
<totfact> 0.44622768E+01</totfact>
</mgrwt>
</event>
<event>
12    1  0.2045212E-008  0.1386512E+04  0.7818608E-02  0.8963640E-01
         -2   -1    0    0    0  501 -0.00000000000E+00  0.00000000000E+00  0.65431859605E+03  0.65431859605E+03  0.00000000000E+00 0. -1.
          2   -1    0    0  501    0  0.00000000000E+00 -0.00000000000E+00 -0.73451013333E+03  0.73451013333E+03  0.00000000000E+00 0.  1.
         23    2    1    2    0    0  0.78030240466E+02 -0.32489348208E+03 -0.22069742593E+03  0.40945241186E+03  0.85436705473E+02 0.  0.
        254    2    1    2    0    0 -0.78030240466E+02  0.32489348208E+03  0.14050588865E+03  0.97937631752E+03  0.90983051908E+03 0.  0.
        -24    2    4    4    0    0 -0.26869094086E+03 -0.21337779717E+03  0.18614806960E+03  0.40102903837E+03  0.91914524279E+02 0.  0.
         24    2    4    4    0    0  0.19066070040E+03  0.53827127925E+03 -0.45642180958E+02  0.57834727915E+03  0.79466306576E+02 0.  0.
         11    1    3    3    0    0  0.84457359567E+01 -0.40575992107E+02  0.22501481737E+01  0.41506683295E+02  0.00000000000E+00 0. -1.
        -11    1    3    3    0    0  0.69584504509E+02 -0.28431748998E+03 -0.22294757410E+03  0.36794572857E+03  0.00000000000E+00 0.  1.
          2    1    6    6  502    0  0.18699845175E+03  0.49689309184E+03 -0.23880221154E+02  0.53145219036E+03  0.00000000000E+00 0. -1.
          1    1    5    5  503    0 -0.20338245544E+03 -0.19055751739E+03  0.17955100530E+03  0.33153454439E+03  0.00000000000E+00 0. -1.
         -2    1    5    5    0  503 -0.65308485419E+02 -0.22820279772E+02  0.65970643059E+01  0.69494493984E+02  0.00000000000E+00 0.  1.
         -1    1    6    6    0  502  0.36622486445E+01  0.41378187413E+02 -0.21761959804E+02  0.46895088797E+02  0.00000000000E+00 0.  1.
<mgrwt>
<rscale>  0 0.13865117E+04</rscale>
<asrwt>0</asrwt>
<pdfrwt beam="1">  1        2 0.11300156E+00 0.13865117E+04</pdfrwt>
<pdfrwt beam="2">  1       -2 0.10066440E+00 0.13865117E+04</pdfrwt>
<totfact> 0.30526552E+01</totfact>
</mgrwt>
</event>
<event>
12    1  0.2045212E-008  0.2071741E+04  0.7818608E-02  0.8573795E-01
          2   -1    0    0  501    0  0.00000000000E+00  0.00000000000E+00  0.31443153530E+04  0.31443153530E+04  0.00000000000E+00 0.  1.
         -2   -1    0    0    0  501 -0.00000000000E+00 -0.00000000000E+00 -0.34125942583E+03  0.34125942583E+03  0.00000000000E+00 0. -1.
         23    2    1    2    0    0  0.47029077880E+03  0.27257099108E+03  0.70189950427E+02  0.55576525515E+03  0.92087066877E+02 0.  0.
        254    2    1    2    0    0 -0.47029077880E+03 -0.27257099108E+03  0.27328659767E+04  0.29298095237E+04  0.90540545415E+03 0.  0.
        -24    2    4    4    0    0 -0.23193362505E+03 -0.55186048187E+03  0.21799078822E+04  0.22613789129E+04  0.59101731943E+02 0.  0.
         24    2    4    4    0    0 -0.23835715376E+03  0.27928949080E+03  0.55295809452E+03  0.66843061081E+03  0.78867450546E+02 0.  0.
         13    1    3    3    0    0  0.39153255292E+03  0.24782036720E+03  0.87124390820E+02  0.47149054484E+03  0.00000000000E+00 0. -1.
        -13    1    3    3    0    0  0.78758225889E+02  0.24750623875E+02 -0.16934440393E+02  0.84274710315E+02  0.00000000000E+00 0.  1.
          2    1    6    6  502    0 -0.10226093176E+03  0.93133171301E+02  0.27036090444E+03  0.30368751112E+03  0.00000000000E+00 0. -1.
          3    1    5    5  503    0  0.21098863965E+01 -0.24161423860E+02  0.89336635708E+02  0.92570300329E+02  0.00000000000E+00 0. -1.
         -4    1    5    5    0  503 -0.23404351145E+03 -0.52769905801E+03  0.20905712465E+04  0.21688086125E+04  0.00000000000E+00 0.  1.
         -1    1    6    6    0  502 -0.13609622200E+03  0.18615631950E+03  0.28259719009E+03  0.36474309969E+03  0.00000000000E+00 0.  1.
<mgrwt>
<rscale>  0 0.20717406E+04</rscale>
<asrwt>0</asrwt>
<pdfrwt beam="1">  1        2 0.48374080E+00 0.20717406E+04</pdfrwt>
<pdfrwt beam="2">  1       -2 0.52501452E-01 0.20717406E+04</pdfrwt>
<totfact> 0.44682666E+00</totfact>
</mgrwt>
</event>
<event>
11    1  0.2045212E-008  0.1297879E+04  0.7818608E-02  0.9031249E-01
          2   -1    0    0  501    0  0.00000000000E+00  0.00000000000E+00  0.13287800550E+04  0.13287800550E+04  0.00000000000E+00 0. -1.
         -2   -1    0    0    0  501 -0.00000000000E+00 -0.00000000000E+00 -0.31692417600E+03  0.31692417600E+03  0.00000000000E+00 0.  1.
         23    2    1    2    0    0  0.20628394586E+02 -0.24517916902E+03 -0.27005353444E+02  0.26362746700E+03  0.90729249170E+02 0.  0.
        254    2    1    2    0    0 -0.20628394586E+02  0.24517916902E+03  0.10388612324E+04  0.13820767640E+04  0.87770448655E+03 0.  0.
         24    2    4    4    0    0  0.28360920821E+03 -0.16355329671E+02  0.89261110053E+03  0.93958845265E+03  0.73281674147E+02 0.  0.
         11    1    3    3    0    0  0.33957464694E+02 -0.22383559718E+03 -0.47317592724E+02  0.23128864770E+03  0.00000000000E+00 0.  1.
        -11    1    3    3    0    0 -0.13329070108E+02 -0.21343571840E+02  0.20312239281E+02  0.32338819296E+02  0.00000000000E+00 0. -1.
          4    1    5    5  502    0  0.50703796894E+02  0.24250675079E+02  0.14625254001E+03  0.15668048928E+03  0.00000000000E+00 0. -1.
          3    1    4    4  503    0 -0.16905888403E+03  0.70188843309E+02  0.55956919197E+02  0.19141200799E+03  0.00000000000E+00 0. -1.
         -4    1    4    4    0  503 -0.13517871877E+03  0.19134565538E+03  0.90293212698E+02  0.25107630335E+03  0.00000000000E+00 0.  1.
         -3    1    5    5    0  502  0.23290541132E+03 -0.40606004750E+02  0.74635856052E+03  0.78290796337E+03  0.00000000000E+00 0.  1.
<mgrwt>
<rscale>  0 0.12978791E+04</rscale>
<asrwt>0</asrwt>
<pdfrwt beam="1">  1        2 0.20442770E+00 0.12978791E+04</pdfrwt>
<pdfrwt beam="2">  1       -2 0.48757566E-01 0.12978791E+04</pdfrwt>
<totfact> 0.62093133E+01</totfact>
</mgrwt>
</event>
<event>
11    1  0.2045212E-008  0.1965678E+04  0.7818608E-02  0.8622838E-01
         -2   -1    0    0    0  501 -0.00000000000E+00  0.00000000000E+00  0.51879687792E+03  0.51879687792E+03  0.00000000000E+00 0.  1.
          2   -1    0    0  501    0  0.00000000000E+00 -0.00000000000E+00 -0.18619471469E+04  0.18619471469E+04  0.00000000000E+00 0. -1.
         23    2    1    2    0    0  0.44089285603E+03  0.60880715520E+03 -0.74189825190E+03  0.10601704099E+04  0.92280112622E+02 0.  0.
        254    2    1    2    0    0 -0.44089285603E+03 -0.60880715520E+03 -0.60125201706E+03  0.13205736149E+04  0.90408960925E+03 0.  0.
         24    2    4    4    0    0  0.43504305068E+02  0.17658306464E+03 -0.26571745349E+03  0.33200299885E+03  0.80907495833E+02 0.  0.
         11    1    3    3    0    0  0.13663125889E+02  0.43347357825E+02 -0.70822238926E+02  0.84151434723E+02  0.00000000000E+00 0.  1.
        -11    1    3    3    0    0  0.42722973014E+03  0.56545979737E+03 -0.67107601297E+03  0.97601897520E+03  0.00000000000E+00 0. -1.
          2    1    5    5  502    0  0.42567749262E+02  0.48229271500E+02 -0.13091198595E+03  0.14586303155E+03  0.00000000000E+00 0. -1.
          3    1    4    4  503    0 -0.11342108632E+03 -0.10742020416E+03 -0.72342526630E+02  0.17215366462E+03  0.00000000000E+00 0. -1.
         -4    1    4    4    0  503 -0.37097607478E+03 -0.67797001568E+03 -0.26319203694E+03  0.81641695140E+03  0.00000000000E+00 0.  1.
         -1    1    5    5    0  502  0.93655580650E+00  0.12835379314E+03 -0.13480546753E+03  0.18613996730E+03  0.00000000000E+00 0.  1.
<mgrwt>
<rscale>  0 0.19656779E+04</rscale>
<asrwt>0</asrwt>
<pdfrwt beam="1">  1        2 0.28645340E+00 0.19656779E+04</pdfrwt>
<pdfrwt beam="2">  1       -2 0.79814906E-01 0.19656779E+04</pdfrwt>
<totfact> 0.10319052E+01</totfact>
</mgrwt>
</event>
<event>
12    1  0.2045212E-008  0.1025012E+04  0.7818608E-02  0.9281530E-01
          1   -1    0    0  501    0  0.00000000000E+00  0.00000000000E+00  0.58667668103E+03  0.58667668103E+03  0.00000000000E+00 0. -1.
         -1   -1    0    0    0  501 -0.00000000000E+00 -0.00000000000E+00 -0.44771229202E+03  0.44771229202E+03  0.00000000000E+00 0.  1.
         23    2    1    2    0    0  0.37908149528E+02  0.50918083235E+02  0.64743731364E+02  0.12858753104E+03  0.91177428058E+02 0.  0.
        254    2    1    2    0    0 -0.37908149528E+02 -0.50918083235E+02  0.74220657651E+02  0.90580144201E+03  0.90052088667E+03 0.  0.
        -24    2    4    4    0    0  0.14384700724E+03  0.29509690983E+03  0.29428057722E+03  0.45045049229E+03  0.92360382129E+02 0.  0.
         24    2    4    4    0    0 -0.18175515677E+03 -0.34601499307E+03 -0.22005991957E+03  0.45535094972E+03  0.78465322107E+02 0.  0.
         11    1    3    3    0    0  0.40242398857E+02  0.20952936955E+02  0.82156556809E+02  0.93851883623E+02  0.00000000000E+00 0. -1.
        -11    1    3    3    0    0 -0.23342493288E+01  0.29965146280E+02 -0.17412825446E+02  0.34735647418E+02  0.00000000000E+00 0.  1.
          4    1    6    6  502    0 -0.12461370024E+03 -0.16699332390E+03 -0.14035380936E+03  0.25122606616E+03  0.00000000000E+00 0. -1.
          1    1    5    5  503    0  0.13843803288E+03  0.23215288664E+03  0.19704925743E+03  0.33449732671E+03  0.00000000000E+00 0. -1.
         -4    1    5    5    0  503  0.54089743640E+01  0.62944023196E+02  0.97231319788E+02  0.11595316558E+03  0.00000000000E+00 0.  1.
         -3    1    6    6    0  502 -0.57141456526E+02 -0.17902166917E+03 -0.79706110202E+02  0.20412488356E+03  0.00000000000E+00 0.  1.
<mgrwt>
<rscale>  0 0.10250119E+04</rscale>
<asrwt>0</asrwt>
<pdfrwt beam="1">  1        1 0.90257950E-01 0.10250119E+04</pdfrwt>
<pdfrwt beam="2">  1       -1 0.68878815E-01 0.10250119E+04</pdfrwt>
<totfact> 0.75569816E+01</totfact>
</mgrwt>
</event>
<event>
12    1  0.2045212E-008  0.1451068E+04  0.7818608E-02  0.8917660E-01
         -2   -1    0    0    0  501 -0.00000000000E+00  0.00000000000E+00  0.31460967098E+03  0.31460967098E+03  0.00000000000E+00 0. -1.
          2   -1    0    0  501    0  0.00000000000E+00 -0.00000000000E+00 -0.16731833344E+04  0.16731833344E+04  0.00000000000E+00 0.  1.
         23    2    1    2    0    0 -0.36883895671E+03 -0.16875811876E+03 -0.20170169749E+03  0.46204077252E+03  0.90975942269E+02 0.  0.
        254    2    1    2    0    0  0.36883895671E+03  0.16875811876E+03 -0.11568719659E+04  0.15257522328E+04  0.90832023639E+03 0.  0.
        -24    2    4    4    0    0  0.55106017673E+03 -0.17111824600E+03 -0.56109680437E+03  0.81168858474E+03  0.10516635497E+03 0.  0.
         24    2    4    4    0    0 -0.18222122003E+03  0.33987636475E+03 -0.59577516152E+03  0.71406364808E+03  0.78856414304E+02 0.  0.
         11    1    3    3    0    0 -0.51879999041E+02 -0.62111479693E+02 -0.31975007236E+02  0.87015925542E+02  0.00000000000E+00 0.  1.
        -11    1    3    3    0    0 -0.31695895767E+03 -0.10664663906E+03 -0.16972669025E+03  0.37502484698E+03  0.00000000000E+00 0. -1.
          4    1    6    6  502    0 -0.18828695742E+03  0.30663272297E+03 -0.54383739520E+03  0.65210023582E+03  0.00000000000E+00 0. -1.
          1    1    5    5  503    0  0.30224291265E+03 -0.14747992957E+03 -0.30944036548E+03  0.45700596020E+03  0.00000000000E+00 0. -1.
         -2    1    5    5    0  503  0.24881726409E+03 -0.23638316432E+02 -0.25165643889E+03  0.35468262453E+03  0.00000000000E+00 0.  1.
         -3    1    6    6    0  502  0.60657373932E+01  0.33243641785E+02 -0.51937766319E+02  0.61963412264E+02  0.00000000000E+00 0.  1.
<mgrwt>
<rscale>  0 0.14510681E+04</rscale>
<asrwt>0</asrwt>
<pdfrwt beam="1">  1        2 0.25741282E+00 0.14510681E+04</pdfrwt>
<pdfrwt beam="2">  1       -2 0.48401487E-01 0.14510681E+04</pdfrwt>
<totfact> 0.39789462E+01</totfact>
</mgrwt>
</event>
<event>
11    1  0.2045212E-008  0.1293251E+04  0.7818608E-02  0.9034934E-01
          2   -1    0    0  501    0  0.00000000000E+00  0.00000000000E+00  0.30835754423E+04  0.30835754423E+04  0.00000000000E+00 0. -1.
         -2   -1    0    0    0  501 -0.00000000000E+00 -0.00000000000E+00 -0.13559734103E+03  0.13559734103E+03  0.00000000000E+00 0.  1.
         23    2    1    2    0    0  0.24171143589E+03 -0.73475116429E+02  0.27855226371E+03  0.38730238808E+03  0.92675591273E+02 0.  0.
        254    2    1    2    0    0 -0.24171143589E+03  0.73475116429E+02  0.26694258376E+04  0.28318703953E+04  0.91095149284E+03 0.  0.
         24    2    4    4    0    0  0.20825257290E+03  0.27237309202E+03  0.72024298109E+03  0.80158456020E+03  0.78940610369E+02 0.  0.
         11    1    3    3    0    0  0.16939130890E+02 -0.37745494017E+02  0.47246472054E+02  0.62800363020E+02  0.00000000000E+00 0. -1.
        -11    1    3    3    0    0  0.22477230500E+03 -0.35729622412E+02  0.23130579166E+03  0.32450202506E+03  0.00000000000E+00 0.  1.
          2    1    5    5  502    0  0.18884629889E+03  0.27353345504E+03  0.68125579805E+03  0.75801908816E+03  0.00000000000E+00 0. -1.
          3    1    4    4  503    0 -0.39329204840E+03 -0.22900706601E+03  0.12888513814E+04  0.13668433542E+04  0.00000000000E+00 0. -1.
         -4    1    4    4    0  503 -0.56671960383E+02  0.30109090419E+02  0.66033147505E+03  0.66344248083E+03  0.00000000000E+00 0.  1.
         -1    1    5    5    0  502  0.19406274004E+02 -0.11603630174E+01  0.38987183038E+02  0.43565472043E+02  0.00000000000E+00 0.  1.
<mgrwt>
<rscale>  0 0.12932511E+04</rscale>
<asrwt>0</asrwt>
<pdfrwt beam="1">  1        2 0.47439617E+00 0.12932511E+04</pdfrwt>
<pdfrwt beam="2">  1       -2 0.20861132E-01 0.12932511E+04</pdfrwt>
<totfact> 0.30390610E+01</totfact>
</mgrwt>
</event>
<event>
12    1  0.2045212E-008  0.1603670E+04  0.7818608E-02  0.8818297E-01
         -2   -1    0    0    0  501 -0.00000000000E+00  0.00000000000E+00  0.69015275647E+03  0.69015275647E+03  0.00000000000E+00 0.  1.
          2   -1    0    0  501    0  0.00000000000E+00 -0.00000000000E+00 -0.93158964383E+03  0.93158964383E+03  0.00000000000E+00 0. -1.
         23    2    1    2    0    0 -0.43089294406E+03  0.83343415699E+02  0.24249633040E+03  0.51249094381E+03  0.10596057309E+03 0.  0.
        254    2    1    2    0    0  0.43089294406E+03 -0.83343415699E+02 -0.48393321776E+03  0.11092514565E+04  0.89645556514E+03 0.  0.
        -24    2    4    4    0    0  0.32823608745E+03  0.35628976633E+03 -0.81524751024E+02  0.49953188744E+03  0.90578666585E+02 0.  0.
         24    2    4    4    0    0  0.10265685661E+03 -0.43963318203E+03 -0.40240846673E+03  0.60971956904E+03  0.77521699046E+02 0.  0.
         13    1    3    3    0    0 -0.39026307115E+03  0.43358730225E+02  0.19565452929E+03  0.43870940156E+03  0.00000000000E+00 0.  1.
        -13    1    3    3    0    0 -0.40629872915E+02  0.39984685474E+02  0.46841801109E+02  0.73781542250E+02  0.00000000000E+00 0. -1.
          4    1    6    6  502    0  0.10317294802E+02 -0.13911921605E+03 -0.16309201183E+03  0.21461502084E+03  0.00000000000E+00 0. -1.
          1    1    5    5  503    0  0.13530663102E+03  0.10098037489E+03 -0.58560940905E+02  0.17870171882E+03  0.00000000000E+00 0. -1.
         -2    1    5    5    0  503  0.19292945643E+03  0.25530939145E+03 -0.22963810119E+02  0.32083016862E+03  0.00000000000E+00 0.  1.
         -3    1    6    6    0  502  0.92339561811E+02 -0.30051396598E+03 -0.23931645490E+03  0.39510454820E+03  0.00000000000E+00 0.  1.
<mgrwt>
<rscale>  0 0.16036697E+04</rscale>
<asrwt>0</asrwt>
<pdfrwt beam="1">  1        2 0.14332148E+00 0.16036697E+04</pdfrwt>
<pdfrwt beam="2">  1       -2 0.10617735E+00 0.16036697E+04</pdfrwt>
<totfact> 0.19159710E+01</totfact>
</mgrwt>
</event>
<event>
12    1  0.2045212E-008  0.1926901E+04  0.7818608E-02  0.8641581E-01
         -1   -1    0    0    0  501 -0.00000000000E+00  0.00000000000E+00  0.44328076001E+03  0.44328076001E+03  0.00000000000E+00 0.  1.
          1   -1    0    0  501    0  0.00000000000E+00 -0.00000000000E+00 -0.20940149204E+04  0.20940149204E+04  0.00000000000E+00 0. -1.
         23    2    1    2    0    0  0.20542620536E+03 -0.55334003675E+03 -0.12442180498E+04  0.13801513695E+04  0.91400903680E+02 0.  0.
        254    2    1    2    0    0 -0.20542620536E+03  0.55334003675E+03 -0.40651611065E+03  0.11571443110E+04  0.90848361904E+03 0.  0.
        -24    2    4    4    0    0  0.12084579021E+03  0.54376011955E+03 -0.55219785697E+03  0.79091911222E+03  0.10174377721E+03 0.  0.
         24    2    4    4    0    0 -0.32627199557E+03  0.95799172011E+01  0.14568174632E+03  0.36622519875E+03  0.79702792166E+02 0.  0.
         13    1    3    3    0    0  0.15447984130E+03 -0.36081532066E+03 -0.73214830278E+03  0.83071827610E+03  0.00000000000E+00 0. -1.
        -13    1    3    3    0    0  0.50946364060E+02 -0.19252471609E+03 -0.51206974700E+03  0.54943309339E+03  0.00000000000E+00 0.  1.
          2    1    6    6  502    0 -0.17067905914E+03 -0.32958055898E+02  0.62408760531E+02  0.18469550094E+03  0.00000000000E+00 0. -1.
          1    1    5    5  503    0  0.40727545123E+02  0.38633175246E+03 -0.35605132932E+03  0.52695683409E+03  0.00000000000E+00 0. -1.
         -2    1    5    5    0  503  0.80118245087E+02  0.15742836709E+03 -0.19614652765E+03  0.26396227812E+03  0.00000000000E+00 0.  1.
         -3    1    6    6    0  502 -0.15559293643E+03  0.42537973099E+02  0.83272985793E+02  0.18152969781E+03  0.00000000000E+00 0.  1.
<mgrwt>
<rscale>  0 0.19269006E+04</rscale>
<asrwt>0</asrwt>
<pdfrwt beam="1">  1        1 0.32215615E+00 0.19269006E+04</pdfrwt>
<pdfrwt beam="2">  1       -1 0.68197039E-01 0.19269006E+04</pdfrwt>
<totfact> 0.52270886E+00</totfact>
</mgrwt>
</event>
<event>
12    1  0.2045212E-008  0.1189034E+04  0.7818608E-02  0.9122510E-01
          1   -1    0    0  501    0  0.00000000000E+00  0.00000000000E+00  0.11169792745E+04  0.11169792745E+04  0.00000000000E+00 0. -1.
         -1   -1    0    0    0  501 -0.00000000000E+00 -0.00000000000E+00 -0.31643399762E+03  0.31643399762E+03  0.00000000000E+00 0.  1.
         23    2    1    2    0    0  0.16752558448E+02 -0.23403571501E+03  0.12108323222E+03  0.27926594829E+03  0.90966788618E+02 0.  0.
        254    2    1    2    0    0 -0.16752558448E+02  0.23403571501E+03  0.67946204465E+03  0.11541473238E+04  0.90295847681E+03 0.  0.
        -24    2    4    4    0    0  0.18501818752E+03 -0.12620569968E+02  0.78261504381E+03  0.80989139285E+03  0.95114420113E+02 0.  0.
         24    2    4    4    0    0 -0.20177074597E+03  0.24665628498E+03 -0.10315299916E+03  0.34425593097E+03  0.79503760417E+02 0.  0.
         11    1    3    3    0    0  0.34044986293E+02 -0.18881828240E+03  0.59387409812E+02  0.20084389287E+03  0.00000000000E+00 0.  1.
        -11    1    3    3    0    0 -0.17292427845E+02 -0.45217432612E+02  0.61695822404E+02  0.78422055411E+02  0.00000000000E+00 0. -1.
          4    1    6    6  502    0 -0.68107336024E+02  0.12095484196E+03 -0.77515409381E+02  0.15898843262E+03  0.00000000000E+00 0. -1.
          1    1    5    5  503    0  0.32580685810E+02 -0.64632841148E+01  0.34205050675E+03  0.34365945978E+03  0.00000000000E+00 0. -1.
         -2    1    5    5    0  503  0.15243750171E+03 -0.61572858535E+01  0.44056453707E+03  0.46623193307E+03  0.00000000000E+00 0.  1.
         -3    1    6    6    0  502 -0.13366340995E+03  0.12570144302E+03 -0.25637589779E+02  0.18526749835E+03  0.00000000000E+00 0.  1.
<mgrwt>
<rscale>  0 0.11890336E+04</rscale>
<asrwt>0</asrwt>
<pdfrwt beam="1">  1        1 0.17184296E+00 0.11890336E+04</pdfrwt>
<pdfrwt beam="2">  1       -1 0.48682154E-01 0.11890336E+04</pdfrwt>
<totfact> 0.51479872E+01</totfact>
</mgrwt>
</event>
<event>
12    1  0.2045212E-008  0.1740489E+04  0.7818608E-02  0.8738603E-01
          2   -1    0    0  501    0  0.00000000000E+00  0.00000000000E+00  0.29799025114E+04  0.29799025114E+04  0.00000000000E+00 0.  1.
         -2   -1    0    0    0  501 -0.00000000000E+00 -0.00000000000E+00 -0.25414450263E+03  0.25414450263E+03  0.00000000000E+00 0. -1.
         23    2    1    2    0    0 -0.19548021270E+02 -0.51276420411E+03  0.31302384640E+03  0.60809573614E+03  0.92126227216E+02 0.  0.
        254    2    1    2    0    0  0.19548021270E+02  0.51276420411E+03  0.24127341624E+04  0.26259512779E+04  0.90056910975E+03 0.  0.
        -24    2    4    4    0    0  0.13064190620E+03  0.96890347750E+02  0.13790248597E+02  0.18744108134E+03  0.92135448515E+02 0.  0.
         24    2    4    4    0    0 -0.11109388493E+03  0.41587385636E+03  0.23989439138E+04  0.24385101965E+04  0.78148330721E+02 0.  0.
         11    1    3    3    0    0 -0.10583784935E+02 -0.42106505486E+03  0.21261002137E+03  0.47181650895E+03  0.00000000000E+00 0. -1.
        -11    1    3    3    0    0 -0.89642363352E+01 -0.91699149250E+02  0.10041382503E+03  0.13627922719E+03  0.00000000000E+00 0.  1.
          4    1    6    6  502    0  0.92552445865E+01  0.49863313604E+02  0.35005257929E+03  0.35370724882E+03  0.00000000000E+00 0. -1.
          1    1    5    5  503    0  0.21074739170E+02  0.54243823261E+02  0.35087704849E+02  0.67953543135E+02  0.00000000000E+00 0. -1.
         -2    1    5    5    0  503  0.10956716703E+03  0.42646524489E+02 -0.21297456253E+02  0.11948753820E+03  0.00000000000E+00 0.  1.
         -3    1    6    6    0  502 -0.12034912952E+03  0.36601054276E+03  0.20488913345E+04  0.20848029477E+04  0.00000000000E+00 0.  1.
<mgrwt>
<rscale>  0 0.17404894E+04</rscale>
<asrwt>0</asrwt>
<pdfrwt beam="1">  1        2 0.45844652E+00 0.17404894E+04</pdfrwt>
<pdfrwt beam="2">  1       -2 0.39099156E-01 0.17404894E+04</pdfrwt>
<totfact> 0.10558145E+01</totfact>
</mgrwt>
</event>
<event>
12    1  0.2045212E-008  0.2259243E+04  0.7818608E-02  0.8494167E-01
         -2   -1    0    0    0  501 -0.00000000000E+00  0.00000000000E+00  0.19323771902E+04  0.19323771902E+04  0.00000000000E+00 0.  1.
          2   -1    0    0  501    0  0.00000000000E+00 -0.00000000000E+00 -0.66034968430E+03  0.66034968430E+03  0.00000000000E+00 0. -1.
         23    2    1    2    0    0  0.33837560624E+03  0.68466188516E+03  0.11843976555E+04  0.14122524614E+04  0.91647479350E+02 0.  0.
        254    2    1    2    0    0 -0.33837560624E+03 -0.68466188516E+03  0.87629850458E+02  0.11804744132E+04  0.89586879707E+03 0.  0.
        -24    2    4    4    0    0  0.97773694572E+01 -0.77024899615E+03  0.19001447665E+03  0.79944632325E+03  0.98131592210E+02 0.  0.
         24    2    4    4    0    0 -0.34815297570E+03  0.85587111000E+02 -0.10238462619E+03  0.38102808992E+03  0.78512072754E+02 0.  0.
         11    1    3    3    0    0  0.24625905426E+02  0.51770860089E+02  0.14116251945E+03  0.15235981777E+03  0.00000000000E+00 0. -1.
        -11    1    3    3    0    0  0.31374970082E+03  0.63289102507E+03  0.10432351360E+04  0.12598926436E+04  0.00000000000E+00 0.  1.
          4    1    6    6  502    0 -0.13559324143E+03 -0.45458528904E+01 -0.28667515458E+02  0.13866513023E+03  0.00000000000E+00 0. -1.
          3    1    5    5  503    0 -0.13388902521E+02 -0.15236891171E+03  0.12538449769E+01  0.15296117185E+03  0.00000000000E+00 0. -1.
         -4    1    5    5    0  503  0.23166271978E+02 -0.61788008444E+03  0.18876063167E+03  0.64648515140E+03  0.00000000000E+00 0.  1.
         -3    1    6    6    0  502 -0.21255973427E+03  0.90132963890E+02 -0.73717110735E+02  0.24236295969E+03  0.00000000000E+00 0.  1.
<mgrwt>
<rscale>  0 0.22592429E+04</rscale>
<asrwt>0</asrwt>
<pdfrwt beam="1">  1        2 0.10159226E+00 0.22592429E+04</pdfrwt>
<pdfrwt beam="2">  1       -2 0.29728880E+00 0.22592429E+04</pdfrwt>
<totfact> 0.13248518E+00</totfact>
</mgrwt>
</event>
<event>
11    1  0.2270547E-008  0.2680650E+04  0.7818608E-02  0.8341311E-01
          2   -1    0    0  501    0  0.00000000000E+00  0.00000000000E+00  0.14977393668E+04  0.14977393668E+04  0.00000000000E+00 0. -1.
         -2   -1    0    0    0  501 -0.00000000000E+00 -0.00000000000E+00 -0.11994554326E+04  0.11994554326E+04  0.00000000000E+00 0.  1.
         23    2    1    2    0    0 -0.84765263616E+03 -0.21618633261E+03  0.93779600738E+03  0.12857016491E+04  0.91191321362E+02 0.  0.
        254    2    1    2    0    0  0.84765263616E+03  0.21618633261E+03 -0.63951207323E+03  0.14114931502E+04  0.90448090052E+03 0.  0.
         24    2    4    4    0    0  0.23512294016E+03  0.33916655993E+03  0.10197380138E+03  0.43241900138E+03  0.79188283335E+02 0.  0.
         13    1    3    3    0    0 -0.65094214477E+02 -0.85386738419E+01  0.40560080539E+02  0.77170498525E+02  0.00000000000E+00 0.  1.
        -13    1    3    3    0    0 -0.78255842168E+03 -0.20764765877E+03  0.89723592684E+03  0.12085311506E+04  0.00000000000E+00 0. -1.
          4    1    5    5  502    0 -0.48338267683E+01  0.21930863954E+02  0.54378817725E+01  0.23106259610E+02  0.00000000000E+00 0. -1.
          3    1    4    4  503    0 -0.44092227599E+01 -0.23873353535E+01 -0.26819166488E+02  0.27283846989E+02  0.00000000000E+00 0. -1.
         -4    1    4    4    0  503  0.61693891875E+03 -0.12059289197E+03 -0.71466670811E+03  0.95179030188E+03  0.00000000000E+00 0.  1.
         -3    1    5    5    0  502  0.23995676693E+03  0.31723569598E+03  0.96535919603E+02  0.40931274177E+03  0.00000000000E+00 0.  1.
<mgrwt>
<rscale>  0 0.26806504E+04</rscale>
<asrwt>0</asrwt>
<pdfrwt beam="1">  1        2 0.23042144E+00 0.26806504E+04</pdfrwt>
<pdfrwt beam="2">  1       -2 0.18453160E+00 0.26806504E+04</pdfrwt>
<totfact> 0.18884505E+00</totfact>
</mgrwt>
</event>
<event>
12    1  0.2045212E-008  0.2724805E+04  0.7818608E-02  0.8327001E-01
          2   -1    0    0  501    0  0.00000000000E+00  0.00000000000E+00  0.24265067849E+04  0.24265067849E+04  0.00000000000E+00 0. -1.
         -2   -1    0    0    0  501 -0.00000000000E+00 -0.00000000000E+00 -0.76494338302E+03  0.76494338302E+03  0.00000000000E+00 0.  1.
         23    2    1    2    0    0 -0.65235977129E+03 -0.28671354737E+03  0.17772441378E+04  0.19170027573E+04  0.92330475148E+02 0.  0.
        254    2    1    2    0    0  0.65235977129E+03  0.28671354737E+03 -0.11568073587E+03  0.12744474107E+04  0.10502648430E+04 0.  0.
        -24    2    4    4    0    0  0.71318491300E+03  0.56007775683E+02  0.30777160632E+03  0.78161858347E+03  0.66593222716E+02 0.  0.
         24    2    4    4    0    0 -0.60825141702E+02  0.23070577168E+03 -0.42345234219E+03  0.49282882722E+03  0.81507765742E+02 0.  0.
         13    1    3    3    0    0 -0.47624343232E+03 -0.23426770916E+03  0.14041926884E+04  0.15011483179E+04  0.00000000000E+00 0. -1.
        -13    1    3    3    0    0 -0.17611633898E+03 -0.52445838203E+02  0.37305144941E+03  0.41585443932E+03  0.00000000000E+00 0.  1.
          4    1    6    6  502    0 -0.12154882544E+01  0.15258660429E+03 -0.23297989700E+03  0.27850274977E+03  0.00000000000E+00 0. -1.
          1    1    5    5  503    0  0.43823594350E+03  0.13470827069E+02  0.21514661005E+03  0.48838536953E+03  0.00000000000E+00 0. -1.
         -2    1    5    5    0  503  0.27494896950E+03  0.42536948614E+02  0.92624996273E+02  0.29323321394E+03  0.00000000000E+00 0.  1.
         -3    1    6    6    0  502 -0.59609653448E+02  0.78119167394E+02 -0.19047244519E+03  0.21432607745E+03  0.00000000000E+00 0.  1.
<mgrwt>
<rscale>  0 0.27248048E+04</rscale>
<asrwt>0</asrwt>
<pdfrwt beam="1">  1        2 0.37330873E+00 0.27248048E+04</pdfrwt>
<pdfrwt beam="2">  1       -2 0.11768360E+00 0.27248048E+04</pdfrwt>
<totfact> 0.18724228E+00</totfact>
</mgrwt>
</event>
<event>
11    1  0.2045212E-008  0.1719783E+04  0.7818608E-02  0.8750161E-01
         -1   -1    0    0    0  501 -0.00000000000E+00  0.00000000000E+00  0.66266062444E+03  0.66266062444E+03  0.00000000000E+00 0.  1.
          1   -1    0    0  501    0  0.00000000000E+00 -0.00000000000E+00 -0.11158256530E+04  0.11158256530E+04  0.00000000000E+00 0. -1.
         23    2    1    2    0    0 -0.33116410829E+03 -0.46518695258E+03  0.89049029741E+02  0.58824593170E+03  0.10970405190E+03 0.  0.
        254    2    1    2    0    0  0.33116410829E+03  0.46518695258E+03 -0.54221405835E+03  0.11902403458E+04  0.89252867080E+03 0.  0.
         24    2    4    4    0    0  0.39225718428E+02  0.84726214690E+01 -0.55177313310E+03  0.55850712623E+03  0.76590974300E+02 0.  0.
         11    1    3    3    0    0 -0.15872461900E+03 -0.23253840489E+03 -0.11281300129E+02  0.28177097465E+03  0.00000000000E+00 0. -1.
        -11    1    3    3    0    0 -0.17243948929E+03 -0.23264854769E+03  0.10033032987E+03  0.30647495705E+03  0.00000000000E+00 0.  1.
          4    1    5    5  502    0  0.30984513767E+02  0.16880497167E+02 -0.91261826726E+02  0.97845348869E+02  0.00000000000E+00 0. -1.
          3    1    4    4  503    0  0.76008829994E+02  0.13295415352E+02 -0.10019999683E+03  0.12646797884E+03  0.00000000000E+00 0. -1.
         -4    1    4    4    0  503  0.21592955987E+03  0.44341891576E+03  0.10975907159E+03  0.50526524071E+03  0.00000000000E+00 0.  1.
         -3    1    5    5    0  502  0.82412046604E+01 -0.84078756975E+01 -0.46051130637E+03  0.46066177737E+03  0.00000000000E+00 0.  1.
<mgrwt>
<rscale>  0 0.17197834E+04</rscale>
<asrwt>0</asrwt>
<pdfrwt beam="1">  1        1 0.17166548E+00 0.17197834E+04</pdfrwt>
<pdfrwt beam="2">  1       -1 0.10194779E+00 0.17197834E+04</pdfrwt>
<totfact> 0.10686533E+01</totfact>
</mgrwt>
</event>
<event>
12    1  0.2045212E-008  0.1831314E+04  0.7818608E-02  0.8689822E-01
          2   -1    0    0  501    0  0.00000000000E+00  0.00000000000E+00  0.13614369415E+04  0.13614369415E+04  0.00000000000E+00 0. -1.
         -2   -1    0    0    0  501 -0.00000000000E+00 -0.00000000000E+00 -0.61584023113E+03  0.61584023113E+03  0.00000000000E+00 0.  1.
         23    2    1    2    0    0  0.56842601168E+03 -0.24787685466E+03  0.58895474986E+03  0.85880765452E+03  0.78305965607E+02 0.  0.
        254    2    1    2    0    0 -0.56842601168E+03  0.24787685466E+03  0.15664196054E+03  0.11184695181E+04  0.91754361933E+03 0.  0.
        -24    2    4    4    0    0 -0.94901951639E+02  0.10292953953E+03  0.48717345203E+03  0.51770052998E+03  0.10523780615E+03 0.  0.
         24    2    4    4    0    0 -0.47352406004E+03  0.14494731513E+03 -0.33053149150E+03  0.60076898816E+03  0.80234348377E+02 0.  0.
         11    1    3    3    0    0  0.51692606478E+03 -0.24690595553E+03  0.52886323650E+03  0.77966109961E+03  0.00000000000E+00 0. -1.
        -11    1    3    3    0    0  0.51499946903E+02 -0.97089912008E+00  0.60091513351E+02  0.79146554902E+02  0.00000000000E+00 0.  1.
          2    1    6    6  502    0 -0.29726859901E+03  0.12218339328E+03 -0.18337085964E+03  0.37003009840E+03  0.00000000000E+00 0. -1.
          3    1    5    5  503    0 -0.68155261027E+02  0.71271920039E+01  0.27438028812E+03  0.28280820176E+03  0.00000000000E+00 0. -1.
         -4    1    5    5    0  503 -0.26746690612E+02  0.95802347525E+02  0.21279316391E+03  0.23489232822E+03  0.00000000000E+00 0.  1.
         -1    1    6    6    0  502 -0.17625546103E+03  0.22763921843E+02 -0.14716063185E+03  0.23073888976E+03  0.00000000000E+00 0.  1.
<mgrwt>
<rscale>  0 0.18313139E+04</rscale>
<asrwt>0</asrwt>
<pdfrwt beam="1">  1        2 0.20945184E+00 0.18313139E+04</pdfrwt>
<pdfrwt beam="2">  1       -2 0.94744651E-01 0.18313139E+04</pdfrwt>
<totfact> 0.13451850E+01</totfact>
</mgrwt>
</event>
<event>
11    1  0.2045212E-008  0.1138398E+04  0.7818608E-02  0.9168554E-01
         -2   -1    0    0    0  501 -0.00000000000E+00  0.00000000000E+00  0.16142174386E+03  0.16142174386E+03  0.00000000000E+00 0.  1.
          2   -1    0    0  501    0  0.00000000000E+00 -0.00000000000E+00 -0.20070880358E+04  0.20070880358E+04  0.00000000000E+00 0. -1.
         23    2    1    2    0    0  0.41564315697E+02  0.14925552047E+03 -0.10570732887E+03  0.20867508512E+03  0.91468295273E+02 0.  0.
        254    2    1    2    0    0 -0.41564315697E+02 -0.14925552047E+03 -0.17399589631E+04  0.19598346946E+04  0.88853251718E+03 0.  0.
         24    2    4    4    0    0  0.81063600808E+01  0.36086043061E+03 -0.78846516500E+03  0.87062620857E+03  0.77631921050E+02 0.  0.
         11    1    3    3    0    0  0.62058953264E+02  0.12649243865E+03 -0.58844815616E+02  0.15269041568E+03  0.00000000000E+00 0.  1.
        -11    1    3    3    0    0 -0.20494637567E+02  0.22763081822E+02 -0.46862513258E+02  0.55984669437E+02  0.00000000000E+00 0. -1.
          4    1    5    5  502    0 -0.11708206676E+01  0.22150706346E+03 -0.56779507803E+03  0.60947354382E+03  0.00000000000E+00 0. -1.
          1    1    4    4  503    0 -0.78520237865E+02 -0.42324976208E+03 -0.70222878473E+03  0.82366926309E+03  0.00000000000E+00 0. -1.
         -2    1    4    4    0  503  0.28849562087E+02 -0.86866188998E+02 -0.24926501335E+03  0.26553922291E+03  0.00000000000E+00 0.  1.
         -3    1    5    5    0  502  0.92771807484E+01  0.13935336715E+03 -0.22067008698E+03  0.26115266475E+03  0.00000000000E+00 0.  1.
<mgrwt>
<rscale>  0 0.11383983E+04</rscale>
<asrwt>0</asrwt>
<pdfrwt beam="1">  1        2 0.30878278E+00 0.11383983E+04</pdfrwt>
<pdfrwt beam="2">  1       -2 0.24834114E-01 0.11383983E+04</pdfrwt>
<totfact> 0.95409864E+01</totfact>
</mgrwt>
</event>
<event>
11    1  0.2045212E-008  0.1311180E+04  0.7818608E-02  0.9020746E-01
         -1   -1    0    0    0  501 -0.00000000000E+00  0.00000000000E+00  0.20571466209E+03  0.20571466209E+03  0.00000000000E+00 0.  1.
          1   -1    0    0  501    0  0.00000000000E+00 -0.00000000000E+00 -0.20892934139E+04  0.20892934139E+04  0.00000000000E+00 0. -1.
         23    2    1    2    0    0 -0.11676029803E+03 -0.99970803456E+02  0.23995860377E+02  0.18114488235E+03  0.92792986523E+02 0.  0.
        254    2    1    2    0    0  0.11676029803E+03  0.99970803456E+02 -0.19075746122E+04  0.21138631937E+04  0.89774694186E+03 0.  0.
         24    2    4    4    0    0  0.22215328453E+03  0.35148209238E+03 -0.43420737611E+03  0.60643399160E+03  0.79588928979E+02 0.  0.
         11    1    3    3    0    0 -0.76371311347E+02 -0.39175735137E+02  0.54894238443E+02  0.10188568513E+03  0.00000000000E+00 0.  1.
        -11    1    3    3    0    0 -0.40388986682E+02 -0.60795068320E+02 -0.30898378065E+02  0.79259197222E+02  0.00000000000E+00 0. -1.
          2    1    5    5  502    0  0.22715521894E+03  0.33407933319E+03 -0.42399577349E+03  0.58564572080E+03  0.00000000000E+00 0. -1.
          3    1    4    4  503    0 -0.11614262290E+03 -0.22770075413E+03 -0.14500669974E+04  0.14724235257E+04  0.00000000000E+00 0. -1.
         -4    1    4    4    0  503  0.10749636394E+02 -0.23810534793E+02 -0.23300238746E+02  0.35005676331E+02  0.00000000000E+00 0.  1.
         -1    1    5    5    0  502 -0.50019344006E+01  0.17402759186E+02 -0.10211602622E+02  0.20788270807E+02  0.00000000000E+00 0.  1.
<mgrwt>
<rscale>  0 0.13111801E+04</rscale>
<asrwt>0</asrwt>
<pdfrwt beam="1">  1        1 0.32142975E+00 0.13111801E+04</pdfrwt>
<pdfrwt beam="2">  1       -1 0.31648411E-01 0.13111801E+04</pdfrwt>
<totfact> 0.23662078E+01</totfact>
</mgrwt>
</event>
<event>
12    1  0.2045212E-008  0.1662536E+04  0.7818608E-02  0.8783025E-01
          2   -1    0    0  501    0  0.00000000000E+00  0.00000000000E+00  0.72736191166E+03  0.72736191166E+03  0.00000000000E+00 0. -1.
         -2   -1    0    0    0  501 -0.00000000000E+00 -0.00000000000E+00 -0.95001763328E+03  0.95001763328E+03  0.00000000000E+00 0.  1.
         23    2    1    2    0    0  0.44299036224E+03  0.13702581166E+03 -0.43192508793E+03  0.64080929876E+03  0.95187928258E+02 0.  0.
        254    2    1    2    0    0 -0.44299036224E+03 -0.13702581166E+03  0.20926936632E+03  0.10365702462E+04  0.90314321871E+03 0.  0.
        -24    2    4    4    0    0 -0.24878000572E+03  0.13844544788E+03 -0.29820522921E+03  0.42209572456E+03  0.90442294745E+02 0.  0.
         24    2    4    4    0    0 -0.19421035653E+03 -0.27547125954E+03  0.50747459553E+03  0.61447452162E+03  0.80289446374E+02 0.  0.
         11    1    3    3    0    0  0.34064384686E+03  0.84404367894E+02 -0.27316542246E+03  0.44472651793E+03  0.00000000000E+00 0.  1.
        -11    1    3    3    0    0  0.10234651538E+03  0.52621443763E+02 -0.15875966548E+03  0.19608278083E+03  0.00000000000E+00 0. -1.
          4    1    6    6  502    0 -0.38028661053E+02 -0.11281333802E+03  0.20702796961E+03  0.23881710260E+03  0.00000000000E+00 0. -1.
          3    1    5    5  503    0 -0.36969214099E+02  0.10121869026E+02 -0.92600455212E+02  0.10021985496E+03  0.00000000000E+00 0. -1.
         -4    1    5    5    0  503 -0.21181079162E+03  0.12832357886E+03 -0.20560477400E+03  0.32187586960E+03  0.00000000000E+00 0.  1.
         -3    1    6    6    0  502 -0.15618169548E+03 -0.16265792152E+03  0.30044662593E+03  0.37565741902E+03  0.00000000000E+00 0.  1.
<mgrwt>
<rscale>  0 0.16625362E+04</rscale>
<asrwt>0</asrwt>
<pdfrwt beam="1">  1        2 0.11190183E+00 0.16625362E+04</pdfrwt>
<pdfrwt beam="2">  1       -2 0.14615656E+00 0.16625362E+04</pdfrwt>
<totfact> 0.11942544E+01</totfact>
</mgrwt>
</event>
<event>
12    1  0.2045212E-008  0.1280288E+04  0.7818608E-02  0.9045345E-01
          2   -1    0    0  501    0  0.00000000000E+00  0.00000000000E+00  0.18906789475E+04  0.18906789475E+04  0.00000000000E+00 0. -1.
         -2   -1    0    0    0  501 -0.00000000000E+00 -0.00000000000E+00 -0.21673914037E+03  0.21673914037E+03  0.00000000000E+00 0.  1.
         23    2    1    2    0    0  0.12543469463E+03  0.31735976768E+03  0.53622695232E+03  0.64187406272E+03  0.89509123776E+02 0.  0.
        254    2    1    2    0    0 -0.12543469463E+03 -0.31735976768E+03  0.11377128548E+04  0.14655440252E+04  0.85847403275E+03 0.  0.
        -24    2    4    4    0    0 -0.49672067351E+02 -0.42473246472E+03  0.14490256032E+03  0.46087409812E+03  0.92429440454E+02 0.  0.
         24    2    4    4    0    0 -0.75762627282E+02  0.10737269704E+03  0.99281029449E+03  0.10046699270E+04  0.80128082978E+02 0.  0.
         11    1    3    3    0    0  0.50925583819E+02  0.73362044869E+02  0.20641714385E+03  0.22490762990E+03  0.00000000000E+00 0. -1.
        -11    1    3    3    0    0  0.74509110814E+02  0.24399772281E+03  0.32980980847E+03  0.41696643282E+03  0.00000000000E+00 0.  1.
          2    1    6    6  502    0 -0.76123479682E+01  0.78076792868E+02  0.44526818498E+03  0.45212574576E+03  0.00000000000E+00 0. -1.
          3    1    5    5  503    0 -0.56040202065E+02 -0.42066807296E+03  0.15172852062E+03  0.45069244039E+03  0.00000000000E+00 0. -1.
         -4    1    5    5    0  503  0.63681347143E+01 -0.40643917675E+01 -0.68259602970E+01  0.10181657731E+02  0.00000000000E+00 0.  1.
         -1    1    6    6    0  502 -0.68150279314E+02  0.29295904175E+02  0.54754210952E+03  0.55254418128E+03  0.00000000000E+00 0.  1.
<mgrwt>
<rscale>  0 0.12802877E+04</rscale>
<asrwt>0</asrwt>
<pdfrwt beam="1">  1        2 0.29087367E+00 0.12802877E+04</pdfrwt>
<pdfrwt beam="2">  1       -2 0.33344484E-01 0.12802877E+04</pdfrwt>
<totfact> 0.63404366E+01</totfact>
</mgrwt>
</event>
<event>
11    1  0.2045212E-008  0.1059652E+04  0.7818608E-02  0.9245435E-01
          1   -1    0    0  501    0  0.00000000000E+00  0.00000000000E+00  0.31273120639E+04  0.31273120639E+04  0.00000000000E+00 0. -1.
         -1   -1    0    0    0  501 -0.00000000000E+00 -0.00000000000E+00 -0.89762550506E+02  0.89762550506E+02  0.00000000000E+00 0.  1.
         23    2    1    2    0    0  0.89301518333E+02  0.77119174639E+02  0.37746024808E+03  0.40587100855E+03  0.91284765566E+02 0.  0.
        254    2    1    2    0    0 -0.89301518333E+02 -0.77119174639E+02  0.26600892653E+04  0.28112036059E+04  0.90159230581E+03 0.  0.
         24    2    4    4    0    0  0.24958546548E+03 -0.31015063429E+03  0.74378644698E+03  0.84732504294E+03  0.79089374484E+02 0.  0.
         13    1    3    3    0    0  0.73692523035E+02  0.67855618987E+02  0.16780520407E+03  0.19543172591E+03  0.00000000000E+00 0.  1.
        -13    1    3    3    0    0  0.15608995298E+02  0.92635556518E+01  0.20965504401E+03  0.21043928264E+03  0.00000000000E+00 0. -1.
          4    1    5    5  502    0  0.24497052744E+03 -0.29403903003E+03  0.73434413197E+03  0.82808865145E+03  0.00000000000E+00 0. -1.
          3    1    4    4  503    0 -0.33819010258E+03  0.23226761699E+03  0.17453068859E+04  0.17928795044E+04  0.00000000000E+00 0. -1.
         -4    1    4    4    0  503 -0.69688123231E+00  0.76384266018E+00  0.17099593241E+03  0.17099905848E+03  0.00000000000E+00 0.  1.
         -3    1    5    5    0  502  0.46149380403E+01 -0.16111604263E+02  0.94423150078E+01  0.19236391495E+02  0.00000000000E+00 0.  1.
<mgrwt>
<rscale>  0 0.10596518E+04</rscale>
<asrwt>0</asrwt>
<pdfrwt beam="1">  1        1 0.48112485E+00 0.10596518E+04</pdfrwt>
<pdfrwt beam="2">  1       -1 0.13809626E-01 0.10596518E+04</pdfrwt>
<totfact> 0.18514600E+01</totfact>
</mgrwt>
</event>
<event>
11    1  0.2045212E-008  0.2125383E+04  0.7818608E-02  0.8550144E-01
         -2   -1    0    0    0  501 -0.00000000000E+00  0.00000000000E+00  0.72532560775E+03  0.72532560775E+03  0.00000000000E+00 0.  1.
          2   -1    0    0  501    0  0.00000000000E+00 -0.00000000000E+00 -0.15569735917E+04  0.15569735917E+04  0.00000000000E+00 0. -1.
         23    2    1    2    0    0 -0.58740771899E+03 -0.64720720567E+03 -0.33716975760E+03  0.94115580841E+03  0.90364898393E+02 0.  0.
        254    2    1    2    0    0  0.58740771899E+03  0.64720720567E+03 -0.49447822633E+03  0.13411433910E+04  0.88894987686E+03 0.  0.
         24    2    4    4    0    0  0.54854527928E+02 -0.23108520070E+02 -0.46502446095E+03  0.47553175066E+03  0.79622067782E+02 0.  0.
         13    1    3    3    0    0 -0.46425260647E+02 -0.68845961900E+02 -0.76136871686E+01  0.83384887890E+02  0.00000000000E+00 0. -1.
        -13    1    3    3    0    0 -0.54098245834E+03 -0.57836124377E+03 -0.32955607043E+03  0.85777092052E+03  0.00000000000E+00 0.  1.
          4    1    5    5  502    0  0.33233931153E+02 -0.53501636112E+01 -0.54517512712E+02  0.64072440432E+02  0.00000000000E+00 0. -1.
          3    1    4    4  503    0  0.24783431151E+02  0.42866068339E+02 -0.31040935386E+02  0.58440208283E+02  0.00000000000E+00 0. -1.
         -4    1    4    4    0  503  0.50776975991E+03  0.62744965740E+03  0.15871700009E+01  0.80717143207E+03  0.00000000000E+00 0.  1.
         -3    1    5    5    0  502  0.21620596775E+02 -0.17758356459E+02 -0.41050694823E+03  0.41145931023E+03  0.00000000000E+00 0.  1.
<mgrwt>
<rscale>  0 0.21253826E+04</rscale>
<asrwt>0</asrwt>
<pdfrwt beam="1">  1        2 0.23953440E+00 0.21253826E+04</pdfrwt>
<pdfrwt beam="2">  1       -2 0.11158856E+00 0.21253826E+04</pdfrwt>
<totfact> 0.68805928E+00</totfact>
</mgrwt>
</event>
<event>
11    1  0.2045212E-008  0.2921976E+04  0.7818608E-02  0.8266369E-01
         -1   -1    0    0    0  501 -0.00000000000E+00  0.00000000000E+00  0.65715342227E+03  0.65715342227E+03  0.00000000000E+00 0.  1.
          1   -1    0    0  501    0  0.00000000000E+00 -0.00000000000E+00 -0.32480787066E+04  0.32480787066E+04  0.00000000000E+00 0. -1.
         23    2    1    2    0    0 -0.10023810439E+04 -0.74212764378E+03 -0.15462470143E+04  0.19883770349E+04  0.85101156564E+02 0.  0.
        254    2    1    2    0    0  0.10023810439E+04  0.74212764378E+03 -0.10446782700E+04  0.19168550940E+04  0.10136368022E+04 0.  0.
         24    2    4    4    0    0  0.11257332674E+04  0.77886017301E+03 -0.73162725522E+03  0.15541671274E+04  0.79110433314E+02 0.  0.
         13    1    3    3    0    0 -0.18051537786E+03 -0.12955508156E+03 -0.22613362020E+03  0.31702797193E+03  0.00000000000E+00 0. -1.
        -13    1    3    3    0    0 -0.82186566600E+03 -0.61257256221E+03 -0.13201133941E+04  0.16713490629E+04  0.00000000000E+00 0.  1.
          2    1    5    5  502    0  0.75932845046E+03  0.54027309609E+03 -0.53702619392E+03  0.10755797725E+04  0.00000000000E+00 0. -1.
          1    1    4    4  503    0 -0.11069739586E+03 -0.77529400231E+02 -0.27057329908E+03  0.30244773354E+03  0.00000000000E+00 0. -1.
         -2    1    4    4    0  503 -0.12654827731E+02  0.40796870997E+02 -0.42477715699E+02  0.60240233060E+02  0.00000000000E+00 0.  1.
         -1    1    5    5    0  502  0.36640481699E+03  0.23858707692E+03 -0.19460106130E+03  0.47858735488E+03  0.00000000000E+00 0.  1.
<mgrwt>
<rscale>  0 0.29219761E+04</rscale>
<asrwt>0</asrwt>
<pdfrwt beam="1">  1        1 0.49970442E+00 0.29219761E+04</pdfrwt>
<pdfrwt beam="2">  1       -1 0.10110053E+00 0.29219761E+04</pdfrwt>
<totfact> 0.31117123E-01</totfact>
</mgrwt>
</event>
<event>
11    1  0.2045212E-008  0.2096457E+04  0.7818608E-02  0.8562806E-01
          1   -1    0    0  501    0  0.00000000000E+00  0.00000000000E+00  0.15246460570E+04  0.15246460570E+04  0.00000000000E+00 0. -1.
         -1   -1    0    0    0  501 -0.00000000000E+00 -0.00000000000E+00 -0.72068097040E+03  0.72068097040E+03  0.00000000000E+00 0.  1.
         23    2    1    2    0    0  0.81830529935E+02 -0.45455831277E+03 -0.41833870260E+03  0.62859852596E+03  0.82518733655E+02 0.  0.
        254    2    1    2    0    0 -0.81830529935E+02  0.45455831277E+03  0.12223037892E+04  0.16167285014E+04  0.95208455452E+03 0.  0.
         24    2    4    4    0    0  0.29609979188E+03 -0.13120443656E+03  0.49374137744E+03  0.59574851246E+03  0.79031964250E+02 0.  0.
         13    1    3    3    0    0  0.32803977418E+00 -0.24446966883E+02 -0.21074095311E+01  0.24539824262E+02  0.00000000000E+00 0.  1.
        -13    1    3    3    0    0  0.81502490161E+02 -0.43011134589E+03 -0.41623129307E+03  0.60405870170E+03  0.00000000000E+00 0. -1.
          4    1    5    5  502    0  0.80009484219E+02 -0.13529234771E+02  0.77431250618E+02  0.11216129605E+03  0.00000000000E+00 0. -1.
          3    1    4    4  503    0 -0.28997436669E+03  0.36635092191E+03  0.56678784598E+03  0.73453835412E+03  0.00000000000E+00 0. -1.
         -4    1    4    4    0  503 -0.87955955129E+02  0.21941182742E+03  0.16177456577E+03  0.28644163486E+03  0.00000000000E+00 0.  1.
         -3    1    5    5    0  502  0.21609030766E+03 -0.11767520178E+03  0.41631012682E+03  0.48358721641E+03  0.00000000000E+00 0.  1.
<mgrwt>
<rscale>  0 0.20964574E+04</rscale>
<asrwt>0</asrwt>
<pdfrwt beam="1">  1        1 0.23456093E+00 0.20964574E+04</pdfrwt>
<pdfrwt beam="2">  1       -1 0.11087400E+00 0.20964574E+04</pdfrwt>
<totfact> 0.43335277E+00</totfact>
</mgrwt>
</event>
<event>
12    1  0.2045212E-008  0.1151386E+04  0.7818608E-02  0.9156506E-01
          2   -1    0    0  501    0  0.00000000000E+00  0.00000000000E+00  0.38091339543E+03  0.38091339543E+03  0.00000000000E+00 0. -1.
         -2   -1    0    0    0  501 -0.00000000000E+00 -0.00000000000E+00 -0.87007269545E+03  0.87007269545E+03  0.00000000000E+00 0.  1.
         23    2    1    2    0    0 -0.15130509331E+03  0.83863137051E+02 -0.17641796735E+03  0.26316748066E+03  0.90595621632E+02 0.  0.
        254    2    1    2    0    0  0.15130509331E+03 -0.83863137051E+02 -0.31274133268E+03  0.98781861021E+03  0.92089750162E+03 0.  0.
        -24    2    4    4    0    0 -0.69160623597E+02  0.23975595398E+03 -0.48397976484E+03  0.55299635797E+03  0.96449208546E+02 0.  0.
         24    2    4    4    0    0  0.22046571691E+03 -0.32361909103E+03  0.17123843216E+03  0.43482225224E+03  0.80083344013E+02 0.  0.
         11    1    3    3    0    0 -0.11011050362E+03  0.27649831781E+02 -0.15114795454E+03  0.18903581769E+03  0.00000000000E+00 0.  1.
        -11    1    3    3    0    0 -0.41194589687E+02  0.56213305270E+02 -0.25270012803E+02  0.74131662978E+02  0.00000000000E+00 0. -1.
          4    1    6    6  502    0  0.21093999604E+02 -0.92131127951E+01 -0.39793433468E+01  0.23359654110E+02  0.00000000000E+00 0. -1.
          3    1    5    5  503    0 -0.90791083984E+02  0.16226801864E+03 -0.31365782111E+03  0.36463016818E+03  0.00000000000E+00 0. -1.
         -4    1    5    5    0  503  0.21630460387E+02  0.77487935334E+02 -0.17032194373E+03  0.18836618979E+03  0.00000000000E+00 0.  1.
         -3    1    6    6    0  502  0.19937171730E+03 -0.31440597823E+03  0.17521777551E+03  0.41146259813E+03  0.00000000000E+00 0.  1.
<mgrwt>
<rscale>  0 0.11513859E+04</rscale>
<asrwt>0</asrwt>
<pdfrwt beam="1">  1        2 0.58602060E-01 0.11513859E+04</pdfrwt>
<pdfrwt beam="2">  1       -2 0.13385734E+00 0.11513859E+04</pdfrwt>
<totfact> 0.33505819E+01</totfact>
</mgrwt>
</event>
<event>
11    1  0.2045212E-008  0.1307071E+04  0.7818608E-02  0.9023977E-01
         -1   -1    0    0    0  501 -0.00000000000E+00  0.00000000000E+00  0.19570679760E+03  0.19570679760E+03  0.00000000000E+00 0.  1.
          1   -1    0    0  501    0  0.00000000000E+00 -0.00000000000E+00 -0.21823901826E+04  0.21823901826E+04  0.00000000000E+00 0. -1.
         23    2    1    2    0    0 -0.12259202632E+03  0.27565656388E+03 -0.74191600822E+03  0.80626809760E+03  0.92809136611E+02 0.  0.
        254    2    1    2    0    0  0.12259202632E+03 -0.27565656388E+03 -0.12447673768E+04  0.15718288826E+04  0.91114481160E+03 0.  0.
         24    2    4    4    0    0  0.17518977980E+03 -0.11805708877E+02 -0.12503006026E+04  0.12652183161E+04  0.81822715000E+02 0.  0.
         13    1    3    3    0    0  0.10472676506E+02  0.34513264203E+02 -0.13584900708E+03  0.14055530970E+03  0.00000000000E+00 0. -1.
        -13    1    3    3    0    0 -0.13306470282E+03  0.24114329968E+03 -0.60606700113E+03  0.66571278790E+03  0.00000000000E+00 0.  1.
          4    1    5    5  502    0  0.12107856273E+03  0.16854326608E+01 -0.57461710592E+03  0.58723732634E+03  0.00000000000E+00 0. -1.
          1    1    4    4  503    0 -0.43612999066E+02 -0.27416339734E+03 -0.19277926284E+02  0.27827917739E+03  0.00000000000E+00 0. -1.
         -2    1    4    4    0  503 -0.89847544155E+01  0.10312542335E+02  0.24811152112E+02  0.28331389137E+02  0.00000000000E+00 0.  1.
         -1    1    5    5    0  502  0.54111217072E+02 -0.13491141538E+02 -0.67568349670E+03  0.67798098972E+03  0.00000000000E+00 0.  1.
<mgrwt>
<rscale>  0 0.13070709E+04</rscale>
<asrwt>0</asrwt>
<pdfrwt beam="1">  1        1 0.33575236E+00 0.13070709E+04</pdfrwt>
<pdfrwt beam="2">  1       -1 0.30108736E-01 0.13070709E+04</pdfrwt>
<totfact> 0.22349385E+01</totfact>
</mgrwt>
</event>
<event>
12    1  0.2045212E-008  0.1694456E+04  0.7818608E-02  0.8764533E-01
          1   -1    0    0  501    0  0.00000000000E+00  0.00000000000E+00  0.75847265555E+03  0.75847265555E+03  0.00000000000E+00 0. -1.
         -1   -1    0    0    0  501 -0.00000000000E+00 -0.00000000000E+00 -0.94636923953E+03  0.94636923953E+03  0.00000000000E+00 0.  1.
         23    2    1    2    0    0 -0.10210293863E+03 -0.40408320558E+03  0.37566742961E+03  0.56853542867E+03  0.91642069395E+02 0.  0.
        254    2    1    2    0    0  0.10210293863E+03  0.40408320558E+03 -0.56356401359E+03  0.11363064664E+04  0.89435996170E+03 0.  0.
        -24    2    4    4    0    0  0.12592796578E+03 -0.13026295861E+03  0.14125758641E+03  0.24787357275E+03  0.93066166765E+02 0.  0.
         24    2    4    4    0    0 -0.23825027153E+02  0.53434616418E+03 -0.70482160000E+03  0.88843289366E+03  0.80287381415E+02 0.  0.
         13    1    3    3    0    0 -0.25016797285E+02 -0.25155583010E+03  0.25687898593E+03  0.36040669973E+03  0.00000000000E+00 0. -1.
        -13    1    3    3    0    0 -0.77086141341E+02 -0.15252737548E+03  0.11878844368E+03  0.20812872894E+03  0.00000000000E+00 0.  1.
          2    1    6    6  502    0 -0.39826050783E+02  0.50576266369E+03 -0.64970996103E+03  0.82432094464E+03  0.00000000000E+00 0. -1.
          3    1    5    5  503    0  0.67026749561E+02 -0.82139858003E+02  0.24965409946E+02  0.10891654201E+03  0.00000000000E+00 0. -1.
         -4    1    5    5    0  503  0.58901216217E+02 -0.48123100603E+02  0.11629217647E+03  0.13895703074E+03  0.00000000000E+00 0.  1.
         -1    1    6    6    0  502  0.16001023631E+02  0.28583500490E+02 -0.55111638968E+02  0.64111949021E+02  0.00000000000E+00 0.  1.
<mgrwt>
<rscale>  0 0.16944559E+04</rscale>
<asrwt>0</asrwt>
<pdfrwt beam="1">  1        1 0.11668810E+00 0.16944559E+04</pdfrwt>
<pdfrwt beam="2">  1       -1 0.14559527E+00 0.16944559E+04</pdfrwt>
<totfact> 0.86599317E+00</totfact>
</mgrwt>
</event>
<event>
12    1  0.2045212E-008  0.1674793E+04  0.7818608E-02  0.8775873E-01
         -2   -1    0    0    0  501 -0.00000000000E+00  0.00000000000E+00  0.82848240641E+03  0.82848240641E+03  0.00000000000E+00 0.  1.
          2   -1    0    0  501    0  0.00000000000E+00 -0.00000000000E+00 -0.84640636182E+03  0.84640636182E+03  0.00000000000E+00 0. -1.
         23    2    1    2    0    0  0.34585906983E+03  0.18903237402E+03 -0.44197438113E+03  0.59928160794E+03  0.91898625792E+02 0.  0.
        254    2    1    2    0    0 -0.34585906983E+03 -0.18903237402E+03  0.42405042573E+03  0.10756071603E+04  0.90650993656E+03 0.  0.
        -24    2    4    4    0    0  0.29290237977E+03 -0.77625539992E+02  0.51949235465E+02  0.32370654682E+03  0.10133941412E+03 0.  0.
         24    2    4    4    0    0 -0.63876144960E+03 -0.11140683403E+03  0.37210119026E+03  0.75190061347E+03  0.80421169944E+02 0.  0.
         11    1    3    3    0    0  0.34692408483E+02  0.39437577507E+02 -0.25745770161E+02  0.58495558867E+02  0.00000000000E+00 0.  1.
        -11    1    3    3    0    0  0.31116666135E+03  0.14959479652E+03 -0.41622861097E+03  0.54078604907E+03  0.00000000000E+00 0. -1.
          2    1    6    6  502    0 -0.23131603103E+02 -0.19380965149E+02  0.25052295020E+02  0.39221299800E+02  0.00000000000E+00 0. -1.
          1    1    5    5  503    0  0.22022402254E+03 -0.23566630225E+02  0.46690601112E+01  0.22153059898E+03  0.00000000000E+00 0. -1.
         -2    1    5    5    0  503  0.72678357227E+02 -0.54058909766E+02  0.47280175353E+02  0.10217594783E+03  0.00000000000E+00 0.  1.
         -1    1    6    6    0  502 -0.61562984650E+03 -0.92025868881E+02  0.34704889524E+03  0.71267931367E+03  0.00000000000E+00 0.  1.
<mgrwt>
<rscale>  0 0.16747929E+04</rscale>
<asrwt>0</asrwt>
<pdfrwt beam="1">  1        2 0.13021636E+00 0.16747929E+04</pdfrwt>
<pdfrwt beam="2">  1       -2 0.12745883E+00 0.16747929E+04</pdfrwt>
<totfact> 0.13893541E+01</totfact>
</mgrwt>
</event>
<event>
11    1  0.2045212E-008  0.1929032E+04  0.7818608E-02  0.8640539E-01
         -2   -1    0    0    0  501 -0.00000000000E+00  0.00000000000E+00  0.61846083129E+03  0.61846083129E+03  0.00000000000E+00 0.  1.
          2   -1    0    0  501    0  0.00000000000E+00 -0.00000000000E+00 -0.15042043416E+04  0.15042043416E+04  0.00000000000E+00 0. -1.
         23    2    1    2    0    0 -0.21424077693E+03  0.12016216450E+03 -0.11329795447E+04  0.11628223828E+04  0.90416750978E+02 0.  0.
        254    2    1    2    0    0  0.21424077693E+03 -0.12016216450E+03  0.24723603443E+03  0.95984279010E+03  0.89433465141E+03 0.  0.
         24    2    4    4    0    0  0.18529269829E+03 -0.46082548752E+03  0.22266449367E+03  0.54994950064E+03  0.78558656621E+02 0.  0.
         13    1    3    3    0    0 -0.31552553922E+02  0.40229523911E+02 -0.12058526149E+03  0.13097627091E+03  0.00000000000E+00 0.  1.
        -13    1    3    3    0    0 -0.18268822301E+03  0.79932640586E+02 -0.10123942832E+04  0.10318461119E+04  0.00000000000E+00 0. -1.
          2    1    5    5  502    0  0.16407686740E+03 -0.40141512224E+03  0.16347013186E+03  0.46344126142E+03  0.00000000000E+00 0. -1.
          3    1    4    4  503    0  0.10751557333E+03  0.30179121413E+03  0.67491373066E+01  0.32044201705E+03  0.00000000000E+00 0. -1.
         -4    1    4    4    0  503 -0.78567494692E+02  0.38872108887E+02  0.17822403452E+02  0.89451272413E+02  0.00000000000E+00 0.  1.
         -1    1    5    5    0  502  0.21215830885E+02 -0.59410365280E+02  0.59194361810E+02  0.86508239219E+02  0.00000000000E+00 0.  1.
<mgrwt>
<rscale>  0 0.19290324E+04</rscale>
<asrwt>0</asrwt>
<pdfrwt beam="1">  1        2 0.23141605E+00 0.19290324E+04</pdfrwt>
<pdfrwt beam="2">  1       -2 0.95147822E-01 0.19290324E+04</pdfrwt>
<totfact> 0.10955150E+01</totfact>
</mgrwt>
</event>
<event>
11    1  0.2045212E-008  0.1794704E+04  0.7818608E-02  0.8709121E-01
          2   -1    0    0  501    0  0.00000000000E+00  0.00000000000E+00  0.14940467080E+04  0.14940467080E+04  0.00000000000E+00 0. -1.
         -2   -1    0    0    0  501 -0.00000000000E+00 -0.00000000000E+00 -0.53896636727E+03  0.53896636727E+03  0.00000000000E+00 0.  1.
         23    2    1    2    0    0 -0.51336938054E+03  0.31707704542E+03  0.72177835589E+03  0.94515556042E+03  0.90934397985E+02 0.  0.
        254    2    1    2    0    0  0.51336938054E+03 -0.31707704542E+03  0.23330198487E+03  0.10878575149E+04  0.87459601128E+03 0.  0.
         24    2    4    4    0    0  0.20993462509E+02 -0.32436453066E+02  0.45742848912E+03  0.46647186346E+03  0.82839168187E+02 0.  0.
         13    1    3    3    0    0 -0.37991405503E+03  0.20760250992E+03  0.56639979575E+03  0.71291108839E+03  0.00000000000E+00 0. -1.
        -13    1    3    3    0    0 -0.13345532552E+03  0.10947453550E+03  0.15537856015E+03  0.23224447202E+03  0.00000000000E+00 0.  1.
          4    1    5    5  502    0  0.18960044848E+02 -0.46026872892E+02  0.13724544495E+03  0.14599407005E+03  0.00000000000E+00 0. -1.
          1    1    4    4  503    0  0.11707575744E+03 -0.10515649270E+03 -0.22091300344E+02  0.15891081300E+03  0.00000000000E+00 0. -1.
         -2    1    4    4    0  503  0.37530016060E+03 -0.17948409965E+03 -0.20203520390E+03  0.46247483844E+03  0.00000000000E+00 0.  1.
         -3    1    5    5    0  502  0.20334176608E+01  0.13590419825E+02  0.32018304417E+03  0.32047779341E+03  0.00000000000E+00 0.  1.
<mgrwt>
<rscale>  0 0.17947044E+04</rscale>
<asrwt>0</asrwt>
<pdfrwt beam="1">  1        2 0.22985334E+00 0.17947044E+04</pdfrwt>
<pdfrwt beam="2">  1       -2 0.82917903E-01 0.17947044E+04</pdfrwt>
<totfact> 0.15402383E+01</totfact>
</mgrwt>
</event>
<event>
12    1  0.2045212E-008  0.1518351E+04  0.7818608E-02  0.8872341E-01
          2   -1    0    0  501    0  0.00000000000E+00  0.00000000000E+00  0.24319872745E+04  0.24319872745E+04  0.00000000000E+00 0. -1.
         -2   -1    0    0    0  501 -0.00000000000E+00 -0.00000000000E+00 -0.23698619581E+03  0.23698619581E+03  0.00000000000E+00 0.  1.
         23    2    1    2    0    0 -0.25013927799E+03 -0.25310206536E+03  0.12645113587E+04  0.13167594485E+04  0.90753263899E+02 0.  0.
        254    2    1    2    0    0  0.25013927799E+03  0.25310206536E+03  0.93048971994E+03  0.13522140218E+04  0.91435295591E+03 0.  0.
        -24    2    4    4    0    0  0.30566348409E+03  0.21766715086E+03  0.10928312782E+04  0.11596224455E+04  0.98157319287E+02 0.  0.
         24    2    4    4    0    0 -0.55524206100E+02  0.35434914504E+02 -0.16234155828E+03  0.19259157634E+03  0.79988518573E+02 0.  0.
         11    1    3    3    0    0 -0.20718129980E+03 -0.15497883336E+03  0.94450190581E+03  0.97929892263E+03  0.00000000000E+00 0. -1.
        -11    1    3    3    0    0 -0.42957978188E+02 -0.98123232000E+02  0.32000945290E+03  0.33746052583E+03  0.00000000000E+00 0.  1.
          4    1    6    6  502    0 -0.64598896891E+02  0.12344192765E+02 -0.66259354875E+02  0.93357906377E+02  0.00000000000E+00 0. -1.
          3    1    5    5  503    0  0.28563933769E+03  0.16916934953E+03  0.88338178854E+03  0.94370095072E+03  0.00000000000E+00 0. -1.
         -4    1    5    5    0  503  0.20024146395E+02  0.48497801329E+02  0.20944948967E+03  0.21592149475E+03  0.00000000000E+00 0.  1.
         -3    1    6    6    0  502  0.90746907911E+01  0.23090721739E+02 -0.96082203401E+02  0.99233669960E+02  0.00000000000E+00 0.  1.
<mgrwt>
<rscale>  0 0.15183510E+04</rscale>
<asrwt>0</asrwt>
<pdfrwt beam="1">  1        2 0.37415187E+00 0.15183510E+04</pdfrwt>
<pdfrwt beam="2">  1       -2 0.36459416E-01 0.15183510E+04</pdfrwt>
<totfact> 0.26098306E+01</totfact>
</mgrwt>
</event>
<event>
12    1  0.2045212E-008  0.1694855E+04  0.7818608E-02  0.8764304E-01
          1   -1    0    0  501    0  0.00000000000E+00  0.00000000000E+00  0.13863628479E+04  0.13863628479E+04  0.00000000000E+00 0. -1.
         -1   -1    0    0    0  501 -0.00000000000E+00 -0.00000000000E+00 -0.51799793793E+03  0.51799793793E+03  0.00000000000E+00 0.  1.
         23    2    1    2    0    0 -0.50607994452E+03 -0.14686406398E+01 -0.60807850472E+02  0.51776888730E+03  0.90928317005E+02 0.  0.
        254    2    1    2    0    0  0.50607994452E+03  0.14686406398E+01  0.92917276045E+03  0.13865918985E+04  0.89618971606E+03 0.  0.
        -24    2    4    4    0    0 -0.86150055314E+02  0.69571191017E+01  0.75202914792E+03  0.76347478280E+03  0.99376411301E+02 0.  0.
         24    2    4    4    0    0  0.59222999983E+03 -0.54884784619E+01  0.17714361253E+03  0.62311711573E+03  0.78285275499E+02 0.  0.
         13    1    3    3    0    0 -0.19371005347E+03  0.36172956635E+02  0.13245397291E+01  0.19706298996E+03  0.00000000000E+00 0. -1.
        -13    1    3    3    0    0 -0.31236989104E+03 -0.37641597275E+02 -0.62132390202E+02  0.32070589734E+03  0.00000000000E+00 0.  1.
          2    1    6    6  502    0  0.32420856085E+03 -0.17028455576E+01  0.56203433400E+02  0.32904850180E+03  0.00000000000E+00 0. -1.
          3    1    5    5  503    0 -0.31605473008E+02 -0.26012400358E+01  0.61305056447E+03  0.61387023626E+03  0.00000000000E+00 0. -1.
         -4    1    5    5    0  503 -0.54544582306E+02  0.95583591375E+01  0.13897858345E+03  0.14960454654E+03  0.00000000000E+00 0.  1.
         -1    1    6    6    0  502  0.26802143898E+03 -0.37856329044E+01  0.12094017913E+03  0.29406861393E+03  0.00000000000E+00 0.  1.
<mgrwt>
<rscale>  0 0.16948547E+04</rscale>
<asrwt>0</asrwt>
<pdfrwt beam="1">  1        1 0.21328659E+00 0.16948547E+04</pdfrwt>
<pdfrwt beam="2">  1       -1 0.79691991E-01 0.16948547E+04</pdfrwt>
<totfact> 0.11760803E+01</totfact>
</mgrwt>
</event>
<event>
12    1  0.2045212E-008  0.1599443E+04  0.7818608E-02  0.8820890E-01
         -2   -1    0    0    0  501 -0.00000000000E+00  0.00000000000E+00  0.30845703626E+03  0.30845703626E+03  0.00000000000E+00 0. -1.
          2   -1    0    0  501    0  0.00000000000E+00 -0.00000000000E+00 -0.20733994465E+04  0.20733994465E+04  0.00000000000E+00 0.  1.
         23    2    1    2    0    0 -0.26143478517E+02  0.12276782546E+03 -0.13904463077E+04  0.13991185875E+04  0.91850242289E+02 0.  0.
        254    2    1    2    0    0  0.26143478517E+02 -0.12276782546E+03 -0.37449610257E+03  0.98273789525E+03  0.89987277960E+03 0.  0.
        -24    2    4    4    0    0  0.34262501386E+03  0.14211709567E+02 -0.49778098538E+03  0.60793148992E+03  0.64814459928E+02 0.  0.
         24    2    4    4    0    0 -0.31648153535E+03 -0.13697953502E+03  0.12328488281E+03  0.37480640532E+03  0.79729065663E+02 0.  0.
         11    1    3    3    0    0 -0.20092821113E+02  0.41275756701E+02 -0.17475712454E+03  0.18068608726E+03  0.00000000000E+00 0. -1.
        -11    1    3    3    0    0 -0.60506574038E+01  0.81492068756E+02 -0.12156891831E+04  0.12184325003E+04  0.00000000000E+00 0.  1.
          4    1    6    6  502    0 -0.71804808848E+02 -0.13528861659E+02 -0.28342046545E+01  0.73123138524E+02  0.00000000000E+00 0. -1.
          1    1    5    5  503    0  0.26574033660E+03 -0.82659492721E+01 -0.34645237553E+03  0.43670985898E+03  0.00000000000E+00 0. -1.
         -2    1    5    5    0  503  0.76884677263E+02  0.22477658839E+02 -0.15132860985E+03  0.17122163095E+03  0.00000000000E+00 0.  1.
         -3    1    6    6    0  502 -0.24467672650E+03 -0.12345067336E+03  0.12611908746E+03  0.30168326680E+03  0.00000000000E+00 0.  1.
<mgrwt>
<rscale>  0 0.15994432E+04</rscale>
<asrwt>0</asrwt>
<pdfrwt beam="1">  1        2 0.31898453E+00 0.15994432E+04</pdfrwt>
<pdfrwt beam="2">  1       -2 0.47454929E-01 0.15994432E+04</pdfrwt>
<totfact> 0.24548255E+01</totfact>
</mgrwt>
</event>
<event>
11    1  0.2045212E-008  0.3475514E+04  0.7818608E-02  0.8119617E-01
         -1   -1    0    0    0  501 -0.00000000000E+00  0.00000000000E+00  0.20478781735E+04  0.20478781735E+04  0.00000000000E+00 0.  1.
          1   -1    0    0  501    0  0.00000000000E+00 -0.00000000000E+00 -0.14745994070E+04  0.14745994070E+04  0.00000000000E+00 0. -1.
         23    2    1    2    0    0  0.96862299774E+03  0.72377189517E+03  0.13606370387E+04  0.18226767271E+04  0.93493489603E+02 0.  0.
        254    2    1    2    0    0 -0.96862299774E+03 -0.72377189517E+03 -0.78735827215E+03  0.16998008533E+04  0.89850632957E+03 0.  0.
         24    2    4    4    0    0 -0.41551820843E+03 -0.27468936585E+03  0.33852834909E+01  0.50431070288E+03  0.78792103965E+02 0.  0.
         11    1    3    3    0    0  0.18450493524E+03  0.94809186779E+02  0.22281230666E+03  0.30442762198E+03  0.00000000000E+00 0. -1.
        -11    1    3    3    0    0  0.78411806250E+03  0.62896270839E+03  0.11378247320E+04  0.15182491051E+04  0.00000000000E+00 0.  1.
          4    1    5    5  502    0 -0.18979199605E+02 -0.10011395821E+02  0.16973944216E+02  0.27359693825E+02  0.00000000000E+00 0. -1.
          3    1    4    4  503    0  0.54722074358E+02 -0.87825734898E+02  0.34201650344E+02  0.10898448522E+03  0.00000000000E+00 0. -1.
         -4    1    4    4    0  503 -0.60782686366E+03 -0.36125679442E+03 -0.82494520598E+03  0.10865056652E+04  0.00000000000E+00 0.  1.
         -3    1    5    5    0  502 -0.39653900883E+03 -0.26467797002E+03 -0.13588660725E+02  0.47695100906E+03  0.00000000000E+00 0.  1.
<mgrwt>
<rscale>  0 0.34755143E+04</rscale>
<asrwt>0</asrwt>
<pdfrwt beam="1">  1        1 0.22686145E+00 0.34755143E+04</pdfrwt>
<pdfrwt beam="2">  1       -1 0.31505818E+00 0.34755143E+04</pdfrwt>
<totfact> 0.14678881E-01</totfact>
</mgrwt>
</event>
<event>
12    1  0.2045212E-008  0.1221010E+04  0.7818608E-02  0.9094663E-01
          2   -1    0    0  501    0  0.00000000000E+00  0.00000000000E+00  0.58990206769E+03  0.58990206769E+03  0.00000000000E+00 0. -1.
         -2   -1    0    0    0  501 -0.00000000000E+00 -0.00000000000E+00 -0.63182764363E+03  0.63182764363E+03  0.00000000000E+00 0.  1.
         23    2    1    2    0    0 -0.35348196127E+02 -0.22470609218E+03 -0.14087959848E+03  0.28238233267E+03  0.90279553101E+02 0.  0.
        254    2    1    2    0    0  0.35348196127E+02  0.22470609218E+03  0.98954022536E+02  0.93934737865E+03  0.90600180815E+03 0.  0.
        -24    2    4    4    0    0 -0.28714379766E+03 -0.16965414590E+03  0.21811765509E+03  0.41014012840E+03  0.96982079323E+02 0.  0.
         24    2    4    4    0    0  0.32249199378E+03  0.39436023807E+03 -0.11916363255E+03  0.52920725024E+03  0.79619463439E+02 0.  0.
         13    1    3    3    0    0 -0.46514488572E+02 -0.47317491702E+02 -0.47538692539E+02  0.81623954550E+02  0.00000000000E+00 0. -1.
        -13    1    3    3    0    0  0.11166292445E+02 -0.17738860047E+03 -0.93340905943E+02  0.20075837812E+03  0.00000000000E+00 0.  1.
          4    1    6    6  502    0  0.11241439245E+03  0.14489754644E+03 -0.43184312371E+01  0.18344193480E+03  0.00000000000E+00 0. -1.
          3    1    5    5  503    0 -0.22618949187E+02 -0.21827580375E+02 -0.75347947908E+01  0.32323880644E+02  0.00000000000E+00 0. -1.
         -4    1    5    5    0  503 -0.26452484847E+03 -0.14782656552E+03  0.22565244988E+03  0.37781624776E+03  0.00000000000E+00 0.  1.
         -3    1    6    6    0  502  0.21007760134E+03  0.24946269164E+03 -0.11484520132E+03  0.34576531545E+03  0.00000000000E+00 0.  1.
<mgrwt>
<rscale>  0 0.12210101E+04</rscale>
<asrwt>0</asrwt>
<pdfrwt beam="1">  1        2 0.90754165E-01 0.12210101E+04</pdfrwt>
<pdfrwt beam="2">  1       -2 0.97204252E-01 0.12210101E+04</pdfrwt>
<totfact> 0.44071646E+01</totfact>
</mgrwt>
</event>
<event>
11    1  0.2045212E-008  0.1702168E+04  0.7818608E-02  0.8760129E-01
          1   -1    0    0  501    0  0.00000000000E+00  0.00000000000E+00  0.68976728377E+03  0.68976728377E+03  0.00000000000E+00 0. -1.
         -1   -1    0    0    0  501 -0.00000000000E+00 -0.00000000000E+00 -0.10501284481E+04  0.10501284481E+04  0.00000000000E+00 0.  1.
         23    2    1    2    0    0 -0.94411030683E+02  0.44104796784E+03  0.28717292878E+03  0.54250784099E+03  0.91704492058E+02 0.  0.
        254    2    1    2    0    0  0.94411030683E+02 -0.44104796784E+03 -0.64753409315E+03  0.11973878909E+04  0.90055572115E+03 0.  0.
         24    2    4    4    0    0  0.11744771999E+03 -0.19713621630E+03  0.19442971585E+03  0.31129649597E+03  0.80286607144E+02 0.  0.
         11    1    3    3    0    0 -0.72635085807E+01  0.25087227020E+03  0.15104605529E+03  0.29292416310E+03  0.00000000000E+00 0. -1.
        -11    1    3    3    0    0 -0.87147522102E+02  0.19017569764E+03  0.13612687349E+03  0.24958367788E+03  0.00000000000E+00 0.  1.
          2    1    5    5  502    0 -0.97995387513E+01 -0.35183349480E+02  0.37632151254E+02  0.52441184659E+02  0.00000000000E+00 0. -1.
          3    1    4    4  503    0  0.38058444530E+02 -0.53608931287E+02 -0.11838385646E+03  0.13541454938E+03  0.00000000000E+00 0. -1.
         -4    1    4    4    0  503 -0.61095133839E+02 -0.19030282025E+03 -0.72357995254E+03  0.75067684558E+03  0.00000000000E+00 0.  1.
         -1    1    5    5    0  502  0.12724725874E+03 -0.16195286682E+03  0.15679756459E+03  0.25885531131E+03  0.00000000000E+00 0.  1.
<mgrwt>
<rscale>  0 0.17021683E+04</rscale>
<asrwt>0</asrwt>
<pdfrwt beam="1">  1        1 0.10611804E+00 0.17021683E+04</pdfrwt>
<pdfrwt beam="2">  1       -1 0.16155822E+00 0.17021683E+04</pdfrwt>
<totfact> 0.75391240E+00</totfact>
</mgrwt>
</event>
<event>
11    1  0.2045212E-008  0.1295859E+04  0.7818608E-02  0.9032855E-01
          2   -1    0    0  501    0  0.00000000000E+00  0.00000000000E+00  0.65928229257E+03  0.65928229257E+03  0.00000000000E+00 0. -1.
         -2   -1    0    0    0  501 -0.00000000000E+00 -0.00000000000E+00 -0.63677236117E+03  0.63677236117E+03  0.00000000000E+00 0.  1.
         23    2    1    2    0    0  0.13838624244E+03 -0.10364896585E+02 -0.28641072379E+03  0.32978138493E+03  0.86408772497E+02 0.  0.
        254    2    1    2    0    0 -0.13838624244E+03  0.10364896585E+02  0.30892065519E+03  0.96627326881E+03  0.90498280406E+03 0.  0.
         24    2    4    4    0    0 -0.15599954121E+03 -0.25843452498E+03 -0.19980314268E+03  0.37078457464E+03  0.80222468226E+02 0.  0.
         11    1    3    3    0    0  0.32990073561E+02  0.31247523922E+02 -0.12126581580E+03  0.12949961693E+03  0.00000000000E+00 0.  1.
        -11    1    3    3    0    0  0.10539616888E+03 -0.41612420507E+02 -0.16514490799E+03  0.20028176799E+03  0.00000000000E+00 0. -1.
          4    1    5    5  502    0 -0.17431729645E+01 -0.35125339398E+02 -0.25346341389E+01  0.35259785734E+02  0.00000000000E+00 0. -1.
          3    1    4    4  503    0  0.37745990207E+02  0.40084978521E+01  0.11054498262E+03  0.11688037052E+03  0.00000000000E+00 0. -1.
         -4    1    4    4    0  503 -0.20132691431E+02  0.26479092371E+03  0.39817881525E+03  0.47860832365E+03  0.00000000000E+00 0.  1.
         -3    1    5    5    0  502 -0.15425636825E+03 -0.22330918558E+03 -0.19726850854E+03  0.33552478891E+03  0.00000000000E+00 0.  1.
<mgrwt>
<rscale>  0 0.12958592E+04</rscale>
<asrwt>0</asrwt>
<pdfrwt beam="1">  1        2 0.10142804E+00 0.12958592E+04</pdfrwt>
<pdfrwt beam="2">  1       -2 0.97964979E-01 0.12958592E+04</pdfrwt>
<totfact> 0.37569191E+01</totfact>
</mgrwt>
</event>
<event>
12    1  0.2045212E-008  0.2155613E+04  0.7818608E-02  0.8537133E-01
          2   -1    0    0  501    0  0.00000000000E+00  0.00000000000E+00  0.10170001537E+04  0.10170001537E+04  0.00000000000E+00 0. -1.
         -2   -1    0    0    0  501 -0.00000000000E+00 -0.00000000000E+00 -0.11422484514E+04  0.11422484514E+04  0.00000000000E+00 0.  1.
         23    2    1    2    0    0  0.21312221053E+02  0.85754244882E+03 -0.24686344256E+03  0.89776963246E+03  0.95997351048E+02 0.  0.
        254    2    1    2    0    0 -0.21312221053E+02 -0.85754244882E+03  0.12161514485E+03  0.12614789727E+04  0.91690004516E+03 0.  0.
        -24    2    4    4    0    0 -0.63028385817E+02 -0.27240398083E+03  0.48703485655E+03  0.56560017981E+03  0.67261472761E+02 0.  0.
         24    2    4    4    0    0  0.41716164764E+02 -0.58513846799E+03 -0.36541971169E+03  0.69587879290E+03  0.81169351263E+02 0.  0.
         11    1    3    3    0    0 -0.47573978251E+01  0.18079540350E+02 -0.20888576097E+02  0.28032752714E+02  0.00000000000E+00 0. -1.
        -11    1    3    3    0    0  0.26069618878E+02  0.83946290847E+03 -0.22597486646E+03  0.86973687975E+03  0.00000000000E+00 0.  1.
          2    1    6    6  502    0  0.41379946277E+02 -0.58114535476E+03 -0.34937596578E+03  0.67934217356E+03  0.00000000000E+00 0. -1.
          1    1    5    5  503    0 -0.33224071325E+02 -0.12656089874E+03  0.29426663807E+03  0.32204713054E+03  0.00000000000E+00 0. -1.
         -2    1    5    5    0  503 -0.29804314493E+02 -0.14584308209E+03  0.19276821847E+03  0.24355304927E+03  0.00000000000E+00 0.  1.
         -1    1    6    6    0  502  0.33621848750E+00 -0.39931132295E+01 -0.16043745912E+02  0.16536619335E+02  0.00000000000E+00 0.  1.
<mgrwt>
<rscale>  0 0.21556130E+04</rscale>
<asrwt>0</asrwt>
<pdfrwt beam="1">  1        2 0.15646156E+00 0.21556130E+04</pdfrwt>
<pdfrwt beam="2">  1       -2 0.17573053E+00 0.21556130E+04</pdfrwt>
<totfact> 0.43748102E+00</totfact>
</mgrwt>
</event>
<event>
12    1  0.2045212E-008  0.1741045E+04  0.7818608E-02  0.8738295E-01
         -2   -1    0    0    0  501 -0.00000000000E+00  0.00000000000E+00  0.17989479724E+04  0.17989479724E+04  0.00000000000E+00 0.  1.
          2   -1    0    0  501    0  0.00000000000E+00 -0.00000000000E+00 -0.42125144197E+03  0.42125144197E+03  0.00000000000E+00 0. -1.
         23    2    1    2    0    0 -0.63188968305E+03 -0.42973607972E+02  0.48986580432E+03  0.80601431613E+03  0.92516317711E+02 0.  0.
        254    2    1    2    0    0  0.63188968305E+03  0.42973607972E+02  0.88783072611E+03  0.14141850982E+04  0.90030261097E+03 0.  0.
        -24    2    4    4    0    0  0.57189839756E+02 -0.37081883688E+03  0.34993051314E+03  0.52116190556E+03  0.91548239895E+02 0.  0.
         24    2    4    4    0    0  0.57469984329E+03  0.41379244485E+03  0.53790021297E+03  0.89302319267E+03  0.81545608333E+02 0.  0.
         13    1    3    3    0    0 -0.52392561358E+03 -0.19356115746E+02  0.44134109273E+03  0.68531355445E+03  0.00000000000E+00 0. -1.
        -13    1    3    3    0    0 -0.10796406947E+03 -0.23617492226E+02  0.48524711586E+02  0.12070076168E+03  0.00000000000E+00 0.  1.
          4    1    6    6  502    0  0.38928114899E+03  0.23389106994E+03  0.32918903188E+03  0.56090129637E+03  0.00000000000E+00 0. -1.
          3    1    5    5  503    0 -0.68639810241E+00 -0.45724325106E+02  0.89899239236E+02  0.10086157972E+03  0.00000000000E+00 0. -1.
         -4    1    5    5    0  503  0.57876237858E+02 -0.32509451178E+03  0.26003127390E+03  0.42030032584E+03  0.00000000000E+00 0.  1.
         -3    1    6    6    0  502  0.18541869430E+03  0.17990137491E+03  0.20871118109E+03  0.33212189630E+03  0.00000000000E+00 0.  1.
<mgrwt>
<rscale>  0 0.17410450E+04</rscale>
<asrwt>0</asrwt>
<pdfrwt beam="1">  1        2 0.64807915E-01 0.17410450E+04</pdfrwt>
<pdfrwt beam="2">  1       -2 0.27676122E+00 0.17410450E+04</pdfrwt>
<totfact> 0.31378157E+00</totfact>
</mgrwt>
</event>
<event>
11    1  0.2045212E-008  0.1639916E+04  0.7818608E-02  0.8796394E-01
         -1   -1    0    0    0  501 -0.00000000000E+00  0.00000000000E+00  0.44208023472E+03  0.44208023472E+03  0.00000000000E+00 0.  1.
          1   -1    0    0  501    0  0.00000000000E+00 -0.00000000000E+00 -0.15208352573E+04  0.15208352573E+04  0.00000000000E+00 0. -1.
         23    2    1    2    0    0  0.23384696622E+03 -0.16251648106E+03 -0.94556833575E+03  0.99184761877E+03  0.92553827823E+02 0.  0.
        254    2    1    2    0    0 -0.23384696622E+03  0.16251648106E+03 -0.13318668687E+03  0.97106787330E+03  0.91876989000E+03 0.  0.
         24    2    4    4    0    0  0.29952576724E+03  0.13188689232E+03 -0.17764740407E+03  0.38081378201E+03  0.79691271765E+02 0.  0.
         11    1    3    3    0    0  0.55836340395E+02 -0.19663761653E+02 -0.10186743085E+03  0.11781907273E+03  0.00000000000E+00 0.  1.
        -11    1    3    3    0    0  0.17801062582E+03 -0.14285271941E+03 -0.84370090491E+03  0.87402854604E+03  0.00000000000E+00 0. -1.
          2    1    5    5  502    0  0.20045524324E+03  0.87469466738E+02 -0.15960563974E+03  0.27075297300E+03  0.00000000000E+00 0. -1.
          3    1    4    4  503    0 -0.29533471352E+02 -0.30156332850E+02  0.70416262659E+02  0.82097992594E+02  0.00000000000E+00 0. -1.
         -4    1    4    4    0  503 -0.50383926210E+03  0.60785921597E+02 -0.25955545460E+02  0.50815609869E+03  0.00000000000E+00 0.  1.
         -1    1    5    5    0  502  0.99070523996E+02  0.44417425580E+02 -0.18041764332E+02  0.11006080901E+03  0.00000000000E+00 0.  1.
<mgrwt>
<rscale>  0 0.16399161E+04</rscale>
<asrwt>0</asrwt>
<pdfrwt beam="1">  1        1 0.23397466E+00 0.16399161E+04</pdfrwt>
<pdfrwt beam="2">  1       -1 0.68012343E-01 0.16399161E+04</pdfrwt>
<totfact> 0.13244993E+01</totfact>
</mgrwt>
</event>
<event>
12    1  0.2045212E-008  0.1847464E+04  0.7818608E-02  0.8681458E-01
         -2   -1    0    0    0  501 -0.00000000000E+00  0.00000000000E+00  0.76252808816E+03  0.76252808816E+03  0.00000000000E+00 0.  1.
          2   -1    0    0  501    0  0.00000000000E+00 -0.00000000000E+00 -0.11190157303E+04  0.11190157303E+04  0.00000000000E+00 0. -1.
         23    2    1    2    0    0  0.43302703295E+03 -0.17932396383E+03  0.39228309674E+03  0.61760626607E+03  0.88780496912E+02 0.  0.
        254    2    1    2    0    0 -0.43302703295E+03  0.17932396383E+03 -0.74877073893E+03  0.12639375524E+04  0.90399724652E+03 0.  0.
        -24    2    4    4    0    0  0.31816039957E+01 -0.32818239216E+03 -0.27650879253E+03  0.44112696163E+03  0.10208858314E+03 0.  0.
         24    2    4    4    0    0 -0.43620863695E+03  0.50750635600E+03 -0.47226194640E+03  0.82281059080E+03  0.78391619424E+02 0.  0.
         11    1    3    3    0    0  0.31778458149E+03 -0.13924545988E+03  0.33691043358E+03  0.48361656153E+03  0.00000000000E+00 0.  1.
        -11    1    3    3    0    0  0.11524245146E+03 -0.40078503954E+02  0.55372663159E+02  0.13398970454E+03  0.00000000000E+00 0. -1.
          4    1    6    6  502    0 -0.25546046524E+03  0.26802206493E+03 -0.21906868020E+03  0.43021734418E+03  0.00000000000E+00 0. -1.
          1    1    5    5  503    0  0.11102967638E+02 -0.33336532063E+03 -0.27301324080E+03  0.43103589473E+03  0.00000000000E+00 0. -1.
         -2    1    5    5    0  503 -0.79213636420E+01  0.51829284699E+01 -0.34955517287E+01  0.10091066909E+02  0.00000000000E+00 0.  1.
         -3    1    6    6    0  502 -0.18074817170E+03  0.23948429107E+03 -0.25319326620E+03  0.39259324662E+03  0.00000000000E+00 0.  1.
<mgrwt>
<rscale>  0 0.18474641E+04</rscale>
<asrwt>0</asrwt>
<pdfrwt beam="1">  1        2 0.17215627E+00 0.18474641E+04</pdfrwt>
<pdfrwt beam="2">  1       -2 0.11731201E+00 0.18474641E+04</pdfrwt>
<totfact> 0.11202419E+01</totfact>
</mgrwt>
</event>
<event>
12    1  0.2045212E-008  0.1608743E+04  0.7818608E-02  0.8815195E-01
         -1   -1    0    0    0  501 -0.00000000000E+00  0.00000000000E+00  0.97275198645E+03  0.97275198645E+03  0.00000000000E+00 0.  1.
          1   -1    0    0  501    0  0.00000000000E+00 -0.00000000000E+00 -0.66513733021E+03  0.66513733021E+03  0.00000000000E+00 0. -1.
         23    2    1    2    0    0 -0.52702929229E+03  0.23545306584E+02 -0.59879325569E+02  0.53823917130E+03  0.88326754109E+02 0.  0.
        254    2    1    2    0    0  0.52702929229E+03 -0.23545306584E+02  0.36749398181E+03  0.10996501454E+04  0.89211230187E+03 0.  0.
        -24    2    4    4    0    0  0.10743263386E+03 -0.96820834394E+02 -0.27236829739E+03  0.32684812345E+03  0.10830125387E+03 0.  0.
         24    2    4    4    0    0  0.41959665843E+03  0.73275527810E+02  0.63986227920E+03  0.77280202191E+03  0.79803320665E+02 0.  0.
         13    1    3    3    0    0 -0.49949736178E+03  0.61845942590E+01 -0.42497090142E+02  0.50134007051E+03  0.00000000000E+00 0.  1.
        -13    1    3    3    0    0 -0.27531930509E+02  0.17360712325E+02 -0.17382235427E+02  0.36899100781E+02  0.00000000000E+00 0. -1.
          2    1    6    6  502    0  0.18359768262E+03  0.46107636516E+02  0.35110536960E+03  0.39888469985E+03  0.00000000000E+00 0. -1.
          1    1    5    5  503    0  0.87619068719E+02 -0.75167745822E+02 -0.27412836493E+03  0.29744520785E+03  0.00000000000E+00 0. -1.
         -2    1    5    5    0  503  0.19813565140E+02 -0.21653088572E+02  0.17600675347E+01  0.29402915604E+02  0.00000000000E+00 0.  1.
         -1    1    6    6    0  502  0.23599897581E+03  0.27167891294E+02  0.28875690960E+03  0.37391732207E+03  0.00000000000E+00 0.  1.
<mgrwt>
<rscale>  0 0.16087432E+04</rscale>
<asrwt>0</asrwt>
<pdfrwt beam="1">  1        1 0.10232882E+00 0.16087432E+04</pdfrwt>
<pdfrwt beam="2">  1       -1 0.14965415E+00 0.16087432E+04</pdfrwt>
<totfact> 0.99074382E+00</totfact>
</mgrwt>
</event>
<event>
12    1  0.2045212E-008  0.1121807E+04  0.7818608E-02  0.9184194E-01
          1   -1    0    0  501    0  0.00000000000E+00  0.00000000000E+00  0.74472852973E+03  0.74472852973E+03  0.00000000000E+00 0. -1.
         -1   -1    0    0    0  501 -0.00000000000E+00 -0.00000000000E+00 -0.42245306207E+03  0.42245306207E+03  0.00000000000E+00 0.  1.
         23    2    1    2    0    0 -0.80007537263E+02 -0.11621558916E+03 -0.57544331009E+02  0.17800183967E+03  0.92011062987E+02 0.  0.
        254    2    1    2    0    0  0.80007537263E+02  0.11621558916E+03  0.37981979866E+03  0.98917975213E+03  0.90238918066E+03 0.  0.
        -24    2    4    4    0    0 -0.37650608544E+03  0.13695565295E+03  0.33183903557E+03  0.52316643633E+03  0.55428253923E+02 0.  0.
         24    2    4    4    0    0  0.45651362270E+03 -0.20740063787E+02  0.47980763096E+02  0.46601331579E+03  0.77662210305E+02 0.  0.
         11    1    3    3    0    0 -0.72415366211E+02 -0.10849689099E+03 -0.80035800306E+02  0.15304015796E+03  0.00000000000E+00 0.  1.
        -11    1    3    3    0    0 -0.75921710527E+01 -0.77186981737E+01  0.22491469297E+02  0.24961681713E+02  0.00000000000E+00 0. -1.
          2    1    6    6  502    0  0.37501256725E+03 -0.44268210937E+02  0.51495132576E+02  0.38111133383E+03  0.00000000000E+00 0. -1.
          3    1    5    5  503    0 -0.30850622095E+03  0.92278147305E+02  0.27974706031E+03  0.42655569694E+03  0.00000000000E+00 0. -1.
         -4    1    5    5    0  503 -0.67999864491E+02  0.44677505644E+02  0.52091975253E+02  0.96610739399E+02  0.00000000000E+00 0.  1.
         -1    1    6    6    0  502  0.81501055454E+02  0.23528147150E+02 -0.35143694800E+01  0.84901981963E+02  0.00000000000E+00 0.  1.
<mgrwt>
<rscale>  0 0.11218072E+04</rscale>
<asrwt>0</asrwt>
<pdfrwt beam="1">  1        1 0.11457362E+00 0.11218072E+04</pdfrwt>
<pdfrwt beam="2">  1       -1 0.64992779E-01 0.11218072E+04</pdfrwt>
<totfact> 0.59159105E+01</totfact>
</mgrwt>
</event>
<event>
12    1  0.3001658E-008  0.1854531E+04  0.7818608E-02  0.8677826E-01
          2   -1    0    0  501    0  0.00000000000E+00  0.00000000000E+00  0.87385008497E+03  0.87385008497E+03  0.00000000000E+00 0. -1.
         -2   -1    0    0    0  501 -0.00000000000E+00 -0.00000000000E+00 -0.98394597614E+03  0.98394597614E+03  0.00000000000E+00 0.  1.
         23    2    1    2    0    0 -0.72825831343E+02 -0.63703276231E+03 -0.33484746125E+03  0.72927333489E+03  0.92749300329E+02 0.  0.
        254    2    1    2    0    0  0.72825831343E+02  0.63703276231E+03  0.22475157008E+03  0.11285227262E+04  0.90107487667E+03 0.  0.
        -24    2    4    4    0    0 -0.21914719916E+03  0.74551100998E+03  0.18613452029E+03  0.80494923694E+03  0.97391239396E+02 0.  0.
         24    2    4    4    0    0  0.29197303051E+03 -0.10847824767E+03  0.38617049783E+02  0.32357348927E+03  0.78694000191E+02 0.  0.
         11    1    3    3    0    0 -0.48943969527E+02 -0.39678664583E+03 -0.25839032041E+03  0.47602595742E+03  0.00000000000E+00 0.  1.
        -11    1    3    3    0    0 -0.23881861815E+02 -0.24024611648E+03 -0.76457140839E+02  0.25324737747E+03  0.00000000000E+00 0. -1.
          4    1    6    6  502    0  0.53381802069E+01  0.35228569140E+00 -0.11706440265E+02  0.12870936905E+02  0.00000000000E+00 0. -1.
          3    1    5    5  503    0 -0.26096379730E+02  0.12268171818E+03  0.66632493443E+02  0.14202716005E+03  0.00000000000E+00 0. -1.
         -4    1    5    5    0  503 -0.19305081943E+03  0.62282929180E+03  0.11950202685E+03  0.66292207689E+03  0.00000000000E+00 0.  1.
         -3    1    6    6    0  502  0.28663485030E+03 -0.10883053336E+03  0.50323490048E+02  0.31070255237E+03  0.00000000000E+00 0.  1.
<mgrwt>
<rscale>  0 0.18545310E+04</rscale>
<asrwt>0</asrwt>
<pdfrwt beam="1">  1        2 0.13443847E+00 0.18545310E+04</pdfrwt>
<pdfrwt beam="2">  1       -2 0.15137630E+00 0.18545310E+04</pdfrwt>
<totfact> 0.83958466E+00</totfact>
</mgrwt>
</event>
<event>
11    1  0.2045212E-008  0.1970481E+04  0.7818608E-02  0.8620547E-01
          2   -1    0    0  501    0  0.00000000000E+00  0.00000000000E+00  0.11330806887E+04  0.11330806887E+04  0.00000000000E+00 0. -1.
         -2   -1    0    0    0  501 -0.00000000000E+00 -0.00000000000E+00 -0.85668999351E+03  0.85668999351E+03  0.00000000000E+00 0.  1.
         23    2    1    2    0    0  0.36729624606E+03 -0.10728169822E+03 -0.56339178616E+03  0.68708554320E+03  0.90886433686E+02 0.  0.
        254    2    1    2    0    0 -0.36729624606E+03  0.10728169822E+03  0.83978248136E+03  0.13026851390E+04  0.91942267770E+03 0.  0.
         24    2    4    4    0    0 -0.24772257108E+03  0.37570080849E+03  0.81167107311E+03  0.93150620033E+03  0.79851741444E+02 0.  0.
         11    1    3    3    0    0  0.23815335445E+03 -0.50177658276E+02 -0.28386069996E+03  0.37391404709E+03  0.00000000000E+00 0. -1.
        -11    1    3    3    0    0  0.12914289161E+03 -0.57104039940E+02 -0.27953108620E+03  0.31317149612E+03  0.00000000000E+00 0.  1.
          2    1    5    5  502    0 -0.20497613111E+03  0.34713855853E+03  0.68537603175E+03  0.79514822395E+03  0.00000000000E+00 0. -1.
          1    1    4    4  503    0 -0.18217697213E+02 -0.17635487814E+03 -0.82126782222E+02  0.19539123802E+03  0.00000000000E+00 0. -1.
         -2    1    4    4    0  503 -0.10135597776E+03 -0.92064232134E+02  0.11023819048E+03  0.17578770067E+03  0.00000000000E+00 0.  1.
         -1    1    5    5    0  502 -0.42746439974E+02  0.28562249961E+02  0.12629504135E+03  0.13635797638E+03  0.00000000000E+00 0.  1.
<mgrwt>
<rscale>  0 0.19704810E+04</rscale>
<asrwt>0</asrwt>
<pdfrwt beam="1">  1        2 0.17432011E+00 0.19704810E+04</pdfrwt>
<pdfrwt beam="2">  1       -2 0.13179846E+00 0.19704810E+04</pdfrwt>
<totfact> 0.81211928E+00</totfact>
</mgrwt>
</event>
<event>
12    1  0.2045212E-008  0.1648443E+04  0.7818608E-02  0.8791328E-01
         -1   -1    0    0    0  501 -0.00000000000E+00  0.00000000000E+00  0.98993699953E+03  0.98993699953E+03  0.00000000000E+00 0.  1.
          1   -1    0    0  501    0  0.00000000000E+00 -0.00000000000E+00 -0.68624669379E+03  0.68624669379E+03  0.00000000000E+00 0. -1.
         23    2    1    2    0    0  0.37269274493E+03  0.43443258530E+03  0.43858341870E+02  0.58157671340E+03  0.93147013500E+02 0.  0.
        254    2    1    2    0    0 -0.37269274493E+03 -0.43443258530E+03  0.25983196387E+03  0.10946069799E+04  0.89611396471E+03 0.  0.
        -24    2    4    4    0    0 -0.28263808551E+03 -0.69066624568E+03  0.73518348920E+02  0.75536820865E+03  0.90950715756E+02 0.  0.
         24    2    4    4    0    0 -0.90054659421E+02  0.25623366038E+03  0.18631361495E+03  0.33923877128E+03  0.81269000381E+02 0.  0.
         11    1    3    3    0    0  0.35497173838E+03  0.39153171732E+03  0.61208962202E+02  0.53202308011E+03  0.00000000000E+00 0.  1.
        -11    1    3    3    0    0  0.17721006556E+02  0.42900867976E+02 -0.17350620332E+02  0.49553633291E+02  0.00000000000E+00 0. -1.
          4    1    6    6  502    0 -0.75978189116E+01  0.14243899140E+03  0.10198227633E+03  0.17534816169E+03  0.00000000000E+00 0. -1.
          3    1    5    5  503    0 -0.21444530362E+03 -0.43834457034E+03  0.76671503234E+02  0.49397496900E+03  0.00000000000E+00 0. -1.
         -4    1    5    5    0  503 -0.68192781897E+02 -0.25232167534E+03 -0.31531543142E+01  0.26139323965E+03  0.00000000000E+00 0.  1.
         -3    1    6    6    0  502 -0.82456840509E+02  0.11379466898E+03  0.84331338626E+02  0.16389060958E+03  0.00000000000E+00 0.  1.
<mgrwt>
<rscale>  0 0.16484429E+04</rscale>
<asrwt>0</asrwt>
<pdfrwt beam="1">  1        1 0.10557641E+00 0.16484429E+04</pdfrwt>
<pdfrwt beam="2">  1       -1 0.15229800E+00 0.16484429E+04</pdfrwt>
<totfact> 0.89850019E+00</totfact>
</mgrwt>
</event>
<event>
12    1  0.2045212E-008  0.1448329E+04  0.7818608E-02  0.8919560E-01
         -2   -1    0    0    0  501 -0.00000000000E+00  0.00000000000E+00  0.23419145445E+03  0.23419145445E+03  0.00000000000E+00 0.  1.
          2   -1    0    0  501    0  0.00000000000E+00 -0.00000000000E+00 -0.22392530242E+04  0.22392530242E+04  0.00000000000E+00 0. -1.
         23    2    1    2    0    0 -0.75167518513E+02  0.27680558178E+03 -0.54362637357E+02  0.30572053068E+03  0.90764864329E+02 0.  0.
        254    2    1    2    0    0  0.75167518513E+02 -0.27680558178E+03 -0.19506989324E+04  0.21677239479E+04  0.90084921259E+03 0.  0.
        -24    2    4    4    0    0 -0.27794032385E+03 -0.43622379552E+03 -0.84369412766E+03  0.99202894343E+03  0.68990000477E+02 0.  0.
         24    2    4    4    0    0  0.35310784236E+03  0.15941821375E+03 -0.11070048047E+04  0.11756950045E+04  0.81852249688E+02 0.  0.
         11    1    3    3    0    0 -0.11729293444E+02  0.82110706194E+02  0.24192237798E+02  0.86400282211E+02  0.00000000000E+00 0. -1.
        -11    1    3    3    0    0 -0.63438225069E+02  0.19469487558E+03 -0.78554875155E+02  0.21932024847E+03  0.00000000000E+00 0.  1.
          2    1    6    6  502    0  0.29882862412E+03  0.15325605151E+03 -0.10099339809E+04  0.10643085125E+04  0.00000000000E+00 0. -1.
          1    1    5    5  503    0 -0.18557933975E+03 -0.33335905526E+03 -0.65657653727E+03  0.75938178827E+03  0.00000000000E+00 0. -1.
         -2    1    5    5    0  503 -0.92360984091E+02 -0.10286474026E+03 -0.18711759039E+03  0.23264715516E+03  0.00000000000E+00 0.  1.
         -3    1    6    6    0  502  0.54279218243E+02  0.61621622380E+01 -0.97070823763E+02  0.11138649201E+03  0.00000000000E+00 0.  1.
<mgrwt>
<rscale>  0 0.14483286E+04</rscale>
<asrwt>0</asrwt>
<pdfrwt beam="1">  1        2 0.34450048E+00 0.14483286E+04</pdfrwt>
<pdfrwt beam="2">  1       -2 0.36029453E-01 0.14483286E+04</pdfrwt>
<totfact> 0.34539835E+01</totfact>
</mgrwt>
</event>
<event>
12    1  0.2045212E-008  0.1410169E+04  0.7818608E-02  0.8946490E-01
          1   -1    0    0  501    0  0.00000000000E+00  0.00000000000E+00  0.13958869051E+04  0.13958869051E+04  0.00000000000E+00 0. -1.
         -1   -1    0    0    0  501 -0.00000000000E+00 -0.00000000000E+00 -0.35614941324E+03  0.35614941324E+03  0.00000000000E+00 0.  1.
         23    2    1    2    0    0 -0.28630048635E+03 -0.14025562118E+03  0.63073249017E+03  0.71304948867E+03  0.94744347463E+02 0.  0.
        254    2    1    2    0    0  0.28630048635E+03  0.14025562118E+03  0.40900500165E+03  0.10389868296E+04  0.90031601841E+03 0.  0.
        -24    2    4    4    0    0  0.46633410346E+03  0.11506097528E+02 -0.97767481843E+02  0.48045968202E+03  0.60688872221E+02 0.  0.
         24    2    4    4    0    0 -0.18003361711E+03  0.12874952365E+03  0.50677248349E+03  0.55852714761E+03  0.78394396904E+02 0.  0.
         11    1    3    3    0    0 -0.99375605565E+02 -0.70245602536E+02  0.15446356168E+03  0.19664421564E+03  0.00000000000E+00 0.  1.
        -11    1    3    3    0    0 -0.18692488079E+03 -0.70010018644E+02  0.47626892850E+03  0.51640527304E+03  0.00000000000E+00 0. -1.
          2    1    6    6  502    0 -0.98796744018E+02  0.11631828750E+03  0.32678084441E+03  0.36066114417E+03  0.00000000000E+00 0. -1.
          3    1    5    5  503    0  0.20474983967E+03 -0.15031967831E+02 -0.65847025926E+02  0.21560215149E+03  0.00000000000E+00 0. -1.
         -4    1    5    5    0  503  0.26158426379E+03  0.26538065359E+02 -0.31920455917E+02  0.26485753053E+03  0.00000000000E+00 0.  1.
         -1    1    6    6    0  502 -0.81236873087E+02  0.12431236150E+02  0.17999163908E+03  0.19786600344E+03  0.00000000000E+00 0.  1.
<mgrwt>
<rscale>  0 0.14101692E+04</rscale>
<asrwt>0</asrwt>
<pdfrwt beam="1">  1        1 0.21475183E+00 0.14101692E+04</pdfrwt>
<pdfrwt beam="2">  1       -1 0.54792218E-01 0.14101692E+04</pdfrwt>
<totfact> 0.25359566E+01</totfact>
</mgrwt>
</event>
<event>
12    1  0.2045212E-008  0.1494796E+04  0.7818608E-02  0.8887921E-01
         -2   -1    0    0    0  501 -0.00000000000E+00  0.00000000000E+00  0.62716830467E+03  0.62716830467E+03  0.00000000000E+00 0.  1.
          2   -1    0    0  501    0  0.00000000000E+00 -0.00000000000E+00 -0.89067613561E+03  0.89067613561E+03  0.00000000000E+00 0. -1.
         23    2    1    2    0    0  0.14693420661E+03 -0.33007781378E+02  0.29868963161E+03  0.34692205699E+03  0.91979578689E+02 0.  0.
        254    2    1    2    0    0 -0.14693420661E+03  0.33007781378E+02 -0.56219746254E+03  0.11709223833E+04  0.10160285754E+04 0.  0.
        -24    2    4    4    0    0  0.36148274241E+02 -0.37095263072E+03 -0.60626581106E+03  0.71812023074E+03  0.96051445413E+02 0.  0.
         24    2    4    4    0    0 -0.18308248085E+03  0.40396041210E+03  0.44068348519E+02  0.45280215255E+03  0.79903445955E+02 0.  0.
         11    1    3    3    0    0  0.77204023141E+02 -0.63879492289E+02  0.16944155673E+03  0.19685398617E+03  0.00000000000E+00 0.  1.
        -11    1    3    3    0    0  0.69730183469E+02  0.30871710911E+02  0.12924807488E+03  0.15006807082E+03  0.00000000000E+00 0. -1.
          2    1    6    6  502    0 -0.17265456261E+03  0.39633667602E+03  0.55109502178E+02  0.43580892141E+03  0.00000000000E+00 0. -1.
          1    1    5    5  503    0 -0.97300475314E+01 -0.29762647003E+03 -0.48611682114E+03  0.57007521722E+03  0.00000000000E+00 0. -1.
         -2    1    5    5    0  503  0.45878321772E+02 -0.73326160692E+02 -0.12014898992E+03  0.14804501352E+03  0.00000000000E+00 0.  1.
         -1    1    6    6    0  502 -0.10427918237E+02  0.76237360839E+01 -0.11041153659E+02  0.16993231145E+02  0.00000000000E+00 0.  1.
<mgrwt>
<rscale>  0 0.14947961E+04</rscale>
<asrwt>0</asrwt>
<pdfrwt beam="1">  1        2 0.13702710E+00 0.14947961E+04</pdfrwt>
<pdfrwt beam="2">  1       -2 0.96487432E-01 0.14947961E+04</pdfrwt>
<totfact> 0.25850424E+01</totfact>
</mgrwt>
</event>
<event>
12    1  0.2045212E-008  0.2454033E+04  0.7818608E-02  0.8419547E-01
         -2   -1    0    0    0  501 -0.00000000000E+00  0.00000000000E+00  0.10287936322E+04  0.10287936322E+04  0.00000000000E+00 0.  1.
          2   -1    0    0  501    0  0.00000000000E+00 -0.00000000000E+00 -0.14634319818E+04  0.14634319818E+04  0.00000000000E+00 0. -1.
         23    2    1    2    0    0 -0.31962008670E+03 -0.74871599938E+02 -0.12052692368E+04  0.12524690151E+04  0.90785154493E+02 0.  0.
        254    2    1    2    0    0  0.31962008670E+03  0.74871599938E+02  0.77063088716E+03  0.12397565989E+04  0.91398123837E+03 0.  0.
        -24    2    4    4    0    0  0.14161096609E+03 -0.38640172423E+03  0.16450868942E+03  0.45367775486E+03  0.96955856775E+02 0.  0.
         24    2    4    4    0    0  0.17800912061E+03  0.46127332416E+03  0.60612219774E+03  0.78607884408E+03  0.77945518905E+02 0.  0.
         13    1    3    3    0    0 -0.26155285145E+03 -0.58354120201E+02 -0.10886685825E+04  0.11211665264E+04  0.00000000000E+00 0. -1.
        -13    1    3    3    0    0 -0.58067235250E+02 -0.16517479737E+02 -0.11660065430E+03  0.13130248866E+03  0.00000000000E+00 0.  1.
          4    1    6    6  502    0  0.10825748197E+03  0.32692267398E+03  0.36882402611E+03  0.50460804532E+03  0.00000000000E+00 0. -1.
          1    1    5    5  503    0  0.11446306039E+03 -0.20147140478E+03  0.59276466996E+02  0.23917821531E+03  0.00000000000E+00 0. -1.
         -2    1    5    5    0  503  0.27147905699E+02 -0.18493031944E+03  0.10523222242E+03  0.21449953955E+03  0.00000000000E+00 0.  1.
         -3    1    6    6    0  502  0.69751638635E+02  0.13435065018E+03  0.23729817163E+03  0.28147079876E+03  0.00000000000E+00 0.  1.
<mgrwt>
<rscale>  0 0.24540330E+04</rscale>
<asrwt>0</asrwt>
<pdfrwt beam="1">  1        2 0.22514338E+00 0.24540330E+04</pdfrwt>
<pdfrwt beam="2">  1       -2 0.15827594E+00 0.24540330E+04</pdfrwt>
<totfact> 0.30927018E+00</totfact>
</mgrwt>
</event>
<event>
12    1  0.2045212E-008  0.1376765E+04  0.7818608E-02  0.8970811E-01
          2   -1    0    0  501    0  0.00000000000E+00  0.00000000000E+00  0.23877330872E+04  0.23877330872E+04  0.00000000000E+00 0. -1.
         -2   -1    0    0    0  501 -0.00000000000E+00 -0.00000000000E+00 -0.19846053424E+03  0.19846053424E+03  0.00000000000E+00 0.  1.
         23    2    1    2    0    0  0.23711817986E+03 -0.18591903606E+02  0.12331722974E+04  0.12592619600E+04  0.91956939826E+02 0.  0.
        254    2    1    2    0    0 -0.23711817986E+03  0.18591903606E+02  0.95610025555E+03  0.13269316614E+04  0.88884714395E+03 0.  0.
        -24    2    4    4    0    0  0.98596925270E+02 -0.31250809562E+03  0.11551083349E+03  0.36000948878E+03  0.94241264067E+02 0.  0.
         24    2    4    4    0    0 -0.33571510513E+03  0.33109999923E+03  0.84058942206E+03  0.96692217264E+03  0.77563330008E+02 0.  0.
         13    1    3    3    0    0 -0.35919291160E+01 -0.12637342984E+02  0.42377774459E+02  0.44367557523E+02  0.00000000000E+00 0.  1.
        -13    1    3    3    0    0  0.24071010897E+03 -0.59545606221E+01  0.11907945230E+04  0.12148944025E+04  0.00000000000E+00 0. -1.
          2    1    6    6  502    0 -0.29272207778E+03  0.31951362643E+03  0.76189689177E+03  0.87650558811E+03  0.00000000000E+00 0. -1.
          1    1    5    5  503    0  0.30268812122E+02 -0.23771524939E+03  0.78806230148E+02  0.25226010920E+03  0.00000000000E+00 0. -1.
         -2    1    5    5    0  503  0.68328113148E+02 -0.74792846230E+02  0.36704603342E+02  0.10774937958E+03  0.00000000000E+00 0.  1.
         -1    1    6    6    0  502 -0.42993027348E+02  0.11586372803E+02  0.78692530287E+02  0.90416584531E+02  0.00000000000E+00 0.  1.
<mgrwt>
<rscale>  0 0.13767655E+04</rscale>
<asrwt>0</asrwt>
<pdfrwt beam="1">  1        2 0.36734353E+00 0.13767655E+04</pdfrwt>
<pdfrwt beam="2">  1       -2 0.30532391E-01 0.13767655E+04</pdfrwt>
<totfact> 0.39201398E+01</totfact>
</mgrwt>
</event>
<event>
12    1  0.2045212E-008  0.2368342E+04  0.7818608E-02  0.8451452E-01
         -1   -1    0    0    0  501 -0.00000000000E+00  0.00000000000E+00  0.78961914312E+03  0.78961914312E+03  0.00000000000E+00 0.  1.
          1   -1    0    0  501    0  0.00000000000E+00 -0.00000000000E+00 -0.17758703568E+04  0.17758703568E+04  0.00000000000E+00 0. -1.
         23    2    1    2    0    0  0.44224738997E+03 -0.10711219556E+03  0.55047419756E+03  0.72043623408E+03  0.94608397232E+02 0.  0.
        254    2    1    2    0    0 -0.44224738997E+03  0.10711219556E+03 -0.15367254113E+04  0.18450532659E+04  0.91413390041E+03 0.  0.
        -24    2    4    4    0    0 -0.12892351016E+03 -0.17110260627E+03  0.15130141791E+02  0.23562032711E+03  0.96905335314E+02 0.  0.
         24    2    4    4    0    0 -0.31332387981E+03  0.27821480183E+03 -0.15518555531E+04  0.16094329388E+04  0.80270774167E+02 0.  0.
         11    1    3    3    0    0  0.55011666115E+02  0.19205804686E+01  0.30249900468E+02  0.62809461998E+02  0.00000000000E+00 0. -1.
        -11    1    3    3    0    0  0.38723572385E+03 -0.10903277603E+03  0.52022429709E+03  0.65762677209E+03  0.00000000000E+00 0.  1.
          4    1    6    6  502    0 -0.65339570594E+02  0.20579050541E+02 -0.28060082227E+03  0.28884178760E+03  0.00000000000E+00 0. -1.
          3    1    5    5  503    0 -0.79529736703E+02 -0.10096962861E+03  0.56481865624E+02  0.14039247154E+03  0.00000000000E+00 0. -1.
         -4    1    5    5    0  503 -0.49393773457E+02 -0.70132977667E+02 -0.41351723833E+02  0.95227855571E+02  0.00000000000E+00 0.  1.
         -3    1    6    6    0  502 -0.24798430921E+03  0.25763575129E+03 -0.12712547308E+04  0.13205911512E+04  0.00000000000E+00 0.  1.
<mgrwt>
<rscale>  0 0.23683422E+04</rscale>
<asrwt>0</asrwt>
<pdfrwt beam="1">  1        1 0.27321082E+00 0.23683422E+04</pdfrwt>
<pdfrwt beam="2">  1       -1 0.12147987E+00 0.23683422E+04</pdfrwt>
<totfact> 0.22835356E+00</totfact>
</mgrwt>
</event>
<event>
12    1  0.2045212E-008  0.1246939E+04  0.7818608E-02  0.9072734E-01
         -1   -1    0    0    0  501 -0.00000000000E+00  0.00000000000E+00  0.11258810482E+03  0.11258810482E+03  0.00000000000E+00 0.  1.
          1   -1    0    0  501    0  0.00000000000E+00 -0.00000000000E+00 -0.34525358558E+04  0.34525358558E+04  0.00000000000E+00 0. -1.
         23    2    1    2    0    0 -0.21414238725E+02  0.21894709715E+03 -0.30764704196E+03  0.39267651401E+03  0.10560180520E+03 0.  0.
        254    2    1    2    0    0  0.21414238725E+02 -0.21894709715E+03 -0.30323007090E+04  0.31724474466E+04  0.90618916931E+03 0.  0.
        -24    2    4    4    0    0 -0.46759243910E+02  0.20629077559E+03 -0.19590385840E+03  0.30238656842E+03  0.91197609836E+02 0.  0.
         24    2    4    4    0    0  0.68173482635E+02 -0.42523787274E+03 -0.28363968506E+04  0.28700608782E+04  0.81409324637E+02 0.  0.
         11    1    3    3    0    0  0.27193577912E+01  0.21073920488E+03 -0.29888932467E+03  0.36572289480E+03  0.00000000000E+00 0.  1.
        -11    1    3    3    0    0 -0.24133596517E+02  0.82078922667E+01 -0.87577172850E+01  0.26953619207E+02  0.00000000000E+00 0. -1.
          4    1    6    6  502    0  0.32769521437E+02 -0.84952130217E+02 -0.43604981547E+03  0.44545498935E+03  0.00000000000E+00 0. -1.
          3    1    5    5  503    0 -0.30173959181E+02  0.54858248272E+02 -0.11240581291E+03  0.12866608718E+03  0.00000000000E+00 0. -1.
         -4    1    5    5    0  503 -0.16585284729E+02  0.15143252732E+03 -0.83498045499E+02  0.17372048124E+03  0.00000000000E+00 0.  1.
         -3    1    6    6    0  502  0.35403961198E+02 -0.34028574252E+03 -0.24003470351E+04  0.24246058888E+04  0.00000000000E+00 0.  1.
<mgrwt>
<rscale>  0 0.12469394E+04</rscale>
<asrwt>0</asrwt>
<pdfrwt beam="1">  1        1 0.53115934E+00 0.12469394E+04</pdfrwt>
<pdfrwt beam="2">  1       -1 0.17321248E-01 0.12469394E+04</pdfrwt>
<totfact> 0.71144950E+00</totfact>
</mgrwt>
</event>
<event>
11    1  0.2045212E-008  0.2486839E+04  0.7818608E-02  0.8407689E-01
          2   -1    0    0  501    0  0.00000000000E+00  0.00000000000E+00  0.94838688603E+03  0.94838688603E+03  0.00000000000E+00 0. -1.
         -2   -1    0    0    0  501 -0.00000000000E+00 -0.00000000000E+00 -0.16302332150E+04  0.16302332150E+04  0.00000000000E+00 0.  1.
         23    2    1    2    0    0 -0.91283346537E+03 -0.41720652562E+03 -0.70090480378E+03  0.12274563093E+04  0.89750915448E+02 0.  0.
        254    2    1    2    0    0  0.91283346537E+03  0.41720652562E+03  0.19058474838E+02  0.13511637917E+04  0.90440817443E+03 0.  0.
         24    2    4    4    0    0  0.52581929823E+03  0.45409446547E+03  0.39022887172E+03  0.80084878877E+03  0.79953062351E+02 0.  0.
         11    1    3    3    0    0 -0.51895442030E+03 -0.21477862984E+03 -0.34336406793E+03  0.65828750051E+03  0.00000000000E+00 0.  1.
        -11    1    3    3    0    0 -0.39387904507E+03 -0.20242789578E+03 -0.35754073585E+03  0.56916880881E+03  0.00000000000E+00 0. -1.
          4    1    5    5  502    0  0.48199463762E+03  0.44027523130E+03  0.37239357478E+03  0.75155710664E+03  0.00000000000E+00 0. -1.
          3    1    4    4  503    0  0.12934706681E+03  0.29048599584E+02 -0.17637120926E+03  0.22063836540E+03  0.00000000000E+00 0. -1.
         -4    1    4    4    0  503  0.25766710033E+03 -0.65936539438E+02 -0.19479918762E+03  0.32967663752E+03  0.00000000000E+00 0.  1.
         -1    1    5    5    0  502  0.43824660606E+02  0.13819234168E+02  0.17835296944E+02  0.49291682131E+02  0.00000000000E+00 0.  1.
<mgrwt>
<rscale>  0 0.24868388E+04</rscale>
<asrwt>0</asrwt>
<pdfrwt beam="1">  1        2 0.14590568E+00 0.24868388E+04</pdfrwt>
<pdfrwt beam="2">  1       -2 0.25080511E+00 0.24868388E+04</pdfrwt>
<totfact> 0.15436625E+00</totfact>
</mgrwt>
</event>
<event>
11    1  0.2045212E-008  0.1573032E+04  0.7818608E-02  0.8837289E-01
          2   -1    0    0  501    0  0.00000000000E+00  0.00000000000E+00  0.11219367282E+04  0.11219367282E+04  0.00000000000E+00 0.  1.
         -2   -1    0    0    0  501 -0.00000000000E+00 -0.00000000000E+00 -0.55137444106E+03  0.55137444106E+03  0.00000000000E+00 0. -1.
         23    2    1    2    0    0  0.11992056740E+03 -0.64537740921E+02 -0.35171080069E+03  0.38813154199E+03  0.91649026590E+02 0.  0.
        254    2    1    2    0    0 -0.11992056740E+03  0.64537740921E+02  0.92227308784E+03  0.12851796273E+04  0.88462023677E+03 0.  0.
         24    2    4    4    0    0  0.32027333072E+02 -0.32096968463E+03  0.70178500159E+03  0.77669183517E+03  0.81857985863E+02 0.  0.
         11    1    3    3    0    0  0.13582991681E+02 -0.34620518489E+02 -0.29372369679E+02  0.47390020722E+02  0.00000000000E+00 0.  1.
        -11    1    3    3    0    0  0.10633757572E+03 -0.29917222432E+02 -0.32233843102E+03  0.34074152127E+03  0.00000000000E+00 0. -1.
          2    1    5    5  502    0  0.18039036074E+02 -0.23914698309E+02  0.11518576894E+03  0.11901714576E+03  0.00000000000E+00 0. -1.
          1    1    4    4  503    0  0.28940308394E+01  0.10979197471E+03 -0.19454850933E+02  0.11153987785E+03  0.00000000000E+00 0. -1.
         -2    1    4    4    0  503 -0.15484193131E+03  0.27571545084E+03  0.23994293719E+03  0.39694791425E+03  0.00000000000E+00 0.  1.
         -1    1    5    5    0  502  0.13988296998E+02 -0.29705498632E+03  0.58659923264E+03  0.65767468941E+03  0.00000000000E+00 0.  1.
<mgrwt>
<rscale>  0 0.15730318E+04</rscale>
<asrwt>0</asrwt>
<pdfrwt beam="1">  1        2 0.17260565E+00 0.15730318E+04</pdfrwt>
<pdfrwt beam="2">  1       -2 0.84826837E-01 0.15730318E+04</pdfrwt>
<totfact> 0.24570145E+01</totfact>
</mgrwt>
</event>
<event>
12    1  0.2045212E-008  0.2041668E+04  0.7818608E-02  0.8587384E-01
         -1   -1    0    0    0  501 -0.00000000000E+00  0.00000000000E+00  0.66318537674E+03  0.66318537674E+03  0.00000000000E+00 0.  1.
          1   -1    0    0  501    0  0.00000000000E+00 -0.00000000000E+00 -0.15713580339E+04  0.15713580339E+04  0.00000000000E+00 0. -1.
         23    2    1    2    0    0 -0.32825684981E+02  0.10038246355E+03  0.51038066748E+03  0.52856006270E+03  0.87938328172E+02 0.  0.
        254    2    1    2    0    0  0.32825684981E+02 -0.10038246355E+03 -0.14185533246E+04  0.17059833479E+04  0.94177039877E+03 0.  0.
        -24    2    4    4    0    0  0.26093966133E+03  0.27423474497E+03 -0.26938991571E+03  0.47338990154E+03  0.90735164019E+02 0.  0.
         24    2    4    4    0    0 -0.22811397635E+03 -0.37461720852E+03 -0.11491634089E+04  0.12325934464E+04  0.79599149343E+02 0.  0.
         11    1    3    3    0    0 -0.24227146760E+02  0.24904407413E+02  0.34290471655E+03  0.34466045433E+03  0.00000000000E+00 0.  1.
        -11    1    3    3    0    0 -0.85985382206E+01  0.75478056138E+02  0.16747595093E+03  0.18389960837E+03  0.00000000000E+00 0. -1.
          2    1    6    6  502    0 -0.18311329806E+03 -0.33083679834E+03 -0.10407348450E+04  0.11072996363E+04  0.00000000000E+00 0. -1.
          1    1    5    5  503    0  0.19497481346E+03  0.23024392541E+03 -0.17019568722E+03  0.34640152283E+03  0.00000000000E+00 0. -1.
         -2    1    5    5    0  503  0.65964847867E+02  0.43990819552E+02 -0.99194228496E+02  0.12698837870E+03  0.00000000000E+00 0.  1.
         -1    1    6    6    0  502 -0.45000678287E+02 -0.43780410181E+02 -0.10842856388E+03  0.12529381001E+03  0.00000000000E+00 0.  1.
<mgrwt>
<rscale>  0 0.20416676E+04</rscale>
<asrwt>0</asrwt>
<pdfrwt beam="1">  1        1 0.24174739E+00 0.20416676E+04</pdfrwt>
<pdfrwt beam="2">  1       -1 0.10202852E+00 0.20416676E+04</pdfrwt>
<totfact> 0.49115312E+00</totfact>
</mgrwt>
</event>
<event>
11    1  0.2045212E-008  0.2186669E+04  0.7818608E-02  0.8523997E-01
          2   -1    0    0  501    0  0.00000000000E+00  0.00000000000E+00  0.11876028533E+04  0.11876028533E+04  0.00000000000E+00 0. -1.
         -2   -1    0    0    0  501 -0.00000000000E+00 -0.00000000000E+00 -0.10065489491E+04  0.10065489491E+04  0.00000000000E+00 0.  1.
         23    2    1    2    0    0 -0.87894442844E+03 -0.11422762111E+03 -0.21098958239E+02  0.89134677857E+03  0.91992694917E+02 0.  0.
        254    2    1    2    0    0  0.87894442844E+03  0.11422762111E+03  0.20215286245E+03  0.13028050239E+04  0.93319016966E+03 0.  0.
         24    2    4    4    0    0  0.65024746680E+03 -0.30226174913E+03  0.47830622720E+02  0.72316961538E+03  0.80638645019E+02 0.  0.
         11    1    3    3    0    0 -0.21444970429E+03 -0.32025448972E+01 -0.36010680822E+02  0.21747574829E+03  0.00000000000E+00 0. -1.
        -11    1    3    3    0    0 -0.66449472415E+03 -0.11102507621E+03  0.14911722583E+02  0.67387103027E+03  0.00000000000E+00 0.  1.
          4    1    5    5  502    0  0.13736883434E+03 -0.48295347651E+02 -0.19489486739E+02  0.14690975919E+03  0.00000000000E+00 0. -1.
          3    1    4    4  503    0  0.64068108498E+02  0.82374065527E+02  0.17808203082E+03  0.20640595655E+03  0.00000000000E+00 0. -1.
         -4    1    4    4    0  503  0.16462885314E+03  0.33411530472E+03 -0.23759791090E+02  0.37322945195E+03  0.00000000000E+00 0.  1.
         -3    1    5    5    0  502  0.51287863246E+03 -0.25396640148E+03  0.67320109459E+02  0.57625985619E+03  0.00000000000E+00 0.  1.
<mgrwt>
<rscale>  0 0.21866691E+04</rscale>
<asrwt>0</asrwt>
<pdfrwt beam="1">  1        2 0.18270813E+00 0.21866691E+04</pdfrwt>
<pdfrwt beam="2">  1       -2 0.15485368E+00 0.21866691E+04</pdfrwt>
<totfact> 0.48526616E+00</totfact>
</mgrwt>
</event>
<event>
12    1  0.2045212E-008  0.1606690E+04  0.7818608E-02  0.8816449E-01
          1   -1    0    0  501    0  0.00000000000E+00  0.00000000000E+00  0.10528807491E+04  0.10528807491E+04  0.00000000000E+00 0. -1.
         -1   -1    0    0    0  501 -0.00000000000E+00 -0.00000000000E+00 -0.61294986288E+03  0.61294986288E+03  0.00000000000E+00 0.  1.
         23    2    1    2    0    0  0.42128375215E+03 -0.31755306745E+03 -0.68870932768E+01  0.53531453678E+03  0.90522211463E+02 0.  0.
        254    2    1    2    0    0 -0.42128375215E+03  0.31755306745E+03  0.44681797950E+03  0.11305160752E+04  0.89448328044E+03 0.  0.
        -24    2    4    4    0    0 -0.92597546614E+02 -0.10011664619E+03 -0.21881253332E+03  0.27492497192E+03  0.95431477835E+02 0.  0.
         24    2    4    4    0    0 -0.32868620553E+03  0.41766971364E+03  0.66563051282E+03  0.85559110327E+03  0.80557712175E+02 0.  0.
         13    1    3    3    0    0  0.63768021586E+01  0.41995374169E+01  0.66051952756E+01  0.10095955869E+02  0.00000000000E+00 0. -1.
        -13    1    3    3    0    0  0.41490694999E+03 -0.32175260486E+03 -0.13492288552E+02  0.52521858091E+03  0.00000000000E+00 0.  1.
          4    1    6    6  502    0 -0.87297389341E+02  0.13278044725E+03  0.25600294888E+03  0.30131211591E+03  0.00000000000E+00 0. -1.
          1    1    5    5  503    0 -0.10514308520E+03 -0.59307768548E+02 -0.18284585812E+03  0.21910063352E+03  0.00000000000E+00 0. -1.
         -2    1    5    5    0  503  0.12545538586E+02 -0.40808877644E+02 -0.35966675203E+02  0.55824338403E+02  0.00000000000E+00 0.  1.
         -3    1    6    6    0  502 -0.24138881619E+03  0.28488926639E+03  0.40962756394E+03  0.55427898736E+03  0.00000000000E+00 0.  1.
<mgrwt>
<rscale>  0 0.16066899E+04</rscale>
<asrwt>0</asrwt>
<pdfrwt beam="1">  1        1 0.16198165E+00 0.16066899E+04</pdfrwt>
<pdfrwt beam="2">  1       -1 0.94299979E-01 0.16066899E+04</pdfrwt>
<totfact> 0.14378663E+01</totfact>
</mgrwt>
</event>
<event>
11    1  0.2045212E-008  0.1234354E+04  0.7818608E-02  0.9083307E-01
         -3   -1    0    0    0  501 -0.00000000000E+00  0.00000000000E+00  0.39245627127E+03  0.39245627127E+03  0.00000000000E+00 0.  1.
          3   -1    0    0  501    0  0.00000000000E+00 -0.00000000000E+00 -0.97057283000E+03  0.97057283000E+03  0.00000000000E+00 0. -1.
         23    2    1    2    0    0 -0.73395168543E+02  0.25172681147E+03 -0.25020058609E+03  0.37771764756E+03  0.10638162256E+03 0.  0.
        254    2    1    2    0    0  0.73395168543E+02 -0.25172681147E+03 -0.32791597264E+03  0.98531145371E+03  0.89137900879E+03 0.  0.
         24    2    4    4    0    0 -0.37782995449E+03 -0.20038735156E+03 -0.17451818124E+03  0.46825690008E+03  0.76794294788E+02 0.  0.
         13    1    3    3    0    0 -0.50010619287E+02  0.18268645913E+03 -0.23741369402E+03  0.30371148562E+03  0.00000000000E+00 0.  1.
        -13    1    3    3    0    0 -0.23384549256E+02  0.69040352347E+02 -0.12786892071E+02  0.74006161938E+02  0.00000000000E+00 0. -1.
          4    1    5    5  502    0 -0.30927372711E+03 -0.18514189023E+03 -0.12192901843E+03  0.38051865044E+03  0.00000000000E+00 0. -1.
          3    1    4    4  503    0  0.37583443104E+03  0.67837585065E+01 -0.54570500525E+02  0.37983612053E+03  0.00000000000E+00 0. -1.
         -4    1    4    4    0  503  0.75390691995E+02 -0.58123218420E+02 -0.98827290873E+02  0.13721843309E+03  0.00000000000E+00 0.  1.
         -3    1    5    5    0  502 -0.68556227386E+02 -0.15245461327E+02 -0.52589162818E+02  0.87738249642E+02  0.00000000000E+00 0.  1.
<mgrwt>
<rscale>  0 0.12343539E+04</rscale>
<asrwt>0</asrwt>
<pdfrwt beam="1">  1        3 0.14931890E+00 0.12343539E+04</pdfrwt>
<pdfrwt beam="2">  1       -3 0.60377888E-01 0.12343539E+04</pdfrwt>
<totfact> 0.22638904E+00</totfact>
</mgrwt>
</event>
<event>
12    1  0.2045212E-008  0.1585222E+04  0.7818608E-02  0.8829679E-01
         -2   -1    0    0    0  501 -0.00000000000E+00  0.00000000000E+00  0.18382666871E+03  0.18382666871E+03  0.00000000000E+00 0.  1.
          2   -1    0    0  501    0  0.00000000000E+00 -0.00000000000E+00 -0.34175227669E+04  0.34175227669E+04  0.00000000000E+00 0. -1.
         23    2    1    2    0    0  0.78694444799E+02 -0.87252338571E+02  0.77624247443E+02  0.16832594867E+03  0.92207998444E+02 0.  0.
        254    2    1    2    0    0 -0.78694444799E+02  0.87252338571E+02 -0.33113203456E+04  0.34330234869E+04  0.89833292503E+03 0.  0.
        -24    2    4    4    0    0  0.23389942006E+03  0.11115732387E+03 -0.31344830254E+03  0.41777794920E+03  0.96040028726E+02 0.  0.
         24    2    4    4    0    0 -0.31259386486E+03 -0.23904985304E+02 -0.29978720431E+04  0.30152455377E+04  0.78628833015E+02 0.  0.
         11    1    3    3    0    0  0.52433938575E+02 -0.13570926022E+02  0.71732005149E+02  0.89883082448E+02  0.00000000000E+00 0.  1.
        -11    1    3    3    0    0  0.26260506224E+02 -0.73681412548E+02  0.58922422943E+01  0.78442866224E+02  0.00000000000E+00 0. -1.
          4    1    6    6  502    0  0.35078377744E+01 -0.19747002323E+00 -0.98784432665E+01  0.10484634549E+02  0.00000000000E+00 0. -1.
          1    1    5    5  503    0  0.43311752992E+02  0.68270053986E+02 -0.91394468187E+02  0.12202318236E+03  0.00000000000E+00 0. -1.
         -2    1    5    5    0  503  0.19058766707E+03  0.42887269889E+02 -0.22205383435E+03  0.29575476684E+03  0.00000000000E+00 0.  1.
         -1    1    6    6    0  502 -0.31610170263E+03 -0.23707515281E+02 -0.29879935998E+04  0.30047609032E+04  0.00000000000E+00 0.  1.
<mgrwt>
<rscale>  0 0.15852215E+04</rscale>
<asrwt>0</asrwt>
<pdfrwt beam="1">  1        2 0.52577275E+00 0.15852215E+04</pdfrwt>
<pdfrwt beam="2">  1       -2 0.28281025E-01 0.15852215E+04</pdfrwt>
<totfact> 0.10301773E+01</totfact>
</mgrwt>
</event>
<event>
12    1  0.3811193E-008  0.1572522E+04  0.7818608E-02  0.8837609E-01
         -2   -1    0    0    0  501 -0.00000000000E+00  0.00000000000E+00  0.16783012149E+03  0.16783012149E+03  0.00000000000E+00 0.  1.
          2   -1    0    0  501    0  0.00000000000E+00 -0.00000000000E+00 -0.36835259740E+04  0.36835259740E+04  0.00000000000E+00 0. -1.
         23    2    1    2    0    0  0.31259131476E+03 -0.15735995963E+03 -0.22535226723E+03  0.42618378605E+03  0.91506765822E+02 0.  0.
        254    2    1    2    0    0 -0.31259131476E+03  0.15735995963E+03 -0.32903435853E+04  0.34251723095E+04  0.88485532895E+03 0.  0.
        -24    2    4    4    0    0 -0.40404896456E+03 -0.24732807675E+03 -0.12371035360E+04  0.13287103043E+04  0.10304936037E+03 0.  0.
         24    2    4    4    0    0  0.91457649800E+02  0.40468803638E+03 -0.20532400493E+04  0.20964620052E+04  0.84978411931E+02 0.  0.
         13    1    3    3    0    0  0.26805239375E+03 -0.14336295449E+03 -0.22712882607E+03  0.37946347143E+03  0.00000000000E+00 0.  1.
        -13    1    3    3    0    0  0.44538921005E+02 -0.13997005141E+02  0.17765588408E+01  0.46720314624E+02  0.00000000000E+00 0. -1.
          4    1    6    6  502    0  0.71954001830E+01  0.16985370486E+01 -0.11830325197E+02  0.13950462579E+02  0.00000000000E+00 0. -1.
          1    1    5    5  503    0 -0.63266158309E+02 -0.41671250605E+01 -0.11964168168E+03  0.13540348486E+03  0.00000000000E+00 0. -1.
         -2    1    5    5    0  503 -0.34078280625E+03 -0.24316095168E+03 -0.11174618543E+04  0.11933068194E+04  0.00000000000E+00 0.  1.
         -3    1    6    6    0  502  0.84262249617E+02  0.40298949933E+03 -0.20414097241E+04  0.20825115426E+04  0.00000000000E+00 0.  1.
<mgrwt>
<rscale>  0 0.15725223E+04</rscale>
<asrwt>0</asrwt>
<pdfrwt beam="1">  1        2 0.56669626E+00 0.15725223E+04</pdfrwt>
<pdfrwt beam="2">  1       -2 0.25820021E-01 0.15725223E+04</pdfrwt>
<totfact> 0.79235125E+00</totfact>
</mgrwt>
</event>
<event>
11    1  0.2045212E-008  0.1625197E+04  0.7818608E-02  0.8805216E-01
          2   -1    0    0  501    0  0.00000000000E+00  0.00000000000E+00  0.88910155020E+03  0.88910155020E+03  0.00000000000E+00 0. -1.
         -2   -1    0    0    0  501 -0.00000000000E+00 -0.00000000000E+00 -0.74267859180E+03  0.74267859180E+03  0.00000000000E+00 0.  1.
         23    2    1    2    0    0 -0.33101450370E-01 -0.20510166553E+03  0.57443927802E+03  0.61673603563E+03  0.91192977889E+02 0.  0.
        254    2    1    2    0    0  0.33101450370E-01  0.20510166553E+03 -0.42801631962E+03  0.10150441064E+04  0.89724571535E+03 0.  0.
         24    2    4    4    0    0 -0.38835588615E+03 -0.10257366695E+03 -0.21265353976E+03  0.46144337747E+03  0.79792300240E+02 0.  0.
         13    1    3    3    0    0  0.31401882349E+02 -0.14608665297E+03  0.46568805250E+03  0.48907335915E+03  0.00000000000E+00 0. -1.
        -13    1    3    3    0    0 -0.31434983799E+02 -0.59015012561E+02  0.10875122552E+03  0.12766267648E+03  0.00000000000E+00 0.  1.
          4    1    5    5  502    0 -0.33441818617E+03 -0.11591783710E+03 -0.18534857597E+03  0.39953293082E+03  0.00000000000E+00 0. -1.
          3    1    4    4  503    0  0.31467024961E+03  0.18909090007E+03 -0.12749147206E+03  0.38862167970E+03  0.00000000000E+00 0. -1.
         -4    1    4    4    0  503  0.73718737984E+02  0.11858443241E+03 -0.87871307801E+02  0.16497904920E+03  0.00000000000E+00 0.  1.
         -3    1    5    5    0  502 -0.53937699978E+02  0.13344170148E+02 -0.27304963794E+02  0.61910446644E+02  0.00000000000E+00 0.  1.
<mgrwt>
<rscale>  0 0.16251974E+04</rscale>
<asrwt>0</asrwt>
<pdfrwt beam="1">  1        2 0.13678485E+00 0.16251974E+04</pdfrwt>
<pdfrwt beam="2">  1       -2 0.11425824E+00 0.16251974E+04</pdfrwt>
<totfact> 0.17101352E+01</totfact>
</mgrwt>
</event>
<event>
12    1  0.2045212E-008  0.1230974E+04  0.7818608E-02  0.9086169E-01
          1   -1    0    0  501    0  0.00000000000E+00  0.00000000000E+00  0.45791043397E+03  0.45791043397E+03  0.00000000000E+00 0. -1.
         -1   -1    0    0    0  501 -0.00000000000E+00 -0.00000000000E+00 -0.82728946648E+03  0.82728946648E+03  0.00000000000E+00 0.  1.
         23    2    1    2    0    0 -0.26136672445E+03  0.24251270301E+02 -0.59131467596E+02  0.29373058128E+03  0.11781525861E+03 0.  0.
        254    2    1    2    0    0  0.26136672445E+03 -0.24251270301E+02 -0.31024756492E+03  0.99146931916E+03  0.90435456019E+03 0.  0.
        -24    2    4    4    0    0  0.58295531996E+03  0.46527450529E+02 -0.11226154775E+03  0.59914364850E+03  0.66096503093E+02 0.  0.
         24    2    4    4    0    0 -0.32158859551E+03 -0.70778720830E+02 -0.19798601717E+03  0.39232567066E+03  0.79322864174E+02 0.  0.
         11    1    3    3    0    0 -0.23733922730E+03 -0.13755405760E+02 -0.28762699034E+02  0.23947111070E+03  0.00000000000E+00 0.  1.
        -11    1    3    3    0    0 -0.24027497147E+02  0.38006676060E+02 -0.30368768562E+02  0.54259470586E+02  0.00000000000E+00 0. -1.
          4    1    6    6  502    0 -0.28401469876E+03 -0.84105654711E+02 -0.18928195700E+03  0.35151923064E+03  0.00000000000E+00 0. -1.
          3    1    5    5  503    0  0.49748287681E+03  0.36451590985E+02 -0.71500773735E+02  0.50391496490E+03  0.00000000000E+00 0. -1.
         -4    1    5    5    0  503  0.85472443148E+02  0.10075859544E+02 -0.40760774013E+02  0.95228683606E+02  0.00000000000E+00 0.  1.
         -3    1    6    6    0  502 -0.37573896750E+02  0.13326933882E+02 -0.87040601752E+01  0.40806440021E+02  0.00000000000E+00 0.  1.
<mgrwt>
<rscale>  0 0.12309744E+04</rscale>
<asrwt>0</asrwt>
<pdfrwt beam="1">  1        1 0.70447760E-01 0.12309744E+04</pdfrwt>
<pdfrwt beam="2">  1       -1 0.12727530E+00 0.12309744E+04</pdfrwt>
<totfact> 0.26424800E+01</totfact>
</mgrwt>
</event>
<event>
11    1  0.2045212E-008  0.1238955E+04  0.7818608E-02  0.9079426E-01
         -2   -1    0    0    0  501 -0.00000000000E+00  0.00000000000E+00  0.94727261152E+03  0.94727261152E+03  0.00000000000E+00 0.  1.
          2   -1    0    0  501    0  0.00000000000E+00 -0.00000000000E+00 -0.40511318799E+03  0.40511318799E+03  0.00000000000E+00 0. -1.
         23    2    1    2    0    0  0.10301995424E+03 -0.24460571601E+03  0.20822955623E+02  0.27778818545E+03  0.79294471541E+02 0.  0.
        254    2    1    2    0    0 -0.10301995424E+03  0.24460571601E+03  0.52133646791E+03  0.10745976141E+04  0.90140071671E+03 0.  0.
         24    2    4    4    0    0  0.22742498787E+03 -0.22320560131E+03  0.68505437584E+02  0.33572704119E+03  0.80478479368E+02 0.  0.
         11    1    3    3    0    0  0.93591416803E+02 -0.19616657527E+03 -0.13356430381E+02  0.21775920827E+03  0.00000000000E+00 0. -1.
        -11    1    3    3    0    0  0.94285374406E+01 -0.48439140741E+02  0.34179386004E+02  0.60028977183E+02  0.00000000000E+00 0.  1.
          4    1    5    5  502    0  0.99768784319E+02 -0.14073245363E+03  0.97486710093E+01  0.17278446231E+03  0.00000000000E+00 0. -1.
          1    1    4    4  503    0 -0.33569334910E+03  0.44436649584E+03  0.41699911527E+03  0.69572973876E+03  0.00000000000E+00 0. -1.
         -2    1    4    4    0  503  0.52484069878E+01  0.23444821489E+02  0.35831915059E+02  0.43140834106E+02  0.00000000000E+00 0.  1.
         -3    1    5    5    0  502  0.12765620355E+03 -0.82473147689E+02  0.58756766574E+02  0.16294257889E+03  0.00000000000E+00 0.  1.
<mgrwt>
<rscale>  0 0.12389554E+04</rscale>
<asrwt>0</asrwt>
<pdfrwt beam="1">  1        2 0.62325106E-01 0.12389554E+04</pdfrwt>
<pdfrwt beam="2">  1       -2 0.14573425E+00 0.12389554E+04</pdfrwt>
<totfact> 0.24922103E+01</totfact>
</mgrwt>
</event>
<event>
12    1  0.2045212E-008  0.2024062E+04  0.7818608E-02  0.8595453E-01
          2   -1    0    0  501    0  0.00000000000E+00  0.00000000000E+00  0.17020452078E+04  0.17020452078E+04  0.00000000000E+00 0. -1.
         -2   -1    0    0    0  501 -0.00000000000E+00 -0.00000000000E+00 -0.60175057777E+03  0.60175057777E+03  0.00000000000E+00 0.  1.
         23    2    1    2    0    0 -0.52380171615E+03  0.39983054298E+03 -0.82777058405E+02  0.67027663423E+03  0.90476649212E+02 0.  0.
        254    2    1    2    0    0  0.52380171615E+03 -0.39983054298E+03  0.11830716885E+04  0.16335191514E+04  0.91350615591E+03 0.  0.
        -24    2    4    4    0    0 -0.10632447282E+03  0.85336355755E+02 -0.32963022432E+02  0.17835159463E+03  0.11016144211E+03 0.  0.
         24    2    4    4    0    0  0.63012618896E+03 -0.48516689874E+03  0.12160347109E+04  0.14551675567E+04  0.79537830084E+02 0.  0.
         11    1    3    3    0    0 -0.24464331835E+03  0.18474602950E+03  0.68883430269E+01  0.30664131800E+03  0.00000000000E+00 0.  1.
        -11    1    3    3    0    0 -0.27915839779E+03  0.21508451348E+03 -0.89665401432E+02  0.36363531623E+03  0.00000000000E+00 0. -1.
          4    1    6    6  502    0  0.39181342920E+03 -0.25286082986E+03  0.69793751813E+03  0.83938855234E+03  0.00000000000E+00 0. -1.
          3    1    5    5  503    0 -0.12184787365E+02  0.76007215774E+02 -0.32994350812E+02  0.83750779569E+02  0.00000000000E+00 0. -1.
         -4    1    5    5    0  503 -0.94139685451E+02  0.93291399803E+01  0.31328380451E-01  0.94600815065E+02  0.00000000000E+00 0.  1.
         -3    1    6    6    0  502  0.23831275976E+03 -0.23230606888E+03  0.51809719277E+03  0.61577900439E+03  0.00000000000E+00 0.  1.
<mgrwt>
<rscale>  0 0.20240619E+04</rscale>
<asrwt>0</asrwt>
<pdfrwt beam="1">  1        2 0.26185311E+00 0.20240619E+04</pdfrwt>
<pdfrwt beam="2">  1       -2 0.92577013E-01 0.20240619E+04</pdfrwt>
<totfact> 0.89780218E+00</totfact>
</mgrwt>
</event>
<event>
12    1  0.2045212E-008  0.2469134E+04  0.7818608E-02  0.8414065E-01
         -1   -1    0    0    0  501 -0.00000000000E+00  0.00000000000E+00  0.10448404764E+04  0.10448404764E+04  0.00000000000E+00 0.  1.
          1   -1    0    0  501    0  0.00000000000E+00 -0.00000000000E+00 -0.14587450111E+04  0.14587450111E+04  0.00000000000E+00 0. -1.
         23    2    1    2    0    0  0.44144589641E+03 -0.95004834736E+03 -0.31301702008E+03  0.10971577156E+04  0.91154024838E+02 0.  0.
        254    2    1    2    0    0 -0.44144589641E+03  0.95004834736E+03 -0.10088751461E+03  0.14064277719E+04  0.93294932617E+03 0.  0.
        -24    2    4    4    0    0 -0.41668811768E+01 -0.15414223684E+03 -0.12053794824E+03  0.21600529398E+03  0.91387624879E+02 0.  0.
         24    2    4    4    0    0 -0.43727901523E+03  0.11041905842E+04  0.19650433632E+02  0.11904224779E+04  0.79181771892E+02 0.  0.
         13    1    3    3    0    0  0.35378986676E+03 -0.67003990656E+03 -0.23986762997E+03  0.79476866201E+03  0.00000000000E+00 0. -1.
        -13    1    3    3    0    0  0.87656029650E+02 -0.28000844080E+03 -0.73149390115E+02  0.30238905358E+03  0.00000000000E+00 0.  1.
          2    1    6    6  502    0 -0.21911191949E+02  0.89218169229E+02  0.18661063411E+02  0.93745492376E+02  0.00000000000E+00 0. -1.
          3    1    5    5  503    0 -0.23474109242E+02 -0.19840736554E+02  0.50186868532E+01  0.31142829824E+02  0.00000000000E+00 0. -1.
         -4    1    5    5    0  503  0.19307228065E+02 -0.13430150029E+03 -0.12555663510E+03  0.18486246415E+03  0.00000000000E+00 0.  1.
         -1    1    6    6    0  502 -0.41536782328E+03  0.10149724150E+04  0.98937022115E+00  0.10966769856E+04  0.00000000000E+00 0.  1.
<mgrwt>
<rscale>  0 0.24691341E+04</rscale>
<asrwt>0</asrwt>
<pdfrwt beam="1">  1        1 0.22442231E+00 0.24691341E+04</pdfrwt>
<pdfrwt beam="2">  1       -1 0.16074469E+00 0.24691341E+04</pdfrwt>
<totfact> 0.17958925E+00</totfact>
</mgrwt>
</event>
<event>
11    1  0.2045212E-008  0.1268227E+04  0.7818608E-02  0.9055148E-01
         -1   -1    0    0    0  501 -0.00000000000E+00  0.00000000000E+00  0.16967449906E+03  0.16967449906E+03  0.00000000000E+00 0.  1.
          1   -1    0    0  501    0  0.00000000000E+00 -0.00000000000E+00 -0.23698321678E+04  0.23698321678E+04  0.00000000000E+00 0. -1.
         23    2    1    2    0    0  0.20085885502E+03  0.21757256833E+03 -0.43034584834E+03  0.53004870905E+03  0.89844213248E+02 0.  0.
        254    2    1    2    0    0 -0.20085885502E+03 -0.21757256833E+03 -0.17698118204E+04  0.20094579578E+04  0.90443645574E+03 0.  0.
         24    2    4    4    0    0 -0.23274091199E+03  0.23347349758E+03 -0.13165998229E+04  0.13596626777E+04  0.81051200639E+02 0.  0.
         11    1    3    3    0    0 -0.74831455161E+01  0.20444538071E+02 -0.41507698437E+02  0.46870733228E+02  0.00000000000E+00 0.  1.
        -11    1    3    3    0    0  0.20834200054E+03  0.19712803026E+03 -0.38883814990E+03  0.48317797583E+03  0.00000000000E+00 0. -1.
          4    1    5    5  502    0 -0.51279909237E+02  0.89808396154E+02 -0.30992488298E+03  0.32672405819E+03  0.00000000000E+00 0. -1.
          1    1    4    4  503    0  0.16451720376E+01 -0.30170582998E+03 -0.36565454251E+03  0.47405944658E+03  0.00000000000E+00 0. -1.
         -2    1    4    4    0  503  0.30236884932E+02 -0.14934023593E+03 -0.87557454959E+02  0.17573583356E+03  0.00000000000E+00 0.  1.
         -3    1    5    5    0  502 -0.18146100276E+03  0.14366510143E+03 -0.10066749399E+04  0.10329386195E+04  0.00000000000E+00 0.  1.
<mgrwt>
<rscale>  0 0.12682272E+04</rscale>
<asrwt>0</asrwt>
<pdfrwt beam="1">  1        1 0.36458955E+00 0.12682272E+04</pdfrwt>
<pdfrwt beam="2">  1       -1 0.26103770E-01 0.12682272E+04</pdfrwt>
<totfact> 0.21425471E+01</totfact>
</mgrwt>
</event>
<event>
12    1  0.2045212E-008  0.1427016E+04  0.7818608E-02  0.8934492E-01
         -1   -1    0    0    0  501 -0.00000000000E+00  0.00000000000E+00  0.18979270130E+03  0.18979270130E+03  0.00000000000E+00 0.  1.
          1   -1    0    0  501    0  0.00000000000E+00 -0.00000000000E+00 -0.26823651198E+04  0.26823651198E+04  0.00000000000E+00 0. -1.
         23    2    1    2    0    0 -0.53470899722E+02 -0.20307787488E+03 -0.21538550854E+02  0.23375879448E+03  0.10039673521E+03 0.  0.
        254    2    1    2    0    0  0.53470899722E+02  0.20307787488E+03 -0.24710338676E+04  0.26383990266E+04  0.90057830764E+03 0.  0.
        -24    2    4    4    0    0 -0.14842686081E+03 -0.16055299621E+03 -0.19623246306E+04  0.19765677981E+04  0.91074183324E+02 0.  0.
         24    2    4    4    0    0  0.20189776053E+03  0.36363087109E+03 -0.50870923705E+03  0.66183122856E+03  0.79027660420E+02 0.  0.
         11    1    3    3    0    0  0.28623377246E+02 -0.78559861327E+02 -0.86426535140E+01  0.84057391088E+02  0.00000000000E+00 0. -1.
        -11    1    3    3    0    0 -0.82094276967E+02 -0.12451801355E+03 -0.12895897341E+02  0.14970140340E+03  0.00000000000E+00 0.  1.
          4    1    6    6  502    0  0.16610719790E+03  0.32040950275E+03 -0.47432466632E+03  0.59601823775E+03  0.00000000000E+00 0. -1.
          1    1    5    5  503    0 -0.15930343616E+03 -0.15449711364E+03 -0.17729511428E+04  0.17867855769E+04  0.00000000000E+00 0. -1.
         -2    1    5    5    0  503  0.10876575348E+02 -0.60558825727E+01 -0.18937348774E+03  0.18978222115E+03  0.00000000000E+00 0.  1.
         -3    1    6    6    0  502  0.35790562630E+02  0.43221368347E+02 -0.34384570730E+02  0.65812990810E+02  0.00000000000E+00 0.  1.
<mgrwt>
<rscale>  0 0.14270155E+04</rscale>
<asrwt>0</asrwt>
<pdfrwt beam="1">  1        1 0.41267155E+00 0.14270155E+04</pdfrwt>
<pdfrwt beam="2">  1       -1 0.29198878E-01 0.14270155E+04</pdfrwt>
<totfact> 0.10562686E+01</totfact>
</mgrwt>
</event>
<event>
12    1  0.2045212E-008  0.1364279E+04  0.7818608E-02  0.8980089E-01
          2   -1    0    0  501    0  0.00000000000E+00  0.00000000000E+00  0.17042958611E+04  0.17042958611E+04  0.00000000000E+00 0. -1.
         -2   -1    0    0    0  501 -0.00000000000E+00 -0.00000000000E+00 -0.27302453287E+03  0.27302453287E+03  0.00000000000E+00 0.  1.
         23    2    1    2    0    0 -0.35998617620E+03  0.55053537841E+02  0.56373644990E+03  0.67735368163E+03  0.91587586470E+02 0.  0.
        254    2    1    2    0    0  0.35998617620E+03 -0.55053537841E+02  0.86753487837E+03  0.12999667124E+04  0.89703720604E+03 0.  0.
        -24    2    4    4    0    0  0.63856634977E+03  0.29345720498E+02  0.46803973533E+03  0.79922463489E+03  0.10521724579E+03 0.  0.
         24    2    4    4    0    0 -0.27858017357E+03 -0.84399258340E+02  0.39949514304E+03  0.50074207748E+03  0.80100630037E+02 0.  0.
         13    1    3    3    0    0 -0.24881662128E+03  0.20737278241E+02  0.45014167737E+03  0.51474972117E+03  0.00000000000E+00 0. -1.
        -13    1    3    3    0    0 -0.11116955492E+03  0.34316259600E+02  0.11359477252E+03  0.16260396046E+03  0.00000000000E+00 0.  1.
          2    1    6    6  502    0 -0.10528625677E+03 -0.53176992003E+02  0.10656832754E+03  0.15896476584E+03  0.00000000000E+00 0. -1.
          1    1    5    5  503    0  0.12250931172E+02  0.13239237800E+02  0.29117876146E+02  0.34252203482E+02  0.00000000000E+00 0. -1.
         -2    1    5    5    0  503  0.62631541859E+03  0.16106482698E+02  0.43892185918E+03  0.76497243141E+03  0.00000000000E+00 0.  1.
         -1    1    6    6    0  502 -0.17329391680E+03 -0.31222266336E+02  0.29292681550E+03  0.34177731164E+03  0.00000000000E+00 0.  1.
<mgrwt>
<rscale>  0 0.13642794E+04</rscale>
<asrwt>0</asrwt>
<pdfrwt beam="1">  1        2 0.26219936E+00 0.13642794E+04</pdfrwt>
<pdfrwt beam="2">  1       -2 0.42003775E-01 0.13642794E+04</pdfrwt>
<totfact> 0.51114142E+01</totfact>
</mgrwt>
</event>
<event>
12    1  0.2045212E-008  0.1177152E+04  0.7818608E-02  0.9133094E-01
          1   -1    0    0  501    0  0.00000000000E+00  0.00000000000E+00  0.77986459942E+03  0.77986459942E+03  0.00000000000E+00 0. -1.
         -1   -1    0    0    0  501 -0.00000000000E+00 -0.00000000000E+00 -0.44420755330E+03  0.44420755330E+03  0.00000000000E+00 0.  1.
         23    2    1    2    0    0 -0.13207787746E+03  0.10813299488E+03  0.47034786608E+02  0.19890012841E+03  0.90618318429E+02 0.  0.
        254    2    1    2    0    0  0.13207787746E+03 -0.10813299488E+03  0.28862225951E+03  0.10251720243E+04  0.96878148230E+03 0.  0.
        -24    2    4    4    0    0  0.14981747866E+03  0.10718044472E+03 -0.31934546942E+03  0.37483638978E+03  0.67733784981E+02 0.  0.
         24    2    4    4    0    0 -0.17739601191E+02 -0.21531343960E+03  0.60796772893E+03  0.65033563452E+03  0.81468444179E+02 0.  0.
         11    1    3    3    0    0 -0.23674800598E+02  0.73388155018E+01 -0.24189229532E+02  0.34633411927E+02  0.00000000000E+00 0.  1.
        -11    1    3    3    0    0 -0.10840307687E+03  0.10079417937E+03  0.71224016140E+02  0.16426671649E+03  0.00000000000E+00 0. -1.
          4    1    6    6  502    0 -0.15889364431E+02 -0.41380581108E+02  0.23042793658E+03  0.23465263338E+03  0.00000000000E+00 0. -1.
          3    1    5    5  503    0  0.78783042132E+02  0.15771707003E+02 -0.12352573887E+03  0.14735712617E+03  0.00000000000E+00 0. -1.
         -4    1    5    5    0  503  0.71034436523E+02  0.91408737718E+02 -0.19581973054E+03  0.22747926361E+03  0.00000000000E+00 0.  1.
         -3    1    6    6    0  502 -0.18502367597E+01 -0.17393285849E+03  0.37753979235E+03  0.41568300115E+03  0.00000000000E+00 0.  1.
<mgrwt>
<rscale>  0 0.11771521E+04</rscale>
<asrwt>0</asrwt>
<pdfrwt beam="1">  1        1 0.11997917E+00 0.11771521E+04</pdfrwt>
<pdfrwt beam="2">  1       -1 0.68339624E-01 0.11771521E+04</pdfrwt>
<totfact> 0.49494833E+01</totfact>
</mgrwt>
</event>
<event>
11    1  0.2045212E-008  0.2129890E+04  0.7818608E-02  0.8548190E-01
          1   -1    0    0  501    0  0.00000000000E+00  0.00000000000E+00  0.12535588069E+04  0.12535588069E+04  0.00000000000E+00 0. -1.
         -1   -1    0    0    0  501 -0.00000000000E+00 -0.00000000000E+00 -0.90471090081E+03  0.90471090081E+03  0.00000000000E+00 0.  1.
         23    2    1    2    0    0  0.38674344628E+03  0.42246696886E+02 -0.64523979049E+03  0.75896766145E+03  0.91335903441E+02 0.  0.
        254    2    1    2    0    0 -0.38674344628E+03 -0.42246696886E+02  0.99408769654E+03  0.13993020462E+04  0.90469917183E+03 0.  0.
         24    2    4    4    0    0  0.10141191097E+03 -0.23137699183E+03  0.66504493126E+03  0.71584745958E+03  0.79581007548E+02 0.  0.
         11    1    3    3    0    0  0.10813306076E+03  0.32325020546E+02 -0.12272009394E+03  0.16672698414E+03  0.00000000000E+00 0. -1.
        -11    1    3    3    0    0  0.27861038551E+03  0.99216763405E+01 -0.52251969655E+03  0.59224067731E+03  0.00000000000E+00 0.  1.
          2    1    5    5  502    0  0.76526293632E+02 -0.19104786999E+03  0.60684967244E+03  0.64079800810E+03  0.00000000000E+00 0. -1.
          3    1    4    4  503    0 -0.47492672332E+03  0.24782449202E+03  0.31578042831E+03  0.62184375069E+03  0.00000000000E+00 0. -1.
         -4    1    4    4    0  503 -0.13228633925E+02 -0.58694197070E+02  0.13262336977E+02  0.61610835957E+02  0.00000000000E+00 0.  1.
         -1    1    5    5    0  502  0.24885617333E+02 -0.40329121844E+02  0.58195258816E+02  0.75049451480E+02  0.00000000000E+00 0.  1.
<mgrwt>
<rscale>  0 0.21298904E+04</rscale>
<asrwt>0</asrwt>
<pdfrwt beam="1">  1        1 0.19285520E+00 0.21298904E+04</pdfrwt>
<pdfrwt beam="2">  1       -1 0.13918629E+00 0.21298904E+04</pdfrwt>
<totfact> 0.38140633E+00</totfact>
</mgrwt>
</event>
<event>
11    1  0.2045212E-008  0.2361782E+04  0.7818608E-02  0.8453952E-01
         -1   -1    0    0    0  501 -0.00000000000E+00  0.00000000000E+00  0.10785494305E+04  0.10785494305E+04  0.00000000000E+00 0.  1.
          1   -1    0    0  501    0  0.00000000000E+00 -0.00000000000E+00 -0.12929438339E+04  0.12929438339E+04  0.00000000000E+00 0. -1.
         23    2    1    2    0    0  0.52576127493E+03  0.40265106988E+03  0.68219654447E+03  0.95507394916E+03  0.90671499338E+02 0.  0.
        254    2    1    2    0    0 -0.52576127493E+03 -0.40265106988E+03 -0.89659094786E+03  0.14164193153E+04  0.87396541506E+03 0.  0.
         24    2    4    4    0    0 -0.53449414063E+03 -0.57544746099E+03 -0.42361022171E+03  0.89585806944E+03  0.79323980807E+02 0.  0.
         11    1    3    3    0    0  0.36925602293E+03  0.32936289606E+03  0.52560418150E+03  0.72186541916E+03  0.00000000000E+00 0. -1.
        -11    1    3    3    0    0  0.15650525200E+03  0.73288173819E+02  0.15659236297E+03  0.23320853000E+03  0.00000000000E+00 0.  1.
          2    1    5    5  502    0 -0.20903694792E+02 -0.25548671379E+02 -0.13621032244E+01  0.33038680215E+02  0.00000000000E+00 0. -1.
          3    1    4    4  503    0  0.53303578016E+01  0.27877086136E+01 -0.19227362083E+03  0.19236769297E+03  0.00000000000E+00 0. -1.
         -4    1    4    4    0  503  0.34025078968E+01  0.17000868250E+03 -0.28070710533E+03  0.32819355290E+03  0.00000000000E+00 0.  1.
         -3    1    5    5    0  502 -0.51359044584E+03 -0.54989878961E+03 -0.42224811848E+03  0.86281938923E+03  0.00000000000E+00 0.  1.
<mgrwt>
<rscale>  0 0.23617822E+04</rscale>
<asrwt>0</asrwt>
<pdfrwt beam="1">  1        1 0.19891444E+00 0.23617822E+04</pdfrwt>
<pdfrwt beam="2">  1       -1 0.16593068E+00 0.23617822E+04</pdfrwt>
<totfact> 0.21701699E+00</totfact>
</mgrwt>
</event>
<event>
12    1  0.2045212E-008  0.2478321E+04  0.7818608E-02  0.8410750E-01
         -1   -1    0    0    0  501 -0.00000000000E+00  0.00000000000E+00  0.10721367648E+04  0.10721367648E+04  0.00000000000E+00 0.  1.
          1   -1    0    0  501    0  0.00000000000E+00 -0.00000000000E+00 -0.14322040657E+04  0.14322040657E+04  0.00000000000E+00 0. -1.
         23    2    1    2    0    0 -0.25393274885E+03  0.23647494124E+03  0.88118472958E+03  0.95081246361E+03  0.84590629149E+02 0.  0.
        254    2    1    2    0    0  0.25393274885E+03 -0.23647494124E+03 -0.12412520305E+04  0.15535283669E+04  0.86737624186E+03 0.  0.
        -24    2    4    4    0    0 -0.55852868980E+02 -0.37782515846E+03 -0.11141552814E+04  0.11815284742E+04  0.93787797681E+02 0.  0.
         24    2    4    4    0    0  0.30978561783E+03  0.14135021722E+03 -0.12709674907E+03  0.37199989270E+03  0.79267418432E+02 0.  0.
         13    1    3    3    0    0 -0.16699796045E+03  0.16873417217E+03  0.69529559405E+03  0.73470776691E+03  0.00000000000E+00 0.  1.
        -13    1    3    3    0    0 -0.86934788396E+02  0.67740769073E+02  0.18588913553E+03  0.21610469670E+03  0.00000000000E+00 0. -1.
          2    1    6    6  502    0  0.17649320224E+03  0.11808334702E+03 -0.96630678266E+02  0.23330455475E+03  0.00000000000E+00 0. -1.
          3    1    5    5  503    0 -0.55840605035E+02 -0.32583735047E+03 -0.10375869564E+04  0.10889788080E+04  0.00000000000E+00 0. -1.
         -4    1    5    5    0  503 -0.12263945267E-01 -0.51987807992E+02 -0.76568325037E+02  0.92549666284E+02  0.00000000000E+00 0.  1.
         -1    1    6    6    0  502  0.13329241558E+03  0.23266870199E+02 -0.30466070807E+02  0.13869533796E+03  0.00000000000E+00 0.  1.
<mgrwt>
<rscale>  0 0.24783209E+04</rscale>
<asrwt>0</asrwt>
<pdfrwt beam="1">  1        1 0.22033909E+00 0.24783209E+04</pdfrwt>
<pdfrwt beam="2">  1       -1 0.16494412E+00 0.24783209E+04</pdfrwt>
<totfact> 0.17414502E+00</totfact>
</mgrwt>
</event>
<event>
12    1  0.2272959E-008  0.1210245E+04  0.7818608E-02  0.9103936E-01
         -2   -1    0    0    0  501 -0.00000000000E+00  0.00000000000E+00  0.28712307161E+03  0.28712307161E+03  0.00000000000E+00 0.  1.
          2   -1    0    0  501    0  0.00000000000E+00 -0.00000000000E+00 -0.12753190880E+04  0.12753190880E+04  0.00000000000E+00 0. -1.
         23    2    1    2    0    0 -0.25527300668E+03  0.35106559170E+02 -0.16549596628E+03  0.32013651732E+03  0.93282883902E+02 0.  0.
        254    2    1    2    0    0  0.25527300668E+03 -0.35106559170E+02 -0.82270005012E+03  0.12423056423E+04  0.89447814842E+03 0.  0.
        -24    2    4    4    0    0  0.26268538695E+03  0.35593511791E+03 -0.17265596699E+03  0.47963213407E+03  0.67405344142E+02 0.  0.
         24    2    4    4    0    0 -0.74123802653E+01 -0.39104167708E+03 -0.65004408313E+03  0.76267350823E+03  0.78390264384E+02 0.  0.
         11    1    3    3    0    0 -0.25681797129E+03  0.44487146271E+02 -0.16826060779E+03  0.31023573085E+03  0.00000000000E+00 0.  1.
        -11    1    3    3    0    0  0.15449646072E+01 -0.93805871010E+01  0.27646415156E+01  0.99007864691E+01  0.00000000000E+00 0. -1.
          2    1    6    6  502    0 -0.31730599466E+02 -0.10982039186E+03 -0.15181128374E+03  0.19003687874E+03  0.00000000000E+00 0. -1.
          3    1    5    5  503    0  0.33217350079E+02  0.30115952037E+02 -0.38632557282E+02  0.59184773342E+02  0.00000000000E+00 0. -1.
         -2    1    5    5    0  503  0.22946803687E+03  0.32581916588E+03 -0.13402340971E+03  0.42044736073E+03  0.00000000000E+00 0.  1.
         -1    1    6    6    0  502  0.24318219201E+02 -0.28122128522E+03 -0.49823279939E+03  0.57263662949E+03  0.00000000000E+00 0.  1.
<mgrwt>
<rscale>  0 0.12102455E+04</rscale>
<asrwt>0</asrwt>
<pdfrwt beam="1">  1        2 0.19620294E+00 0.12102455E+04</pdfrwt>
<pdfrwt beam="2">  1       -2 0.44172779E-01 0.12102455E+04</pdfrwt>
<totfact> 0.81867998E+01</totfact>
</mgrwt>
</event>
<event>
12    1  0.2045212E-008  0.2697192E+04  0.7818608E-02  0.8335917E-01
         -1   -1    0    0    0  501 -0.00000000000E+00  0.00000000000E+00  0.14772365454E+04  0.14772365454E+04  0.00000000000E+00 0.  1.
          1   -1    0    0  501    0  0.00000000000E+00 -0.00000000000E+00 -0.12311574126E+04  0.12311574126E+04  0.00000000000E+00 0. -1.
         23    2    1    2    0    0  0.32399095596E+02 -0.53888779132E+03  0.11816176141E+04  0.13022810800E+04  0.90917942226E+02 0.  0.
        254    2    1    2    0    0 -0.32399095596E+02  0.53888779132E+03 -0.93553848130E+03  0.14061128781E+04  0.90026186348E+03 0.  0.
        -24    2    4    4    0    0 -0.41387029486E+03  0.69406686696E+02 -0.47275800439E+03  0.64024638078E+03  0.10153515777E+03 0.  0.
         24    2    4    4    0    0  0.38147119926E+03  0.46948110462E+03 -0.46278047691E+03  0.76586649728E+03  0.80330183539E+02 0.  0.
         13    1    3    3    0    0  0.18686189380E+02 -0.52700122412E+03  0.11586594534E+04  0.12730165721E+04  0.00000000000E+00 0.  1.
        -13    1    3    3    0    0  0.13712906216E+02 -0.11886567198E+02  0.22958160680E+02  0.29264507829E+02  0.00000000000E+00 0. -1.
          2    1    6    6  502    0  0.12503464970E+03  0.19975408232E+03 -0.14674629186E+03  0.27761453709E+03  0.00000000000E+00 0. -1.
          3    1    5    5  503    0 -0.14781168835E+03  0.56480843032E+02 -0.12198523369E+03  0.19979684202E+03  0.00000000000E+00 0. -1.
         -4    1    5    5    0  503 -0.26605860651E+03  0.12925843665E+02 -0.35077277070E+03  0.44044953876E+03  0.00000000000E+00 0.  1.
         -1    1    6    6    0  502  0.25643654956E+03  0.26972702230E+03 -0.31603418505E+03  0.48825196019E+03  0.00000000000E+00 0.  1.
<mgrwt>
<rscale>  0 0.26971917E+04</rscale>
<asrwt>0</asrwt>
<pdfrwt beam="1">  1        1 0.18940883E+00 0.26971917E+04</pdfrwt>
<pdfrwt beam="2">  1       -1 0.22726716E+00 0.26971917E+04</pdfrwt>
<totfact> 0.87167721E-01</totfact>
</mgrwt>
</event>
<event>
12    1  0.2045212E-008  0.1694638E+04  0.7818608E-02  0.8764428E-01
         -1   -1    0    0    0  501 -0.00000000000E+00  0.00000000000E+00  0.27930206312E+03  0.27930206312E+03  0.00000000000E+00 0.  1.
          1   -1    0    0  501    0  0.00000000000E+00 -0.00000000000E+00 -0.25705129736E+04  0.25705129736E+04  0.00000000000E+00 0. -1.
         23    2    1    2    0    0 -0.46685128975E+03 -0.30980224136E+03 -0.11754746427E+04  0.13054260951E+04  0.92027705757E+02 0.  0.
        254    2    1    2    0    0  0.46685128975E+03  0.30980224136E+03 -0.11157362678E+04  0.15443889416E+04  0.90903367830E+03 0.  0.
        -24    2    4    4    0    0  0.65129659563E+03  0.46277033778E+03 -0.73372971748E+03  0.10866080105E+04  0.63356367074E+02 0.  0.
         24    2    4    4    0    0 -0.18444530588E+03 -0.15296809641E+03 -0.38200655033E+03  0.45778093111E+03  0.78835696318E+02 0.  0.
         13    1    3    3    0    0 -0.13110066287E+03 -0.94799308181E+02 -0.44064188176E+03  0.46940340923E+03  0.00000000000E+00 0. -1.
        -13    1    3    3    0    0 -0.33575062688E+03 -0.21500293318E+03 -0.73483276097E+03  0.83602268589E+03  0.00000000000E+00 0.  1.
          4    1    6    6  502    0 -0.13839890667E+02 -0.53760464838E+01 -0.85187531874E+00  0.14871790108E+02  0.00000000000E+00 0. -1.
          3    1    5    5  503    0  0.13105052970E+03  0.65767712351E+02 -0.14821378231E+03  0.20848731038E+03  0.00000000000E+00 0. -1.
         -4    1    5    5    0  503  0.52024606593E+03  0.39700262543E+03 -0.58551593516E+03  0.87812070015E+03  0.00000000000E+00 0.  1.
         -3    1    6    6    0  502 -0.17060541521E+03 -0.14759204993E+03 -0.38115467501E+03  0.44290914100E+03  0.00000000000E+00 0.  1.
<mgrwt>
<rscale>  0 0.16946381E+04</rscale>
<asrwt>0</asrwt>
<pdfrwt beam="1">  1        1 0.39546356E+00 0.16946381E+04</pdfrwt>
<pdfrwt beam="2">  1       -1 0.42969545E-01 0.16946381E+04</pdfrwt>
<totfact> 0.61593230E+00</totfact>
</mgrwt>
</event>
<event>
12    1  0.2045212E-008  0.2986899E+04  0.7818608E-02  0.8247482E-01
         -2   -1    0    0    0  501 -0.00000000000E+00  0.00000000000E+00  0.20280201941E+04  0.20280201941E+04  0.00000000000E+00 0.  1.
          2   -1    0    0  501    0  0.00000000000E+00 -0.00000000000E+00 -0.10997877776E+04  0.10997877776E+04  0.00000000000E+00 0. -1.
         23    2    1    2    0    0  0.72096322817E+03 -0.75528747265E+03  0.13293171023E+04  0.16929976967E+04  0.94393324406E+02 0.  0.
        254    2    1    2    0    0 -0.72096322817E+03  0.75528747265E+03 -0.40108468585E+03  0.14348102751E+04  0.89864590217E+03 0.  0.
        -24    2    4    4    0    0 -0.73336474968E+03  0.65679047916E+03  0.28541746155E+02  0.98693468487E+03  0.63465355359E+02 0.  0.
         24    2    4    4    0    0  0.12401521503E+02  0.98496993490E+02 -0.42962643201E+03  0.44787559020E+03  0.78474312697E+02 0.  0.
         11    1    3    3    0    0  0.50974732287E+03 -0.47072574221E+03  0.86517189964E+03  0.11090299696E+04  0.00000000000E+00 0.  1.
        -11    1    3    3    0    0  0.21121590530E+03 -0.28456173045E+03  0.46414520270E+03  0.58396772708E+03  0.00000000000E+00 0. -1.
          2    1    6    6  502    0 -0.22395313779E+02  0.34121482524E+02 -0.71319879204E+02  0.82172689006E+02  0.00000000000E+00 0. -1.
          1    1    5    5  503    0 -0.17667084041E+03  0.19405228196E+03 -0.97763375892E+00  0.26243061893E+03  0.00000000000E+00 0. -1.
         -2    1    5    5    0  503 -0.55669390927E+03  0.46273819721E+03  0.29519379914E+02  0.72450406594E+03  0.00000000000E+00 0.  1.
         -1    1    6    6    0  502  0.34796835282E+02  0.64375510966E+02 -0.35830655280E+03  0.36570290119E+03  0.00000000000E+00 0.  1.
<mgrwt>
<rscale>  0 0.29868993E+04</rscale>
<asrwt>0</asrwt>
<pdfrwt beam="1">  1        2 0.16919812E+00 0.29868993E+04</pdfrwt>
<pdfrwt beam="2">  1       -2 0.31200311E+00 0.29868993E+04</pdfrwt>
<totfact> 0.50087491E-01</totfact>
</mgrwt>
</event>
<event>
12    1  0.2045212E-008  0.2065389E+04  0.7818608E-02  0.8576645E-01
         -1   -1    0    0    0  501 -0.00000000000E+00  0.00000000000E+00  0.16173678214E+04  0.16173678214E+04  0.00000000000E+00 0.  1.
          1   -1    0    0  501    0  0.00000000000E+00 -0.00000000000E+00 -0.65937845496E+03  0.65937845496E+03  0.00000000000E+00 0. -1.
         23    2    1    2    0    0 -0.70257909194E+03 -0.44613922140E+03  0.59162239344E+03  0.10252299108E+04  0.91769974982E+02 0.  0.
        254    2    1    2    0    0  0.70257909194E+03  0.44613922140E+03  0.36636697303E+03  0.12515163656E+04  0.85989003313E+03 0.  0.
        -24    2    4    4    0    0  0.43508429972E+03  0.10767934577E+03 -0.22928528781E+03  0.51178334396E+03  0.91963354579E+02 0.  0.
         24    2    4    4    0    0  0.26749479222E+03  0.33845987563E+03  0.59565226083E+03  0.73973302161E+03  0.79339625388E+02 0.  0.
         11    1    3    3    0    0 -0.29732919026E+02 -0.14206552755E+01  0.31086846818E+02  0.43040176351E+02  0.00000000000E+00 0. -1.
        -11    1    3    3    0    0 -0.67284617291E+03 -0.44471856613E+03  0.56053554662E+03  0.98218973446E+03  0.00000000000E+00 0.  1.
          2    1    6    6  502    0  0.23971480250E+03  0.25266660068E+03  0.46461873098E+03  0.58066699821E+03  0.00000000000E+00 0. -1.
          1    1    5    5  503    0  0.27068645137E+03  0.46437054073E+02 -0.18405750056E+03  0.33061264111E+03  0.00000000000E+00 0. -1.
         -2    1    5    5    0  503  0.16439784835E+03  0.61242291702E+02 -0.45227787243E+02  0.18117070285E+03  0.00000000000E+00 0.  1.
         -1    1    6    6    0  502  0.27779989723E+02  0.85793274947E+02  0.13103352986E+03  0.15906602340E+03  0.00000000000E+00 0.  1.
<mgrwt>
<rscale>  0 0.20653886E+04</rscale>
<asrwt>0</asrwt>
<pdfrwt beam="1">  1        1 0.10144284E+00 0.20653886E+04</pdfrwt>
<pdfrwt beam="2">  1       -1 0.24882582E+00 0.20653886E+04</pdfrwt>
<totfact> 0.19515116E+00</totfact>
</mgrwt>
</event>
<event>
12    1  0.2045212E-008  0.1817001E+04  0.7818608E-02  0.8697311E-01
         -2   -1    0    0    0  501 -0.00000000000E+00  0.00000000000E+00  0.13955911094E+04  0.13955911094E+04  0.00000000000E+00 0.  1.
          2   -1    0    0  501    0  0.00000000000E+00 -0.00000000000E+00 -0.59141457418E+03  0.59141457418E+03  0.00000000000E+00 0. -1.
         23    2    1    2    0    0 -0.18422447577E+03  0.54775661921E+03  0.69536750343E+03  0.91190391839E+03  0.11856146164E+03 0.  0.
        254    2    1    2    0    0  0.18422447577E+03 -0.54775661921E+03  0.10880903182E+03  0.10751017652E+04  0.90001579365E+03 0.  0.
        -24    2    4    4    0    0  0.14241052700E+03 -0.35217284038E+03  0.49629044267E+03  0.63189968691E+03  0.93201626269E+02 0.  0.
         24    2    4    4    0    0  0.41813948770E+02 -0.19558377883E+03 -0.38748141084E+03  0.44320207831E+03  0.79276841599E+02 0.  0.
         11    1    3    3    0    0 -0.16239539431E+03  0.52911122320E+03  0.61919889377E+03  0.83050479869E+03  0.00000000000E+00 0.  1.
        -11    1    3    3    0    0 -0.21829081453E+02  0.18645396013E+02  0.76168609658E+02  0.81399119693E+02  0.00000000000E+00 0. -1.
          2    1    6    6  502    0 -0.92643854599E+01 -0.13581826499E+03 -0.25828753081E+03  0.29196725590E+03  0.00000000000E+00 0. -1.
          3    1    5    5  503    0  0.94282525517E+01 -0.13605479777E+03  0.15225367764E+03  0.20440396840E+03  0.00000000000E+00 0. -1.
         -4    1    5    5    0  503  0.13298227444E+03 -0.21611804261E+03  0.34403676503E+03  0.42749571851E+03  0.00000000000E+00 0.  1.
         -1    1    6    6    0  502  0.51078334230E+02 -0.59765513848E+02 -0.12919388003E+03  0.15123482241E+03  0.00000000000E+00 0.  1.
<mgrwt>
<rscale>  0 0.18170007E+04</rscale>
<asrwt>0</asrwt>
<pdfrwt beam="1">  1        2 0.90986858E-01 0.18170007E+04</pdfrwt>
<pdfrwt beam="2">  1       -2 0.21470632E+00 0.18170007E+04</pdfrwt>
<totfact> 0.50785608E+00</totfact>
</mgrwt>
</event>
<event>
12    1  0.2045212E-008  0.1215099E+04  0.7818608E-02  0.9099742E-01
          2   -1    0    0  501    0  0.00000000000E+00  0.00000000000E+00  0.50459981085E+03  0.50459981085E+03  0.00000000000E+00 0. -1.
         -2   -1    0    0    0  501 -0.00000000000E+00 -0.00000000000E+00 -0.73150281036E+03  0.73150281036E+03  0.00000000000E+00 0.  1.
         23    2    1    2    0    0 -0.18784774896E+03  0.15380779876E+03 -0.14379384807E+03  0.29629451645E+03  0.90388904111E+02 0.  0.
        254    2    1    2    0    0  0.18784774896E+03 -0.15380779876E+03 -0.83109151432E+02  0.93980810476E+03  0.90409541917E+03 0.  0.
        -24    2    4    4    0    0  0.49667497907E+03  0.88571878516E+02 -0.14674100316E+03  0.53342328104E+03  0.92067704709E+02 0.  0.
         24    2    4    4    0    0 -0.30882723010E+03 -0.24237967728E+03  0.63631851729E+02  0.40638482371E+03  0.83531110255E+02 0.  0.
         13    1    3    3    0    0 -0.16716291470E+02  0.57468687423E+01  0.12171259639E+02  0.21461604368E+02  0.00000000000E+00 0. -1.
        -13    1    3    3    0    0 -0.17113145749E+03  0.14806093002E+03 -0.15596510771E+03  0.27483291209E+03  0.00000000000E+00 0.  1.
          2    1    6    6  502    0 -0.24037056016E+03 -0.20922517448E+03  0.21417651189E+02  0.31939301121E+03  0.00000000000E+00 0. -1.
          3    1    5    5  503    0  0.43790059427E+03  0.97730995204E+02 -0.15196516788E+03  0.47371055523E+03  0.00000000000E+00 0. -1.
         -4    1    5    5    0  503  0.58774384795E+02 -0.91591166887E+01  0.52241647183E+01  0.59712725809E+02  0.00000000000E+00 0.  1.
         -1    1    6    6    0  502 -0.68456669947E+02 -0.33154502798E+02  0.42214200540E+02  0.86991812507E+02  0.00000000000E+00 0.  1.
<mgrwt>
<rscale>  0 0.12150986E+04</rscale>
<asrwt>0</asrwt>
<pdfrwt beam="1">  1        2 0.77630740E-01 0.12150986E+04</pdfrwt>
<pdfrwt beam="2">  1       -2 0.11253889E+00 0.12150986E+04</pdfrwt>
<totfact> 0.37329105E+01</totfact>
</mgrwt>
</event>
<event>
11    1  0.2045212E-008  0.2159739E+04  0.7818608E-02  0.8535375E-01
          2   -1    0    0  501    0  0.00000000000E+00  0.00000000000E+00  0.19761875027E+04  0.19761875027E+04  0.00000000000E+00 0. -1.
         -2   -1    0    0    0  501 -0.00000000000E+00 -0.00000000000E+00 -0.59008477199E+03  0.59008477199E+03  0.00000000000E+00 0.  1.
         23    2    1    2    0    0  0.11962756218E+03  0.69176752061E+03  0.12218472875E+04  0.14121858776E+04  0.92223113770E+02 0.  0.
        254    2    1    2    0    0 -0.11962756218E+03 -0.69176752061E+03  0.16425544316E+03  0.11540863970E+04  0.90115620457E+03 0.  0.
         24    2    4    4    0    0 -0.39312849229E+03 -0.33216411519E+03  0.37442799666E+03  0.64155074395E+03  0.80672309497E+02 0.  0.
         11    1    3    3    0    0 -0.13020389609E+02  0.24905903963E+02  0.51341564547E+02  0.58530255833E+02  0.00000000000E+00 0.  1.
        -11    1    3    3    0    0  0.13264795179E+03  0.66686161665E+03  0.11705057230E+04  0.13536556218E+04  0.00000000000E+00 0. -1.
          4    1    5    5  502    0 -0.36939935724E+03 -0.30147858668E+03  0.36783918016E+03  0.60220501976E+03  0.00000000000E+00 0. -1.
          3    1    4    4  503    0  0.26717803740E+03 -0.28543462291E+03 -0.19359076752E+03  0.43627332361E+03  0.00000000000E+00 0. -1.
         -4    1    4    4    0  503  0.63228927044E+01 -0.74168782512E+02 -0.16581785983E+02  0.76262329481E+02  0.00000000000E+00 0.  1.
         -3    1    5    5    0  502 -0.23729135044E+02 -0.30685528508E+02  0.65888164961E+01  0.39345724197E+02  0.00000000000E+00 0.  1.
<mgrwt>
<rscale>  0 0.21597390E+04</rscale>
<asrwt>0</asrwt>
<pdfrwt beam="1">  1        2 0.30402884E+00 0.21597390E+04</pdfrwt>
<pdfrwt beam="2">  1       -2 0.90782273E-01 0.21597390E+04</pdfrwt>
<totfact> 0.65429793E+00</totfact>
</mgrwt>
</event>
<event>
11    1  0.2045212E-008  0.2601248E+04  0.7818608E-02  0.8367777E-01
         -1   -1    0    0    0  501 -0.00000000000E+00  0.00000000000E+00  0.71244322341E+03  0.71244322341E+03  0.00000000000E+00 0.  1.
          1   -1    0    0  501    0  0.00000000000E+00 -0.00000000000E+00 -0.23743969204E+04  0.23743969204E+04  0.00000000000E+00 0. -1.
         23    2    1    2    0    0  0.63285714185E+03 -0.82741909472E+03 -0.13220839983E+04  0.16857053969E+04  0.92553046642E+02 0.  0.
        254    2    1    2    0    0 -0.63285714185E+03  0.82741909472E+03 -0.33986969873E+03  0.14011347469E+04  0.87323344334E+03 0.  0.
         24    2    4    4    0    0 -0.66526163346E+03  0.75034496828E+03  0.65766730960E+01  0.10061008462E+04  0.81271444189E+02 0.  0.
         11    1    3    3    0    0  0.53799876759E+03 -0.67915622546E+03 -0.10453310468E+04  0.13577234070E+04  0.00000000000E+00 0. -1.
        -11    1    3    3    0    0  0.94858374259E+02 -0.14826286926E+03 -0.27675295147E+03  0.32798198993E+03  0.00000000000E+00 0.  1.
          2    1    5    5  502    0 -0.10990885517E+03  0.16393412474E+03 -0.17086796484E+02  0.19810682046E+03  0.00000000000E+00 0. -1.
          3    1    4    4  503    0 -0.34514418375E+02  0.76908119899E+02 -0.66982631537E+02  0.10766975857E+03  0.00000000000E+00 0. -1.
         -4    1    4    4    0  503  0.66918909979E+02  0.16600653780E+00 -0.27946374029E+03  0.28736414218E+03  0.00000000000E+00 0.  1.
         -1    1    5    5    0  502 -0.55535277829E+03  0.58641084355E+03  0.23663469580E+02  0.80799402571E+03  0.00000000000E+00 0.  1.
<mgrwt>
<rscale>  0 0.26012482E+04</rscale>
<asrwt>0</asrwt>
<pdfrwt beam="1">  1        1 0.36529183E+00 0.26012482E+04</pdfrwt>
<pdfrwt beam="2">  1       -1 0.10960665E+00 0.26012482E+04</pdfrwt>
<totfact> 0.11210736E+00</totfact>
</mgrwt>
</event>
<event>
11    1  0.2045212E-008  0.1793410E+04  0.7818608E-02  0.8709812E-01
          2   -1    0    0  501    0  0.00000000000E+00  0.00000000000E+00  0.45494552771E+03  0.45494552771E+03  0.00000000000E+00 0. -1.
         -2   -1    0    0    0  501 -0.00000000000E+00 -0.00000000000E+00 -0.17674204604E+04  0.17674204604E+04  0.00000000000E+00 0.  1.
         23    2    1    2    0    0 -0.13695556947E+03  0.59949563524E+03 -0.17285097359E+03  0.64622527549E+03  0.97866250246E+02 0.  0.
        254    2    1    2    0    0  0.13695556947E+03 -0.59949563524E+03 -0.11396239591E+04  0.15761407127E+04  0.89851262270E+03 0.  0.
         24    2    4    4    0    0 -0.27773476078E+02 -0.77943632165E+02 -0.91606572024E+03  0.92343596416E+03  0.81920695332E+02 0.  0.
         11    1    3    3    0    0 -0.48008501317E+02  0.15867249659E+03 -0.38806411935E+01  0.16582170168E+03  0.00000000000E+00 0. -1.
        -11    1    3    3    0    0 -0.88947068158E+02  0.44082313865E+03 -0.16897033239E+03  0.48040357381E+03  0.00000000000E+00 0.  1.
          4    1    5    5  502    0  0.78942652091E+01  0.27451480586E+01 -0.97726925446E+01  0.12859268277E+02  0.00000000000E+00 0. -1.
          1    1    4    4  503    0  0.19063790859E+03 -0.45079117319E+03 -0.27505315243E+03  0.56143541987E+03  0.00000000000E+00 0. -1.
         -2    1    4    4    0  503 -0.25908863033E+02 -0.70760829878E+02  0.51494913534E+02  0.91269328629E+02  0.00000000000E+00 0.  1.
         -3    1    5    5    0  502 -0.35667741287E+02 -0.80688780224E+02 -0.90629302770E+03  0.91057669588E+03  0.00000000000E+00 0.  1.
<mgrwt>
<rscale>  0 0.17934102E+04</rscale>
<asrwt>0</asrwt>
<pdfrwt beam="1">  1        2 0.69991621E-01 0.17934102E+04</pdfrwt>
<pdfrwt beam="2">  1       -2 0.27191083E+00 0.17934102E+04</pdfrwt>
<totfact> 0.30628638E+00</totfact>
</mgrwt>
</event>
<event>
11    1  0.2045212E-008  0.2061863E+04  0.7818608E-02  0.8578232E-01
          2   -1    0    0  501    0  0.00000000000E+00  0.00000000000E+00  0.12841717950E+04  0.12841717950E+04  0.00000000000E+00 0. -1.
         -2   -1    0    0    0  501 -0.00000000000E+00 -0.00000000000E+00 -0.82763051831E+03  0.82763051831E+03  0.00000000000E+00 0.  1.
         23    2    1    2    0    0  0.35702128094E+03  0.12515299392E+03 -0.57560178184E+03  0.69516389991E+03  0.93850783435E+02 0.  0.
        254    2    1    2    0    0 -0.35702128094E+03 -0.12515299392E+03  0.10321430585E+04  0.14166384134E+04  0.89354218375E+03 0.  0.
         24    2    4    4    0    0  0.20741337386E+03 -0.62630235646E+02 -0.60034756027E+00  0.23094911122E+03  0.79964226287E+02 0.  0.
         11    1    3    3    0    0  0.52979191771E+02  0.41951161266E+01 -0.36310951353E+02  0.64365199822E+02  0.00000000000E+00 0. -1.
        -11    1    3    3    0    0  0.30404208917E+03  0.12095787779E+03 -0.53929083048E+03  0.63079870009E+03  0.00000000000E+00 0.  1.
          4    1    5    5  502    0  0.20904911024E+03 -0.48539574188E+02 -0.83735061907E+01  0.21477368638E+03  0.00000000000E+00 0. -1.
          1    1    4    4  503    0 -0.50801388519E+03 -0.88976819685E+02  0.86944707215E+03  0.10109071141E+04  0.00000000000E+00 0. -1.
         -2    1    4    4    0  503 -0.56420769609E+02  0.26454061414E+02  0.16329633393E+03  0.17478218812E+03  0.00000000000E+00 0.  1.
         -3    1    5    5    0  502 -0.16357363827E+01 -0.14090661458E+02  0.77731586305E+01  0.16175424845E+02  0.00000000000E+00 0.  1.
<mgrwt>
<rscale>  0 0.20618630E+04</rscale>
<asrwt>0</asrwt>
<pdfrwt beam="1">  1        2 0.19756489E+00 0.20618630E+04</pdfrwt>
<pdfrwt beam="2">  1       -2 0.12732777E+00 0.20618630E+04</pdfrwt>
<totfact> 0.71467501E+00</totfact>
</mgrwt>
</event>
<event>
12    1  0.2045212E-008  0.1043289E+04  0.7818608E-02  0.9262300E-01
         -1   -1    0    0    0  501 -0.00000000000E+00  0.00000000000E+00  0.22542129507E+03  0.22542129507E+03  0.00000000000E+00 0.  1.
          1   -1    0    0  501    0  0.00000000000E+00 -0.00000000000E+00 -0.12071304945E+04  0.12071304945E+04  0.00000000000E+00 0. -1.
         23    2    1    2    0    0  0.45477388692E+02 -0.55586462755E+02  0.59541888060E+01  0.12303150318E+03  0.99715849731E+02 0.  0.
        254    2    1    2    0    0 -0.45477388692E+02  0.55586462755E+02 -0.98766338821E+03  0.13095202864E+04  0.85685842721E+03 0.  0.
        -24    2    4    4    0    0  0.32294779811E+03  0.26114939570E+03 -0.38498743307E+03  0.56951307190E+03  0.60295342001E+02 0.  0.
         24    2    4    4    0    0 -0.36842518680E+03 -0.20556293294E+03 -0.60267595515E+03  0.74000721447E+03  0.79994580340E+02 0.  0.
         13    1    3    3    0    0  0.36036664659E+02  0.16338012043E+01  0.41518845966E+02  0.55001137047E+02  0.00000000000E+00 0.  1.
        -13    1    3    3    0    0  0.94407240326E+01 -0.57220263959E+02 -0.35564657160E+02  0.68030366137E+02  0.00000000000E+00 0. -1.
          2    1    6    6  502    0 -0.84643500405E+02 -0.16962446235E+02 -0.92669962001E+02  0.12664899763E+03  0.00000000000E+00 0. -1.
          3    1    5    5  503    0  0.67601164863E+02  0.84069316678E+02 -0.81969243270E+02  0.13548625148E+03  0.00000000000E+00 0. -1.
         -4    1    5    5    0  503  0.25534663325E+03  0.17708007902E+03 -0.30301818980E+03  0.43402682042E+03  0.00000000000E+00 0.  1.
         -1    1    6    6    0  502 -0.28378168640E+03 -0.18860048671E+03 -0.51000599315E+03  0.61335821684E+03  0.00000000000E+00 0.  1.
<mgrwt>
<rscale>  0 0.10432889E+04</rscale>
<asrwt>0</asrwt>
<pdfrwt beam="1">  1        1 0.18571239E+00 0.10432889E+04</pdfrwt>
<pdfrwt beam="2">  1       -1 0.34680198E-01 0.10432889E+04</pdfrwt>
<totfact> 0.83215192E+01</totfact>
</mgrwt>
</event>
<event>
11    1  0.2045212E-008  0.1353021E+04  0.7818608E-02  0.8988544E-01
          2   -1    0    0  501    0  0.00000000000E+00  0.00000000000E+00  0.87364065514E+03  0.87364065514E+03  0.00000000000E+00 0. -1.
         -2   -1    0    0    0  501 -0.00000000000E+00 -0.00000000000E+00 -0.52386121090E+03  0.52386121090E+03  0.00000000000E+00 0.  1.
         23    2    1    2    0    0  0.51757285355E+02  0.43123919501E+02 -0.27929230057E+03  0.30148496142E+03  0.91381090980E+02 0.  0.
        254    2    1    2    0    0 -0.51757285355E+02 -0.43123919501E+02  0.62907174481E+03  0.10960169046E+04  0.89497670699E+03 0.  0.
         24    2    4    4    0    0 -0.21232738823E+03 -0.33171116524E+03  0.72758738506E+02  0.40814421960E+03  0.78566233390E+02 0.  0.
         13    1    3    3    0    0  0.13133853077E+01  0.31121311577E+02 -0.19905137777E+02  0.36965869733E+02  0.00000000000E+00 0. -1.
        -13    1    3    3    0    0  0.50443900048E+02  0.12002607925E+02 -0.25938716279E+03  0.26451909169E+03  0.00000000000E+00 0.  1.
          2    1    5    5  502    0 -0.17831984017E+03 -0.28388030737E+03  0.32154114200E+02  0.33677868307E+03  0.00000000000E+00 0. -1.
          1    1    4    4  503    0  0.45046023289E+02  0.20428518922E+03  0.48473293383E+03  0.52794658810E+03  0.00000000000E+00 0. -1.
         -2    1    4    4    0  503  0.11552407958E+03  0.84302056519E+02  0.71580072466E+02  0.15992609690E+03  0.00000000000E+00 0.  1.
         -1    1    5    5    0  502 -0.34007548062E+02 -0.47830857873E+02  0.40604624306E+02  0.71365536536E+02  0.00000000000E+00 0.  1.
<mgrwt>
<rscale>  0 0.13530210E+04</rscale>
<asrwt>0</asrwt>
<pdfrwt beam="1">  1        2 0.13440625E+00 0.13530210E+04</pdfrwt>
<pdfrwt beam="2">  1       -2 0.80594033E-01 0.13530210E+04</pdfrwt>
<totfact> 0.40589189E+01</totfact>
</mgrwt>
</event>
<event>
12    1  0.2045212E-008  0.2204813E+04  0.7818608E-02  0.8516427E-01
          1   -1    0    0  501    0  0.00000000000E+00  0.00000000000E+00  0.73942329041E+03  0.73942329041E+03  0.00000000000E+00 0. -1.
         -1   -1    0    0    0  501 -0.00000000000E+00 -0.00000000000E+00 -0.16435789286E+04  0.16435789286E+04  0.00000000000E+00 0.  1.
         23    2    1    2    0    0  0.47289187307E+03 -0.59317099701E+03 -0.98601522011E+03  0.12475174881E+04  0.92710914026E+02 0.  0.
        254    2    1    2    0    0 -0.47289187307E+03  0.59317099701E+03  0.81859581937E+02  0.11354847309E+04  0.84091975098E+03 0.  0.
        -24    2    4    4    0    0 -0.36689439467E+03  0.78425443969E+03 -0.42912425621E+02  0.87170931325E+03  0.91482935632E+02 0.  0.
         24    2    4    4    0    0 -0.10599747839E+03 -0.19108344269E+03  0.12477200756E+03  0.26377541762E+03  0.79126920690E+02 0.  0.
         11    1    3    3    0    0  0.79124004362E+01 -0.41574793682E+02 -0.65490272838E+02  0.77974645794E+02  0.00000000000E+00 0. -1.
        -11    1    3    3    0    0  0.46497947263E+03 -0.55159620332E+03 -0.92052494727E+03  0.11695428423E+04  0.00000000000E+00 0.  1.
          2    1    6    6  502    0  0.10712357770E+02 -0.21520303597E+02  0.20590785422E+01  0.24127119189E+02  0.00000000000E+00 0. -1.
          3    1    5    5  503    0 -0.52395371089E+02  0.14464290968E+03 -0.39991475720E+02  0.15895334020E+03  0.00000000000E+00 0. -1.
         -4    1    5    5    0  503 -0.31449902358E+03  0.63961153001E+03 -0.29209499011E+01  0.71275597304E+03  0.00000000000E+00 0.  1.
         -1    1    6    6    0  502 -0.11670983616E+03 -0.16956313909E+03  0.12271292902E+03  0.23964829843E+03  0.00000000000E+00 0.  1.
<mgrwt>
<rscale>  0 0.22048134E+04</rscale>
<asrwt>0</asrwt>
<pdfrwt beam="1">  1        1 0.11375743E+00 0.22048134E+04</pdfrwt>
<pdfrwt beam="2">  1       -1 0.25285829E+00 0.22048134E+04</pdfrwt>
<totfact> 0.15240521E+00</totfact>
</mgrwt>
</event>
<event>
11    1  0.2045212E-008  0.2074013E+04  0.7818608E-02  0.8572778E-01
          2   -1    0    0  501    0  0.00000000000E+00  0.00000000000E+00  0.27587105152E+04  0.27587105152E+04  0.00000000000E+00 0. -1.
         -2   -1    0    0    0  501 -0.00000000000E+00 -0.00000000000E+00 -0.38981360336E+03  0.38981360336E+03  0.00000000000E+00 0.  1.
         23    2    1    2    0    0 -0.45830850506E+03 -0.51502065730E+02 -0.97965760848E+02  0.48004775329E+03  0.90274063612E+02 0.  0.
        254    2    1    2    0    0  0.45830850506E+03  0.51502065730E+02  0.24668626727E+04  0.26684763653E+04  0.90700359286E+03 0.  0.
         24    2    4    4    0    0  0.14228302539E+02  0.38012044944E+03  0.62060356464E+03  0.73238481477E+03  0.80899516619E+02 0.  0.
         13    1    3    3    0    0 -0.37474965446E+02 -0.15940760478E+02 -0.33685302268E+02  0.52850548424E+02  0.00000000000E+00 0. -1.
        -13    1    3    3    0    0 -0.42083353961E+03 -0.35561305251E+02 -0.64280458580E+02  0.42719720487E+03  0.00000000000E+00 0.  1.
          4    1    5    5  502    0  0.34596327323E+02  0.34851247574E+03  0.54294107215E+03  0.64609818096E+03  0.00000000000E+00 0. -1.
          1    1    4    4  503    0  0.40341700478E+03 -0.32030982689E+03  0.18069076461E+04  0.18788983225E+04  0.00000000000E+00 0. -1.
         -2    1    4    4    0  503  0.40663197737E+02 -0.83085568173E+01  0.39351462029E+02  0.57193228012E+02  0.00000000000E+00 0.  1.
         -3    1    5    5    0  502 -0.20368024785E+02  0.31607973700E+02  0.77662492494E+02  0.86286633817E+02  0.00000000000E+00 0.  1.
<mgrwt>
<rscale>  0 0.20740134E+04</rscale>
<asrwt>0</asrwt>
<pdfrwt beam="1">  1        2 0.42441699E+00 0.20740134E+04</pdfrwt>
<pdfrwt beam="2">  1       -2 0.59971325E-01 0.20740134E+04</pdfrwt>
<totfact> 0.58695357E+00</totfact>
</mgrwt>
</event>
<event>
11    1  0.2045212E-008  0.2255739E+04  0.7818608E-02  0.8495580E-01
         -2   -1    0    0    0  501 -0.00000000000E+00  0.00000000000E+00  0.13218870321E+04  0.13218870321E+04  0.00000000000E+00 0.  1.
          2   -1    0    0  501    0  0.00000000000E+00 -0.00000000000E+00 -0.96232850102E+03  0.96232850102E+03  0.00000000000E+00 0. -1.
         23    2    1    2    0    0  0.66118308611E+03  0.36668910817E+03 -0.42367673030E+03  0.87169471959E+03  0.93411653258E+02 0.  0.
        254    2    1    2    0    0 -0.66118308611E+03 -0.36668910817E+03  0.78323526136E+03  0.14125208135E+04  0.90007421835E+03 0.  0.
         24    2    4    4    0    0  0.98207787644E+02  0.18138487771E+03  0.14381510755E+03  0.26362881248E+03  0.79196730952E+02 0.  0.
         13    1    3    3    0    0  0.60139456821E+03  0.32078491900E+03 -0.40901611113E+03  0.79490412636E+03  0.00000000000E+00 0. -1.
        -13    1    3    3    0    0  0.59788517891E+02  0.45904189169E+02 -0.14660619170E+02  0.76790593235E+02  0.00000000000E+00 0.  1.
          4    1    5    5  502    0  0.10494758643E+03  0.16288130050E+03  0.14759737214E+03  0.24357606247E+03  0.00000000000E+00 0. -1.
          3    1    4    4  503    0 -0.65897597002E+03 -0.45122857571E+03  0.61327280414E+03  0.10069558525E+04  0.00000000000E+00 0. -1.
         -4    1    4    4    0  503 -0.10041490373E+03 -0.96845410165E+02  0.26147349675E+02  0.14193614852E+03  0.00000000000E+00 0.  1.
         -3    1    5    5    0  502 -0.67397987833E+01  0.18503577213E+02 -0.37822645884E+01  0.20052750004E+02  0.00000000000E+00 0.  1.
<mgrwt>
<rscale>  0 0.22557390E+04</rscale>
<asrwt>0</asrwt>
<pdfrwt beam="1">  1        2 0.14805054E+00 0.22557390E+04</pdfrwt>
<pdfrwt beam="2">  1       -2 0.20336724E+00 0.22557390E+04</pdfrwt>
<totfact> 0.30643671E+00</totfact>
</mgrwt>
</event>
<event>
12    1  0.2045212E-008  0.1646982E+04  0.7818608E-02  0.8792194E-01
         -2   -1    0    0    0  501 -0.00000000000E+00  0.00000000000E+00  0.41618867130E+03  0.41618867130E+03  0.00000000000E+00 0.  1.
          2   -1    0    0  501    0  0.00000000000E+00 -0.00000000000E+00 -0.16293990649E+04  0.16293990649E+04  0.00000000000E+00 0. -1.
         23    2    1    2    0    0  0.42861200249E+03  0.29116853544E+03 -0.14272094064E+03  0.54457102383E+03  0.87755161573E+02 0.  0.
        254    2    1    2    0    0 -0.42861200249E+03 -0.29116853544E+03 -0.10704894530E+04  0.15010167124E+04  0.91575986876E+03 0.  0.
        -24    2    4    4    0    0 -0.63393812015E+02 -0.49671512634E+03 -0.91344340653E+03  0.10468311241E+04  0.10359465836E+03 0.  0.
         24    2    4    4    0    0 -0.36521819048E+03  0.20554659090E+03 -0.15704604646E+03  0.45418558834E+03  0.77378034712E+02 0.  0.
         11    1    3    3    0    0  0.35792173986E+03  0.20482370733E+03 -0.12927935614E+03  0.43217343147E+03  0.00000000000E+00 0. -1.
        -11    1    3    3    0    0  0.70690262637E+02  0.86344828111E+02 -0.13441584495E+02  0.11239759235E+03  0.00000000000E+00 0.  1.
          4    1    6    6  502    0 -0.26936011139E+03  0.16646125951E+03 -0.84342535811E+02  0.32768564796E+03  0.00000000000E+00 0. -1.
          3    1    5    5  503    0 -0.67492454133E+02 -0.33877760904E+03 -0.70693564460E+03  0.78681859749E+03  0.00000000000E+00 0. -1.
         -4    1    5    5    0  503  0.40986421172E+01 -0.15793751730E+03 -0.20650776193E+03  0.26001252658E+03  0.00000000000E+00 0.  1.
         -3    1    6    6    0  502 -0.95858079082E+02  0.39085331389E+02 -0.72703510651E+02  0.12649994038E+03  0.00000000000E+00 0.  1.
<mgrwt>
<rscale>  0 0.16469820E+04</rscale>
<asrwt>0</asrwt>
<pdfrwt beam="1">  1        2 0.25067677E+00 0.16469820E+04</pdfrwt>
<pdfrwt beam="2">  1       -2 0.64029028E-01 0.16469820E+04</pdfrwt>
<totfact> 0.23131645E+01</totfact>
</mgrwt>
</event>
<event>
12    1  0.2045212E-008  0.1826397E+04  0.7818608E-02  0.8692387E-01
          2   -1    0    0  501    0  0.00000000000E+00  0.00000000000E+00  0.23738021643E+04  0.23738021643E+04  0.00000000000E+00 0. -1.
         -2   -1    0    0    0  501 -0.00000000000E+00 -0.00000000000E+00 -0.35130619801E+03  0.35130619801E+03  0.00000000000E+00 0.  1.
         23    2    1    2    0    0  0.32044625638E+03 -0.49115199659E+03  0.22578165018E+03  0.63468918087E+03  0.89089369611E+02 0.  0.
        254    2    1    2    0    0 -0.32044625638E+03  0.49115199659E+03  0.17967143161E+04  0.20904191814E+04  0.89317071908E+03 0.  0.
        -24    2    4    4    0    0  0.29194877933E+03  0.16547905319E+03  0.83066671329E+03  0.89826883547E+03  0.65286334011E+02 0.  0.
         24    2    4    4    0    0 -0.61239503571E+03  0.32567294340E+03  0.96604760276E+03  0.11921503459E+04  0.82969456101E+02 0.  0.
         13    1    3    3    0    0  0.23715586759E+03 -0.33872142101E+03  0.11695995096E+03  0.42971471549E+03  0.00000000000E+00 0.  1.
        -13    1    3    3    0    0  0.83290388785E+02 -0.15243057558E+03  0.10882169922E+03  0.20497446538E+03  0.00000000000E+00 0. -1.
          4    1    6    6  502    0 -0.14051929175E+03  0.92219960135E+02  0.18190738534E+03  0.24767012182E+03  0.00000000000E+00 0. -1.
          1    1    5    5  503    0  0.14369663764E+03  0.11609238975E+03  0.41769787783E+03  0.45672495418E+03  0.00000000000E+00 0. -1.
         -2    1    5    5    0  503  0.14825214169E+03  0.49386663436E+02  0.41296883546E+03  0.44154388129E+03  0.00000000000E+00 0.  1.
         -3    1    6    6    0  502 -0.47187574396E+03  0.23345298327E+03  0.78414021743E+03  0.94448022410E+03  0.00000000000E+00 0.  1.
<mgrwt>
<rscale>  0 0.18263969E+04</rscale>
<asrwt>0</asrwt>
<pdfrwt beam="1">  1        2 0.36520032E+00 0.18263969E+04</pdfrwt>
<pdfrwt beam="2">  1       -2 0.54047109E-01 0.18263969E+04</pdfrwt>
<totfact> 0.12507149E+01</totfact>
</mgrwt>
</event>
<event>
11    1  0.2045212E-008  0.1422965E+04  0.7818608E-02  0.8937361E-01
          2   -1    0    0  501    0  0.00000000000E+00  0.00000000000E+00  0.27735092706E+03  0.27735092706E+03  0.00000000000E+00 0. -1.
         -2   -1    0    0    0  501 -0.00000000000E+00 -0.00000000000E+00 -0.18251505604E+04  0.18251505604E+04  0.00000000000E+00 0.  1.
         23    2    1    2    0    0 -0.14730832829E+03  0.66449053837E+02 -0.11370749258E+04  0.11521438334E+04  0.91546739505E+02 0.  0.
        254    2    1    2    0    0  0.14730832829E+03 -0.66449053837E+02 -0.41072470748E+03  0.95035765405E+03  0.84164699544E+03 0.  0.
         24    2    4    4    0    0 -0.31457685599E+03  0.11679683804E+03 -0.19297463915E+03  0.39618519948E+03  0.84400244232E+02 0.  0.
         13    1    3    3    0    0 -0.13259910155E+03  0.85436541545E+02 -0.88686978317E+03  0.90078850829E+03  0.00000000000E+00 0.  1.
        -13    1    3    3    0    0 -0.14709226741E+02 -0.18987487708E+02 -0.25020514267E+03  0.25135532511E+03  0.00000000000E+00 0. -1.
          4    1    5    5  502    0 -0.11676242921E+02  0.22063272025E+02 -0.31218293683E+02  0.39971295722E+02  0.00000000000E+00 0. -1.
          3    1    4    4  503    0  0.12210308216E+03 -0.35320629239E+02 -0.11037925135E+03  0.16834574141E+03  0.00000000000E+00 0. -1.
         -4    1    4    4    0  503  0.33978210212E+03 -0.14792526264E+03 -0.10737081698E+03  0.38582671317E+03  0.00000000000E+00 0.  1.
         -3    1    5    5    0  502 -0.30290061307E+03  0.94733566019E+02 -0.16175634546E+03  0.35621390375E+03  0.00000000000E+00 0.  1.
<mgrwt>
<rscale>  0 0.14229648E+04</rscale>
<asrwt>0</asrwt>
<pdfrwt beam="1">  1        2 0.42669375E-01 0.14229648E+04</pdfrwt>
<pdfrwt beam="2">  1       -2 0.28079239E+00 0.14229648E+04</pdfrwt>
<totfact> 0.48647216E+00</totfact>
</mgrwt>
</event>
<event>
12    1  0.2045212E-008  0.1291331E+04  0.7818608E-02  0.9036468E-01
         -2   -1    0    0    0  501 -0.00000000000E+00  0.00000000000E+00  0.35495604625E+03  0.35495604625E+03  0.00000000000E+00 0.  1.
          2   -1    0    0  501    0  0.00000000000E+00 -0.00000000000E+00 -0.11744670569E+04  0.11744670569E+04  0.00000000000E+00 0. -1.
         23    2    1    2    0    0  0.93209016079E+02  0.27061973277E+03 -0.27417750560E+03  0.40672965755E+03  0.91283894058E+02 0.  0.
        254    2    1    2    0    0 -0.93209016079E+02 -0.27061973277E+03 -0.54533350503E+03  0.11226934456E+04  0.93868470775E+03 0.  0.
        -24    2    4    4    0    0 -0.10510310212E+03 -0.12167227696E+03 -0.79645716592E+03  0.81847600517E+03  0.98529938753E+02 0.  0.
         24    2    4    4    0    0  0.11894086046E+02 -0.14894745581E+03  0.25112366089E+03  0.30421744040E+03  0.84606997982E+02 0.  0.
         11    1    3    3    0    0  0.33449444307E+01  0.82533974285E+02 -0.35686595846E+02  0.89980990702E+02  0.00000000000E+00 0.  1.
        -11    1    3    3    0    0  0.89864071648E+02  0.18808575848E+03 -0.23849090975E+03  0.31674866685E+03  0.00000000000E+00 0. -1.
          2    1    6    6  502    0  0.24804384347E+02 -0.15293969181E+03  0.24374494278E+03  0.28882071245E+03  0.00000000000E+00 0. -1.
          3    1    5    5  503    0 -0.63524570825E+02 -0.44044392221E+02 -0.57467249614E+03  0.57984804682E+03  0.00000000000E+00 0. -1.
         -4    1    5    5    0  503 -0.41578531300E+02 -0.77627884735E+02 -0.22178466978E+03  0.23862795835E+03  0.00000000000E+00 0.  1.
         -1    1    6    6    0  502 -0.12910298301E+02  0.39922359933E+01  0.73787181150E+01  0.15396727947E+02  0.00000000000E+00 0.  1.
<mgrwt>
<rscale>  0 0.12913314E+04</rscale>
<asrwt>0</asrwt>
<pdfrwt beam="1">  1        2 0.18068724E+00 0.12913314E+04</pdfrwt>
<pdfrwt beam="2">  1       -2 0.54608622E-01 0.12913314E+04</pdfrwt>
<totfact> 0.60718317E+01</totfact>
</mgrwt>
</event>
<event>
12    1  0.2045212E-008  0.1531703E+04  0.7818608E-02  0.8863640E-01
         -2   -1    0    0    0  501 -0.00000000000E+00  0.00000000000E+00  0.40441284423E+03  0.40441284423E+03  0.00000000000E+00 0.  1.
          2   -1    0    0  501    0  0.00000000000E+00 -0.00000000000E+00 -0.14503211651E+04  0.14503211651E+04  0.00000000000E+00 0. -1.
         23    2    1    2    0    0  0.18564595654E+03 -0.45548832316E+03 -0.36993574261E+03  0.62417513569E+03  0.10396207304E+03 0.  0.
        254    2    1    2    0    0 -0.18564595654E+03  0.45548832316E+03 -0.67597257826E+03  0.12305588736E+04  0.90299622437E+03 0.  0.
        -24    2    4    4    0    0 -0.28661737777E+03  0.42611884672E+02 -0.73557120444E+03  0.79354945254E+03  0.68486807988E+02 0.  0.
         24    2    4    4    0    0  0.10097142123E+03  0.41287643849E+03  0.59598626174E+02  0.43700942111E+03  0.82237804736E+02 0.  0.
         11    1    3    3    0    0  0.86127698678E+02 -0.29170885146E+03 -0.27613186366E+03  0.41080511271E+03  0.00000000000E+00 0. -1.
        -11    1    3    3    0    0  0.99518257861E+02 -0.16377947170E+03 -0.93803878947E+02  0.21337002297E+03  0.00000000000E+00 0.  1.
          2    1    6    6  502    0  0.94696724338E+02  0.41509049621E+03  0.55935818673E+02  0.42941402569E+03  0.00000000000E+00 0. -1.
          3    1    5    5  503    0 -0.94851796621E+02 -0.16823875558E+02 -0.21446385743E+03  0.23510561936E+03  0.00000000000E+00 0. -1.
         -4    1    5    5    0  503 -0.19176558115E+03  0.59435760230E+02 -0.52110734700E+03  0.55844383317E+03  0.00000000000E+00 0.  1.
         -1    1    6    6    0  502  0.62746968952E+01 -0.22140577254E+01  0.36628075013E+01  0.75953954163E+01  0.00000000000E+00 0.  1.
<mgrwt>
<rscale>  0 0.15317030E+04</rscale>
<asrwt>0</asrwt>
<pdfrwt beam="1">  1        2 0.22312633E+00 0.15317030E+04</pdfrwt>
<pdfrwt beam="2">  1       -2 0.62217361E-01 0.15317030E+04</pdfrwt>
<totfact> 0.31299968E+01</totfact>
</mgrwt>
</event>
<event>
12    1  0.2045212E-008  0.1233434E+04  0.7818608E-02  0.9084085E-01
          1   -1    0    0  501    0  0.00000000000E+00  0.00000000000E+00  0.70475539908E+03  0.70475539908E+03  0.00000000000E+00 0. -1.
         -1   -1    0    0    0  501 -0.00000000000E+00 -0.00000000000E+00 -0.53967600854E+03  0.53967600854E+03  0.00000000000E+00 0.  1.
         23    2    1    2    0    0 -0.21927757799E+03 -0.13414792860E+03 -0.59044707935E+02  0.28031700612E+03  0.94936944466E+02 0.  0.
        254    2    1    2    0    0  0.21927757799E+03  0.13414792860E+03  0.22412409847E+03  0.96411440150E+03  0.90177970963E+03 0.  0.
        -24    2    4    4    0    0 -0.26191195277E+03  0.29910138177E+03  0.19702707243E+03  0.44831842563E+03  0.64111121563E+02 0.  0.
         24    2    4    4    0    0  0.48118953076E+03 -0.16495345316E+03  0.27097026041E+02  0.51579597587E+03  0.80982922106E+02 0.  0.
         13    1    3    3    0    0 -0.22369766371E+03 -0.11008362690E+03 -0.50345192844E+02  0.25434953922E+03  0.00000000000E+00 0.  1.
        -13    1    3    3    0    0  0.44200857154E+01 -0.24064301701E+02 -0.86995150905E+01  0.25967466894E+02  0.00000000000E+00 0. -1.
          2    1    6    6  502    0  0.20765739744E+03 -0.10513828510E+03 -0.12094022427E+02  0.23307063110E+03  0.00000000000E+00 0. -1.
          1    1    5    5  503    0 -0.65485506057E+02  0.47500446480E+02  0.20065646845E+02  0.83350309553E+02  0.00000000000E+00 0. -1.
         -2    1    5    5    0  503 -0.19642644671E+03  0.25160093529E+03  0.17696142559E+03  0.36496811608E+03  0.00000000000E+00 0.  1.
         -1    1    6    6    0  502  0.27353213332E+03 -0.59815168068E+02  0.39191048468E+02  0.28272534476E+03  0.00000000000E+00 0.  1.
<mgrwt>
<rscale>  0 0.12334336E+04</rscale>
<asrwt>0</asrwt>
<pdfrwt beam="1">  1        1 0.10842391E+00 0.12334336E+04</pdfrwt>
<pdfrwt beam="2">  1       -1 0.83027078E-01 0.12334336E+04</pdfrwt>
<totfact> 0.38368968E+01</totfact>
</mgrwt>
</event>
<event>
11    1  0.2045212E-008  0.1730433E+04  0.7818608E-02  0.8744195E-01
         -1   -1    0    0    0  501 -0.00000000000E+00  0.00000000000E+00  0.67228075634E+03  0.67228075634E+03  0.00000000000E+00 0.  1.
          1   -1    0    0  501    0  0.00000000000E+00 -0.00000000000E+00 -0.11135225630E+04  0.11135225630E+04  0.00000000000E+00 0. -1.
         23    2    1    2    0    0  0.59674311539E+03 -0.10395457359E+03 -0.74681499712E+01  0.61237620887E+03  0.89665761484E+02 0.  0.
        254    2    1    2    0    0 -0.59674311539E+03  0.10395457359E+03 -0.43377365665E+03  0.11734271104E+04  0.90656643394E+03 0.  0.
         24    2    4    4    0    0 -0.22870992940E+03  0.41573154435E+03 -0.44651902806E+03  0.65657956399E+03  0.81095823899E+02 0.  0.
         11    1    3    3    0    0  0.50733293347E+03 -0.11543230415E+03 -0.23445975070E+02  0.52082726117E+03  0.00000000000E+00 0. -1.
        -11    1    3    3    0    0  0.89410181920E+02  0.11477730564E+02  0.15977825099E+02  0.91548947699E+02  0.00000000000E+00 0.  1.
          2    1    5    5  502    0 -0.20706412276E+03  0.37506898372E+03 -0.36448086863E+03  0.56249319736E+03  0.00000000000E+00 0. -1.
          1    1    4    4  503    0 -0.84069600186E+02 -0.18532850237E+03 -0.18977742879E+02  0.20438812635E+03  0.00000000000E+00 0. -1.
         -2    1    4    4    0  503 -0.28396358581E+03 -0.12644846840E+03  0.31723114292E+02  0.31245942009E+03  0.00000000000E+00 0.  1.
         -1    1    5    5    0  502 -0.21645806641E+02  0.40662560634E+02 -0.82038159432E+02  0.94086366629E+02  0.00000000000E+00 0.  1.
<mgrwt>
<rscale>  0 0.17304332E+04</rscale>
<asrwt>0</asrwt>
<pdfrwt beam="1">  1        1 0.17131116E+00 0.17304332E+04</pdfrwt>
<pdfrwt beam="2">  1       -1 0.10342781E+00 0.17304332E+04</pdfrwt>
<totfact> 0.10367636E+01</totfact>
</mgrwt>
</event>
<event>
11    1  0.2045212E-008  0.1636023E+04  0.7818608E-02  0.8798718E-01
          1   -1    0    0  501    0  0.00000000000E+00  0.00000000000E+00  0.74638299437E+03  0.74638299437E+03  0.00000000000E+00 0. -1.
         -1   -1    0    0    0  501 -0.00000000000E+00 -0.00000000000E+00 -0.89651437011E+03  0.89651437011E+03  0.00000000000E+00 0.  1.
         23    2    1    2    0    0  0.34155092538E+03  0.16939202669E+03 -0.45463723778E+03  0.60064447305E+03  0.93424149398E+02 0.  0.
        254    2    1    2    0    0 -0.34155092538E+03 -0.16939202669E+03  0.30450586204E+03  0.10422528914E+04  0.92098674059E+03 0.  0.
         24    2    4    4    0    0 -0.30926939939E+03  0.20407241100E+03  0.42752365773E+03  0.57125327695E+03  0.79124700182E+02 0.  0.
         11    1    3    3    0    0  0.25559750006E+03  0.11554224056E+03 -0.38990881816E+03  0.48032174411E+03  0.00000000000E+00 0.  1.
        -11    1    3    3    0    0  0.85953425326E+02  0.53849786137E+02 -0.64728419620E+02  0.12032272894E+03  0.00000000000E+00 0. -1.
          2    1    5    5  502    0  0.42749996506E+01  0.77668788189E+01  0.81940793296E+01  0.12072405090E+02  0.00000000000E+00 0. -1.
          1    1    4    4  503    0  0.20987745908E+02 -0.10097881873E+03 -0.16055751160E+03  0.19082956228E+03  0.00000000000E+00 0. -1.
         -2    1    4    4    0  503 -0.53269271902E+02 -0.27248561897E+03  0.37539715907E+02  0.28017005219E+03  0.00000000000E+00 0.  1.
         -1    1    5    5    0  502 -0.31354439904E+03  0.19630553218E+03  0.41932957840E+03  0.55918087186E+03  0.00000000000E+00 0.  1.
<mgrwt>
<rscale>  0 0.16360233E+04</rscale>
<asrwt>0</asrwt>
<pdfrwt beam="1">  1        1 0.11482815E+00 0.16360233E+04</pdfrwt>
<pdfrwt beam="2">  1       -1 0.13792529E+00 0.16360233E+04</pdfrwt>
<totfact> 0.10291153E+01</totfact>
</mgrwt>
</event>
<event>
11    1  0.2045212E-008  0.1441556E+04  0.7818608E-02  0.8924276E-01
          1   -1    0    0  501    0  0.00000000000E+00  0.00000000000E+00  0.11893894210E+04  0.11893894210E+04  0.00000000000E+00 0. -1.
         -1   -1    0    0    0  501 -0.00000000000E+00 -0.00000000000E+00 -0.43679629392E+03  0.43679629392E+03  0.00000000000E+00 0.  1.
         23    2    1    2    0    0  0.24776041871E+03  0.42738724213E+01 -0.17476001634E+03  0.31661245270E+03  0.91098248207E+02 0.  0.
        254    2    1    2    0    0 -0.24776041871E+03 -0.42738724213E+01  0.92735314344E+03  0.13095732622E+04  0.89083937129E+03 0.  0.
         24    2    4    4    0    0 -0.87583656736E+02 -0.12227472268E+03  0.10369147220E+04  0.10507757701E+04  0.79470582334E+02 0.  0.
         11    1    3    3    0    0  0.66923100186E+02 -0.39546385861E+02 -0.57267426063E+02  0.96551416670E+02  0.00000000000E+00 0.  1.
        -11    1    3    3    0    0  0.18083731853E+03  0.43820258282E+02 -0.11749259028E+03  0.22006103603E+03  0.00000000000E+00 0. -1.
          4    1    5    5  502    0 -0.25007731222E+02 -0.40734343195E+02  0.13881913988E+03  0.14681766560E+03  0.00000000000E+00 0. -1.
          3    1    4    4  503    0 -0.68912423603E+01  0.73341931292E+02 -0.22938229732E+02  0.77153680989E+02  0.00000000000E+00 0. -1.
         -4    1    4    4    0  503 -0.15328551962E+03  0.44658918964E+02 -0.86623348870E+02  0.18164381117E+03  0.00000000000E+00 0.  1.
         -3    1    5    5    0  502 -0.62575925515E+02 -0.81540379483E+02  0.89809558216E+03  0.90395810447E+03  0.00000000000E+00 0.  1.
<mgrwt>
<rscale>  0 0.14415560E+04</rscale>
<asrwt>0</asrwt>
<pdfrwt beam="1">  1        1 0.18298299E+00 0.14415560E+04</pdfrwt>
<pdfrwt beam="2">  1       -1 0.67199430E-01 0.14415560E+04</pdfrwt>
<totfact> 0.23716798E+01</totfact>
</mgrwt>
</event>
<event>
12    1  0.2045212E-008  0.1708272E+04  0.7818608E-02  0.8756661E-01
          2   -1    0    0  501    0  0.00000000000E+00  0.00000000000E+00  0.27112385046E+04  0.27112385046E+04  0.00000000000E+00 0.  1.
         -2   -1    0    0    0  501 -0.00000000000E+00 -0.00000000000E+00 -0.26908298341E+03  0.26908298341E+03  0.00000000000E+00 0. -1.
         23    2    1    2    0    0 -0.57187710613E+03 -0.70629345601E+02  0.70396496691E+03  0.91464161374E+03  0.94713663102E+02 0.  0.
        254    2    1    2    0    0  0.57187710613E+03  0.70629345601E+02  0.17381905543E+04  0.20656798743E+04  0.95587395141E+03 0.  0.
        -24    2    4    4    0    0  0.32006247143E+03 -0.36176530206E+03  0.13257724223E+04  0.14120288914E+04  0.53281845377E+02 0.  0.
         24    2    4    4    0    0  0.25181463470E+03  0.43239464766E+03  0.41241813202E+03  0.65365098289E+03  0.82432701302E+02 0.  0.
         11    1    3    3    0    0 -0.38115263294E+03 -0.40312248569E+02  0.53445597912E+03  0.65768199048E+03  0.00000000000E+00 0. -1.
        -11    1    3    3    0    0 -0.19072447320E+03 -0.30317097032E+02  0.16950898778E+03  0.25695962326E+03  0.00000000000E+00 0.  1.
          4    1    6    6  502    0  0.94277846225E+02  0.24372537059E+03  0.21131616306E+03  0.33607274411E+03  0.00000000000E+00 0. -1.
          1    1    5    5  503    0  0.16695096230E+03 -0.15408039469E+03  0.58184688418E+03  0.62462723962E+03  0.00000000000E+00 0. -1.
         -2    1    5    5    0  503  0.15311150913E+03 -0.20768490737E+03  0.74392553810E+03  0.78740165178E+03  0.00000000000E+00 0.  1.
         -3    1    6    6    0  502  0.15753678848E+03  0.18866927707E+03  0.20110196895E+03  0.31757823879E+03  0.00000000000E+00 0.  1.
<mgrwt>
<rscale>  0 0.17082718E+04</rscale>
<asrwt>0</asrwt>
<pdfrwt beam="1">  1        2 0.41711360E+00 0.17082718E+04</pdfrwt>
<pdfrwt beam="2">  1       -2 0.41397384E-01 0.17082718E+04</pdfrwt>
<totfact> 0.13783126E+01</totfact>
</mgrwt>
</event>
<event>
12    1  0.2045212E-008  0.1348254E+04  0.7818608E-02  0.8992151E-01
          2   -1    0    0  501    0  0.00000000000E+00  0.00000000000E+00  0.95915303913E+03  0.95915303913E+03  0.00000000000E+00 0.  1.
         -2   -1    0    0    0  501 -0.00000000000E+00 -0.00000000000E+00 -0.47380067160E+03  0.47380067160E+03  0.00000000000E+00 0. -1.
         23    2    1    2    0    0 -0.30222969519E+03 -0.49398242914E+02  0.36843676031E+03  0.49066769257E+03  0.10595358948E+03 0.  0.
        254    2    1    2    0    0  0.30222969519E+03  0.49398242914E+02  0.11691560722E+03  0.94228601816E+03  0.88343121167E+03 0.  0.
        -24    2    4    4    0    0  0.34792362238E+03 -0.31326227574E+03 -0.12867783685E+03  0.49442005379E+03  0.93322577546E+02 0.  0.
         24    2    4    4    0    0 -0.45693927188E+02  0.36266051865E+03  0.24559344407E+03  0.44786596437E+03  0.81591638665E+02 0.  0.
         13    1    3    3    0    0 -0.24816105834E+02  0.26441813703E+02  0.36060275374E+02  0.51140513106E+02  0.00000000000E+00 0. -1.
        -13    1    3    3    0    0 -0.27741358935E+03 -0.75840056618E+02  0.33237648494E+03  0.43952717946E+03  0.00000000000E+00 0.  1.
          2    1    6    6  502    0 -0.31865964425E+02  0.35873467553E+03  0.23590286795E+03  0.43053010374E+03  0.00000000000E+00 0. -1.
          3    1    5    5  503    0  0.36964373996E+01 -0.30854167358E+02 -0.16821411939E+02  0.35335579695E+02  0.00000000000E+00 0. -1.
         -4    1    5    5    0  503  0.34422718498E+03 -0.28240810838E+03 -0.11185642492E+03  0.45908447409E+03  0.00000000000E+00 0.  1.
         -1    1    6    6    0  502 -0.13827962763E+02  0.39258431228E+01  0.96905761208E+01  0.17335860635E+02  0.00000000000E+00 0.  1.
<mgrwt>
<rscale>  0 0.13482542E+04</rscale>
<asrwt>0</asrwt>
<pdfrwt beam="1">  1        2 0.14756201E+00 0.13482542E+04</pdfrwt>
<pdfrwt beam="2">  1       -2 0.72892411E-01 0.13482542E+04</pdfrwt>
<totfact> 0.44500190E+01</totfact>
</mgrwt>
</event>
<event>
11    1  0.2045212E-008  0.1170407E+04  0.7818608E-02  0.9139161E-01
          1   -1    0    0  501    0  0.00000000000E+00  0.00000000000E+00  0.73033470776E+03  0.73033470776E+03  0.00000000000E+00 0. -1.
         -1   -1    0    0    0  501 -0.00000000000E+00 -0.00000000000E+00 -0.46891261655E+03  0.46891261655E+03  0.00000000000E+00 0.  1.
         23    2    1    2    0    0  0.19276643889E+03 -0.13362347999E+03 -0.10757897944E+02  0.25129801242E+03  0.89559054873E+02 0.  0.
        254    2    1    2    0    0 -0.19276643889E+03  0.13362347999E+03  0.27217998915E+03  0.94794931189E+03  0.87721822658E+03 0.  0.
         24    2    4    4    0    0 -0.21698009270E+03 -0.29365524999E+03  0.30669873318E+03  0.48334438377E+03  0.79018440329E+02 0.  0.
         11    1    3    3    0    0  0.13565768112E+03 -0.99004659487E+02  0.33406112388E+02  0.17123345874E+03  0.00000000000E+00 0. -1.
        -11    1    3    3    0    0  0.57108757770E+02 -0.34618820507E+02 -0.44164010333E+02  0.80064553680E+02  0.00000000000E+00 0.  1.
          2    1    5    5  502    0 -0.13038831659E+02 -0.62688123172E+02  0.69496289763E+02  0.94496276163E+02  0.00000000000E+00 0. -1.
          1    1    4    4  503    0 -0.76866518678E+02  0.18484264639E+03 -0.45844491726E+01  0.20024056230E+03  0.00000000000E+00 0. -1.
         -2    1    4    4    0  503  0.10108017249E+03  0.24243608360E+03 -0.29934294856E+02  0.26436436581E+03  0.00000000000E+00 0.  1.
         -1    1    5    5    0  502 -0.20394126104E+03 -0.23096712682E+03  0.23720244342E+03  0.38884810761E+03  0.00000000000E+00 0.  1.
<mgrwt>
<rscale>  0 0.11704070E+04</rscale>
<asrwt>0</asrwt>
<pdfrwt beam="1">  1        1 0.11235919E+00 0.11704070E+04</pdfrwt>
<pdfrwt beam="2">  1       -1 0.72140402E-01 0.11704070E+04</pdfrwt>
<totfact> 0.49101811E+01</totfact>
</mgrwt>
</event>
<event>
11    1  0.2045212E-008  0.1144277E+04  0.7818608E-02  0.9163079E-01
          1   -1    0    0  501    0  0.00000000000E+00  0.00000000000E+00  0.15248751924E+04  0.15248751924E+04  0.00000000000E+00 0.  1.
         -1   -1    0    0    0  501 -0.00000000000E+00 -0.00000000000E+00 -0.21466845671E+03  0.21466845671E+03  0.00000000000E+00 0. -1.
         23    2    1    2    0    0 -0.19661340131E+03  0.33826118409E+02  0.25821544663E+03  0.33899335232E+03  0.91870779778E+02 0.  0.
        254    2    1    2    0    0  0.19661340131E+03 -0.33826118409E+02  0.10519912891E+04  0.14005502968E+04  0.90280364739E+03 0.  0.
         24    2    4    4    0    0 -0.34688249681E+03  0.56748251598E+02  0.44612377263E+03  0.57381869168E+03  0.81814667152E+02 0.  0.
         13    1    3    3    0    0  0.57658143628E+01  0.11681680084E+02  0.46964711836E+01  0.13847855662E+02  0.00000000000E+00 0. -1.
        -13    1    3    3    0    0 -0.20237921567E+03  0.22144438325E+02  0.25351897544E+03  0.32514549666E+03  0.00000000000E+00 0.  1.
          2    1    5    5  502    0 -0.21311778337E+03  0.36330457612E+01  0.30623994033E+03  0.37311565186E+03  0.00000000000E+00 0. -1.
          1    1    4    4  503    0  0.47151175144E+03 -0.11676972006E+03  0.51678072550E+03  0.70923960515E+03  0.00000000000E+00 0. -1.
         -2    1    4    4    0  503  0.71984146685E+02  0.26195350049E+02  0.89086790939E+02  0.11749199997E+03  0.00000000000E+00 0.  1.
         -1    1    5    5    0  502 -0.13376471344E+03  0.53115205837E+02  0.13988383230E+03  0.20070303982E+03  0.00000000000E+00 0.  1.
<mgrwt>
<rscale>  0 0.11442772E+04</rscale>
<asrwt>0</asrwt>
<pdfrwt beam="1">  1        1 0.23459618E+00 0.11442772E+04</pdfrwt>
<pdfrwt beam="2">  1       -1 0.33025917E-01 0.11442772E+04</pdfrwt>
<totfact> 0.53764242E+01</totfact>
</mgrwt>
</event>
<event>
12    1  0.2045212E-008  0.1638806E+04  0.7818608E-02  0.8797056E-01
         -2   -1    0    0    0  501 -0.00000000000E+00  0.00000000000E+00  0.58366436781E+03  0.58366436781E+03  0.00000000000E+00 0.  1.
          2   -1    0    0  501    0  0.00000000000E+00 -0.00000000000E+00 -0.11503553634E+04  0.11503553634E+04  0.00000000000E+00 0. -1.
         23    2    1    2    0    0  0.52102234720E+03 -0.41441052926E+02 -0.43912072159E+03  0.68691610218E+03  0.76453097717E+02 0.  0.
        254    2    1    2    0    0 -0.52102234720E+03  0.41441052926E+02 -0.12757027395E+03  0.10471036290E+04  0.89831519408E+03 0.  0.
        -24    2    4    4    0    0 -0.77953021944E+02 -0.38721257515E+03 -0.11562634088E+03  0.42524828146E+03  0.10703456543E+03 0.  0.
         24    2    4    4    0    0 -0.44306932525E+03  0.42865362808E+03 -0.11943933070E+02  0.62185534753E+03  0.80666324295E+02 0.  0.
         13    1    3    3    0    0 -0.14593658310E+00  0.49941901081E+01 -0.42569376326E+01  0.65638974954E+01  0.00000000000E+00 0.  1.
        -13    1    3    3    0    0  0.52116828378E+03 -0.46435243034E+02 -0.43486378396E+03  0.68035220468E+03  0.00000000000E+00 0. -1.
          2    1    6    6  502    0 -0.83505051742E+02  0.12906574147E+03 -0.31905807717E+01  0.15375707819E+03  0.00000000000E+00 0. -1.
          1    1    5    5  503    0 -0.68725669740E+02 -0.10513347044E+03 -0.19565402052E+02  0.12711832773E+03  0.00000000000E+00 0. -1.
         -2    1    5    5    0  503 -0.92273522041E+01 -0.28207910471E+03 -0.96060938832E+02  0.29812995373E+03  0.00000000000E+00 0.  1.
         -1    1    6    6    0  502 -0.35956427351E+03  0.29958788661E+03 -0.87533522979E+01  0.46809826935E+03  0.00000000000E+00 0.  1.
<mgrwt>
<rscale>  0 0.16388062E+04</rscale>
<asrwt>0</asrwt>
<pdfrwt beam="1">  1        2 0.17697775E+00 0.16388062E+04</pdfrwt>
<pdfrwt beam="2">  1       -2 0.89794517E-01 0.16388062E+04</pdfrwt>
<totfact> 0.20615418E+01</totfact>
</mgrwt>
</event>
<event>
12    1  0.2045212E-008  0.1320697E+04  0.7818608E-02  0.9013312E-01
         -1   -1    0    0    0  501 -0.00000000000E+00  0.00000000000E+00  0.76057187080E+03  0.76057187080E+03  0.00000000000E+00 0.  1.
          1   -1    0    0  501    0  0.00000000000E+00 -0.00000000000E+00 -0.57333177623E+03  0.57333177623E+03  0.00000000000E+00 0. -1.
         23    2    1    2    0    0 -0.25305629236E+03  0.18988551167E+03  0.18149489377E+03  0.37998107495E+03  0.10654213349E+03 0.  0.
        254    2    1    2    0    0  0.25305629236E+03 -0.18988551167E+03  0.57452007974E+01  0.95392257209E+03  0.89991181322E+03 0.  0.
        -24    2    4    4    0    0  0.46630330418E+03  0.94189807904E+02  0.21747842842E+03  0.53303795069E+03  0.10257728134E+03 0.  0.
         24    2    4    4    0    0 -0.21324701182E+03 -0.28407531958E+03 -0.21173322762E+03  0.42088462140E+03  0.78357064828E+02 0.  0.
         11    1    3    3    0    0 -0.12584891109E+02  0.21214045536E+02 -0.12816622446E+02  0.27797140557E+02  0.00000000000E+00 0. -1.
        -11    1    3    3    0    0 -0.24047140125E+03  0.16867146614E+03  0.19431151622E+03  0.35218393439E+03  0.00000000000E+00 0.  1.
          4    1    6    6  502    0 -0.55171077944E+02 -0.29169800772E+02 -0.23033709132E+02  0.66522754565E+02  0.00000000000E+00 0. -1.
          3    1    5    5  503    0  0.13806270420E+03 -0.52182272003E+01  0.27154353291E+02  0.14080447113E+03  0.00000000000E+00 0. -1.
         -4    1    5    5    0  503  0.32824059998E+03  0.99408035104E+02  0.19032407513E+03  0.39223347956E+03  0.00000000000E+00 0.  1.
         -3    1    6    6    0  502 -0.15807593388E+03 -0.25490551881E+03 -0.18869951849E+03  0.35436186684E+03  0.00000000000E+00 0.  1.
<mgrwt>
<rscale>  0 0.13206968E+04</rscale>
<asrwt>0</asrwt>
<pdfrwt beam="1">  1        1 0.88204888E-01 0.13206968E+04</pdfrwt>
<pdfrwt beam="2">  1       -1 0.11701106E+00 0.13206968E+04</pdfrwt>
<totfact> 0.23623363E+01</totfact>
</mgrwt>
</event>
<event>
12    1  0.2045212E-008  0.1750583E+04  0.7818608E-02  0.8733030E-01
          2   -1    0    0  501    0  0.00000000000E+00  0.00000000000E+00  0.84782350438E+03  0.84782350438E+03  0.00000000000E+00 0. -1.
         -2   -1    0    0    0  501 -0.00000000000E+00 -0.00000000000E+00 -0.90364900186E+03  0.90364900186E+03  0.00000000000E+00 0.  1.
         23    2    1    2    0    0 -0.48026102304E+02 -0.49008215908E+03 -0.42315435485E+03  0.65551758583E+03  0.90314274353E+02 0.  0.
        254    2    1    2    0    0  0.48026102304E+02  0.49008215908E+03  0.36732885737E+03  0.10959549204E+04  0.90757901527E+03 0.  0.
        -24    2    4    4    0    0  0.43311325038E+03  0.43943573241E+03  0.14536894974E+03  0.64144353226E+03  0.98116374529E+02 0.  0.
         24    2    4    4    0    0 -0.38508714808E+03  0.50646426675E+02  0.22195990763E+03  0.45451138815E+03  0.80356886535E+02 0.  0.
         13    1    3    3    0    0  0.24388738912E+02 -0.94719351131E+02 -0.98834847205E+02  0.13904996615E+03  0.00000000000E+00 0. -1.
        -13    1    3    3    0    0 -0.72414841217E+02 -0.39536280795E+03 -0.32431950765E+03  0.51646761968E+03  0.00000000000E+00 0.  1.
          4    1    6    6  502    0 -0.76714230440E+02 -0.18256691270E+02  0.27619956954E+02  0.83553826665E+02  0.00000000000E+00 0. -1.
          3    1    5    5  503    0  0.29351560043E+03  0.35243473561E+03  0.12713793386E+03  0.47594716596E+03  0.00000000000E+00 0. -1.
         -4    1    5    5    0  503  0.13959764996E+03  0.87000996794E+02  0.18231015879E+02  0.16549636629E+03  0.00000000000E+00 0.  1.
         -3    1    6    6    0  502 -0.30837291764E+03  0.68903117945E+02  0.19433995068E+03  0.37095756149E+03  0.00000000000E+00 0.  1.
<mgrwt>
<rscale>  0 0.17505826E+04</rscale>
<asrwt>0</asrwt>
<pdfrwt beam="1">  1        2 0.13043439E+00 0.17505826E+04</pdfrwt>
<pdfrwt beam="2">  1       -2 0.13902292E+00 0.17505826E+04</pdfrwt>
<totfact> 0.11038511E+01</totfact>
</mgrwt>
</event>
<event>
12    1  0.2045212E-008  0.4083971E+04  0.7818608E-02  0.7987818E-01
         -2   -1    0    0    0  501 -0.00000000000E+00  0.00000000000E+00  0.15364258691E+04  0.15364258691E+04  0.00000000000E+00 0.  1.
          2   -1    0    0  501    0  0.00000000000E+00 -0.00000000000E+00 -0.27138989613E+04  0.27138989613E+04  0.00000000000E+00 0. -1.
         23    2    1    2    0    0 -0.61912851999E+03  0.11278727170E+04 -0.20702138186E+04  0.24389959789E+04  0.86597576176E+02 0.  0.
        254    2    1    2    0    0  0.61912851999E+03 -0.11278727170E+04  0.89274072633E+03  0.18113288515E+04  0.91022481492E+03 0.  0.
        -24    2    4    4    0    0  0.33785135175E+03  0.63168392980E+02  0.19606284906E+03  0.40052903717E+03  0.62041011325E+02 0.  0.
         24    2    4    4    0    0  0.28127716824E+03 -0.11910411100E+04  0.69667787727E+03  0.14107998143E+04  0.85441677721E+02 0.  0.
         11    1    3    3    0    0 -0.39249648519E+03  0.70296667080E+03 -0.13727562967E+04  0.15914381802E+04  0.00000000000E+00 0. -1.
        -11    1    3    3    0    0 -0.22663203480E+03  0.42490604623E+03 -0.69745752189E+03  0.84755779871E+03  0.00000000000E+00 0.  1.
          2    1    6    6  502    0  0.22101497158E+03 -0.84184354668E+03  0.53160485079E+03  0.10198783712E+04  0.00000000000E+00 0. -1.
          3    1    5    5  503    0  0.25659189941E+03  0.44643432201E+02  0.11653479214E+03  0.28532927760E+03  0.00000000000E+00 0. -1.
         -4    1    5    5    0  503  0.81259452344E+02  0.18524960779E+02  0.79528056920E+02  0.11519975957E+03  0.00000000000E+00 0.  1.
         -1    1    6    6    0  502  0.60262196657E+02 -0.34919756333E+03  0.16507302648E+03  0.39092144307E+03  0.00000000000E+00 0.  1.
<mgrwt>
<rscale>  0 0.40839709E+04</rscale>
<asrwt>0</asrwt>
<pdfrwt beam="1">  1        2 0.41752292E+00 0.40839709E+04</pdfrwt>
<pdfrwt beam="2">  1       -2 0.23637321E+00 0.40839709E+04</pdfrwt>
<totfact> 0.15923573E-01</totfact>
</mgrwt>
</event>
<event>
11    1  0.2045212E-008  0.1690533E+04  0.7818608E-02  0.8766782E-01
         -2   -1    0    0    0  501 -0.00000000000E+00  0.00000000000E+00  0.35343836614E+03  0.35343836614E+03  0.00000000000E+00 0.  1.
          2   -1    0    0  501    0  0.00000000000E+00 -0.00000000000E+00 -0.20215001799E+04  0.20215001799E+04  0.00000000000E+00 0. -1.
         23    2    1    2    0    0 -0.52752036835E+03  0.28389973964E+03 -0.50603726749E+03  0.78922694148E+03  0.89042955239E+02 0.  0.
        254    2    1    2    0    0  0.52752036835E+03 -0.28389973964E+03 -0.11620245463E+04  0.15857116046E+04  0.89738700991E+03 0.  0.
         24    2    4    4    0    0  0.20610867852E+02 -0.69073138667E+02 -0.97109582403E+03  0.97709329748E+03  0.80550022787E+02 0.  0.
         11    1    3    3    0    0 -0.11342143918E+03  0.75318944077E+02 -0.71569011767E+02  0.15381641540E+03  0.00000000000E+00 0.  1.
        -11    1    3    3    0    0 -0.41409892917E+03  0.20858079557E+03 -0.43446825572E+03  0.63541052608E+03  0.00000000000E+00 0. -1.
          2    1    5    5  502    0  0.31994694396E+02 -0.74980381501E+01 -0.58765533862E+03  0.58857342622E+03  0.00000000000E+00 0. -1.
          1    1    4    4  503    0  0.22841450086E+03 -0.25475948848E+02 -0.19306319437E+02  0.23064028734E+03  0.00000000000E+00 0. -1.
         -2    1    4    4    0  503  0.27849499963E+03 -0.18935065213E+03 -0.17162240284E+03  0.37797801978E+03  0.00000000000E+00 0.  1.
         -1    1    5    5    0  502 -0.11383826544E+02 -0.61575100517E+02 -0.38344048541E+03  0.38851987126E+03  0.00000000000E+00 0.  1.
<mgrwt>
<rscale>  0 0.16905333E+04</rscale>
<asrwt>0</asrwt>
<pdfrwt beam="1">  1        2 0.31100003E+00 0.16905333E+04</pdfrwt>
<pdfrwt beam="2">  1       -2 0.54375133E-01 0.16905333E+04</pdfrwt>
<totfact> 0.19707717E+01</totfact>
</mgrwt>
</event>
<event>
12    1  0.2045212E-008  0.2185407E+04  0.7818608E-02  0.8524527E-01
         -2   -1    0    0    0  501 -0.00000000000E+00  0.00000000000E+00  0.72533229849E+03  0.72533229849E+03  0.00000000000E+00 0.  1.
          2   -1    0    0  501    0  0.00000000000E+00 -0.00000000000E+00 -0.16461438249E+04  0.16461438249E+04  0.00000000000E+00 0. -1.
         23    2    1    2    0    0  0.35176344308E+03 -0.25249153327E+03  0.47000055887E+03  0.64546933530E+03  0.90777988563E+02 0.  0.
        254    2    1    2    0    0 -0.35176344308E+03  0.25249153327E+03 -0.13908120853E+04  0.17260067881E+04  0.92587886988E+03 0.  0.
        -24    2    4    4    0    0 -0.34740113570E+03  0.24733005133E+01 -0.46245995026E+02  0.35612774123E+03  0.63202924873E+02 0.  0.
         24    2    4    4    0    0 -0.43623073789E+01  0.25001823276E+03 -0.13445660903E+04  0.13698790469E+04  0.78628782968E+02 0.  0.
         13    1    3    3    0    0  0.78611189557E+02 -0.88573395877E+02  0.17493567182E+03  0.21125211208E+03  0.00000000000E+00 0. -1.
        -13    1    3    3    0    0  0.27315225353E+03 -0.16391813739E+03  0.29506488705E+03  0.43421722322E+03  0.00000000000E+00 0.  1.
          4    1    6    6  502    0  0.27812523226E+01  0.18041771023E+03 -0.11266141205E+04  0.11409722442E+04  0.00000000000E+00 0. -1.
          1    1    5    5  503    0 -0.25220823618E+03  0.21166811262E+02 -0.12458815882E+02  0.25340136224E+03  0.00000000000E+00 0. -1.
         -2    1    5    5    0  503 -0.95192899528E+02 -0.18693510748E+02 -0.33787179144E+02  0.10272637898E+03  0.00000000000E+00 0.  1.
         -1    1    6    6    0  502 -0.71435597015E+01  0.69600522533E+02 -0.21795196982E+03  0.22890680272E+03  0.00000000000E+00 0.  1.
<mgrwt>
<rscale>  0 0.21854073E+04</rscale>
<asrwt>0</asrwt>
<pdfrwt beam="1">  1        2 0.25325290E+00 0.21854073E+04</pdfrwt>
<pdfrwt beam="2">  1       -2 0.11158958E+00 0.21854073E+04</pdfrwt>
<totfact> 0.61029348E+00</totfact>
</mgrwt>
</event>
<event>
11    1  0.2045212E-008  0.1731551E+04  0.7818608E-02  0.8743572E-01
          2   -1    0    0  501    0  0.00000000000E+00  0.00000000000E+00  0.11935290904E+04  0.11935290904E+04  0.00000000000E+00 0.  1.
         -2   -1    0    0    0  501 -0.00000000000E+00 -0.00000000000E+00 -0.62802562291E+03  0.62802562291E+03  0.00000000000E+00 0. -1.
         23    2    1    2    0    0  0.48555846446E+03 -0.39468273761E+03  0.23143905514E+03  0.67317891639E+03  0.89801622767E+02 0.  0.
        254    2    1    2    0    0 -0.48555846446E+03  0.39468273761E+03  0.33406441239E+03  0.11483757970E+04  0.90312039820E+03 0.  0.
         24    2    4    4    0    0 -0.16388906296E+03  0.19176269725E+03  0.60426638225E+03  0.66044199089E+03  0.86099974393E+02 0.  0.
         13    1    3    3    0    0  0.39027928040E+03 -0.27881483159E+03  0.20129531674E+03  0.52016865685E+03  0.00000000000E+00 0. -1.
        -13    1    3    3    0    0  0.95279184056E+02 -0.11586790602E+03  0.30143738398E+02  0.15301025954E+03  0.00000000000E+00 0.  1.
          4    1    5    5  502    0 -0.15130538681E+03  0.12644362725E+03  0.40675675614E+03  0.45203138123E+03  0.00000000000E+00 0. -1.
          1    1    4    4  503    0 -0.24321520244E+03  0.20044434182E+03 -0.26040710225E+03  0.40883178420E+03  0.00000000000E+00 0. -1.
         -2    1    4    4    0  503 -0.78454199052E+02  0.24756985394E+01 -0.97948676148E+01  0.79102021869E+02  0.00000000000E+00 0.  1.
         -3    1    5    5    0  502 -0.12583676155E+02  0.65319069995E+02  0.19750962611E+03  0.20841060966E+03  0.00000000000E+00 0.  1.
<mgrwt>
<rscale>  0 0.17315506E+04</rscale>
<asrwt>0</asrwt>
<pdfrwt beam="1">  1        2 0.18361986E+00 0.17315506E+04</pdfrwt>
<pdfrwt beam="2">  1       -2 0.96619326E-01 0.17315506E+04</pdfrwt>
<totfact> 0.16252575E+01</totfact>
</mgrwt>
</event>
<event>
12    1  0.2045212E-008  0.1642259E+04  0.7818608E-02  0.8794999E-01
         -1   -1    0    0    0  501 -0.00000000000E+00  0.00000000000E+00  0.11533960552E+04  0.11533960552E+04  0.00000000000E+00 0.  1.
          1   -1    0    0  501    0  0.00000000000E+00 -0.00000000000E+00 -0.58458097101E+03  0.58458097101E+03  0.00000000000E+00 0. -1.
         23    2    1    2    0    0 -0.53452600148E+03 -0.16082786403E+03  0.73645192942E+02  0.57047549936E+03  0.91842434710E+02 0.  0.
        254    2    1    2    0    0  0.53452600148E+03  0.16082786403E+03  0.49516989129E+03  0.11675015269E+04  0.89793259544E+03 0.  0.
        -24    2    4    4    0    0  0.11008582415E+03  0.37908937152E+03 -0.80815287086E+02  0.41527853554E+03  0.10048637307E+03 0.  0.
         24    2    4    4    0    0  0.42444017733E+03 -0.21826150749E+03  0.57598517838E+03  0.75222299136E+03  0.79328136452E+02 0.  0.
         13    1    3    3    0    0 -0.21056657567E+03 -0.97948226699E+02  0.61538767771E+02  0.24024811725E+03  0.00000000000E+00 0.  1.
        -13    1    3    3    0    0 -0.32395942581E+03 -0.62879637332E+02  0.12106425171E+02  0.33022738211E+03  0.00000000000E+00 0. -1.
          2    1    6    6  502    0  0.33890493103E+03 -0.20274897134E+03  0.44445900678E+03  0.59456497236E+03  0.00000000000E+00 0. -1.
          1    1    5    5  503    0  0.92544160782E+02  0.20525353273E+03 -0.60447123265E+01  0.22523315240E+03  0.00000000000E+00 0. -1.
         -2    1    5    5    0  503  0.17541663368E+02  0.17383583879E+03 -0.74770574759E+02  0.19004538314E+03  0.00000000000E+00 0.  1.
         -1    1    6    6    0  502  0.85535246306E+02 -0.15512536147E+02  0.13152617159E+03  0.15765801899E+03  0.00000000000E+00 0.  1.
<mgrwt>
<rscale>  0 0.16422587E+04</rscale>
<asrwt>0</asrwt>
<pdfrwt beam="1">  1        1 0.89935534E-01 0.16422587E+04</pdfrwt>
<pdfrwt beam="2">  1       -1 0.17744555E+00 0.16422587E+04</pdfrwt>
<totfact> 0.73819610E+00</totfact>
</mgrwt>
</event>
<event>
11    1  0.2045212E-008  0.1656330E+04  0.7818608E-02  0.8786671E-01
          1   -1    0    0  501    0  0.00000000000E+00  0.00000000000E+00  0.15263836856E+04  0.15263836856E+04  0.00000000000E+00 0. -1.
         -1   -1    0    0    0  501 -0.00000000000E+00 -0.00000000000E+00 -0.44933456311E+03  0.44933456311E+03  0.00000000000E+00 0.  1.
         23    2    1    2    0    0 -0.28910503039E+02  0.54905328474E+03  0.62455442576E+03  0.83726650482E+03  0.93014206882E+02 0.  0.
        254    2    1    2    0    0  0.28910503039E+02 -0.54905328474E+03  0.45249469669E+03  0.11384517438E+04  0.88827112745E+03 0.  0.
         24    2    4    4    0    0  0.29517530772E+03 -0.14625088946E+03  0.48502052148E+03  0.59172396866E+03  0.79840865963E+02 0.  0.
         13    1    3    3    0    0  0.89956614215E+01  0.27829395567E+03  0.25491713457E+03  0.37750654721E+03  0.00000000000E+00 0.  1.
        -13    1    3    3    0    0 -0.37906164460E+02  0.27075932907E+03  0.36963729119E+03  0.45975995761E+03  0.00000000000E+00 0. -1.
          4    1    5    5  502    0  0.29011059418E+03 -0.13991055618E+03  0.48651866552E+03  0.58347196376E+03  0.00000000000E+00 0. -1.
          1    1    4    4  503    0 -0.29324463616E+03 -0.41730587001E+03 -0.48219948049E+02  0.51231022747E+03  0.00000000000E+00 0. -1.
         -2    1    4    4    0  503  0.26979831481E+02  0.14503474727E+02  0.15694123265E+02  0.34417547718E+02  0.00000000000E+00 0.  1.
         -3    1    5    5    0  502  0.50647135403E+01 -0.63403332806E+01 -0.14981440473E+01  0.82520049043E+01  0.00000000000E+00 0.  1.
<mgrwt>
<rscale>  0 0.16563296E+04</rscale>
<asrwt>0</asrwt>
<pdfrwt beam="1">  1        1 0.23482826E+00 0.16563296E+04</pdfrwt>
<pdfrwt beam="2">  1       -1 0.69128395E-01 0.16563296E+04</pdfrwt>
<totfact> 0.12680992E+01</totfact>
</mgrwt>
</event>
<event>
12    1  0.2045212E-008  0.2463161E+04  0.7818608E-02  0.8416228E-01
          2   -1    0    0  501    0  0.00000000000E+00  0.00000000000E+00  0.19978029789E+04  0.19978029789E+04  0.00000000000E+00 0. -1.
         -2   -1    0    0    0  501 -0.00000000000E+00 -0.00000000000E+00 -0.75922943976E+03  0.75922943976E+03  0.00000000000E+00 0.  1.
         23    2    1    2    0    0 -0.10549583984E+03  0.10102592208E+04  0.90157543970E+03  0.13612229376E+04  0.91304693778E+02 0.  0.
        254    2    1    2    0    0  0.10549583984E+03 -0.10102592208E+04  0.33699809945E+03  0.13958094810E+04  0.89608220768E+03 0.  0.
        -24    2    4    4    0    0  0.41259294268E+03 -0.85578473757E+03  0.73352871775E+02  0.95530484894E+03  0.68016594991E+02 0.  0.
         24    2    4    4    0    0 -0.30709710284E+03 -0.15447448320E+03  0.26364522768E+03  0.44050463210E+03  0.79777993780E+02 0.  0.
         13    1    3    3    0    0 -0.71609552376E+01  0.21577515664E+03  0.14767787421E+03  0.26157016656E+03  0.00000000000E+00 0.  1.
        -13    1    3    3    0    0 -0.98334884605E+02  0.79448406413E+03  0.75389756549E+03  0.10996527711E+04  0.00000000000E+00 0. -1.
          2    1    6    6  502    0 -0.12735370116E+03 -0.10864932174E+03  0.12476465028E+03  0.20878184374E+03  0.00000000000E+00 0. -1.
          1    1    5    5  503    0  0.98486756375E+02 -0.21929692958E+03 -0.10302192366E+02  0.24061778752E+03  0.00000000000E+00 0. -1.
         -2    1    5    5    0  503  0.31410618631E+03 -0.63648780800E+03  0.83655064141E+02  0.71468706142E+03  0.00000000000E+00 0.  1.
         -1    1    6    6    0  502 -0.17974340167E+03 -0.45825161465E+02  0.13888057740E+03  0.23172278836E+03  0.00000000000E+00 0.  1.
<mgrwt>
<rscale>  0 0.24631613E+04</rscale>
<asrwt>0</asrwt>
<pdfrwt beam="1">  1        2 0.30735430E+00 0.24631613E+04</pdfrwt>
<pdfrwt beam="2">  1       -2 0.11680453E+00 0.24631613E+04</pdfrwt>
<totfact> 0.34020405E+00</totfact>
</mgrwt>
</event>
<event>
12    1  0.2045212E-008  0.1572075E+04  0.7818608E-02  0.8837890E-01
          2   -1    0    0  501    0  0.00000000000E+00  0.00000000000E+00  0.25705835390E+04  0.25705835390E+04  0.00000000000E+00 0. -1.
         -2   -1    0    0    0  501 -0.00000000000E+00 -0.00000000000E+00 -0.24035587755E+03  0.24035587755E+03  0.00000000000E+00 0.  1.
         23    2    1    2    0    0 -0.41033936604E+03  0.13555489830E+03  0.32721375316E+03  0.54976518832E+03  0.91757268146E+02 0.  0.
        254    2    1    2    0    0  0.41033936604E+03 -0.13555489830E+03  0.20030139083E+04  0.22611742282E+04  0.95608087930E+03 0.  0.
        -24    2    4    4    0    0  0.43368309125E+03 -0.10229819724E+03  0.27794608139E+03  0.53378347695E+03  0.95523982912E+02 0.  0.
         24    2    4    4    0    0 -0.23343725206E+02 -0.33256701058E+02  0.17250678269E+04  0.17273907512E+04  0.79805153253E+02 0.  0.
         11    1    3    3    0    0 -0.29639591013E+03  0.84364272188E+02  0.27953093588E+03  0.41605938288E+03  0.00000000000E+00 0.  1.
        -11    1    3    3    0    0 -0.11394345591E+03  0.51190626108E+02  0.47682817276E+02  0.13370580544E+03  0.00000000000E+00 0. -1.
          4    1    6    6  502    0  0.16758519130E+02  0.10138140049E+02  0.89859971251E+03  0.89881314697E+03  0.00000000000E+00 0. -1.
          1    1    5    5  503    0  0.14893671222E+03 -0.67257163664E+02  0.14118196995E+03  0.21595837319E+03  0.00000000000E+00 0. -1.
         -2    1    5    5    0  503  0.28474637902E+03 -0.35041033574E+02  0.13676411144E+03  0.31782510376E+03  0.00000000000E+00 0.  1.
         -3    1    6    6    0  502 -0.40102244336E+02 -0.43394841108E+02  0.82646811437E+03  0.82857760427E+03  0.00000000000E+00 0.  1.
<mgrwt>
<rscale>  0 0.15720749E+04</rscale>
<asrwt>0</asrwt>
<pdfrwt beam="1">  1        2 0.39547437E+00 0.15720749E+04</pdfrwt>
<pdfrwt beam="2">  1       -2 0.36977829E-01 0.15720749E+04</pdfrwt>
<totfact> 0.21029230E+01</totfact>
</mgrwt>
</event>
<event>
12    1  0.2045212E-008  0.2810220E+04  0.7818608E-02  0.8300102E-01
         -1   -1    0    0    0  501 -0.00000000000E+00  0.00000000000E+00  0.11123646973E+04  0.11123646973E+04  0.00000000000E+00 0.  1.
          1   -1    0    0  501    0  0.00000000000E+00 -0.00000000000E+00 -0.17748988378E+04  0.17748988378E+04  0.00000000000E+00 0. -1.
         23    2    1    2    0    0 -0.62752029036E+03 -0.48763608662E+03  0.70433020133E+03  0.10657510852E+04  0.90408380778E+02 0.  0.
        254    2    1    2    0    0  0.62752029036E+03  0.48763608662E+03 -0.13668643418E+04  0.18215124499E+04  0.90444392213E+03 0.  0.
        -24    2    4    4    0    0  0.67548914592E+03  0.64524108869E+03 -0.82912898719E+03  0.12532085598E+04  0.10225051712E+03 0.  0.
         24    2    4    4    0    0 -0.47968855560E+02 -0.15760500207E+03 -0.53773535462E+03  0.56830389002E+03  0.81667937570E+02 0.  0.
         13    1    3    3    0    0 -0.14110475672E+03 -0.11825557232E+03  0.11534028904E+03  0.21725173194E+03  0.00000000000E+00 0. -1.
        -13    1    3    3    0    0 -0.48641553364E+03 -0.36938051430E+03  0.58898991229E+03  0.84849935327E+03  0.00000000000E+00 0.  1.
          4    1    6    6  502    0  0.11695549535E+02 -0.97322611627E+02 -0.25802938333E+03  0.27602108484E+03  0.00000000000E+00 0. -1.
          1    1    5    5  503    0  0.63640792237E+03  0.62312846099E+03 -0.76042488495E+03  0.11711319858E+04  0.00000000000E+00 0. -1.
         -2    1    5    5    0  503  0.39081223553E+02  0.22112627701E+02 -0.68704102237E+02  0.82076574018E+02  0.00000000000E+00 0.  1.
         -3    1    6    6    0  502 -0.59664405095E+02 -0.60282390443E+02 -0.27970597129E+03  0.29228280519E+03  0.00000000000E+00 0.  1.
<mgrwt>
<rscale>  0 0.28102205E+04</rscale>
<asrwt>0</asrwt>
<pdfrwt beam="1">  1        1 0.27306136E+00 0.28102205E+04</pdfrwt>
<pdfrwt beam="2">  1       -1 0.17113303E+00 0.28102205E+04</pdfrwt>
<totfact> 0.88477135E-01</totfact>
</mgrwt>
</event>
<event>
12    1  0.2045212E-008  0.1627087E+04  0.7818608E-02  0.8804078E-01
          2   -1    0    0  501    0  0.00000000000E+00  0.00000000000E+00  0.11048366773E+04  0.11048366773E+04  0.00000000000E+00 0. -1.
         -2   -1    0    0    0  501 -0.00000000000E+00 -0.00000000000E+00 -0.59905074706E+03  0.59905074706E+03  0.00000000000E+00 0.  1.
         23    2    1    2    0    0  0.10397278376E+03  0.47833508976E+03  0.45895383585E+03  0.67744855513E+03  0.93183279383E+02 0.  0.
        254    2    1    2    0    0 -0.10397278376E+03 -0.47833508976E+03  0.46832094354E+02  0.10264388692E+04  0.90098208044E+03 0.  0.
        -24    2    4    4    0    0 -0.26608011939E+03 -0.49459035310E+02  0.36244939303E+03  0.46432502399E+03  0.10480142790E+03 0.  0.
         24    2    4    4    0    0  0.16210733563E+03 -0.42887605445E+03 -0.31561729867E+03  0.56211384520E+03  0.78385186144E+02 0.  0.
         13    1    3    3    0    0  0.57264033932E+01  0.46757502348E+00  0.21253555270E+02  0.22016446894E+02  0.00000000000E+00 0.  1.
        -13    1    3    3    0    0  0.98246380370E+02  0.47786751473E+03  0.43770028058E+03  0.65543210824E+03  0.00000000000E+00 0. -1.
          4    1    6    6  502    0  0.12229909546E+03 -0.32322233416E+03 -0.19461034834E+03  0.39661433878E+03  0.00000000000E+00 0. -1.
          3    1    5    5  503    0 -0.22965596960E+03 -0.57616842939E+02  0.35427637559E+03  0.42611420448E+03  0.00000000000E+00 0. -1.
         -4    1    5    5    0  503 -0.36424149791E+02  0.81578076291E+01  0.81730174369E+01  0.38210819506E+02  0.00000000000E+00 0.  1.
         -3    1    6    6    0  502  0.39808240163E+02 -0.10565372029E+03 -0.12100695033E+03  0.16549950642E+03  0.00000000000E+00 0.  1.
<mgrwt>
<rscale>  0 0.16270873E+04</rscale>
<asrwt>0</asrwt>
<pdfrwt beam="1">  1        2 0.16997487E+00 0.16270873E+04</pdfrwt>
<pdfrwt beam="2">  1       -2 0.92161654E-01 0.16270873E+04</pdfrwt>
<totfact> 0.20715161E+01</totfact>
</mgrwt>
</event>
<event>
12    1  0.2492069E-008  0.1625163E+04  0.7818608E-02  0.8805237E-01
         -1   -1    0    0    0  501 -0.00000000000E+00  0.00000000000E+00  0.46547559931E+03  0.46547559931E+03  0.00000000000E+00 0.  1.
          1   -1    0    0  501    0  0.00000000000E+00 -0.00000000000E+00 -0.14185245399E+04  0.14185245399E+04  0.00000000000E+00 0. -1.
         23    2    1    2    0    0  0.39317881463E+03  0.37747802025E+03 -0.46939453492E+03  0.72506134344E+03  0.91123467278E+02 0.  0.
        254    2    1    2    0    0 -0.39317881463E+03 -0.37747802025E+03 -0.48365440567E+03  0.11589387958E+04  0.90118716822E+03 0.  0.
        -24    2    4    4    0    0 -0.57403993625E+03 -0.51744964686E+03 -0.23809787104E+03  0.81371249521E+03  0.90340706331E+02 0.  0.
         24    2    4    4    0    0  0.18086112162E+03  0.13997162661E+03 -0.24555653463E+03  0.34522630056E+03  0.81119574254E+02 0.  0.
         13    1    3    3    0    0  0.95617486653E+02  0.10947300318E+03 -0.77384889518E+02  0.16466773608E+03  0.00000000000E+00 0. -1.
        -13    1    3    3    0    0  0.29756132797E+03  0.26800501707E+03 -0.39200964541E+03  0.56039360736E+03  0.00000000000E+00 0.  1.
          4    1    6    6  502    0  0.18287644802E+03  0.13658212650E+03 -0.21224827154E+03  0.31168542040E+03  0.00000000000E+00 0. -1.
          3    1    5    5  503    0 -0.39059833086E+03 -0.32739961405E+03 -0.19691345610E+03  0.54638125201E+03  0.00000000000E+00 0. -1.
         -4    1    5    5    0  503 -0.18344160539E+03 -0.19005003281E+03 -0.41184414948E+02  0.26733124320E+03  0.00000000000E+00 0.  1.
         -3    1    6    6    0  502 -0.20153263947E+01  0.33895001061E+01 -0.33308263094E+02  0.33540880159E+02  0.00000000000E+00 0.  1.
<mgrwt>
<rscale>  0 0.16251628E+04</rscale>
<asrwt>0</asrwt>
<pdfrwt beam="1">  1        1 0.21823454E+00 0.16251628E+04</pdfrwt>
<pdfrwt beam="2">  1       -1 0.71611633E-01 0.16251628E+04</pdfrwt>
<totfact> 0.14054456E+01</totfact>
</mgrwt>
</event>
<event>
12    1  0.2045212E-008  0.1472243E+04  0.7818608E-02  0.8903124E-01
          2   -1    0    0  501    0  0.00000000000E+00  0.00000000000E+00  0.27660805583E+04  0.27660805583E+04  0.00000000000E+00 0. -1.
         -2   -1    0    0    0  501 -0.00000000000E+00 -0.00000000000E+00 -0.19589978620E+03  0.19589978620E+03  0.00000000000E+00 0.  1.
         23    2    1    2    0    0 -0.68754846905E+02  0.32856837209E+03  0.19107876736E+03  0.39748667725E+03  0.93809163425E+02 0.  0.
        254    2    1    2    0    0  0.68754846905E+02 -0.32856837209E+03  0.23791020047E+04  0.25644936673E+04  0.89655842884E+03 0.  0.
        -24    2    4    4    0    0 -0.19078912013E+03 -0.78668312616E+02  0.70076951635E+02  0.22598011939E+03  0.59724730558E+02 0.  0.
         24    2    4    4    0    0  0.25954396703E+03 -0.24990005947E+03  0.23090250531E+04  0.23385135479E+04  0.85063547640E+02 0.  0.
         11    1    3    3    0    0  0.85582666380E+01  0.58905223455E+01 -0.55621961610E+01  0.11784744693E+02  0.00000000000E+00 0. -1.
        -11    1    3    3    0    0 -0.77313113543E+02  0.32267784974E+03  0.19664096352E+03  0.38570193255E+03  0.00000000000E+00 0.  1.
          4    1    6    6  502    0  0.23525701032E+03 -0.21763451790E+03  0.18354437631E+04  0.18632134745E+04  0.00000000000E+00 0. -1.
          1    1    5    5  503    0 -0.17040763487E+03 -0.66725021200E+02  0.39292001014E+02  0.18717599157E+03  0.00000000000E+00 0. -1.
         -2    1    5    5    0  503 -0.20381485256E+02 -0.11943291417E+02  0.30784950622E+02  0.38804127820E+02  0.00000000000E+00 0.  1.
         -3    1    6    6    0  502  0.24286956714E+02 -0.32265541570E+02  0.47358129004E+03  0.47530007334E+03  0.00000000000E+00 0.  1.
<mgrwt>
<rscale>  0 0.14722426E+04</rscale>
<asrwt>0</asrwt>
<pdfrwt beam="1">  1        2 0.42555083E+00 0.14722426E+04</pdfrwt>
<pdfrwt beam="2">  1       -2 0.30138431E-01 0.14722426E+04</pdfrwt>
<totfact> 0.23987576E+01</totfact>
</mgrwt>
</event>
<event>
11    1  0.2045212E-008  0.1625364E+04  0.7818608E-02  0.8805116E-01
          2   -1    0    0  501    0  0.00000000000E+00  0.00000000000E+00  0.51554313480E+03  0.51554313480E+03  0.00000000000E+00 0. -1.
         -2   -1    0    0    0  501 -0.00000000000E+00 -0.00000000000E+00 -0.12810804701E+04  0.12810804701E+04  0.00000000000E+00 0.  1.
         23    2    1    2    0    0  0.46971370445E+02 -0.55676210905E+03 -0.30196297655E+03  0.64115708632E+03  0.87808965433E+02 0.  0.
        254    2    1    2    0    0 -0.46971370445E+02  0.55676210905E+03 -0.46357435872E+03  0.11554665185E+04  0.89889450644E+03 0.  0.
         24    2    4    4    0    0  0.23755410887E+03  0.57833453422E+03 -0.55511023437E+02  0.63272759517E+03  0.79749281193E+02 0.  0.
         11    1    3    3    0    0 -0.25226344371E+02 -0.13311160382E+03 -0.82221782768E+02  0.15847867076E+03  0.00000000000E+00 0. -1.
        -11    1    3    3    0    0  0.72197714815E+02 -0.42365050523E+03 -0.21974119379E+03  0.48267841557E+03  0.00000000000E+00 0.  1.
          2    1    5    5  502    0  0.97679374277E+02  0.31184433236E+03 -0.56676273300E+00  0.32678505015E+03  0.00000000000E+00 0. -1.
          3    1    4    4  503    0 -0.62366135917E+02 -0.24424522001E+02 -0.22531296504E+03  0.23505749169E+03  0.00000000000E+00 0. -1.
         -4    1    4    4    0  503 -0.22215934340E+03  0.28520968381E+01 -0.18275037024E+03  0.28768143169E+03  0.00000000000E+00 0.  1.
         -1    1    5    5    0  502  0.13987473460E+03  0.26649020186E+03 -0.54944260704E+02  0.30594254502E+03  0.00000000000E+00 0.  1.
<mgrwt>
<rscale>  0 0.16253643E+04</rscale>
<asrwt>0</asrwt>
<pdfrwt beam="1">  1        2 0.79314328E-01 0.16253643E+04</pdfrwt>
<pdfrwt beam="2">  1       -2 0.19708930E+00 0.16253643E+04</pdfrwt>
<totfact> 0.78970778E+00</totfact>
</mgrwt>
</event>
<event>
12    1  0.2045212E-008  0.1512757E+04  0.7818608E-02  0.8876014E-01
         -2   -1    0    0    0  501 -0.00000000000E+00  0.00000000000E+00  0.26271717660E+03  0.26271717660E+03  0.00000000000E+00 0.  1.
          2   -1    0    0  501    0  0.00000000000E+00 -0.00000000000E+00 -0.21776592281E+04  0.21776592281E+04  0.00000000000E+00 0. -1.
         23    2    1    2    0    0  0.76806943557E+02  0.15705989305E+02 -0.13310920167E+04  0.13363998657E+04  0.89513459851E+02 0.  0.
        254    2    1    2    0    0 -0.76806943557E+02 -0.15705989305E+02 -0.58385003481E+03  0.11039765390E+04  0.93366875861E+03 0.  0.
        -24    2    4    4    0    0  0.37390528143E+03  0.30704562451E+02 -0.36121713253E+02  0.38873745580E+03  0.95205576210E+02 0.  0.
         24    2    4    4    0    0 -0.45071222499E+03 -0.46410551756E+02 -0.54772832155E+03  0.71523908318E+03  0.79152907748E+02 0.  0.
         11    1    3    3    0    0  0.30228554860E+02  0.21122270732E+02 -0.15323900516E+03  0.15761379556E+03  0.00000000000E+00 0.  1.
        -11    1    3    3    0    0  0.46578388697E+02 -0.54162814267E+01 -0.11778530116E+04  0.11787860702E+04  0.00000000000E+00 0. -1.
          4    1    6    6  502    0 -0.38267706853E+03 -0.12551251259E+02 -0.43792147234E+03  0.58169965499E+03  0.00000000000E+00 0. -1.
          3    1    5    5  503    0  0.36267100305E+03  0.98387915492E+01 -0.38870157059E+02  0.36488073035E+03  0.00000000000E+00 0. -1.
         -4    1    5    5    0  503  0.11234278380E+02  0.20865770901E+02  0.27484438054E+01  0.23856725454E+02  0.00000000000E+00 0.  1.
         -3    1    6    6    0  502 -0.68035156454E+02 -0.33859300497E+02 -0.10980684922E+03  0.13353942818E+03  0.00000000000E+00 0.  1.
<mgrwt>
<rscale>  0 0.15127571E+04</rscale>
<asrwt>0</asrwt>
<pdfrwt beam="1">  1        2 0.33502449E+00 0.15127571E+04</pdfrwt>
<pdfrwt beam="2">  1       -2 0.40418028E-01 0.15127571E+04</pdfrwt>
<totfact> 0.29760245E+01</totfact>
</mgrwt>
</event>
<event>
11    1  0.2045212E-008  0.3120486E+04  0.7818608E-02  0.8210138E-01
          1   -1    0    0  501    0  0.00000000000E+00  0.00000000000E+00  0.28504708166E+04  0.28504708166E+04  0.00000000000E+00 0. -1.
         -1   -1    0    0    0  501 -0.00000000000E+00 -0.00000000000E+00 -0.85401990162E+03  0.85401990162E+03  0.00000000000E+00 0.  1.
         23    2    1    2    0    0 -0.50703980172E+03 -0.21158151177E+03  0.24808680627E+04  0.25425628710E+04  0.89797058481E+02 0.  0.
        254    2    1    2    0    0  0.50703980172E+03  0.21158151177E+03 -0.48441714774E+03  0.11619278472E+04  0.90197574937E+03 0.  0.
         24    2    4    4    0    0  0.23053006632E+03 -0.10107853957E+03  0.97361870204E+02  0.28113247679E+03  0.78709294849E+02 0.  0.
         11    1    3    3    0    0 -0.48611260999E+01 -0.13434404876E+02  0.34601630767E+02  0.37435098946E+02  0.00000000000E+00 0.  1.
        -11    1    3    3    0    0 -0.50217867562E+03 -0.19814710690E+03  0.24462664319E+04  0.25051277720E+04  0.00000000000E+00 0. -1.
          4    1    5    5  502    0  0.21912873345E+03 -0.72098672604E+02  0.96282259336E+02  0.24997178616E+03  0.00000000000E+00 0. -1.
          3    1    4    4  503    0  0.38558993444E+01 -0.85159675773E+02 -0.32179965558E+03  0.33289946931E+03  0.00000000000E+00 0. -1.
         -4    1    4    4    0  503  0.27265383606E+03  0.39781972711E+03 -0.25997936237E+03  0.54789590111E+03  0.00000000000E+00 0.  1.
         -3    1    5    5    0  502  0.11401332871E+02 -0.28979866966E+02  0.10796108683E+01  0.31160690625E+02  0.00000000000E+00 0.  1.
<mgrwt>
<rscale>  0 0.31204864E+04</rscale>
<asrwt>0</asrwt>
<pdfrwt beam="1">  1        1 0.43853397E+00 0.31204864E+04</pdfrwt>
<pdfrwt beam="2">  1       -1 0.13138768E+00 0.31204864E+04</pdfrwt>
<totfact> 0.31869506E-01</totfact>
</mgrwt>
</event>
<event>
11    1  0.2045212E-008  0.1653148E+04  0.7818608E-02  0.8788546E-01
          1   -1    0    0  501    0  0.00000000000E+00  0.00000000000E+00  0.18229383288E+04  0.18229383288E+04  0.00000000000E+00 0. -1.
         -1   -1    0    0    0  501 -0.00000000000E+00 -0.00000000000E+00 -0.37479316953E+03  0.37479316953E+03  0.00000000000E+00 0.  1.
         23    2    1    2    0    0 -0.29667592068E+02  0.46414836268E+03  0.60421390163E+02  0.47815890896E+03  0.93119972283E+02 0.  0.
        254    2    1    2    0    0  0.29667592068E+02 -0.46414836268E+03  0.13877237691E+04  0.17195725894E+04  0.90268419848E+03 0.  0.
         24    2    4    4    0    0 -0.14033011861E+03 -0.43786443664E+03  0.13257270146E+04  0.14055260101E+04  0.80829702840E+02 0.  0.
         11    1    3    3    0    0 -0.31240083457E+02  0.44701890744E+03  0.37744381903E+02  0.44969599152E+03  0.00000000000E+00 0.  1.
        -11    1    3    3    0    0  0.15724913896E+01  0.17129455237E+02  0.22677008259E+02  0.28462917445E+02  0.00000000000E+00 0. -1.
          4    1    5    5  502    0 -0.73588460250E+02 -0.18434551448E+03  0.46053839429E+03  0.50149191699E+03  0.00000000000E+00 0. -1.
          3    1    4    4  503    0  0.13756970408E+03 -0.48338050448E+01 -0.85141837944E+02  0.16185772061E+03  0.00000000000E+00 0. -1.
         -4    1    4    4    0  503  0.32428006596E+02 -0.21450120991E+02  0.14713859246E+03  0.15218885864E+03  0.00000000000E+00 0.  1.
         -3    1    5    5    0  502 -0.66741658358E+02 -0.25351892216E+03  0.86518862030E+03  0.90403409314E+03  0.00000000000E+00 0.  1.
<mgrwt>
<rscale>  0 0.16531483E+04</rscale>
<asrwt>0</asrwt>
<pdfrwt beam="1">  1        1 0.28045205E+00 0.16531483E+04</pdfrwt>
<pdfrwt beam="2">  1       -1 0.57660489E-01 0.16531483E+04</pdfrwt>
<totfact> 0.11440194E+01</totfact>
</mgrwt>
</event>
<event>
11    1  0.2045212E-008  0.2556440E+04  0.7818608E-02  0.8383150E-01
         -2   -1    0    0    0  501 -0.00000000000E+00  0.00000000000E+00  0.11472342168E+04  0.11472342168E+04  0.00000000000E+00 0. -1.
          2   -1    0    0  501    0  0.00000000000E+00 -0.00000000000E+00 -0.14241610221E+04  0.14241610221E+04  0.00000000000E+00 0.  1.
         23    2    1    2    0    0  0.34145495186E+03  0.94635932031E+03  0.35977109774E+03  0.10729324232E+04  0.97781873265E+02 0.  0.
        254    2    1    2    0    0 -0.34145495186E+03 -0.94635932031E+03 -0.63669790306E+03  0.14984628157E+04  0.90984566980E+03 0.  0.
         24    2    4    4    0    0  0.23693196641E+03 -0.42533209987E+03 -0.41328680724E+03  0.64348446652E+03  0.78880426761E+02 0.  0.
         11    1    3    3    0    0  0.21891592727E+03  0.54525929882E+03  0.16356815500E+03  0.60990690068E+03  0.00000000000E+00 0.  1.
        -11    1    3    3    0    0  0.12253902459E+03  0.40110002149E+03  0.19620294274E+03  0.46302552254E+03  0.00000000000E+00 0. -1.
          4    1    5    5  502    0  0.19878534950E+03 -0.35646249662E+03 -0.30458522502E+03  0.50926740125E+03  0.00000000000E+00 0. -1.
          1    1    4    4  503    0 -0.22554023508E+03 -0.23632401264E+03 -0.23339376532E+03  0.40148485187E+03  0.00000000000E+00 0. -1.
         -2    1    4    4    0  503 -0.35284668319E+03 -0.28470320780E+03  0.99826694972E+01  0.45349349727E+03  0.00000000000E+00 0.  1.
         -3    1    5    5    0  502  0.38146616918E+02 -0.68869603250E+02 -0.10870158222E+03  0.13421706527E+03  0.00000000000E+00 0.  1.
<mgrwt>
<rscale>  0 0.25564399E+04</rscale>
<asrwt>0</asrwt>
<pdfrwt beam="1">  1        2 0.21910169E+00 0.25564399E+04</pdfrwt>
<pdfrwt beam="2">  1       -2 0.17649757E+00 0.25564399E+04</pdfrwt>
<totfact> 0.23868708E+00</totfact>
</mgrwt>
</event>
<event>
12    1  0.2045212E-008  0.1134494E+04  0.7818608E-02  0.9172209E-01
         -2   -1    0    0    0  501 -0.00000000000E+00  0.00000000000E+00  0.16229328817E+03  0.16229328817E+03  0.00000000000E+00 0. -1.
          2   -1    0    0  501    0  0.00000000000E+00 -0.00000000000E+00 -0.19826409313E+04  0.19826409313E+04  0.00000000000E+00 0.  1.
         23    2    1    2    0    0 -0.19016448962E+03 -0.18189289796E+02 -0.30428167664E+03  0.37062040073E+03  0.90987687767E+02 0.  0.
        254    2    1    2    0    0  0.19016448962E+03  0.18189289796E+02 -0.15160659665E+04  0.17743138187E+04  0.90179827523E+03 0.  0.
        -24    2    4    4    0    0 -0.14172563776E+02  0.43121748020E+03 -0.55621742148E+03  0.70658101654E+03  0.61069928682E+02 0.  0.
         24    2    4    4    0    0  0.20433705339E+03 -0.41302819041E+03 -0.95984854500E+03  0.10677328022E+04  0.79988686925E+02 0.  0.
         11    1    3    3    0    0 -0.15743331708E+03 -0.17058334461E+02 -0.29772671889E+03  0.33722015841E+03  0.00000000000E+00 0.  1.
        -11    1    3    3    0    0 -0.32731172540E+02 -0.11309553345E+01 -0.65549577520E+01  0.33400242318E+02  0.00000000000E+00 0. -1.
          4    1    6    6  502    0  0.17513102753E+03 -0.39760817993E+03 -0.88356214398E+03  0.98460408481E+03  0.00000000000E+00 0. -1.
          1    1    5    5  503    0  0.31866528980E+01  0.10968927559E+03 -0.10207888758E+03  0.14987325054E+03  0.00000000000E+00 0. -1.
         -2    1    5    5    0  503 -0.17359216674E+02  0.32152820461E+03 -0.45413853389E+03  0.55670776601E+03  0.00000000000E+00 0.  1.
         -3    1    6    6    0  502  0.29206025858E+02 -0.15420010479E+02 -0.76286401026E+02  0.83128717367E+02  0.00000000000E+00 0.  1.
<mgrwt>
<rscale>  0 0.11344943E+04</rscale>
<asrwt>0</asrwt>
<pdfrwt beam="1">  1        2 0.30502169E+00 0.11344943E+04</pdfrwt>
<pdfrwt beam="2">  1       -2 0.24968197E-01 0.11344943E+04</pdfrwt>
<totfact> 0.97495260E+01</totfact>
</mgrwt>
</event>
<event>
11    1  0.2045212E-008  0.1758519E+04  0.7818608E-02  0.8728675E-01
          1   -1    0    0  501    0  0.00000000000E+00  0.00000000000E+00  0.15369169137E+04  0.15369169137E+04  0.00000000000E+00 0. -1.
         -1   -1    0    0    0  501 -0.00000000000E+00 -0.00000000000E+00 -0.50301834660E+03  0.50301834660E+03  0.00000000000E+00 0.  1.
         23    2    1    2    0    0  0.37961206437E+03 -0.39017371919E+03  0.78043947661E+03  0.95600837076E+03  0.92332972111E+02 0.  0.
        254    2    1    2    0    0 -0.37961206437E+03  0.39017371919E+03  0.25345909046E+03  0.10839268895E+04  0.90239411606E+03 0.  0.
         24    2    4    4    0    0  0.71322448037E+02  0.50597194292E+03 -0.40017932146E+02  0.51955821894E+03  0.85116445930E+02 0.  0.
         11    1    3    3    0    0  0.26343010276E+03 -0.20825775283E+03  0.45530231280E+03  0.56574455958E+03  0.00000000000E+00 0.  1.
        -11    1    3    3    0    0  0.11618196160E+03 -0.18191596637E+03  0.32513716381E+03  0.39026381117E+03  0.00000000000E+00 0. -1.
          4    1    5    5  502    0  0.28453071357E+02  0.20600269552E+03 -0.58343248348E+02  0.21598755163E+03  0.00000000000E+00 0. -1.
          3    1    4    4  503    0 -0.41190298823E+02  0.24124535527E+02  0.17114874924E+02  0.50710480921E+02  0.00000000000E+00 0. -1.
         -4    1    4    4    0  503 -0.40974421358E+03 -0.13992275925E+03  0.27636214768E+03  0.51365818964E+03  0.00000000000E+00 0.  1.
         -3    1    5    5    0  502  0.42869376681E+02  0.29996924740E+03  0.18325316202E+02  0.30357066732E+03  0.00000000000E+00 0.  1.
<mgrwt>
<rscale>  0 0.17585192E+04</rscale>
<asrwt>0</asrwt>
<pdfrwt beam="1">  1        1 0.23644875E+00 0.17585192E+04</pdfrwt>
<pdfrwt beam="2">  1       -1 0.77387439E-01 0.17585192E+04</pdfrwt>
<totfact> 0.97752751E+00</totfact>
</mgrwt>
</event>
<event>
11    1  0.2045212E-008  0.2204859E+04  0.7818608E-02  0.8516408E-01
         -2   -1    0    0    0  501 -0.00000000000E+00  0.00000000000E+00  0.45113343673E+03  0.45113343673E+03  0.00000000000E+00 0. -1.
          2   -1    0    0  501    0  0.00000000000E+00 -0.00000000000E+00 -0.26939944918E+04  0.26939944918E+04  0.00000000000E+00 0.  1.
         23    2    1    2    0    0 -0.76045268864E+03 -0.48318047560E+03 -0.71104026980E+03  0.11514381089E+04  0.92085772966E+02 0.  0.
        254    2    1    2    0    0  0.76045268864E+03  0.48318047560E+03 -0.15318207852E+04  0.19936898196E+04  0.90364402019E+03 0.  0.
         24    2    4    4    0    0 -0.16151858246E+03 -0.46346012027E+01 -0.45854345331E+03  0.49272302446E+03  0.80025922402E+02 0.  0.
         11    1    3    3    0    0 -0.65515235212E+03 -0.37761733288E+03 -0.60603801794E+03  0.96907251213E+03  0.00000000000E+00 0.  1.
        -11    1    3    3    0    0 -0.10530033652E+03 -0.10556314272E+03 -0.10500225185E+03  0.18236559672E+03  0.00000000000E+00 0. -1.
          4    1    5    5  502    0 -0.11830270637E+03  0.26825699107E+02 -0.36911021381E+03  0.38853249337E+03  0.00000000000E+00 0. -1.
          3    1    4    4  503    0  0.75967827312E+03  0.37612245674E+03 -0.81307576999E+03  0.11745941379E+04  0.00000000000E+00 0. -1.
         -4    1    4    4    0  503  0.16229299797E+03  0.11169262007E+03 -0.26020156193E+03  0.32637265724E+03  0.00000000000E+00 0.  1.
         -3    1    5    5    0  502 -0.43215876091E+02 -0.31460300310E+02 -0.89433239494E+02  0.10419053109E+03  0.00000000000E+00 0.  1.
<mgrwt>
<rscale>  0 0.22048592E+04</rscale>
<asrwt>0</asrwt>
<pdfrwt beam="1">  1        2 0.41446069E+00 0.22048592E+04</pdfrwt>
<pdfrwt beam="2">  1       -2 0.69405144E-01 0.22048592E+04</pdfrwt>
<totfact> 0.46350207E+00</totfact>
</mgrwt>
</event>
<event>
12    1  0.2045212E-008  0.1597832E+04  0.7818608E-02  0.8821881E-01
         -2   -1    0    0    0  501 -0.00000000000E+00  0.00000000000E+00  0.76472642267E+03  0.76472642267E+03  0.00000000000E+00 0.  1.
          2   -1    0    0  501    0  0.00000000000E+00 -0.00000000000E+00 -0.83463446140E+03  0.83463446140E+03  0.00000000000E+00 0. -1.
         23    2    1    2    0    0  0.17849351806E+03  0.12388173773E+03 -0.51675307710E+03  0.56806169064E+03  0.91944117488E+02 0.  0.
        254    2    1    2    0    0 -0.17849351806E+03 -0.12388173773E+03  0.44684503837E+03  0.10312991934E+04  0.90371506413E+03 0.  0.
        -24    2    4    4    0    0 -0.32282870400E+03  0.31434127756E+03  0.20745946600E+03  0.50467590189E+03  0.92895236774E+02 0.  0.
         24    2    4    4    0    0  0.14433518594E+03 -0.43822301530E+03  0.23938557238E+03  0.52662329154E+03  0.84584761627E+02 0.  0.
         11    1    3    3    0    0  0.17131085654E+02 -0.15186065406E+02 -0.51790478917E+02  0.56624591695E+02  0.00000000000E+00 0.  1.
        -11    1    3    3    0    0  0.16136243241E+03  0.13906780314E+03 -0.46496259818E+03  0.51143709894E+03  0.00000000000E+00 0. -1.
          4    1    6    6  502    0  0.16349336426E+02 -0.24315539918E+02 -0.41968226180E+01  0.29599993296E+02  0.00000000000E+00 0. -1.
          3    1    5    5  503    0 -0.23961654122E+01  0.76373182091E+01  0.22889302120E+02  0.24248513143E+02  0.00000000000E+00 0. -1.
         -4    1    5    5    0  503 -0.32043253859E+03  0.30670395935E+03  0.18457016388E+03  0.48042738875E+03  0.00000000000E+00 0.  1.
         -3    1    6    6    0  502  0.12798584951E+03 -0.41390747538E+03  0.24358239500E+03  0.49702329825E+03  0.00000000000E+00 0.  1.
<mgrwt>
<rscale>  0 0.15978323E+04</rscale>
<asrwt>0</asrwt>
<pdfrwt beam="1">  1        2 0.12840530E+00 0.15978323E+04</pdfrwt>
<pdfrwt beam="2">  1       -2 0.11765022E+00 0.15978323E+04</pdfrwt>
<totfact> 0.17401902E+01</totfact>
</mgrwt>
</event>
<event>
12    1  0.2045212E-008  0.2534736E+04  0.7818608E-02  0.8390714E-01
         -2   -1    0    0    0  501 -0.00000000000E+00  0.00000000000E+00  0.81136727906E+03  0.81136727906E+03  0.00000000000E+00 0.  1.
          2   -1    0    0  501    0  0.00000000000E+00 -0.00000000000E+00 -0.19796486912E+04  0.19796486912E+04  0.00000000000E+00 0. -1.
         23    2    1    2    0    0 -0.10613518532E+04 -0.37646010061E+02 -0.17701513079E+03  0.10803357807E+04  0.88916050995E+02 0.  0.
        254    2    1    2    0    0  0.10613518532E+04  0.37646010061E+02 -0.99126628136E+03  0.17106801895E+04  0.90329003751E+03 0.  0.
        -24    2    4    4    0    0 -0.13895204390E+02  0.22061774691E+03 -0.41502669747E+03  0.47448864414E+03  0.63459017122E+02 0.  0.
         24    2    4    4    0    0  0.10752470576E+04 -0.18297173684E+03 -0.57623958389E+03  0.12361915454E+04  0.80514516853E+02 0.  0.
         11    1    3    3    0    0 -0.24010325353E+03  0.18978371052E+02 -0.14795813531E+02  0.24130616863E+03  0.00000000000E+00 0.  1.
        -11    1    3    3    0    0 -0.82124859972E+03 -0.56624381113E+02 -0.16221931726E+03  0.83902961209E+03  0.00000000000E+00 0. -1.
          4    1    6    6  502    0  0.88943610927E+03 -0.15350327856E+03 -0.44146036655E+03  0.10047622128E+04  0.00000000000E+00 0. -1.
          3    1    5    5  503    0 -0.11205619028E+02  0.17708027807E+03 -0.27032536865E+03  0.32335552525E+03  0.00000000000E+00 0. -1.
         -4    1    5    5    0  503 -0.26895853617E+01  0.43537468839E+02 -0.14470132882E+03  0.15113311889E+03  0.00000000000E+00 0.  1.
         -3    1    6    6    0  502  0.18581094837E+03 -0.29468458285E+02 -0.13477921734E+03  0.23142933262E+03  0.00000000000E+00 0.  1.
<mgrwt>
<rscale>  0 0.25347364E+04</rscale>
<asrwt>0</asrwt>
<pdfrwt beam="1">  1        2 0.30456134E+00 0.25347364E+04</pdfrwt>
<pdfrwt beam="2">  1       -2 0.12482573E+00 0.25347364E+04</pdfrwt>
<totfact> 0.29345933E+00</totfact>
</mgrwt>
</event>
<event>
11    1  0.2045212E-008  0.2118190E+04  0.7818608E-02  0.8553273E-01
         -2   -1    0    0    0  501 -0.00000000000E+00  0.00000000000E+00  0.15444745746E+04  0.15444745746E+04  0.00000000000E+00 0.  1.
          2   -1    0    0  501    0  0.00000000000E+00 -0.00000000000E+00 -0.72625498338E+03  0.72625498338E+03  0.00000000000E+00 0. -1.
         23    2    1    2    0    0  0.16357365482E+03 -0.33244958629E+03  0.11848524125E+04  0.12449373348E+04  0.93352344145E+02 0.  0.
        254    2    1    2    0    0 -0.16357365482E+03  0.33244958629E+03 -0.36663282126E+03  0.10257922232E+04  0.88348796914E+03 0.  0.
         24    2    4    4    0    0 -0.22749648330E+03 -0.14383124627E+03 -0.44272894460E+03  0.52421159215E+03  0.79666791347E+02 0.  0.
         13    1    3    3    0    0  0.12480680606E+03 -0.30190997001E+03  0.93973354966E+03  0.99489975032E+03  0.00000000000E+00 0.  1.
        -13    1    3    3    0    0  0.38766848759E+02 -0.30539616284E+02  0.24511886282E+03  0.25003758445E+03  0.00000000000E+00 0. -1.
          2    1    5    5  502    0 -0.10823749568E+03 -0.91352873681E+02 -0.16510098955E+03  0.21752939974E+03  0.00000000000E+00 0. -1.
          1    1    4    4  503    0 -0.11490643174E+02  0.31547387345E+03  0.24531746722E+02  0.31663481538E+03  0.00000000000E+00 0. -1.
         -2    1    4    4    0  503  0.75413471654E+02  0.16080695911E+03  0.51564376616E+02  0.18494581569E+03  0.00000000000E+00 0.  1.
         -1    1    5    5    0  502 -0.11925898762E+03 -0.52478372589E+02 -0.27762795505E+03  0.30668219241E+03  0.00000000000E+00 0.  1.
<mgrwt>
<rscale>  0 0.21181901E+04</rscale>
<asrwt>0</asrwt>
<pdfrwt beam="1">  1        2 0.11173154E+00 0.21181901E+04</pdfrwt>
<pdfrwt beam="2">  1       -2 0.23761147E+00 0.21181901E+04</pdfrwt>
<totfact> 0.27561560E+00</totfact>
</mgrwt>
</event>
<event>
12    1  0.2045212E-008  0.1795786E+04  0.7818608E-02  0.8708544E-01
          1   -1    0    0  501    0  0.00000000000E+00  0.00000000000E+00  0.26498677112E+04  0.26498677112E+04  0.00000000000E+00 0. -1.
         -1   -1    0    0    0  501 -0.00000000000E+00 -0.00000000000E+00 -0.30424601313E+03  0.30424601313E+03  0.00000000000E+00 0.  1.
         23    2    1    2    0    0  0.11189505770E+03  0.13837280921E+03 -0.17663842219E+03  0.26742413340E+03  0.92989228743E+02 0.  0.
        254    2    1    2    0    0 -0.11189505770E+03 -0.13837280921E+03  0.25222601202E+04  0.26866895909E+04  0.90820554146E+03 0.  0.
        -24    2    4    4    0    0  0.25261211294E+03 -0.32317879788E+03  0.66222734603E+03  0.78084262254E+03  0.53969698302E+02 0.  0.
         24    2    4    4    0    0 -0.36450717064E+03  0.18480598867E+03  0.18600327742E+04  0.19058469684E+04  0.74242944902E+02 0.  0.
         11    1    3    3    0    0  0.10393119755E+03  0.15150526598E+03 -0.15229427528E+03  0.23864007569E+03  0.00000000000E+00 0. -1.
        -11    1    3    3    0    0  0.79638601509E+01 -0.13132456766E+02 -0.24344146909E+02  0.28784057704E+02  0.00000000000E+00 0.  1.
          4    1    6    6  502    0 -0.13751361681E+03  0.32543836475E+02  0.68830474231E+03  0.70266102381E+03  0.00000000000E+00 0. -1.
          1    1    5    5  503    0  0.44273978571E+02 -0.28483633318E+02  0.92206781249E+02  0.10617717765E+03  0.00000000000E+00 0. -1.
         -2    1    5    5    0  503  0.20833813437E+03 -0.29469516456E+03  0.57002056478E+03  0.67466544489E+03  0.00000000000E+00 0.  1.
         -3    1    6    6    0  502 -0.22699355383E+03  0.15226215220E+03  0.11717280319E+04  0.12031859446E+04  0.00000000000E+00 0.  1.
<mgrwt>
<rscale>  0 0.17957858E+04</rscale>
<asrwt>0</asrwt>
<pdfrwt beam="1">  1        1 0.40767194E+00 0.17957858E+04</pdfrwt>
<pdfrwt beam="2">  1       -1 0.46807081E-01 0.17957858E+04</pdfrwt>
<totfact> 0.45781326E+00</totfact>
</mgrwt>
</event>
<event>
12    1  0.2045212E-008  0.1562033E+04  0.7818608E-02  0.8844218E-01
          2   -1    0    0  501    0  0.00000000000E+00  0.00000000000E+00  0.87429829962E+03  0.87429829962E+03  0.00000000000E+00 0. -1.
         -2   -1    0    0    0  501 -0.00000000000E+00 -0.00000000000E+00 -0.69768731665E+03  0.69768731665E+03  0.00000000000E+00 0.  1.
         23    2    1    2    0    0  0.13997633594E+03  0.55185484491E+03  0.10339880079E+03  0.58752768911E+03  0.10178570135E+03 0.  0.
        254    2    1    2    0    0 -0.13997633594E+03 -0.55185484491E+03  0.73212182180E+02  0.98445792716E+03  0.79978762321E+03 0.  0.
        -24    2    4    4    0    0 -0.46172640771E+03 -0.35218500219E+03 -0.29920547693E+02  0.58397415807E+03  0.53898300296E+02 0.  0.
         24    2    4    4    0    0  0.32175007177E+03 -0.19966984271E+03  0.10313272987E+03  0.40048376909E+03  0.79747943915E+02 0.  0.
         13    1    3    3    0    0  0.97067970846E+02  0.26981140121E+03  0.95164205944E+02  0.30212019013E+03  0.00000000000E+00 0.  1.
        -13    1    3    3    0    0  0.42908365096E+02  0.28204344369E+03  0.82345948449E+01  0.28540749899E+03  0.00000000000E+00 0. -1.
          4    1    6    6  502    0  0.12946273429E+03 -0.36083904871E+02  0.40622814332E+02  0.14040249572E+03  0.00000000000E+00 0. -1.
          1    1    5    5  503    0 -0.61704910640E+02 -0.58931261198E+02  0.12186703848E+02  0.86191097534E+02  0.00000000000E+00 0. -1.
         -2    1    5    5    0  503 -0.40002149707E+03 -0.29325374100E+03 -0.42107251541E+02  0.49778306054E+03  0.00000000000E+00 0.  1.
         -3    1    6    6    0  502  0.19228733748E+03 -0.16358593784E+03  0.62509915541E+02  0.26008127337E+03  0.00000000000E+00 0.  1.
<mgrwt>
<rscale>  0 0.15620331E+04</rscale>
<asrwt>0</asrwt>
<pdfrwt beam="1">  1        2 0.13450743E+00 0.15620331E+04</pdfrwt>
<pdfrwt beam="2">  1       -2 0.10733651E+00 0.15620331E+04</pdfrwt>
<totfact> 0.20472033E+01</totfact>
</mgrwt>
</event>
<event>
11    1  0.2045212E-008  0.2459222E+04  0.7818608E-02  0.8417658E-01
          1   -1    0    0  501    0  0.00000000000E+00  0.00000000000E+00  0.12872552254E+04  0.12872552254E+04  0.00000000000E+00 0. -1.
         -1   -1    0    0    0  501 -0.00000000000E+00 -0.00000000000E+00 -0.11745484633E+04  0.11745484633E+04  0.00000000000E+00 0.  1.
         23    2    1    2    0    0  0.25364368933E+03 -0.38354629603E+03 -0.90353797078E+03  0.10179152942E+04  0.91256775686E+02 0.  0.
        254    2    1    2    0    0 -0.25364368933E+03  0.38354629603E+03  0.10162447329E+04  0.14438883945E+04  0.91685192714E+03 0.  0.
         24    2    4    4    0    0  0.28949035548E+03  0.79427307635E+02  0.94157140655E+02  0.32365200503E+03  0.75971640183E+02 0.  0.
         11    1    3    3    0    0  0.13654707073E+03 -0.13325138116E+03 -0.32736690583E+03  0.37890648468E+03  0.00000000000E+00 0. -1.
        -11    1    3    3    0    0  0.11709661860E+03 -0.25029491487E+03 -0.57617106495E+03  0.63900880948E+03  0.00000000000E+00 0.  1.
          4    1    5    5  502    0  0.22676935906E+03  0.75822784752E+02  0.43691845734E+02  0.24306874394E+03  0.00000000000E+00 0. -1.
          1    1    4    4  503    0 -0.39207794595E+03  0.17729135768E+03  0.54221099539E+03  0.69220669220E+03  0.00000000000E+00 0. -1.
         -2    1    4    4    0  503 -0.15105609886E+03  0.12682763071E+03  0.37987659682E+03  0.42802969725E+03  0.00000000000E+00 0.  1.
         -3    1    5    5    0  502  0.62720996412E+02  0.36045228827E+01  0.50465294922E+02  0.80583261088E+02  0.00000000000E+00 0.  1.
<mgrwt>
<rscale>  0 0.24592224E+04</rscale>
<asrwt>0</asrwt>
<pdfrwt beam="1">  1        1 0.19803927E+00 0.24592224E+04</pdfrwt>
<pdfrwt beam="2">  1       -1 0.18069976E+00 0.24592224E+04</pdfrwt>
<totfact> 0.16943632E+00</totfact>
</mgrwt>
</event>
<event>
12    1  0.2045212E-008  0.1609720E+04  0.7818608E-02  0.8814599E-01
          2   -1    0    0  501    0  0.00000000000E+00  0.00000000000E+00  0.15684590650E+04  0.15684590650E+04  0.00000000000E+00 0. -1.
         -2   -1    0    0    0  501 -0.00000000000E+00 -0.00000000000E+00 -0.41301681551E+03  0.41301681551E+03  0.00000000000E+00 0.  1.
         23    2    1    2    0    0  0.88097160499E+01  0.50514236666E+03  0.66705410010E+03  0.84140918263E+03  0.88101183150E+02 0.  0.
        254    2    1    2    0    0 -0.88097160499E+01 -0.50514236666E+03  0.48838814939E+03  0.11400666979E+04  0.89776537551E+03 0.  0.
        -24    2    4    4    0    0 -0.19796961308E+03  0.72926406138E+02  0.47011508239E+03  0.52696168942E+03  0.11031864308E+03 0.  0.
         24    2    4    4    0    0  0.18915989703E+03 -0.57806877280E+03  0.18273067004E+02  0.61310500847E+03  0.74959146898E+02 0.  0.
         11    1    3    3    0    0  0.28963146914E+02  0.21036728692E+03  0.33799728632E+03  0.39916841665E+03  0.00000000000E+00 0. -1.
        -11    1    3    3    0    0 -0.20153430864E+02  0.29477507974E+03  0.32905681378E+03  0.44224076599E+03  0.00000000000E+00 0.  1.
          2    1    6    6  502    0  0.30515876889E+02 -0.11669638488E+03 -0.25409807346E+02  0.12326768959E+03  0.00000000000E+00 0. -1.
          3    1    5    5  503    0 -0.66482548469E+02  0.89586991678E+01  0.27542414730E+03  0.28347601037E+03  0.00000000000E+00 0. -1.
         -4    1    5    5    0  503 -0.13148706461E+03  0.63967706970E+02  0.19469093509E+03  0.24348567905E+03  0.00000000000E+00 0.  1.
         -1    1    6    6    0  502  0.15864402014E+03 -0.46137238791E+03  0.43682874350E+02  0.48983731888E+03  0.00000000000E+00 0.  1.
<mgrwt>
<rscale>  0 0.16097204E+04</rscale>
<asrwt>0</asrwt>
<pdfrwt beam="1">  1        2 0.24130139E+00 0.16097204E+04</pdfrwt>
<pdfrwt beam="2">  1       -2 0.63541049E-01 0.16097204E+04</pdfrwt>
<totfact> 0.25509568E+01</totfact>
</mgrwt>
</event>
<event>
12    1  0.2094224E-008  0.1624182E+04  0.7818608E-02  0.8805828E-01
         -1   -1    0    0    0  501 -0.00000000000E+00  0.00000000000E+00  0.35207495995E+03  0.35207495995E+03  0.00000000000E+00 0.  1.
          1   -1    0    0  501    0  0.00000000000E+00 -0.00000000000E+00 -0.18731577354E+04  0.18731577354E+04  0.00000000000E+00 0. -1.
         23    2    1    2    0    0  0.17132296881E+03  0.39924734026E+03 -0.48639347749E+02  0.44711649540E+03  0.93794327962E+02 0.  0.
        254    2    1    2    0    0 -0.17132296881E+03 -0.39924734026E+03 -0.14724434277E+04  0.17781162000E+04  0.89713854809E+03 0.  0.
        -24    2    4    4    0    0  0.11610242406E+02 -0.61365327094E+03 -0.12907992723E+04  0.14322854611E+04  0.92594525166E+02 0.  0.
         24    2    4    4    0    0 -0.18293321122E+03  0.21440593068E+03 -0.18164415544E+03  0.34583073889E+03  0.84674895207E+02 0.  0.
         11    1    3    3    0    0  0.17710672353E+03  0.36522718940E+03 -0.60999330532E+02  0.41046145949E+03  0.00000000000E+00 0.  1.
        -11    1    3    3    0    0 -0.57837547199E+01  0.34020150858E+02  0.12359982783E+02  0.36655035909E+02  0.00000000000E+00 0. -1.
          2    1    6    6  502    0 -0.51220581136E+01  0.11260430166E+02 -0.38124262225E+02  0.40081069560E+02  0.00000000000E+00 0. -1.
          1    1    5    5  503    0 -0.29347643028E+02 -0.85762563141E+02 -0.21154851585E+03  0.23015055061E+03  0.00000000000E+00 0. -1.
         -2    1    5    5    0  503  0.40957885434E+02 -0.52789070780E+03 -0.10792507564E+04  0.12021349105E+04  0.00000000000E+00 0.  1.
         -1    1    6    6    0  502 -0.17781115310E+03  0.20314550051E+03 -0.14351989322E+03  0.30574966933E+03  0.00000000000E+00 0.  1.
<mgrwt>
<rscale>  0 0.16241822E+04</rscale>
<asrwt>0</asrwt>
<pdfrwt beam="1">  1        1 0.28817812E+00 0.16241822E+04</pdfrwt>
<pdfrwt beam="2">  1       -1 0.54165377E-01 0.16241822E+04</pdfrwt>
<totfact> 0.11977429E+01</totfact>
</mgrwt>
</event>
<event>
11    1  0.2045212E-008  0.1423973E+04  0.7818608E-02  0.8936646E-01
          1   -1    0    0  501    0  0.00000000000E+00  0.00000000000E+00  0.12976929714E+04  0.12976929714E+04  0.00000000000E+00 0. -1.
         -1   -1    0    0    0  501 -0.00000000000E+00 -0.00000000000E+00 -0.39063529885E+03  0.39063529885E+03  0.00000000000E+00 0.  1.
         23    2    1    2    0    0  0.46338183699E+02 -0.14422686705E+03 -0.10330249565E+03  0.20423194700E+03  0.89948130169E+02 0.  0.
        254    2    1    2    0    0 -0.46338183699E+02  0.14422686705E+03  0.10103601682E+04  0.14840963233E+04  0.10764597581E+04 0.  0.
         24    2    4    4    0    0  0.48897199678E+03 -0.42823782029E+02  0.41217002762E+03  0.64568862746E+03  0.78116464493E+02 0.  0.
         11    1    3    3    0    0  0.16819296445E+00 -0.77103789125E+01  0.15598452097E+02  0.17400860314E+02  0.00000000000E+00 0. -1.
        -11    1    3    3    0    0  0.46169990734E+02 -0.13651648814E+03 -0.11890094774E+03  0.18683108669E+03  0.00000000000E+00 0.  1.
          2    1    5    5  502    0  0.24293036542E+03 -0.35606139831E+02  0.25306050678E+03  0.35259407217E+03  0.00000000000E+00 0. -1.
          3    1    4    4  503    0 -0.45119544543E+03  0.11537838607E+03  0.41152703075E+03  0.62148531679E+03  0.00000000000E+00 0. -1.
         -4    1    4    4    0  503 -0.84114735050E+02  0.71672263009E+02  0.18666310986E+03  0.21692237902E+03  0.00000000000E+00 0.  1.
         -1    1    5    5    0  502  0.24604163136E+03 -0.72176421980E+01  0.15910952083E+03  0.29309455529E+03  0.00000000000E+00 0.  1.
<mgrwt>
<rscale>  0 0.14239729E+04</rscale>
<asrwt>0</asrwt>
<pdfrwt beam="1">  1        1 0.19964507E+00 0.14239729E+04</pdfrwt>
<pdfrwt beam="2">  1       -1 0.60097739E-01 0.14239729E+04</pdfrwt>
<totfact> 0.24808200E+01</totfact>
</mgrwt>
</event>
<event>
12    1  0.2045212E-008  0.1616753E+04  0.7818608E-02  0.8810322E-01
          2   -1    0    0  501    0  0.00000000000E+00  0.00000000000E+00  0.10868769380E+04  0.10868769380E+04  0.00000000000E+00 0. -1.
         -2   -1    0    0    0  501 -0.00000000000E+00 -0.00000000000E+00 -0.60123859372E+03  0.60123859372E+03  0.00000000000E+00 0.  1.
         23    2    1    2    0    0  0.24652391103E+03  0.22394916623E+03  0.63466713863E+03  0.72279085406E+03  0.93257568556E+02 0.  0.
        254    2    1    2    0    0 -0.24652391103E+03 -0.22394916623E+03 -0.14902879439E+03  0.96532467762E+03  0.89370850052E+03 0.  0.
        -24    2    4    4    0    0  0.24028607719E+03  0.24588142431E+02 -0.30153788737E+03  0.39224139794E+03  0.67721791909E+02 0.  0.
         24    2    4    4    0    0 -0.48680998822E+03 -0.24853730866E+03  0.15250909298E+03  0.57308327968E+03  0.80066619663E+02 0.  0.
         13    1    3    3    0    0  0.24896590861E+03  0.22906594760E+03  0.63119057777E+03  0.71614019400E+03  0.00000000000E+00 0. -1.
        -13    1    3    3    0    0 -0.24419975802E+01 -0.51167813714E+01  0.34765608568E+01  0.66506600557E+01  0.00000000000E+00 0.  1.
          4    1    6    6  502    0 -0.12456063881E+03 -0.62636304724E+02  0.76001948120E+02  0.15879217716E+03  0.00000000000E+00 0. -1.
          1    1    5    5  503    0  0.60919535660E+01  0.14212408813E+02 -0.11277123474E+02  0.19138390119E+02  0.00000000000E+00 0. -1.
         -2    1    5    5    0  503  0.23419412362E+03  0.10375733618E+02 -0.29026076389E+03  0.37310300782E+03  0.00000000000E+00 0.  1.
         -3    1    6    6    0  502 -0.36224934941E+03 -0.18590100393E+03  0.76507144858E+02  0.41429110252E+03  0.00000000000E+00 0.  1.
<mgrwt>
<rscale>  0 0.16167527E+04</rscale>
<asrwt>0</asrwt>
<pdfrwt beam="1">  1        2 0.16721184E+00 0.16167527E+04</pdfrwt>
<pdfrwt beam="2">  1       -2 0.92498245E-01 0.16167527E+04</pdfrwt>
<totfact> 0.21089791E+01</totfact>
</mgrwt>
</event>
<event>
11    1  0.2045212E-008  0.2865676E+04  0.7818608E-02  0.8283164E-01
         -1   -1    0    0    0  501 -0.00000000000E+00  0.00000000000E+00  0.12558270799E+04  0.12558270799E+04  0.00000000000E+00 0.  1.
          1   -1    0    0  501    0  0.00000000000E+00 -0.00000000000E+00 -0.16347990303E+04  0.16347990303E+04  0.00000000000E+00 0. -1.
         23    2    1    2    0    0  0.12297423428E+04 -0.69426938099E+02 -0.55556846127E+03  0.13543521826E+04  0.92342784644E+02 0.  0.
        254    2    1    2    0    0 -0.12297423428E+04  0.69426938099E+02  0.17659651087E+03  0.15362739276E+04  0.90103547289E+03 0.  0.
         24    2    4    4    0    0 -0.94654447249E+03  0.32580588199E+03 -0.42912691359E+02  0.10051925329E+04  0.80465011386E+02 0.  0.
         13    1    3    3    0    0  0.11430067626E+04 -0.72242381242E+02 -0.49058089169E+03  0.12459346020E+04  0.00000000000E+00 0.  1.
        -13    1    3    3    0    0  0.86735580200E+02  0.28154431426E+01 -0.64987569576E+02  0.10841758064E+03  0.00000000000E+00 0. -1.
          2    1    5    5  502    0 -0.36079286022E+03  0.15098251771E+03  0.13244481713E+02  0.39133441573E+03  0.00000000000E+00 0. -1.
          3    1    4    4  503    0  0.18311124552E+02  0.44760740471E+02 -0.63723035811E+01  0.48779374974E+02  0.00000000000E+00 0. -1.
         -4    1    4    4    0  503 -0.30150899490E+03 -0.30113968437E+03  0.22588150581E+03  0.48230201967E+03  0.00000000000E+00 0.  1.
         -1    1    5    5    0  502 -0.58575161227E+03  0.17482336428E+03 -0.56157173072E+02  0.61385811721E+03  0.00000000000E+00 0.  1.
<mgrwt>
<rscale>  0 0.28656761E+04</rscale>
<asrwt>0</asrwt>
<pdfrwt beam="1">  1        1 0.25150754E+00 0.28656761E+04</pdfrwt>
<pdfrwt beam="2">  1       -1 0.19320417E+00 0.28656761E+04</pdfrwt>
<totfact> 0.76295563E-01</totfact>
</mgrwt>
</event>
<event>
12    1  0.2045212E-008  0.1380431E+04  0.7818608E-02  0.8968106E-01
         -2   -1    0    0    0  501 -0.00000000000E+00  0.00000000000E+00  0.15613411444E+03  0.15613411444E+03  0.00000000000E+00 0. -1.
          2   -1    0    0  501    0  0.00000000000E+00 -0.00000000000E+00 -0.30512077396E+04  0.30512077396E+04  0.00000000000E+00 0.  1.
         23    2    1    2    0    0 -0.18784228878E+03  0.98006574264E+02 -0.80720434733E+02  0.24486867651E+03  0.92492519172E+02 0.  0.
        254    2    1    2    0    0  0.18784228878E+03 -0.98006574264E+02 -0.28143531905E+04  0.29624731776E+04  0.90042958252E+03 0.  0.
        -24    2    4    4    0    0  0.20639503857E+03 -0.36355141746E+03 -0.64331883540E+03  0.77373981653E+03  0.10022791340E+03 0.  0.
         24    2    4    4    0    0 -0.18552749792E+02  0.26554484319E+03 -0.21710343551E+04  0.21887333610E+04  0.79405834612E+02 0.  0.
         13    1    3    3    0    0 -0.54716358639E+02  0.25426803141E+02 -0.70651964434E+02  0.92909107730E+02  0.00000000000E+00 0.  1.
        -13    1    3    3    0    0 -0.13312593014E+03  0.72579771123E+02 -0.10068470299E+02  0.15195956879E+03  0.00000000000E+00 0. -1.
          2    1    6    6  502    0  0.18468434467E+02  0.43626379594E+02 -0.23954235861E+03  0.24418207476E+03  0.00000000000E+00 0. -1.
          3    1    5    5  503    0  0.35815016256E+02 -0.14317197791E+03 -0.17659967630E+03  0.23014859616E+03  0.00000000000E+00 0. -1.
         -4    1    5    5    0  503  0.17058002231E+03 -0.22037943955E+03 -0.46671915910E+03  0.54359122037E+03  0.00000000000E+00 0.  1.
         -1    1    6    6    0  502 -0.37021184259E+02  0.22191846360E+03 -0.19314919965E+04  0.19445512863E+04  0.00000000000E+00 0.  1.
<mgrwt>
<rscale>  0 0.13804313E+04</rscale>
<asrwt>0</asrwt>
<pdfrwt beam="1">  1        2 0.46941651E+00 0.13804313E+04</pdfrwt>
<pdfrwt beam="2">  1       -2 0.24020636E-01 0.13804313E+04</pdfrwt>
<totfact> 0.24549120E+01</totfact>
</mgrwt>
</event>
<event>
12    1  0.2792645E-008  0.2717045E+04  0.7818608E-02  0.8329496E-01
          1   -1    0    0  501    0  0.00000000000E+00  0.00000000000E+00  0.17964096538E+04  0.17964096538E+04  0.00000000000E+00 0. -1.
         -1   -1    0    0    0  501 -0.00000000000E+00 -0.00000000000E+00 -0.10273734251E+04  0.10273734251E+04  0.00000000000E+00 0.  1.
         23    2    1    2    0    0 -0.69873978594E+03  0.24615388421E+03  0.13381508775E+04  0.15323549963E+04  0.92924919530E+02 0.  0.
        254    2    1    2    0    0  0.69873978594E+03 -0.24615388421E+03 -0.56911464882E+03  0.12914280825E+04  0.89166472710E+03 0.  0.
        -24    2    4    4    0    0  0.41218273611E+03 -0.57054672508E+03 -0.25994296045E+03  0.75344977751E+03  0.68542330704E+02 0.  0.
         24    2    4    4    0    0  0.28655704983E+03  0.32439284086E+03 -0.30917168837E+03  0.53797830498E+03  0.80547288749E+02 0.  0.
         13    1    3    3    0    0 -0.80936630164E+02  0.43998196880E+02  0.11644564707E+03  0.14847952098E+03  0.00000000000E+00 0.  1.
        -13    1    3    3    0    0 -0.61780315578E+03  0.20215568733E+03  0.12217052304E+04  0.13838754754E+04  0.00000000000E+00 0. -1.
          2    1    6    6  502    0  0.19798445314E+03  0.17117102019E+03 -0.20647012195E+03  0.33335757543E+03  0.00000000000E+00 0. -1.
          1    1    5    5  503    0  0.14611241867E+03 -0.24652315969E+03 -0.82761270343E+02  0.29828163708E+03  0.00000000000E+00 0. -1.
         -2    1    5    5    0  503  0.26607031744E+03 -0.32402356539E+03 -0.17718169011E+03  0.45516814043E+03  0.00000000000E+00 0.  1.
         -1    1    6    6    0  502  0.88572596693E+02  0.15322182068E+03 -0.10270156642E+03  0.20462072955E+03  0.00000000000E+00 0.  1.
<mgrwt>
<rscale>  0 0.27170451E+04</rscale>
<asrwt>0</asrwt>
<pdfrwt beam="1">  1        1 0.27637072E+00 0.27170451E+04</pdfrwt>
<pdfrwt beam="2">  1       -1 0.15805745E+00 0.27170451E+04</pdfrwt>
<totfact> 0.10800311E+00</totfact>
</mgrwt>
</event>
<event>
11    1  0.2045212E-008  0.2986955E+04  0.7818608E-02  0.8247466E-01
          1   -1    0    0  501    0  0.00000000000E+00  0.00000000000E+00  0.22790619641E+04  0.22790619641E+04  0.00000000000E+00 0. -1.
         -1   -1    0    0    0  501 -0.00000000000E+00 -0.00000000000E+00 -0.97868124057E+03  0.97868124057E+03  0.00000000000E+00 0.  1.
         23    2    1    2    0    0 -0.70883292926E+03  0.39118381589E+03 -0.59650819402E+03  0.10096857843E+04  0.90412709257E+02 0.  0.
        254    2    1    2    0    0  0.70883292926E+03 -0.39118381589E+03  0.18968889175E+04  0.22480574204E+04  0.89448627743E+03 0.  0.
         24    2    4    4    0    0  0.81676120461E+03 -0.54500717544E+03  0.15887996686E+04  0.18692264002E+04  0.74774739506E+02 0.  0.
         11    1    3    3    0    0 -0.50892822607E+03  0.25935497057E+03 -0.37359069717E+03  0.68252688523E+03  0.00000000000E+00 0. -1.
        -11    1    3    3    0    0 -0.19990470319E+03  0.13182884532E+03 -0.22291749684E+03  0.32715889903E+03  0.00000000000E+00 0.  1.
          2    1    5    5  502    0  0.57608835785E+03 -0.37759943781E+03  0.10485774759E+04  0.12545811470E+04  0.00000000000E+00 0. -1.
          1    1    4    4  503    0 -0.10612016566E+03  0.16890122911E+03  0.25579601854E+03  0.32437743118E+03  0.00000000000E+00 0. -1.
         -2    1    4    4    0  503 -0.18081096954E+01 -0.15077869555E+02  0.52293230363E+02  0.54453588980E+02  0.00000000000E+00 0.  1.
         -1    1    5    5    0  502  0.24067284676E+03 -0.16740773763E+03  0.54022219279E+03  0.61464525327E+03  0.00000000000E+00 0.  1.
<mgrwt>
<rscale>  0 0.29869551E+04</rscale>
<asrwt>0</asrwt>
<pdfrwt beam="1">  1        1 0.35062492E+00 0.29869551E+04</pdfrwt>
<pdfrwt beam="2">  1       -1 0.15056635E+00 0.29869551E+04</pdfrwt>
<totfact> 0.56592071E-01</totfact>
</mgrwt>
</event>
<event>
11    1  0.2045212E-008  0.1447297E+04  0.7818608E-02  0.8920276E-01
          2   -1    0    0  501    0  0.00000000000E+00  0.00000000000E+00  0.28277581345E+04  0.28277581345E+04  0.00000000000E+00 0. -1.
         -2   -1    0    0    0  501 -0.00000000000E+00 -0.00000000000E+00 -0.18518814995E+03  0.18518814995E+03  0.00000000000E+00 0.  1.
         23    2    1    2    0    0  0.22748369535E+02  0.19626795946E+03  0.20757075489E+01  0.21721335369E+03  0.90214922450E+02 0.  0.
        254    2    1    2    0    0 -0.22748369535E+02 -0.19626795946E+03  0.26404942770E+04  0.27957329307E+04  0.89714769856E+03 0.  0.
         24    2    4    4    0    0 -0.16443474133E+03  0.14922242504E+03  0.21643912994E+04  0.21772538432E+04  0.80860895926E+02 0.  0.
         13    1    3    3    0    0 -0.16643143623E+02  0.10055157249E+02  0.17627300977E+02  0.26245421633E+02  0.00000000000E+00 0. -1.
        -13    1    3    3    0    0  0.39391513158E+02  0.18621280221E+03 -0.15551593428E+02  0.19096793206E+03  0.00000000000E+00 0.  1.
          2    1    5    5  502    0 -0.15508826640E+03  0.14649372642E+03  0.17799493909E+04  0.17926886557E+04  0.00000000000E+00 0. -1.
          1    1    4    4  503    0  0.42480302927E+02 -0.19282678154E+03  0.16190776630E+03  0.25534460755E+03  0.00000000000E+00 0. -1.
         -2    1    4    4    0  503  0.99206068873E+02 -0.15266360296E+03  0.31419521127E+03  0.36313447999E+03  0.00000000000E+00 0.  1.
         -1    1    5    5    0  502 -0.93464749324E+01  0.27286986255E+01  0.38444190849E+03  0.38456518744E+03  0.00000000000E+00 0.  1.
<mgrwt>
<rscale>  0 0.14472972E+04</rscale>
<asrwt>0</asrwt>
<pdfrwt beam="1">  1        2 0.43503968E+00 0.14472972E+04</pdfrwt>
<pdfrwt beam="2">  1       -2 0.28490487E-01 0.14472972E+04</pdfrwt>
<totfact> 0.24509017E+01</totfact>
</mgrwt>
</event>
<event>
12    1  0.2045212E-008  0.1527509E+04  0.7818608E-02  0.8866363E-01
         -2   -1    0    0    0  501 -0.00000000000E+00  0.00000000000E+00  0.56582426675E+03  0.56582426675E+03  0.00000000000E+00 0.  1.
          2   -1    0    0  501    0  0.00000000000E+00 -0.00000000000E+00 -0.10309221209E+04  0.10309221209E+04  0.00000000000E+00 0. -1.
         23    2    1    2    0    0  0.85095159354E+02 -0.69809864049E+02 -0.65351903795E+03  0.66905193061E+03  0.91808222018E+02 0.  0.
        254    2    1    2    0    0 -0.85095159354E+02  0.69809864049E+02  0.18842118381E+03  0.92769445702E+03  0.90166504857E+03 0.  0.
        -24    2    4    4    0    0 -0.32286235339E+03  0.22842836109E+03  0.39257407942E+03  0.56770520631E+03  0.10842129889E+03 0.  0.
         24    2    4    4    0    0  0.23776719403E+03 -0.15861849704E+03 -0.20415289561E+03  0.35998925071E+03  0.78871982852E+02 0.  0.
         13    1    3    3    0    0  0.55408419844E+02 -0.80733042210E+02 -0.59024008180E+03  0.59830700418E+03  0.00000000000E+00 0. -1.
        -13    1    3    3    0    0  0.29686739510E+02  0.10923178161E+02 -0.63278956153E+02  0.70744926431E+02  0.00000000000E+00 0.  1.
          4    1    6    6  502    0  0.14363608601E+03 -0.11694826046E+03 -0.17032275966E+03  0.25163080751E+03  0.00000000000E+00 0. -1.
          3    1    5    5  503    0 -0.10122084910E+02  0.39249747050E+02  0.66552520224E+02  0.77924560920E+02  0.00000000000E+00 0. -1.
         -4    1    5    5    0  503 -0.31274026848E+03  0.18917861404E+03  0.32602155920E+03  0.48978064539E+03  0.00000000000E+00 0.  1.
         -3    1    6    6    0  502  0.94131108028E+02 -0.41670236578E+02 -0.33830135950E+02  0.10835844320E+03  0.00000000000E+00 0.  1.
<mgrwt>
<rscale>  0 0.15275088E+04</rscale>
<asrwt>0</asrwt>
<pdfrwt beam="1">  1        2 0.15860340E+00 0.15275088E+04</pdfrwt>
<pdfrwt beam="2">  1       -2 0.87049887E-01 0.15275088E+04</pdfrwt>
<totfact> 0.26485104E+01</totfact>
</mgrwt>
</event>
<event>
12    1  0.2045212E-008  0.2192512E+04  0.7818608E-02  0.8521551E-01
         -2   -1    0    0    0  501 -0.00000000000E+00  0.00000000000E+00  0.84146452223E+03  0.84146452223E+03  0.00000000000E+00 0.  1.
          2   -1    0    0  501    0  0.00000000000E+00 -0.00000000000E+00 -0.14281974504E+04  0.14281974504E+04  0.00000000000E+00 0. -1.
         23    2    1    2    0    0  0.28933178738E+02  0.84028972987E+03 -0.60836892596E+03  0.10416238905E+04  0.89126989556E+02 0.  0.
        254    2    1    2    0    0 -0.28933178738E+02 -0.84028972987E+03  0.21635997844E+02  0.12280380821E+04  0.89481029030E+03 0.  0.
        -24    2    4    4    0    0 -0.60699856236E+02  0.16186740128E+03 -0.88805507599E+02  0.21618772971E+03  0.94684677503E+02 0.  0.
         24    2    4    4    0    0  0.31766677499E+02 -0.10021571312E+04  0.11044150544E+03  0.10118503523E+04  0.79471832115E+02 0.  0.
         11    1    3    3    0    0  0.16861633003E+01  0.61768759431E+03 -0.48730419810E+03  0.78676946357E+03  0.00000000000E+00 0.  1.
        -11    1    3    3    0    0  0.27247015437E+02  0.22260213556E+03 -0.12106472786E+03  0.25485442695E+03  0.00000000000E+00 0. -1.
          2    1    6    6  502    0  0.38494962822E+02 -0.88104583156E+03  0.12075161974E+03  0.89011492131E+03  0.00000000000E+00 0. -1.
          3    1    5    5  503    0 -0.67082513316E+02  0.12359077248E+03 -0.26971679344E+02  0.14318594247E+03  0.00000000000E+00 0. -1.
         -4    1    5    5    0  503  0.63826570796E+01  0.38276628803E+02 -0.61833828255E+02  0.73001787242E+02  0.00000000000E+00 0.  1.
         -1    1    6    6    0  502 -0.67282853238E+01 -0.12111129960E+03 -0.10310114296E+02  0.12173543104E+03  0.00000000000E+00 0.  1.
<mgrwt>
<rscale>  0 0.21925122E+04</rscale>
<asrwt>0</asrwt>
<pdfrwt beam="1">  1        2 0.21972268E+00 0.21925122E+04</pdfrwt>
<pdfrwt beam="2">  1       -2 0.12945608E+00 0.21925122E+04</pdfrwt>
<totfact> 0.55986053E+00</totfact>
</mgrwt>
</event>
<event>
11    1  0.2045212E-008  0.1308460E+04  0.7818608E-02  0.9022883E-01
          1   -1    0    0  501    0  0.00000000000E+00  0.00000000000E+00  0.13471423285E+04  0.13471423285E+04  0.00000000000E+00 0. -1.
         -1   -1    0    0    0  501 -0.00000000000E+00 -0.00000000000E+00 -0.31772223316E+03  0.31772223316E+03  0.00000000000E+00 0.  1.
         23    2    1    2    0    0 -0.67941296718E+02 -0.66597023618E+02  0.87639817905E+03  0.88726923364E+03  0.10060686545E+03 0.  0.
        254    2    1    2    0    0  0.67941296718E+02  0.66597023618E+02  0.15302191633E+03  0.77759532805E+03  0.75643083225E+03 0.  0.
         24    2    4    4    0    0 -0.57330867414E+02  0.43217058643E+02 -0.29354607105E+03  0.31256841665E+03  0.79844703891E+02 0.  0.
         13    1    3    3    0    0 -0.42378652887E+02  0.58851293562E+01  0.56148453122E+03  0.56311230120E+03  0.00000000000E+00 0. -1.
        -13    1    3    3    0    0 -0.25562643831E+02 -0.72482152974E+02  0.31491364783E+03  0.32415693244E+03  0.00000000000E+00 0.  1.
          4    1    5    5  502    0  0.16754813546E+02 -0.44649275297E+01 -0.29582159377E+02  0.34289408105E+02  0.00000000000E+00 0. -1.
          1    1    4    4  503    0  0.33534772840E+02  0.67679017232E+01  0.16212189018E+03  0.16569216263E+03  0.00000000000E+00 0. -1.
         -2    1    4    4    0  503  0.91737391292E+02  0.16612063251E+02  0.28444609721E+03  0.29933474877E+03  0.00000000000E+00 0.  1.
         -3    1    5    5    0  502 -0.74085680960E+02  0.47681986173E+02 -0.26396391168E+03  0.27827900854E+03  0.00000000000E+00 0.  1.
<mgrwt>
<rscale>  0 0.13084603E+04</rscale>
<asrwt>0</asrwt>
<pdfrwt beam="1">  1        1 0.20725266E+00 0.13084603E+04</pdfrwt>
<pdfrwt beam="2">  1       -1 0.48880344E-01 0.13084603E+04</pdfrwt>
<totfact> 0.34443892E+01</totfact>
</mgrwt>
</event>
<event>
12    1  0.2045212E-008  0.2240942E+04  0.7818608E-02  0.8501578E-01
          2   -1    0    0  501    0  0.00000000000E+00  0.00000000000E+00  0.30462805763E+04  0.30462805763E+04  0.00000000000E+00 0.  1.
         -2   -1    0    0    0  501 -0.00000000000E+00 -0.00000000000E+00 -0.41212736327E+03  0.41212736327E+03  0.00000000000E+00 0. -1.
         23    2    1    2    0    0 -0.55344423861E+03  0.12901745379E+03 -0.42059065580E+02  0.57700578506E+03  0.90667978692E+02 0.  0.
        254    2    1    2    0    0  0.55344423861E+03 -0.12901745379E+03  0.26762122786E+04  0.28814021545E+04  0.90411292834E+03 0.  0.
        -24    2    4    4    0    0  0.87193864793E+02  0.36524464633E+03  0.10529652385E+04  0.11198717079E+04  0.66109205883E+02 0.  0.
         24    2    4    4    0    0  0.46625037382E+03 -0.49426210012E+03  0.16232470401E+04  0.17615304466E+04  0.79838124645E+02 0.  0.
         13    1    3    3    0    0 -0.20166294838E+03  0.32015484557E+02  0.25889600567E+02  0.20582324315E+03  0.00000000000E+00 0.  1.
        -13    1    3    3    0    0 -0.35178129023E+03  0.97001969233E+02 -0.67948666146E+02  0.37118254191E+03  0.00000000000E+00 0. -1.
          4    1    6    6  502    0  0.44586082277E+03 -0.44573336032E+03  0.15222530266E+04  0.16476420664E+04  0.00000000000E+00 0. -1.
          1    1    5    5  503    0  0.79542669470E+02  0.20829045035E+03  0.57371561402E+03  0.61551730580E+03  0.00000000000E+00 0. -1.
         -2    1    5    5    0  503  0.76511953227E+01  0.15695419598E+03  0.47924962444E+03  0.50435440213E+03  0.00000000000E+00 0.  1.
         -3    1    6    6    0  502  0.20389551045E+02 -0.48528739799E+02  0.10099401351E+03  0.11388838019E+03  0.00000000000E+00 0.  1.
<mgrwt>
<rscale>  0 0.22409423E+04</rscale>
<asrwt>0</asrwt>
<pdfrwt beam="1">  1        2 0.46865854E+00 0.22409423E+04</pdfrwt>
<pdfrwt beam="2">  1       -2 0.63404212E-01 0.22409423E+04</pdfrwt>
<totfact> 0.34194904E+00</totfact>
</mgrwt>
</event>
<event>
11    1  0.2045212E-008  0.2140062E+04  0.7818608E-02  0.8543798E-01
          1   -1    0    0  501    0  0.00000000000E+00  0.00000000000E+00  0.11334858699E+04  0.11334858699E+04  0.00000000000E+00 0. -1.
         -1   -1    0    0    0  501 -0.00000000000E+00 -0.00000000000E+00 -0.10101285041E+04  0.10101285041E+04  0.00000000000E+00 0.  1.
         23    2    1    2    0    0 -0.27756199118E+03 -0.10893734760E+03  0.88114514770E+03  0.93430000054E+03  0.87130448456E+02 0.  0.
        254    2    1    2    0    0  0.27756199118E+03  0.10893734760E+03 -0.75778778196E+03  0.12093143734E+04  0.89403071908E+03 0.  0.
         24    2    4    4    0    0  0.23436748911E+03  0.38618627435E+03 -0.69750472400E+03  0.83455577868E+03  0.76828050079E+02 0.  0.
         11    1    3    3    0    0 -0.22334575566E+03 -0.47474595554E+02  0.62836703333E+03  0.66856734319E+03  0.00000000000E+00 0. -1.
        -11    1    3    3    0    0 -0.54216235525E+02 -0.61462752049E+02  0.25277811437E+03  0.26573265736E+03  0.00000000000E+00 0.  1.
          4    1    5    5  502    0  0.70637810341E+02  0.12547155340E+03 -0.16099583880E+03  0.21599183103E+03  0.00000000000E+00 0. -1.
          1    1    4    4  503    0 -0.24183630142E+02  0.39000815127E+02 -0.14859157850E+02  0.48235942195E+02  0.00000000000E+00 0. -1.
         -2    1    4    4    0  503  0.67378132211E+02 -0.31624974187E+03 -0.45423900111E+02  0.32652265256E+03  0.00000000000E+00 0.  1.
         -3    1    5    5    0  502  0.16372967877E+03  0.26071472095E+03 -0.53650888520E+03  0.61856394764E+03  0.00000000000E+00 0.  1.
<mgrwt>
<rscale>  0 0.21400620E+04</rscale>
<asrwt>0</asrwt>
<pdfrwt beam="1">  1        1 0.17438244E+00 0.21400620E+04</pdfrwt>
<pdfrwt beam="2">  1       -1 0.15540439E+00 0.21400620E+04</pdfrwt>
<totfact> 0.34751209E+00</totfact>
</mgrwt>
</event>
<event>
12    1  0.2045212E-008  0.3450131E+04  0.7818608E-02  0.8125711E-01
          1   -1    0    0  501    0  0.00000000000E+00  0.00000000000E+00  0.21888856934E+04  0.21888856934E+04  0.00000000000E+00 0. -1.
         -1   -1    0    0    0  501 -0.00000000000E+00 -0.00000000000E+00 -0.13595279218E+04  0.13595279218E+04  0.00000000000E+00 0.  1.
         23    2    1    2    0    0 -0.98665217895E+03 -0.66806344011E+02  0.16874078991E+04  0.19579743425E+04  0.91501355167E+02 0.  0.
        254    2    1    2    0    0  0.98665217895E+03  0.66806344011E+02 -0.85805012751E+03  0.15904392726E+04  0.90294044589E+03 0.  0.
        -24    2    4    4    0    0  0.61729809148E+03  0.33050768160E+03 -0.87949970286E+03  0.11288331360E+04  0.10223629574E+03 0.  0.
         24    2    4    4    0    0  0.36935408746E+03 -0.26370133759E+03  0.21449575355E+02  0.46160613668E+03  0.81604557273E+02 0.  0.
         11    1    3    3    0    0 -0.92897346689E+03 -0.57596107333E+02  0.16236238994E+04  0.18714869971E+04  0.00000000000E+00 0. -1.
        -11    1    3    3    0    0 -0.57678712057E+02 -0.92102366775E+01  0.63783999711E+02  0.86487345336E+02  0.00000000000E+00 0.  1.
          2    1    6    6  502    0  0.22366114821E+03 -0.14118397627E+03 -0.24963261020E+02  0.26566969864E+03  0.00000000000E+00 0. -1.
          1    1    5    5  503    0  0.12582682129E+01 -0.47730204192E+01 -0.16472609233E+01  0.52036940116E+01  0.00000000000E+00 0. -1.
         -2    1    5    5    0  503  0.61603982327E+03  0.33528070202E+03 -0.87785244194E+03  0.11236294420E+04  0.00000000000E+00 0.  1.
         -1    1    6    6    0  502  0.14569293925E+03 -0.12251736131E+03  0.46412836375E+02  0.19593643804E+03  0.00000000000E+00 0.  1.
<mgrwt>
<rscale>  0 0.34501311E+04</rscale>
<asrwt>0</asrwt>
<pdfrwt beam="1">  1        1 0.33675165E+00 0.34501311E+04</pdfrwt>
<pdfrwt beam="2">  1       -1 0.20915814E+00 0.34501311E+04</pdfrwt>
<totfact> 0.23659293E-01</totfact>
</mgrwt>
</event>
<event>
11    1  0.2045212E-008  0.2078134E+04  0.7818608E-02  0.8570937E-01
         -2   -1    0    0    0  501 -0.00000000000E+00  0.00000000000E+00  0.75386365254E+03  0.75386365254E+03  0.00000000000E+00 0.  1.
          2   -1    0    0  501    0  0.00000000000E+00 -0.00000000000E+00 -0.14321684297E+04  0.14321684297E+04  0.00000000000E+00 0. -1.
         23    2    1    2    0    0 -0.58145920211E+03 -0.57310999083E+03 -0.48012580518E+03  0.95146031556E+03  0.90587405172E+02 0.  0.
        254    2    1    2    0    0  0.58145920211E+03  0.57310999083E+03 -0.19817897194E+03  0.12345717666E+04  0.90462294729E+03 0.  0.
         24    2    4    4    0    0  0.64018067565E+03  0.66735416696E+03 -0.34204931679E+03  0.98937921144E+03  0.81734981976E+02 0.  0.
         13    1    3    3    0    0 -0.35731323290E+03 -0.36018264038E+03 -0.34811996445E+03  0.61529813138E+03  0.00000000000E+00 0. -1.
        -13    1    3    3    0    0 -0.22414596921E+03 -0.21292735045E+03 -0.13200584074E+03  0.33616218418E+03  0.00000000000E+00 0.  1.
          4    1    5    5  502    0  0.62386898312E+03  0.63931283861E+03 -0.31514116193E+03  0.94723142138E+03  0.00000000000E+00 0. -1.
          1    1    4    4  503    0 -0.10384807313E+03 -0.10840386200E+03  0.12015588473E+03  0.19228431091E+03  0.00000000000E+00 0. -1.
         -2    1    4    4    0  503  0.45126599590E+02  0.14159685867E+02  0.23714460121E+02  0.52908244285E+02  0.00000000000E+00 0.  1.
         -3    1    5    5    0  502  0.16311692533E+02  0.28041328353E+02 -0.26908154861E+02  0.42147790063E+02  0.00000000000E+00 0.  1.
<mgrwt>
<rscale>  0 0.20781335E+04</rscale>
<asrwt>0</asrwt>
<pdfrwt beam="1">  1        2 0.22033360E+00 0.20781335E+04</pdfrwt>
<pdfrwt beam="2">  1       -2 0.11597902E+00 0.20781335E+04</pdfrwt>
<totfact> 0.73969604E+00</totfact>
</mgrwt>
</event>
<event>
12    1  0.2045212E-008  0.1500309E+04  0.7818608E-02  0.8884248E-01
          2   -1    0    0  501    0  0.00000000000E+00  0.00000000000E+00  0.54787720578E+03  0.54787720578E+03  0.00000000000E+00 0. -1.
         -2   -1    0    0    0  501 -0.00000000000E+00 -0.00000000000E+00 -0.10271123152E+04  0.10271123152E+04  0.00000000000E+00 0.  1.
         23    2    1    2    0    0  0.42329275421E+03 -0.21109865412E+03 -0.24082924811E+03  0.53796761213E+03  0.87584401693E+02 0.  0.
        254    2    1    2    0    0 -0.42329275421E+03  0.21109865412E+03 -0.23840586135E+03  0.10370219089E+04  0.89153669989E+03 0.  0.
        -24    2    4    4    0    0  0.14310213151E+03 -0.34138673268E+02 -0.36213740918E+03  0.40250153026E+03  0.96022443605E+02 0.  0.
         24    2    4    4    0    0 -0.56639488572E+03  0.24523732738E+03  0.12373154784E+03  0.63452037863E+03  0.79762783639E+02 0.  0.
         13    1    3    3    0    0  0.40930487684E+03 -0.18867311715E+03 -0.20958936381E+03  0.49704700860E+03  0.00000000000E+00 0.  1.
        -13    1    3    3    0    0  0.13987877365E+02 -0.22425536971E+02 -0.31239884305E+02  0.40920603527E+02  0.00000000000E+00 0. -1.
          2    1    6    6  502    0 -0.30690118277E+03  0.89692476707E+02  0.59195580586E+02  0.32517255899E+03  0.00000000000E+00 0. -1.
          3    1    5    5  503    0  0.23780038840E+02 -0.47495041551E+01 -0.49285828394E+01  0.24745483745E+02  0.00000000000E+00 0. -1.
         -4    1    5    5    0  503  0.11932209267E+03 -0.29389169113E+02 -0.35720882634E+03  0.37775604651E+03  0.00000000000E+00 0.  1.
         -1    1    6    6    0  502 -0.25949370295E+03  0.15554485068E+03  0.64535967249E+02  0.30934781964E+03  0.00000000000E+00 0.  1.
<mgrwt>
<rscale>  0 0.15003085E+04</rscale>
<asrwt>0</asrwt>
<pdfrwt beam="1">  1        2 0.84288801E-01 0.15003085E+04</pdfrwt>
<pdfrwt beam="2">  1       -2 0.15801728E+00 0.15003085E+04</pdfrwt>
<totfact> 0.13911260E+01</totfact>
</mgrwt>
</event>
<event>
11    1  0.2045212E-008  0.1221289E+04  0.7818608E-02  0.9094424E-01
         -1   -1    0    0    0  501 -0.00000000000E+00  0.00000000000E+00  0.47706857930E+03  0.47706857930E+03  0.00000000000E+00 0.  1.
          1   -1    0    0  501    0  0.00000000000E+00 -0.00000000000E+00 -0.78162089684E+03  0.78162089684E+03  0.00000000000E+00 0. -1.
         23    2    1    2    0    0 -0.25011760701E+03 -0.41884549302E+02  0.67840378460E+02  0.27785547571E+03  0.91039637670E+02 0.  0.
        254    2    1    2    0    0  0.25011760701E+03  0.41884549302E+02 -0.37239269600E+03  0.98083400043E+03  0.87123239354E+03 0.  0.
         24    2    4    4    0    0  0.29603714637E+03 -0.31614133641E+03  0.26885148358E+02  0.44133928117E+03  0.80462496146E+02 0.  0.
         13    1    3    3    0    0 -0.24476434089E+01  0.13734101464E+02  0.10913618885E+02  0.17712243744E+02  0.00000000000E+00 0. -1.
        -13    1    3    3    0    0 -0.24766996360E+03 -0.55618650766E+02  0.56926759575E+02  0.26014323197E+03  0.00000000000E+00 0.  1.
          2    1    5    5  502    0  0.26402822207E+03 -0.27009013941E+03  0.49372028926E+02  0.38091624105E+03  0.00000000000E+00 0. -1.
          1    1    4    4  503    0 -0.27196457199E+02  0.23365528443E+03 -0.28520028153E+03  0.36969398130E+03  0.00000000000E+00 0. -1.
         -2    1    4    4    0  503 -0.18723082162E+02  0.12437060128E+03 -0.11407756283E+03  0.16980073795E+03  0.00000000000E+00 0.  1.
         -1    1    5    5    0  502  0.32008924304E+02 -0.46051196998E+02 -0.22486880568E+02  0.60423040123E+02  0.00000000000E+00 0.  1.
<mgrwt>
<rscale>  0 0.12212891E+04</rscale>
<asrwt>0</asrwt>
<pdfrwt beam="1">  1        1 0.12024937E+00 0.12212891E+04</pdfrwt>
<pdfrwt beam="2">  1       -1 0.73395166E-01 0.12212891E+04</pdfrwt>
<totfact> 0.42434069E+01</totfact>
</mgrwt>
</event>
<event>
12    1  0.2045212E-008  0.2157949E+04  0.7818608E-02  0.8536137E-01
          1   -1    0    0  501    0  0.00000000000E+00  0.00000000000E+00  0.16137273854E+04  0.16137273854E+04  0.00000000000E+00 0. -1.
         -1   -1    0    0    0  501 -0.00000000000E+00 -0.00000000000E+00 -0.72142661134E+03  0.72142661134E+03  0.00000000000E+00 0.  1.
         23    2    1    2    0    0  0.43613388715E+03 -0.35186117958E+03  0.11205266957E+04  0.12559608076E+04  0.88534836159E+02 0.  0.
        254    2    1    2    0    0 -0.43613388715E+03  0.35186117958E+03 -0.22822592165E+03  0.10791931891E+04  0.89361726199E+03 0.  0.
        -24    2    4    4    0    0 -0.11620783914E+03 -0.29315728812E+03 -0.37312849595E+02  0.33022540385E+03  0.90615181670E+02 0.  0.
         24    2    4    4    0    0 -0.31992604802E+03  0.64501846770E+03 -0.19091307206E+03  0.74896778527E+03  0.78124531484E+02 0.  0.
         11    1    3    3    0    0  0.39598209990E+03 -0.32575832982E+03  0.10690043413E+04  0.11856182331E+04  0.00000000000E+00 0. -1.
        -11    1    3    3    0    0  0.40151787251E+02 -0.26102849757E+02  0.51522354343E+02  0.70342574462E+02  0.00000000000E+00 0.  1.
          4    1    6    6  502    0 -0.13816390278E+03  0.36331752258E+03 -0.11279150267E+03  0.40473548068E+03  0.00000000000E+00 0. -1.
          1    1    5    5  503    0 -0.46110941351E+02 -0.88519409167E+02  0.29072557984E+02  0.10395729094E+03  0.00000000000E+00 0. -1.
         -2    1    5    5    0  503 -0.70096897786E+02 -0.20463787896E+03 -0.66385407579E+02  0.22626811291E+03  0.00000000000E+00 0.  1.
         -3    1    6    6    0  502 -0.18176214524E+03  0.28170094512E+03 -0.78121569388E+02  0.34423230459E+03  0.00000000000E+00 0.  1.
<mgrwt>
<rscale>  0 0.21579489E+04</rscale>
<asrwt>0</asrwt>
<pdfrwt beam="1">  1        1 0.24826575E+00 0.21579489E+04</pdfrwt>
<pdfrwt beam="2">  1       -1 0.11098871E+00 0.21579489E+04</pdfrwt>
<totfact> 0.37329288E+00</totfact>
</mgrwt>
</event>
<event>
12    1  0.2045212E-008  0.1496622E+04  0.7818608E-02  0.8886702E-01
          2   -1    0    0  501    0  0.00000000000E+00  0.00000000000E+00  0.17764493743E+04  0.17764493743E+04  0.00000000000E+00 0. -1.
         -2   -1    0    0    0  501 -0.00000000000E+00 -0.00000000000E+00 -0.31521842380E+03  0.31521842380E+03  0.00000000000E+00 0.  1.
         23    2    1    2    0    0  0.19895395549E+03 -0.37762776051E+03  0.18016377066E+03  0.47199765610E+03  0.90207545127E+02 0.  0.
        254    2    1    2    0    0 -0.19895395549E+03  0.37762776051E+03  0.12810671799E+04  0.16196701420E+04  0.89443437307E+03 0.  0.
        -24    2    4    4    0    0 -0.13873849814E+03  0.26484939397E+03 -0.22761499548E+02  0.30712461639E+03  0.66436975976E+02 0.  0.
         24    2    4    4    0    0 -0.60215457345E+02  0.11277836654E+03  0.13038286794E+04  0.13125455257E+04  0.80384515499E+02 0.  0.
         13    1    3    3    0    0 -0.23691721131E+01 -0.12636252586E+02  0.23327200515E+02  0.26635430159E+02  0.00000000000E+00 0. -1.
        -13    1    3    3    0    0  0.20132312760E+03 -0.36499150792E+03  0.15683657014E+03  0.44536222594E+03  0.00000000000E+00 0.  1.
          2    1    6    6  502    0 -0.52302943367E+02  0.11869824222E+03  0.12824554041E+04  0.12889983453E+04  0.00000000000E+00 0. -1.
          1    1    5    5  503    0 -0.14086113503E+03  0.21932270348E+03 -0.21194547741E+02  0.26152154113E+03  0.00000000000E+00 0. -1.
         -2    1    5    5    0  503  0.21226368907E+01  0.45526690494E+02 -0.15669518067E+01  0.45603075255E+02  0.00000000000E+00 0.  1.
         -3    1    6    6    0  502 -0.79125139784E+01 -0.59198756801E+01  0.21373275298E+02  0.23547180351E+02  0.00000000000E+00 0.  1.
<mgrwt>
<rscale>  0 0.14966223E+04</rscale>
<asrwt>0</asrwt>
<pdfrwt beam="1">  1        2 0.27329990E+00 0.14966223E+04</pdfrwt>
<pdfrwt beam="2">  1       -2 0.48495143E-01 0.14966223E+04</pdfrwt>
<totfact> 0.34609530E+01</totfact>
</mgrwt>
</event>
<event>
12    1  0.2045212E-008  0.2158517E+04  0.7818608E-02  0.8535895E-01
          2   -1    0    0  501    0  0.00000000000E+00  0.00000000000E+00  0.31362257584E+04  0.31362257584E+04  0.00000000000E+00 0. -1.
         -2   -1    0    0    0  501 -0.00000000000E+00 -0.00000000000E+00 -0.37140159314E+03  0.37140159314E+03  0.00000000000E+00 0.  1.
         23    2    1    2    0    0  0.50882259616E+03 -0.23314369918E+03  0.18137013929E+02  0.56739366463E+03  0.91379431825E+02 0.  0.
        254    2    1    2    0    0 -0.50882259616E+03  0.23314369918E+03  0.27466871513E+04  0.29402336869E+04  0.88737106531E+03 0.  0.
        -24    2    4    4    0    0 -0.18233540019E+03 -0.28965923170E+03  0.52589003473E+03  0.63412786397E+03  0.91701420728E+02 0.  0.
         24    2    4    4    0    0 -0.32648719597E+03  0.52280293088E+03  0.22207971166E+04  0.23061058230E+04  0.79167163996E+02 0.  0.
         13    1    3    3    0    0  0.71262356635E+02 -0.45156621033E+02  0.33846938401E+02  0.90901370372E+02  0.00000000000E+00 0. -1.
        -13    1    3    3    0    0  0.43756023952E+03 -0.18798707815E+03 -0.15709924472E+02  0.47649229426E+03  0.00000000000E+00 0.  1.
          4    1    6    6  502    0 -0.99828378855E+01  0.21418236280E+01  0.67225681603E+02  0.67996593501E+02  0.00000000000E+00 0. -1.
          1    1    5    5  503    0 -0.24887975490E+02 -0.75393025467E+02  0.18863465324E+03  0.20466204342E+03  0.00000000000E+00 0. -1.
         -2    1    5    5    0  503 -0.15744742470E+03 -0.21426620623E+03  0.33725538149E+03  0.42946582055E+03  0.00000000000E+00 0.  1.
         -3    1    6    6    0  502 -0.31650435808E+03  0.52066110725E+03  0.21535714350E+04  0.22381092295E+04  0.00000000000E+00 0.  1.
<mgrwt>
<rscale>  0 0.21585173E+04</rscale>
<asrwt>0</asrwt>
<pdfrwt beam="1">  1        2 0.48249625E+00 0.21585173E+04</pdfrwt>
<pdfrwt beam="2">  1       -2 0.57138709E-01 0.21585173E+04</pdfrwt>
<totfact> 0.37630934E+00</totfact>
</mgrwt>
</event>
<event>
11    1  0.2045212E-008  0.4779192E+04  0.7818608E-02  0.7863502E-01
          2   -1    0    0  501    0  0.00000000000E+00  0.00000000000E+00  0.38149372562E+04  0.38149372562E+04  0.00000000000E+00 0. -1.
         -2   -1    0    0    0  501 -0.00000000000E+00 -0.00000000000E+00 -0.14967920901E+04  0.14967920901E+04  0.00000000000E+00 0.  1.
         23    2    1    2    0    0  0.10099166775E+04 -0.10050392042E+04 -0.89049539541E+03  0.16827915497E+04  0.93647493212E+02 0.  0.
        254    2    1    2    0    0 -0.10099166775E+04  0.10050392042E+04  0.32086405615E+04  0.36289377967E+04  0.91857486456E+03 0.  0.
         24    2    4    4    0    0 -0.89232994338E+03  0.30274612964E+03  0.21406996515E+04  0.23402715110E+04  0.79798500368E+02 0.  0.
         11    1    3    3    0    0  0.97455703598E+03 -0.95039309133E+03 -0.86531073429E+03  0.16130006545E+04  0.00000000000E+00 0.  1.
        -11    1    3    3    0    0  0.35359641518E+02 -0.54646112875E+02 -0.25184661119E+02  0.69790895225E+02  0.00000000000E+00 0. -1.
          4    1    5    5  502    0 -0.96869788105E+02  0.10911114902E+02  0.19178294283E+03  0.21513601613E+03  0.00000000000E+00 0. -1.
          3    1    4    4  503    0 -0.15737420378E+02  0.28777997352E+02  0.98677420447E+02  0.10398592615E+03  0.00000000000E+00 0. -1.
         -4    1    4    4    0  503 -0.10184931374E+03  0.67351507722E+03  0.96926348959E+03  0.11846803595E+04  0.00000000000E+00 0.  1.
         -3    1    5    5    0  502 -0.79546015528E+03  0.29183501474E+03  0.19489167086E+04  0.21251354949E+04  0.00000000000E+00 0.  1.
<mgrwt>
<rscale>  0 0.47791915E+04</rscale>
<asrwt>0</asrwt>
<pdfrwt beam="1">  1        2 0.58691342E+00 0.47791915E+04</pdfrwt>
<pdfrwt beam="2">  1       -2 0.23027571E+00 0.47791915E+04</pdfrwt>
<totfact> 0.30082111E-02</totfact>
</mgrwt>
</event>
<event>
11    1  0.2045212E-008  0.2570810E+04  0.7818608E-02  0.8378185E-01
         -2   -1    0    0    0  501 -0.00000000000E+00  0.00000000000E+00  0.10407849549E+04  0.10407849549E+04  0.00000000000E+00 0.  1.
          2   -1    0    0  501    0  0.00000000000E+00 -0.00000000000E+00 -0.15875188214E+04  0.15875188214E+04  0.00000000000E+00 0. -1.
         23    2    1    2    0    0  0.46297727167E+03  0.96521227020E+03 -0.60732118933E+03  0.12342058893E+04  0.91882911823E+02 0.  0.
        254    2    1    2    0    0 -0.46297727167E+03 -0.96521227020E+03  0.60587322810E+02  0.13940978870E+04  0.89098564190E+03 0.  0.
         24    2    4    4    0    0 -0.45599465360E+03 -0.99328103856E+02  0.19083165182E+03  0.51051460346E+03  0.80070248391E+02 0.  0.
         13    1    3    3    0    0  0.41503317131E+03  0.91269679597E+03 -0.55564104640E+03  0.11463005483E+04  0.00000000000E+00 0. -1.
        -13    1    3    3    0    0  0.47944100363E+02  0.52515474229E+02 -0.51680142933E+02  0.87905340945E+02  0.00000000000E+00 0.  1.
          4    1    5    5  502    0 -0.85033966440E+02  0.12620032399E+02  0.31618064995E+02  0.91595538648E+02  0.00000000000E+00 0. -1.
          1    1    4    4  503    0 -0.41798165904E+02 -0.11720253532E+03 -0.19846456040E+02  0.12600556645E+03  0.00000000000E+00 0. -1.
         -2    1    4    4    0  503  0.34815547836E+02 -0.74868163103E+03 -0.11039787297E+03  0.75757771705E+03  0.00000000000E+00 0.  1.
         -3    1    5    5    0  502 -0.37096068716E+03 -0.11194813625E+03  0.15921358682E+03  0.41891906481E+03  0.00000000000E+00 0.  1.
<mgrwt>
<rscale>  0 0.25708098E+04</rscale>
<asrwt>0</asrwt>
<pdfrwt beam="1">  1        2 0.24423366E+00 0.25708098E+04</pdfrwt>
<pdfrwt beam="2">  1       -2 0.16012076E+00 0.25708098E+04</pdfrwt>
<totfact> 0.25264382E+00</totfact>
</mgrwt>
</event>
<event>
12    1  0.2045212E-008  0.3394284E+04  0.7818608E-02  0.8139311E-01
          1   -1    0    0  501    0  0.00000000000E+00  0.00000000000E+00  0.32149364372E+04  0.32149364372E+04  0.00000000000E+00 0. -1.
         -1   -1    0    0    0  501 -0.00000000000E+00 -0.00000000000E+00 -0.89590929706E+03  0.89590929706E+03  0.00000000000E+00 0.  1.
         23    2    1    2    0    0 -0.77954602158E+03 -0.13570155599E+04  0.83692052261E+03  0.17770423046E+04  0.90885431776E+02 0.  0.
        254    2    1    2    0    0  0.77954602158E+03  0.13570155599E+04  0.14821066175E+04  0.23338034296E+04  0.89488278158E+03 0.  0.
        -24    2    4    4    0    0  0.53712920719E+03  0.27369695716E+03  0.87073152948E+03  0.10636523799E+04  0.98818922005E+02 0.  0.
         24    2    4    4    0    0  0.24241681439E+03  0.10833186027E+04  0.61137508805E+03  0.12701510497E+04  0.84611368879E+02 0.  0.
         13    1    3    3    0    0 -0.26083020867E+02 -0.70050343973E+02  0.57740139454E+02  0.94452625016E+02  0.00000000000E+00 0. -1.
        -13    1    3    3    0    0 -0.75346300071E+03 -0.12869652159E+04  0.77918038315E+03  0.16825896796E+04  0.00000000000E+00 0.  1.
          2    1    6    6  502    0  0.11023426075E+03  0.66269731906E+03  0.34823175358E+03  0.75669325565E+03  0.00000000000E+00 0. -1.
          1    1    5    5  503    0  0.52039603309E+03  0.28232245783E+03  0.84520598065E+03  0.10319356333E+04  0.00000000000E+00 0. -1.
         -2    1    5    5    0  503  0.16733174096E+02 -0.86255006719E+01  0.25525548830E+02  0.31716746685E+02  0.00000000000E+00 0.  1.
         -1    1    6    6    0  502  0.13218255363E+03  0.42062128369E+03  0.26314333447E+03  0.51345779403E+03  0.00000000000E+00 0.  1.
<mgrwt>
<rscale>  0 0.33942843E+04</rscale>
<asrwt>0</asrwt>
<pdfrwt beam="1">  1        1 0.49460560E+00 0.33942843E+04</pdfrwt>
<pdfrwt beam="2">  1       -1 0.13783220E+00 0.33942843E+04</pdfrwt>
<totfact> 0.14869431E-01</totfact>
</mgrwt>
</event>
<event>
11    1  0.2045212E-008  0.1614670E+04  0.7818608E-02  0.8811586E-01
          1   -1    0    0  501    0  0.00000000000E+00  0.00000000000E+00  0.45111699259E+03  0.45111699259E+03  0.00000000000E+00 0. -1.
         -1   -1    0    0    0  501 -0.00000000000E+00 -0.00000000000E+00 -0.14448359697E+04  0.14448359697E+04  0.00000000000E+00 0.  1.
         23    2    1    2    0    0  0.27570562041E+03 -0.43000067900E+03 -0.57238256996E+03  0.77335034075E+03  0.97646147251E+02 0.  0.
        254    2    1    2    0    0 -0.27570562041E+03  0.43000067900E+03 -0.42133640713E+03  0.11226026215E+04  0.90653080741E+03 0.  0.
         24    2    4    4    0    0 -0.29612975199E+02  0.11703523835E+03 -0.63817696103E+03  0.65432681634E+03  0.79369853677E+02 0.  0.
         11    1    3    3    0    0  0.11317979426E+03 -0.19497410589E+03 -0.18299391649E+03  0.29036415286E+03  0.00000000000E+00 0. -1.
        -11    1    3    3    0    0  0.16252582615E+03 -0.23502657311E+03 -0.38938865347E+03  0.48298618788E+03  0.00000000000E+00 0.  1.
          4    1    5    5  502    0 -0.12125953383E+02  0.84718496656E+01 -0.13439857983E+02  0.19986014230E+02  0.00000000000E+00 0. -1.
          3    1    4    4  503    0 -0.94695544015E+02  0.79590920516E+02  0.15050710527E+02  0.12461334027E+03  0.00000000000E+00 0. -1.
         -2    1    4    4    0  503 -0.15139710119E+03  0.23337452013E+03  0.20178984338E+03  0.34366246491E+03  0.00000000000E+00 0.  1.
         -3    1    5    5    0  502 -0.17487021816E+02  0.10856338868E+03 -0.62473710305E+03  0.63434080211E+03  0.00000000000E+00 0.  1.
<mgrwt>
<rscale>  0 0.16146703E+04</rscale>
<asrwt>0</asrwt>
<pdfrwt beam="1">  1        1 0.69402614E-01 0.16146703E+04</pdfrwt>
<pdfrwt beam="2">  1       -1 0.22228246E+00 0.16146703E+04</pdfrwt>
<totfact> 0.51958808E+00</totfact>
</mgrwt>
</event>
<event>
11    1  0.2045212E-008  0.1993168E+04  0.7818608E-02  0.8609822E-01
         -2   -1    0    0    0  501 -0.00000000000E+00  0.00000000000E+00  0.63626212791E+03  0.63626212791E+03  0.00000000000E+00 0.  1.
          2   -1    0    0  501    0  0.00000000000E+00 -0.00000000000E+00 -0.15609593598E+04  0.15609593598E+04  0.00000000000E+00 0. -1.
         23    2    1    2    0    0  0.61393230795E+03 -0.46411185431E+03 -0.16737963674E+03  0.79274401910E+03  0.90080214029E+02 0.  0.
        254    2    1    2    0    0 -0.61393230795E+03  0.46411185431E+03 -0.75731759519E+03  0.14044774687E+04  0.89817277174E+03 0.  0.
         24    2    4    4    0    0 -0.62468393381E+03  0.62314978655E+03 -0.36460483444E+03  0.95797546990E+03  0.78959749134E+02 0.  0.
         11    1    3    3    0    0  0.86357689397E+02 -0.38080808681E+02 -0.43079516451E+00  0.94382117439E+02  0.00000000000E+00 0. -1.
        -11    1    3    3    0    0  0.52757461856E+03 -0.42603104563E+03 -0.16694884158E+03  0.69836190166E+03  0.00000000000E+00 0.  1.
          4    1    5    5  502    0 -0.79524355148E+02  0.49024426080E+02 -0.50751054481E+02  0.10631644720E+03  0.00000000000E+00 0. -1.
          3    1    4    4  503    0  0.68547433445E+02 -0.38113675432E+02 -0.14664297261E+03  0.16629962207E+03  0.00000000000E+00 0. -1.
         -4    1    4    4    0  503 -0.57795807591E+02 -0.12092425681E+03 -0.24606978814E+03  0.28020237668E+03  0.00000000000E+00 0.  1.
         -3    1    5    5    0  502 -0.54515957866E+03  0.57412536047E+03 -0.31385377996E+03  0.85165902270E+03  0.00000000000E+00 0.  1.
<mgrwt>
<rscale>  0 0.19931677E+04</rscale>
<asrwt>0</asrwt>
<pdfrwt beam="1">  1        2 0.24014759E+00 0.19931677E+04</pdfrwt>
<pdfrwt beam="2">  1       -2 0.97886483E-01 0.19931677E+04</pdfrwt>
<totfact> 0.94725481E+00</totfact>
</mgrwt>
</event>
<event>
12    1  0.2045212E-008  0.1458772E+04  0.7818608E-02  0.8912342E-01
         -2   -1    0    0    0  501 -0.00000000000E+00  0.00000000000E+00  0.19577678399E+03  0.19577678399E+03  0.00000000000E+00 0.  1.
          2   -1    0    0  501    0  0.00000000000E+00 -0.00000000000E+00 -0.27174005759E+04  0.27174005759E+04  0.00000000000E+00 0. -1.
         23    2    1    2    0    0  0.26134629844E+03  0.32312122215E+03 -0.11062122106E+04  0.11852632338E+04  0.91838262847E+02 0.  0.
        254    2    1    2    0    0 -0.26134629844E+03 -0.32312122215E+03 -0.14154115813E+04  0.17279141261E+04  0.89977112136E+03 0.  0.
        -24    2    4    4    0    0 -0.88526539697E+02  0.29586213805E+03 -0.31069052426E+03  0.44735380510E+03  0.90694388543E+02 0.  0.
         24    2    4    4    0    0 -0.17281975874E+03 -0.61898336020E+03 -0.11047210570E+04  0.12805603210E+04  0.80118990581E+02 0.  0.
         13    1    3    3    0    0  0.22093375413E+02  0.77668886217E+02 -0.16801488857E+03  0.18641238131E+03  0.00000000000E+00 0.  1.
        -13    1    3    3    0    0  0.23925292303E+03  0.24545233593E+03 -0.93819732206E+03  0.99885085249E+03  0.00000000000E+00 0. -1.
          4    1    6    6  502    0 -0.43494337743E+02 -0.97637518012E+02 -0.13706292305E+03  0.17381336892E+03  0.00000000000E+00 0. -1.
          3    1    5    5  503    0 -0.10119633930E+03  0.28661581105E+03 -0.30519019421E+03  0.43073237269E+03  0.00000000000E+00 0. -1.
         -4    1    5    5    0  503  0.12669799606E+02  0.92463269999E+01 -0.55003300407E+01  0.16621432417E+02  0.00000000000E+00 0.  1.
         -3    1    6    6    0  502 -0.12932542100E+03 -0.52134584219E+03 -0.96765813396E+03  0.11067469521E+04  0.00000000000E+00 0.  1.
<mgrwt>
<rscale>  0 0.14587720E+04</rscale>
<asrwt>0</asrwt>
<pdfrwt beam="1">  1        2 0.41806161E+00 0.14587720E+04</pdfrwt>
<pdfrwt beam="2">  1       -2 0.30119506E-01 0.14587720E+04</pdfrwt>
<totfact> 0.25704391E+01</totfact>
</mgrwt>
</event>
<event>
11    1  0.2045212E-008  0.1522446E+04  0.7818608E-02  0.8869663E-01
         -3   -1    0    0    0  501 -0.00000000000E+00  0.00000000000E+00  0.87557079339E+03  0.87557079339E+03  0.00000000000E+00 0.  1.
          3   -1    0    0  501    0  0.00000000000E+00 -0.00000000000E+00 -0.66180848177E+03  0.66180848177E+03  0.00000000000E+00 0. -1.
         23    2    1    2    0    0 -0.21491012263E+03 -0.43433251869E+03  0.13715624553E+03  0.51171608800E+03  0.90611375792E+02 0.  0.
        254    2    1    2    0    0  0.21491012263E+03  0.43433251869E+03  0.76606066083E+02  0.10256631872E+04  0.90071382055E+03 0.  0.
         24    2    4    4    0    0  0.15062611328E+03  0.10726346792E+03  0.44158677681E+03  0.48525002212E+03  0.79215055127E+02 0.  0.
         13    1    3    3    0    0  0.87944438239E+00 -0.59516923432E+02  0.27310713001E+02  0.65489790363E+02  0.00000000000E+00 0. -1.
        -13    1    3    3    0    0 -0.21578956701E+03 -0.37481559526E+03  0.10984553253E+03  0.44622629763E+03  0.00000000000E+00 0.  1.
          2    1    5    5  502    0  0.93256042382E+02  0.82232912958E+02  0.36909826468E+03  0.38947717572E+03  0.00000000000E+00 0. -1.
          3    1    4    4  503    0  0.12030151725E+03  0.26446242243E+03 -0.35033889914E+03  0.45513753107E+03  0.00000000000E+00 0. -1.
         -4    1    4    4    0  503 -0.56017507904E+02  0.62606628340E+02 -0.14641811584E+02  0.85275633977E+02  0.00000000000E+00 0.  1.
         -1    1    5    5    0  502  0.57370070899E+02  0.25030554964E+02  0.72488512126E+02  0.95772846397E+02  0.00000000000E+00 0.  1.
<mgrwt>
<rscale>  0 0.15224456E+04</rscale>
<asrwt>0</asrwt>
<pdfrwt beam="1">  1        3 0.10181669E+00 0.15224456E+04</pdfrwt>
<pdfrwt beam="2">  1       -3 0.13470320E+00 0.15224456E+04</pdfrwt>
<totfact> 0.89972182E-01</totfact>
</mgrwt>
</event>
<event>
12    1  0.2045212E-008  0.1920912E+04  0.7818608E-02  0.8644516E-01
         -2   -1    0    0    0  501 -0.00000000000E+00  0.00000000000E+00  0.44923095867E+03  0.44923095867E+03  0.00000000000E+00 0. -1.
          2   -1    0    0  501    0  0.00000000000E+00 -0.00000000000E+00 -0.20534564236E+04  0.20534564236E+04  0.00000000000E+00 0.  1.
         23    2    1    2    0    0  0.65669652222E+03  0.23689180601E+03 -0.27025417034E+03  0.75418090405E+03  0.91561287630E+02 0.  0.
        254    2    1    2    0    0 -0.65669652222E+03 -0.23689180601E+03 -0.13339712946E+04  0.17485064782E+04  0.88905986275E+03 0.  0.
        -24    2    4    4    0    0 -0.60042558821E+03  0.22908029405E+03 -0.83892217871E+03  0.10619120094E+04  0.10429777380E+03 0.  0.
         24    2    4    4    0    0 -0.56270934008E+02 -0.46597210006E+03 -0.49504911590E+03  0.68659446887E+03  0.77729797885E+02 0.  0.
         13    1    3    3    0    0  0.52412378022E+02  0.45270492549E+02 -0.15502123781E+02  0.70970350903E+02  0.00000000000E+00 0.  1.
        -13    1    3    3    0    0  0.60428414420E+03  0.19162131346E+03 -0.25475204656E+03  0.68321055315E+03  0.00000000000E+00 0. -1.
          2    1    6    6  502    0 -0.20674579548E+02 -0.40189045811E+03 -0.41626799019E+03  0.57898395334E+03  0.00000000000E+00 0. -1.
          3    1    5    5  503    0 -0.32337324276E+03  0.80791544375E+02 -0.37675419904E+03  0.50303206087E+03  0.00000000000E+00 0. -1.
         -4    1    5    5    0  503 -0.27705234545E+03  0.14828874967E+03 -0.46216797968E+03  0.55887994850E+03  0.00000000000E+00 0.  1.
         -1    1    6    6    0  502 -0.35596354460E+02 -0.64081641946E+02 -0.78781125709E+02  0.10761051553E+03  0.00000000000E+00 0.  1.
<mgrwt>
<rscale>  0 0.19209125E+04</rscale>
<asrwt>0</asrwt>
<pdfrwt beam="1">  1        2 0.31591637E+00 0.19209125E+04</pdfrwt>
<pdfrwt beam="2">  1       -2 0.69112455E-01 0.19209125E+04</pdfrwt>
<totfact> 0.11148686E+01</totfact>
</mgrwt>
</event>
<event>
11    1  0.2045212E-008  0.1376025E+04  0.7818608E-02  0.8971358E-01
          2   -1    0    0  501    0  0.00000000000E+00  0.00000000000E+00  0.14849965794E+04  0.14849965794E+04  0.00000000000E+00 0. -1.
         -2   -1    0    0    0  501 -0.00000000000E+00 -0.00000000000E+00 -0.31876258266E+03  0.31876258266E+03  0.00000000000E+00 0.  1.
         23    2    1    2    0    0  0.10824241751E+03 -0.21054543269E+03  0.72349212380E+03  0.76722541774E+03  0.95646161736E+02 0.  0.
        254    2    1    2    0    0 -0.10824241751E+03  0.21054543269E+03  0.44274187290E+03  0.10365337443E+04  0.90682745704E+03 0.  0.
         24    2    4    4    0    0 -0.25498041838E+03  0.48082537525E+03  0.93854317842E+02  0.55808141336E+03  0.80238243511E+02 0.  0.
         13    1    3    3    0    0  0.83843850849E+02 -0.61113810217E+02  0.28061206125E+03  0.29917857217E+03  0.00000000000E+00 0.  1.
        -13    1    3    3    0    0  0.24398566664E+02 -0.14943162248E+03  0.44288006255E+03  0.46804684557E+03  0.00000000000E+00 0. -1.
          2    1    5    5  502    0 -0.12302329704E+03  0.23424126572E+03  0.49843480531E+01  0.26462907230E+03  0.00000000000E+00 0. -1.
          3    1    4    4  503    0 -0.81809028885E+01 -0.59307234059E+02  0.10406068985E+03  0.12005374778E+03  0.00000000000E+00 0. -1.
         -4    1    4    4    0  503  0.15491890375E+03 -0.21097270849E+03  0.24482686520E+03  0.35839858314E+03  0.00000000000E+00 0.  1.
         -1    1    5    5    0  502 -0.13195712134E+03  0.24658410953E+03  0.88869969789E+02  0.29345234106E+03  0.00000000000E+00 0.  1.
<mgrwt>
<rscale>  0 0.13760252E+04</rscale>
<asrwt>0</asrwt>
<pdfrwt beam="1">  1        2 0.22846101E+00 0.13760252E+04</pdfrwt>
<pdfrwt beam="2">  1       -2 0.49040398E-01 0.13760252E+04</pdfrwt>
<totfact> 0.49671736E+01</totfact>
</mgrwt>
</event>
<event>
11    1  0.2045212E-008  0.1859053E+04  0.7818608E-02  0.8675511E-01
         -2   -1    0    0    0  501 -0.00000000000E+00  0.00000000000E+00  0.70254982413E+03  0.70254982413E+03  0.00000000000E+00 0.  1.
          2   -1    0    0  501    0  0.00000000000E+00 -0.00000000000E+00 -0.12298332214E+04  0.12298332214E+04  0.00000000000E+00 0. -1.
         23    2    1    2    0    0 -0.18973349509E+03 -0.52618771206E+03 -0.66206690829E+03  0.87136611454E+03  0.89855478564E+02 0.  0.
        254    2    1    2    0    0  0.18973349509E+03  0.52618771206E+03  0.13478351103E+03  0.10610169310E+04  0.89146958753E+03 0.  0.
         24    2    4    4    0    0  0.40393580406E+03  0.20664350330E+03  0.16124444919E+03  0.48836316527E+03  0.81444076126E+02 0.  0.
         11    1    3    3    0    0 -0.17301261272E+03 -0.48072985564E+03 -0.55794431640E+03  0.75652919207E+03  0.00000000000E+00 0. -1.
        -11    1    3    3    0    0 -0.16720882371E+02 -0.45457856419E+02 -0.10412259190E+03  0.11483692246E+03  0.00000000000E+00 0.  1.
          2    1    5    5  502    0  0.40251226383E+03  0.19146747980E+03  0.15562317578E+03  0.47211703125E+03  0.00000000000E+00 0. -1.
          1    1    4    4  503    0 -0.23122193615E+03  0.20948255357E+03 -0.19698401385E+03  0.36898404534E+03  0.00000000000E+00 0. -1.
         -2    1    4    4    0  503  0.17019627176E+02  0.11006165520E+03  0.17052307569E+03  0.20366972037E+03  0.00000000000E+00 0.  1.
         -1    1    5    5    0  502  0.14235402363E+01  0.15176023492E+02  0.56212734103E+01  0.16246134020E+02  0.00000000000E+00 0.  1.
<mgrwt>
<rscale>  0 0.18590526E+04</rscale>
<asrwt>0</asrwt>
<pdfrwt beam="1">  1        2 0.18920511E+00 0.18590526E+04</pdfrwt>
<pdfrwt beam="2">  1       -2 0.10808459E+00 0.18590526E+04</pdfrwt>
<totfact> 0.11713537E+01</totfact>
</mgrwt>
</event>
<event>
12    1  0.2045212E-008  0.1182479E+04  0.7818608E-02  0.9128332E-01
          1   -1    0    0  501    0  0.00000000000E+00  0.00000000000E+00  0.12161874448E+04  0.12161874448E+04  0.00000000000E+00 0. -1.
         -1   -1    0    0    0  501 -0.00000000000E+00 -0.00000000000E+00 -0.28742629974E+03  0.28742629974E+03  0.00000000000E+00 0.  1.
         23    2    1    2    0    0 -0.12533025931E+03 -0.16700350159E+03  0.27885772551E+03  0.35984781465E+03  0.90171920216E+02 0.  0.
        254    2    1    2    0    0  0.12533025931E+03  0.16700350159E+03  0.64990341956E+03  0.11437659299E+04  0.91772991897E+03 0.  0.
        -24    2    4    4    0    0  0.67207529698E+02  0.54014080044E+03  0.31986357352E+03  0.63498541595E+03  0.68006150136E+02 0.  0.
         24    2    4    4    0    0  0.58122729609E+02 -0.37313729884E+03  0.33003984604E+03  0.50878051395E+03  0.85566441484E+02 0.  0.
         13    1    3    3    0    0 -0.70824245910E+02 -0.10127169411E+03  0.90925878354E+02  0.15342602514E+03  0.00000000000E+00 0.  1.
        -13    1    3    3    0    0 -0.54506013397E+02 -0.65731807482E+02  0.18793184715E+03  0.20642178951E+03  0.00000000000E+00 0. -1.
          2    1    6    6  502    0  0.58767640206E+02 -0.34039966671E+03  0.32738843117E+03  0.47592935768E+03  0.00000000000E+00 0. -1.
          1    1    5    5  503    0  0.45843297789E+01  0.28847028421E+03  0.15256839691E+03  0.32636365712E+03  0.00000000000E+00 0. -1.
         -2    1    5    5    0  503  0.62623199919E+02  0.25167051622E+03  0.16729517661E+03  0.30862175882E+03  0.00000000000E+00 0.  1.
         -1    1    6    6    0  502 -0.64491059761E+00 -0.32737632133E+02  0.26514148699E+01  0.32851156268E+02  0.00000000000E+00 0.  1.
<mgrwt>
<rscale>  0 0.11824792E+04</rscale>
<asrwt>0</asrwt>
<pdfrwt beam="1">  1        1 0.18710576E+00 0.11824792E+04</pdfrwt>
<pdfrwt beam="2">  1       -1 0.44219431E-01 0.11824792E+04</pdfrwt>
<totfact> 0.52117868E+01</totfact>
</mgrwt>
</event>
<event>
12    1  0.2045212E-008  0.1786715E+04  0.7818608E-02  0.8713396E-01
         -3   -1    0    0    0  501 -0.00000000000E+00  0.00000000000E+00  0.26422641234E+03  0.26422641234E+03  0.00000000000E+00 0.  1.
          3   -1    0    0  501    0  0.00000000000E+00 -0.00000000000E+00 -0.30204701426E+04  0.30204701426E+04  0.00000000000E+00 0. -1.
         23    2    1    2    0    0  0.40413039339E+02 -0.25130389358E+03  0.93432472100E+02  0.28456885140E+03  0.86388330635E+02 0.  0.
        254    2    1    2    0    0 -0.40413039339E+02  0.25130389358E+03 -0.28496762023E+04  0.30001277035E+04  0.90295344205E+03 0.  0.
        -24    2    4    4    0    0  0.13319401169E+03 -0.30080935353E+03 -0.12936623185E+04  0.13381075692E+04  0.93502730223E+02 0.  0.
         24    2    4    4    0    0 -0.17360705103E+03  0.55211324711E+03 -0.15560138838E+04  0.16620201343E+04  0.78506523920E+02 0.  0.
         11    1    3    3    0    0  0.31195997597E+02 -0.20473494614E+03  0.10973613009E+03  0.23437492759E+03  0.00000000000E+00 0.  1.
        -11    1    3    3    0    0  0.92170417424E+01 -0.46568947437E+02 -0.16303657985E+02  0.50193923812E+02  0.00000000000E+00 0. -1.
          4    1    6    6  502    0 -0.14493875460E+03  0.33433140275E+03 -0.97495605907E+03  0.10408285385E+04  0.00000000000E+00 0. -1.
          1    1    5    5  503    0  0.82159492869E+02 -0.21515408853E+03 -0.72284598901E+03  0.75864865907E+03  0.00000000000E+00 0. -1.
         -2    1    5    5    0  503  0.51034518818E+02 -0.85655265001E+02 -0.57081632949E+03  0.57945891015E+03  0.00000000000E+00 0.  1.
         -3    1    6    6    0  502 -0.28668296423E+02  0.21778184436E+03 -0.58105782474E+03  0.62119159576E+03  0.00000000000E+00 0.  1.
<mgrwt>
<rscale>  0 0.17867154E+04</rscale>
<asrwt>0</asrwt>
<pdfrwt beam="1">  1        3 0.46468772E+00 0.17867154E+04</pdfrwt>
<pdfrwt beam="2">  1       -3 0.40650217E-01 0.17867154E+04</pdfrwt>
<totfact> 0.76987767E-02</totfact>
</mgrwt>
</event>
<event>
12    1  0.2045212E-008  0.1216737E+04  0.7818608E-02  0.9098331E-01
          1   -1    0    0  501    0  0.00000000000E+00  0.00000000000E+00  0.62373869800E+03  0.62373869800E+03  0.00000000000E+00 0. -1.
         -1   -1    0    0    0  501 -0.00000000000E+00 -0.00000000000E+00 -0.59337739239E+03  0.59337739239E+03  0.00000000000E+00 0.  1.
         23    2    1    2    0    0  0.19697515252E+03 -0.12543210221E+03 -0.74277855574E+02  0.26149510639E+03  0.91269205457E+02 0.  0.
        254    2    1    2    0    0 -0.19697515252E+03  0.12543210221E+03  0.10463916118E+03  0.95562098400E+03  0.92072237294E+03 0.  0.
        -24    2    4    4    0    0 -0.26696457368E+03 -0.12793436830E+03 -0.32448095931E+03  0.44445188004E+03  0.67913875805E+02 0.  0.
         24    2    4    4    0    0  0.69989421160E+02  0.25336647051E+03  0.42912012049E+03  0.51116910395E+03  0.89759052871E+02 0.  0.
         11    1    3    3    0    0  0.14559485619E+03 -0.12644840177E+03 -0.81959505524E+02  0.20953381828E+03  0.00000000000E+00 0.  1.
        -11    1    3    3    0    0  0.51380296331E+02  0.10162995657E+01  0.76816499500E+01  0.51961288108E+02  0.00000000000E+00 0. -1.
          4    1    6    6  502    0  0.14127469653E+02  0.19908162442E+03  0.29810230008E+03  0.35874511828E+03  0.00000000000E+00 0. -1.
          1    1    5    5  503    0 -0.14904186614E+03 -0.96948514620E+02 -0.22703267362E+03  0.28836838808E+03  0.00000000000E+00 0. -1.
         -2    1    5    5    0  503 -0.11792270753E+03 -0.30985853681E+02 -0.97448285694E+02  0.15608349197E+03  0.00000000000E+00 0.  1.
         -3    1    6    6    0  502  0.55861951507E+02  0.54284846086E+02  0.13101782042E+03  0.15242398567E+03  0.00000000000E+00 0.  1.
<mgrwt>
<rscale>  0 0.12167373E+04</rscale>
<asrwt>0</asrwt>
<pdfrwt beam="1">  1        1 0.95959799E-01 0.12167373E+04</pdfrwt>
<pdfrwt beam="2">  1       -1 0.91288830E-01 0.12167373E+04</pdfrwt>
<totfact> 0.37471020E+01</totfact>
</mgrwt>
</event>
<event>
12    1  0.2045212E-008  0.1871275E+04  0.7818608E-02  0.8669288E-01
         -2   -1    0    0    0  501 -0.00000000000E+00  0.00000000000E+00  0.50773783696E+03  0.50773783696E+03  0.00000000000E+00 0.  1.
          2   -1    0    0  501    0  0.00000000000E+00 -0.00000000000E+00 -0.17241525067E+04  0.17241525067E+04  0.00000000000E+00 0. -1.
         23    2    1    2    0    0 -0.57373877037E+03 -0.34203021411E+03 -0.78510310159E+03  0.10346040524E+04  0.88644352093E+02 0.  0.
        254    2    1    2    0    0  0.57373877037E+03  0.34203021411E+03 -0.43131156813E+03  0.11972862912E+04  0.89515582463E+03 0.  0.
        -24    2    4    4    0    0  0.58959560209E+03  0.16967601786E+03  0.10362075885E+03  0.62960813129E+03  0.96209210980E+02 0.  0.
         24    2    4    4    0    0 -0.15856831720E+02  0.17235419624E+03 -0.53493232698E+03  0.56767815994E+03  0.78412312472E+02 0.  0.
         13    1    3    3    0    0 -0.54776097471E+03 -0.30266561924E+03 -0.74238107227E+03  0.97096767142E+03  0.00000000000E+00 0.  1.
        -13    1    3    3    0    0 -0.25977795661E+02 -0.39364594867E+02 -0.42722029320E+02  0.63636380991E+02  0.00000000000E+00 0. -1.
          4    1    6    6  502    0  0.22138583512E+02  0.12824446735E+03 -0.33321005075E+03  0.35772293497E+03  0.00000000000E+00 0. -1.
          1    1    5    5  503    0  0.96268449348E+02 -0.69652188576E+01  0.69719244282E+01  0.96771567848E+02  0.00000000000E+00 0. -1.
         -2    1    5    5    0  503  0.49332715274E+03  0.17664123672E+03  0.96648834423E+02  0.53283656344E+03  0.00000000000E+00 0.  1.
         -3    1    6    6    0  502 -0.37995415232E+02  0.44109728887E+02 -0.20172227624E+03  0.20995522497E+03  0.00000000000E+00 0.  1.
<mgrwt>
<rscale>  0 0.18712749E+04</rscale>
<asrwt>0</asrwt>
<pdfrwt beam="1">  1        2 0.26525424E+00 0.18712749E+04</pdfrwt>
<pdfrwt beam="2">  1       -2 0.78113512E-01 0.18712749E+04</pdfrwt>
<totfact> 0.13015520E+01</totfact>
</mgrwt>
</event>
<event>
12    1  0.2161337E-008  0.2184855E+04  0.7818608E-02  0.8524758E-01
          2   -1    0    0  501    0  0.00000000000E+00  0.00000000000E+00  0.15992987472E+04  0.15992987472E+04  0.00000000000E+00 0. -1.
         -2   -1    0    0    0  501 -0.00000000000E+00 -0.00000000000E+00 -0.74620054985E+03  0.74620054985E+03  0.00000000000E+00 0.  1.
         23    2    1    2    0    0  0.88986179075E+02 -0.48894114320E+03 -0.45003489975E+03  0.67661696411E+03  0.91088547878E+02 0.  0.
        254    2    1    2    0    0 -0.88986179075E+02  0.48894114320E+03  0.13031330971E+04  0.16688823329E+04  0.91653171840E+03 0.  0.
        -24    2    4    4    0    0  0.33276539017E+03  0.36332624058E+02  0.20539262031E+03  0.40622397143E+03  0.10382158744E+03 0.  0.
         24    2    4    4    0    0 -0.42175156925E+03  0.45260851914E+03  0.10977404768E+04  0.12626583615E+04  0.80889589800E+02 0.  0.
         11    1    3    3    0    0  0.51947035968E+02 -0.17304969290E+03 -0.11250111676E+03  0.21284076684E+03  0.00000000000E+00 0. -1.
        -11    1    3    3    0    0  0.37039143107E+02 -0.31589145030E+03 -0.33753378299E+03  0.46377619727E+03  0.00000000000E+00 0.  1.
          4    1    6    6  502    0 -0.53215913874E+02  0.92509592951E+02  0.15303150802E+03  0.18657063200E+03  0.00000000000E+00 0. -1.
          3    1    5    5  503    0  0.68919851243E+02  0.40689132397E+02  0.16539035760E+02  0.81725706448E+02  0.00000000000E+00 0. -1.
         -4    1    5    5    0  503  0.26384553893E+03 -0.43565083393E+01  0.18885358455E+03  0.32449826498E+03  0.00000000000E+00 0.  1.
         -3    1    6    6    0  502 -0.36853565537E+03  0.36009892619E+03  0.94470896874E+03  0.10760877295E+04  0.00000000000E+00 0.  1.
<mgrwt>
<rscale>  0 0.21848548E+04</rscale>
<asrwt>0</asrwt>
<pdfrwt beam="1">  1        2 0.24604596E+00 0.21848548E+04</pdfrwt>
<pdfrwt beam="2">  1       -2 0.11480008E+00 0.21848548E+04</pdfrwt>
<totfact> 0.60498341E+00</totfact>
</mgrwt>
</event>
<event>
12    1  0.2469693E-008  0.1889462E+04  0.7818608E-02  0.8660120E-01
          2   -1    0    0  501    0  0.00000000000E+00  0.00000000000E+00  0.13819720650E+04  0.13819720650E+04  0.00000000000E+00 0. -1.
         -2   -1    0    0    0  501 -0.00000000000E+00 -0.00000000000E+00 -0.64582836174E+03  0.64582836174E+03  0.00000000000E+00 0.  1.
         23    2    1    2    0    0 -0.63096280971E+03  0.23249862227E+03 -0.16220684648E+02  0.67909683249E+03  0.93486473329E+02 0.  0.
        254    2    1    2    0    0  0.63096280971E+03 -0.23249862227E+03  0.75236438794E+03  0.13487035943E+04  0.89486285897E+03 0.  0.
        -24    2    4    4    0    0  0.59252146104E+03 -0.34806542467E+03  0.90290170415E+03  0.11392259902E+04  0.10184865133E+03 0.  0.
         24    2    4    4    0    0  0.38441348673E+02  0.11556680240E+03 -0.15053731621E+03  0.20947760406E+03  0.79912201364E+02 0.  0.
         11    1    3    3    0    0 -0.61991051352E+03  0.21241200986E+03 -0.21203084575E+02  0.65563517104E+03  0.00000000000E+00 0.  1.
        -11    1    3    3    0    0 -0.11052296190E+02  0.20086612410E+02  0.49823999276E+01  0.23461661455E+02  0.00000000000E+00 0. -1.
          2    1    6    6  502    0  0.58783464956E+02  0.10132140352E+03 -0.13988941823E+03  0.18245704123E+03  0.00000000000E+00 0. -1.
          1    1    5    5  503    0  0.52382377210E+03 -0.30784719055E+03  0.84512701793E+03  0.10408654636E+04  0.00000000000E+00 0. -1.
         -2    1    5    5    0  503  0.68697688934E+02 -0.40218234126E+02  0.57774686214E+02  0.98360526576E+02  0.00000000000E+00 0.  1.
         -1    1    6    6    0  502 -0.20342116283E+02  0.14245398876E+02 -0.10647897982E+02  0.27020562826E+02  0.00000000000E+00 0.  1.
<mgrwt>
<rscale>  0 0.18894621E+04</rscale>
<asrwt>0</asrwt>
<pdfrwt beam="1">  1        2 0.21261109E+00 0.18894621E+04</pdfrwt>
<pdfrwt beam="2">  1       -2 0.99358210E-01 0.18894621E+04</pdfrwt>
<totfact> 0.11652083E+01</totfact>
</mgrwt>
</event>
<event>
11    1  0.2045212E-008  0.1541765E+04  0.7818608E-02  0.8857145E-01
          2   -1    0    0  501    0  0.00000000000E+00  0.00000000000E+00  0.17284038985E+04  0.17284038985E+04  0.00000000000E+00 0. -1.
         -2   -1    0    0    0  501 -0.00000000000E+00 -0.00000000000E+00 -0.34382016305E+03  0.34382016305E+03  0.00000000000E+00 0.  1.
         23    2    1    2    0    0 -0.41144533490E+03 -0.26171338406E+03  0.56520449549E+03  0.75203954304E+03  0.91247978486E+02 0.  0.
        254    2    1    2    0    0  0.41144533490E+03  0.26171338406E+03  0.81937923993E+03  0.13201845185E+04  0.91308469760E+03 0.  0.
         24    2    4    4    0    0  0.53228731449E+03  0.48101130764E+03  0.61172030194E+03  0.94607331886E+03  0.78430438019E+02 0.  0.
         13    1    3    3    0    0 -0.40535206096E+03 -0.23680232336E+03  0.54554545102E+03  0.71972597063E+03  0.00000000000E+00 0.  1.
        -13    1    3    3    0    0 -0.60932739331E+01 -0.24911060704E+02  0.19659044470E+02  0.32313572413E+02  0.00000000000E+00 0. -1.
          2    1    5    5  502    0  0.40974088845E+03  0.39800891810E+03  0.51625365392E+03  0.76994579663E+03  0.00000000000E+00 0. -1.
          3    1    4    4  503    0 -0.14937818811E+03 -0.22894054017E+03  0.20877542404E+03  0.34396917260E+03  0.00000000000E+00 0. -1.
         -4    1    4    4    0  503  0.28536208519E+02  0.96426165937E+01 -0.11164860551E+01  0.30142027014E+02  0.00000000000E+00 0.  1.
         -1    1    5    5    0  502  0.12254642603E+03  0.83002389538E+02  0.95466648020E+02  0.17612752223E+03  0.00000000000E+00 0.  1.
<mgrwt>
<rscale>  0 0.15417654E+04</rscale>
<asrwt>0</asrwt>
<pdfrwt beam="1">  1        2 0.26590829E+00 0.15417654E+04</pdfrwt>
<pdfrwt beam="2">  1       -2 0.52895411E-01 0.15417654E+04</pdfrwt>
<totfact> 0.30699994E+01</totfact>
</mgrwt>
</event>
<event>
11    1  0.2045212E-008  0.1688948E+04  0.7818608E-02  0.8767693E-01
          2   -1    0    0  501    0  0.00000000000E+00  0.00000000000E+00  0.12762722552E+04  0.12762722552E+04  0.00000000000E+00 0. -1.
         -2   -1    0    0    0  501 -0.00000000000E+00 -0.00000000000E+00 -0.55876537126E+03  0.55876537126E+03  0.00000000000E+00 0.  1.
         23    2    1    2    0    0  0.35506365609E+03 -0.36066580951E+03 -0.85664877242E+02  0.52161164440E+03  0.92683387674E+02 0.  0.
        254    2    1    2    0    0 -0.35506365609E+03  0.36066580951E+03  0.80317176117E+03  0.13134259821E+04  0.90766343233E+03 0.  0.
         24    2    4    4    0    0 -0.43113203500E+03  0.21544435738E+03  0.14018091338E+02  0.48959716400E+03  0.84957479825E+02 0.  0.
         13    1    3    3    0    0  0.33000202186E+03 -0.28927027143E+03 -0.71245905510E+02  0.44458362928E+03  0.00000000000E+00 0.  1.
        -13    1    3    3    0    0  0.25061634228E+02 -0.71395538077E+02 -0.14418971732E+02  0.77028015120E+02  0.00000000000E+00 0. -1.
          4    1    5    5  502    0 -0.36702808720E+03  0.20782222262E+03  0.30773350544E+02  0.42290269817E+03  0.00000000000E+00 0. -1.
          1    1    4    4  503    0  0.13210068017E+02  0.10135025295E+03  0.69472867203E+03  0.70220674122E+03  0.00000000000E+00 0. -1.
         -2    1    4    4    0  503  0.62858310896E+02  0.43871199179E+02  0.94424997801E+02  0.12162207684E+03  0.00000000000E+00 0.  1.
         -1    1    5    5    0  502 -0.64103947799E+02  0.76221347581E+01 -0.16755259206E+02  0.66694465833E+02  0.00000000000E+00 0.  1.
<mgrwt>
<rscale>  0 0.16889485E+04</rscale>
<asrwt>0</asrwt>
<pdfrwt beam="1">  1        2 0.19634958E+00 0.16889485E+04</pdfrwt>
<pdfrwt beam="2">  1       -2 0.85963903E-01 0.16889485E+04</pdfrwt>
<totfact> 0.19091267E+01</totfact>
</mgrwt>
</event>
<event>
11    1  0.2045212E-008  0.1629513E+04  0.7818608E-02  0.8802620E-01
         -2   -1    0    0    0  501 -0.00000000000E+00  0.00000000000E+00  0.63770954414E+03  0.63770954414E+03  0.00000000000E+00 0.  1.
          2   -1    0    0  501    0  0.00000000000E+00 -0.00000000000E+00 -0.10409565717E+04  0.10409565717E+04  0.00000000000E+00 0. -1.
         23    2    1    2    0    0 -0.55846436233E+03  0.22894939734E+02 -0.90714138916E+02  0.57426863063E+03  0.95649270087E+02 0.  0.
        254    2    1    2    0    0  0.55846436233E+03 -0.22894939734E+02 -0.31253288866E+03  0.11043974852E+04  0.89978351654E+03 0.  0.
         24    2    4    4    0    0 -0.84665262341E+02 -0.12234518730E+02  0.18009535788E+03  0.21512947906E+03  0.80798915430E+02 0.  0.
         13    1    3    3    0    0 -0.38311696943E+03  0.33413815894E+02 -0.20576216991E+02  0.38512137835E+03  0.00000000000E+00 0.  1.
        -13    1    3    3    0    0 -0.17534739290E+03 -0.10518876161E+02 -0.70137921925E+02  0.18914725228E+03  0.00000000000E+00 0. -1.
          2    1    5    5  502    0 -0.52790656948E+02  0.17540865112E+02  0.40313406276E+02  0.68700117434E+02  0.00000000000E+00 0. -1.
          3    1    4    4  503    0  0.26455568733E+03 -0.77860273369E+02 -0.15100532234E+02  0.27618826901E+03  0.00000000000E+00 0. -1.
         -4    1    4    4    0  503  0.37857393734E+03  0.67199852366E+02 -0.47752771430E+03  0.61307973716E+03  0.00000000000E+00 0.  1.
         -1    1    5    5    0  502 -0.31874605393E+02 -0.29775383843E+02  0.13978195160E+03  0.14642936162E+03  0.00000000000E+00 0.  1.
<mgrwt>
<rscale>  0 0.16295127E+04</rscale>
<asrwt>0</asrwt>
<pdfrwt beam="1">  1        2 0.16014716E+00 0.16295127E+04</pdfrwt>
<pdfrwt beam="2">  1       -2 0.98109161E-01 0.16295127E+04</pdfrwt>
<totfact> 0.19613087E+01</totfact>
</mgrwt>
</event>
<event>
11    1  0.2045212E-008  0.1312218E+04  0.7818608E-02  0.9019932E-01
         -2   -1    0    0    0  501 -0.00000000000E+00  0.00000000000E+00  0.11328762318E+04  0.11328762318E+04  0.00000000000E+00 0.  1.
          2   -1    0    0  501    0  0.00000000000E+00 -0.00000000000E+00 -0.37998790343E+03  0.37998790343E+03  0.00000000000E+00 0. -1.
         23    2    1    2    0    0 -0.39214542597E+02 -0.33004062235E+03  0.14505445410E+03  0.37368912691E+03  0.90211840471E+02 0.  0.
        254    2    1    2    0    0  0.39214542597E+02  0.33004062235E+03  0.60783387430E+03  0.11391750083E+04  0.90431912959E+03 0.  0.
         24    2    4    4    0    0  0.32960858144E+03  0.48754522475E+03  0.46890285133E+03  0.75677316902E+03  0.80582766314E+02 0.  0.
         11    1    3    3    0    0 -0.72829564418E+01 -0.79990517515E+02  0.79966765221E+02  0.11334111296E+03  0.00000000000E+00 0.  1.
        -11    1    3    3    0    0 -0.31931586155E+02 -0.25005010484E+03  0.65087688879E+02  0.26034801395E+03  0.00000000000E+00 0. -1.
          2    1    5    5  502    0 -0.38726965289E+01  0.23057837137E+01  0.74408844319E+01  0.86994929777E+01  0.00000000000E+00 0. -1.
          3    1    4    4  503    0 -0.14277274939E+02 -0.60645675122E+02  0.12018807796E+02  0.63452267348E+02  0.00000000000E+00 0. -1.
         -4    1    4    4    0  503 -0.27611676391E+03 -0.96858927275E+02  0.12691221517E+03  0.31894957197E+03  0.00000000000E+00 0.  1.
         -1    1    5    5    0  502  0.33348127797E+03  0.48523944104E+03  0.46146196690E+03  0.74807367604E+03  0.00000000000E+00 0.  1.
<mgrwt>
<rscale>  0 0.13122184E+04</rscale>
<asrwt>0</asrwt>
<pdfrwt beam="1">  1        2 0.58459678E-01 0.13122184E+04</pdfrwt>
<pdfrwt beam="2">  1       -2 0.17428865E+00 0.13122184E+04</pdfrwt>
<totfact> 0.16381112E+01</totfact>
</mgrwt>
</event>
<event>
12    1  0.2045212E-008  0.1131291E+04  0.7818608E-02  0.9175219E-01
         -2   -1    0    0    0  501 -0.00000000000E+00  0.00000000000E+00  0.41022061669E+03  0.41022061669E+03  0.00000000000E+00 0. -1.
          2   -1    0    0  501    0  0.00000000000E+00 -0.00000000000E+00 -0.77995812750E+03  0.77995812750E+03  0.00000000000E+00 0.  1.
         23    2    1    2    0    0  0.68218228649E+02 -0.16526523112E+03 -0.93066751199E+02  0.22091930970E+03  0.90430071782E+02 0.  0.
        254    2    1    2    0    0 -0.68218228649E+02  0.16526523112E+03 -0.27667075962E+03  0.96925943449E+03  0.91156503816E+03 0.  0.
        -24    2    4    4    0    0  0.35820970302E+03 -0.10709548717E+03  0.42415363888E+00  0.38694366464E+03  0.99707497164E+02 0.  0.
         24    2    4    4    0    0 -0.42642793167E+03  0.27236071829E+03 -0.27709491325E+03  0.58231576985E+03  0.79302730709E+02 0.  0.
         11    1    3    3    0    0 -0.12316008268E+02 -0.55966093499E+02 -0.18078980318E+01  0.57333726344E+02  0.00000000000E+00 0. -1.
        -11    1    3    3    0    0  0.80534236917E+02 -0.10929913762E+03 -0.91258853167E+02  0.16358558335E+03  0.00000000000E+00 0.  1.
          4    1    6    6  502    0 -0.36474281045E+03  0.25687094639E+03 -0.22263256973E+03  0.49858325481E+03  0.00000000000E+00 0. -1.
          3    1    5    5  503    0  0.28179260731E+03 -0.38973230176E+02 -0.34822307428E+01  0.28449624274E+03  0.00000000000E+00 0. -1.
         -4    1    5    5    0  503  0.76417095709E+02 -0.68122256991E+02  0.39063843817E+01  0.10244742190E+03  0.00000000000E+00 0.  1.
         -3    1    6    6    0  502 -0.61685121215E+02  0.15489771894E+02 -0.54462343525E+02  0.83732515040E+02  0.00000000000E+00 0.  1.
<mgrwt>
<rscale>  0 0.11312911E+04</rscale>
<asrwt>0</asrwt>
<pdfrwt beam="1">  1        2 0.11999356E+00 0.11312911E+04</pdfrwt>
<pdfrwt beam="2">  1       -2 0.63110864E-01 0.11312911E+04</pdfrwt>
<totfact> 0.82145498E+01</totfact>
</mgrwt>
</event>
<event>
12    1  0.2045212E-008  0.3492270E+04  0.7818608E-02  0.8115624E-01
         -3   -1    0    0    0  501 -0.00000000000E+00  0.00000000000E+00  0.15753175235E+04  0.15753175235E+04  0.00000000000E+00 0.  1.
          3   -1    0    0  501    0  0.00000000000E+00 -0.00000000000E+00 -0.19354751457E+04  0.19354751457E+04  0.00000000000E+00 0. -1.
         23    2    1    2    0    0  0.90908831050E+03  0.10213776359E+04 -0.99682501687E+03  0.16945402680E+04  0.90292713445E+02 0.  0.
        254    2    1    2    0    0 -0.90908831050E+03 -0.10213776359E+04  0.63666739465E+03  0.18162524012E+04  0.10118169706E+04 0.  0.
        -24    2    4    4    0    0 -0.85808023220E+03 -0.11312753703E+04  0.77216022428E+03  0.16175861906E+04  0.65330112320E+02 0.  0.
         24    2    4    4    0    0 -0.51008078299E+02  0.10989773440E+03 -0.13549282963E+03  0.19866621062E+03  0.80191148402E+02 0.  0.
         11    1    3    3    0    0  0.17022629119E+03  0.19057850179E+03 -0.23122552367E+03  0.34461920775E+03  0.00000000000E+00 0.  1.
        -11    1    3    3    0    0  0.73886201931E+03  0.83079913416E+03 -0.76559949320E+03  0.13499210602E+04  0.00000000000E+00 0. -1.
          4    1    6    6  502    0 -0.35434309660E+02  0.28938117512E+02 -0.74130823956E+01  0.46346075743E+02  0.00000000000E+00 0. -1.
          3    1    5    5  503    0 -0.37043334046E+03 -0.43551446900E+03  0.31333333195E+03  0.65197506803E+03  0.00000000000E+00 0. -1.
         -4    1    5    5    0  503 -0.48764689174E+03 -0.69576090135E+03  0.45882689233E+03  0.96561112256E+03  0.00000000000E+00 0.  1.
         -3    1    6    6    0  502 -0.15573768639E+02  0.80959616893E+02 -0.12807974724E+03  0.15232013488E+03  0.00000000000E+00 0.  1.
<mgrwt>
<rscale>  0 0.34922703E+04</rscale>
<asrwt>0</asrwt>
<pdfrwt beam="1">  1        3 0.29776540E+00 0.34922703E+04</pdfrwt>
<pdfrwt beam="2">  1       -3 0.24235654E+00 0.34922703E+04</pdfrwt>
<totfact> 0.68482252E-03</totfact>
</mgrwt>
</event>
<event>
11    1  0.2045212E-008  0.1363956E+04  0.7818608E-02  0.8980330E-01
          1   -1    0    0  501    0  0.00000000000E+00  0.00000000000E+00  0.92044771556E+03  0.92044771556E+03  0.00000000000E+00 0. -1.
         -1   -1    0    0    0  501 -0.00000000000E+00 -0.00000000000E+00 -0.50529108525E+03  0.50529108525E+03  0.00000000000E+00 0.  1.
         23    2    1    2    0    0  0.17135871832E+03 -0.28830992835E+03 -0.93949511399E+02  0.36021958585E+03  0.91897846592E+02 0.  0.
        254    2    1    2    0    0 -0.17135871832E+03  0.28830992835E+03  0.50910614172E+03  0.10655192150E+04  0.87387396619E+03 0.  0.
         24    2    4    4    0    0  0.12827741856E+03 -0.18091506589E+03  0.42451535437E+03  0.48570459872E+03  0.80686516480E+02 0.  0.
         13    1    3    3    0    0  0.15459737708E+03 -0.27169697359E+03 -0.11032145465E+03  0.33149723651E+03  0.00000000000E+00 0.  1.
        -13    1    3    3    0    0  0.16761341237E+02 -0.16612954761E+02  0.16371943247E+02  0.28722349341E+02  0.00000000000E+00 0. -1.
          4    1    5    5  502    0  0.13894214074E+03 -0.15800165995E+03  0.37066355115E+03  0.42621697663E+03  0.00000000000E+00 0. -1.
          1    1    4    4  503    0 -0.23838412210E+03  0.44348260034E+03  0.95542501209E+02  0.51247651264E+03  0.00000000000E+00 0. -1.
         -2    1    4    4    0  503 -0.61252014784E+02  0.25742393903E+02 -0.10951713864E+02  0.67338103593E+02  0.00000000000E+00 0.  1.
         -3    1    5    5    0  502 -0.10664722183E+02 -0.22913405941E+02  0.53851803224E+02  0.59487622086E+02  0.00000000000E+00 0.  1.
<mgrwt>
<rscale>  0 0.13639560E+04</rscale>
<asrwt>0</asrwt>
<pdfrwt beam="1">  1        1 0.14160734E+00 0.13639560E+04</pdfrwt>
<pdfrwt beam="2">  1       -1 0.77737090E-01 0.13639560E+04</pdfrwt>
<totfact> 0.28393730E+01</totfact>
</mgrwt>
</event>
<event>
11    1  0.2045212E-008  0.3243867E+04  0.7818608E-02  0.8177327E-01
         -2   -1    0    0    0  501 -0.00000000000E+00  0.00000000000E+00  0.13553239474E+04  0.13553239474E+04  0.00000000000E+00 0.  1.
          2   -1    0    0  501    0  0.00000000000E+00 -0.00000000000E+00 -0.19409885812E+04  0.19409885812E+04  0.00000000000E+00 0. -1.
         23    2    1    2    0    0  0.12024155375E+04 -0.53301336526E+03 -0.99329201477E+03  0.16509369899E+04  0.95171139930E+02 0.  0.
        254    2    1    2    0    0 -0.12024155375E+04  0.53301336526E+03  0.40762738097E+03  0.16453755387E+04  0.90066320522E+03 0.  0.
         24    2    4    4    0    0 -0.57924437616E+03 -0.79870716790E+02  0.41827955428E+03  0.72357563306E+03  0.81856780527E+02 0.  0.
         13    1    3    3    0    0  0.10593148003E+04 -0.49947115798E+03 -0.89732125470E+03  0.14753998502E+04  0.00000000000E+00 0. -1.
        -13    1    3    3    0    0  0.14310073718E+03 -0.33542207287E+02 -0.95970760074E+02  0.17553713977E+03  0.00000000000E+00 0.  1.
          2    1    5    5  502    0 -0.56109357710E+03 -0.82640180973E+02  0.41910201242E+03  0.70519635463E+03  0.00000000000E+00 0. -1.
          3    1    4    4  503    0 -0.34575514233E+03  0.29848263343E+03 -0.14869994453E+03  0.48036462652E+03  0.00000000000E+00 0. -1.
         -4    1    4    4    0  503 -0.27741601898E+03  0.31440144863E+03  0.13804777122E+03  0.44143527909E+03  0.00000000000E+00 0.  1.
         -1    1    5    5    0  502 -0.18150799055E+02  0.27694641825E+01 -0.82245813134E+00  0.18379278429E+02  0.00000000000E+00 0.  1.
<mgrwt>
<rscale>  0 0.32438670E+04</rscale>
<asrwt>0</asrwt>
<pdfrwt beam="1">  1        2 0.29861363E+00 0.32438670E+04</pdfrwt>
<pdfrwt beam="2">  1       -2 0.20851138E+00 0.32438670E+04</pdfrwt>
<totfact> 0.70781575E-01</totfact>
</mgrwt>
</event>
<event>
11    1  0.2045212E-008  0.3469370E+04  0.7818608E-02  0.8121088E-01
          2   -1    0    0  501    0  0.00000000000E+00  0.00000000000E+00  0.17509991889E+04  0.17509991889E+04  0.00000000000E+00 0. -1.
         -2   -1    0    0    0  501 -0.00000000000E+00 -0.00000000000E+00 -0.17185224113E+04  0.17185224113E+04  0.00000000000E+00 0.  1.
         23    2    1    2    0    0  0.94965326961E+02  0.14636219377E+04  0.69673028802E+03  0.16260163984E+04  0.85373554588E+02 0.  0.
        254    2    1    2    0    0 -0.94965326961E+02 -0.14636219377E+04 -0.66425351033E+03  0.18435052018E+04  0.89781463187E+03 0.  0.
         24    2    4    4    0    0  0.82558607779E+02 -0.56854660649E+03 -0.71498629235E+03  0.92066205434E+03  0.79699765227E+02 0.  0.
         11    1    3    3    0    0  0.64537465203E+02  0.12215094858E+04  0.54900526535E+03  0.13407674257E+04  0.00000000000E+00 0. -1.
        -11    1    3    3    0    0  0.30427861759E+02  0.24211245187E+03  0.14772502267E+03  0.28524897273E+03  0.00000000000E+00 0.  1.
          4    1    5    5  502    0  0.24345584214E+02 -0.22104903147E+03 -0.33855525739E+03  0.40506177811E+03  0.00000000000E+00 0. -1.
          1    1    4    4  503    0 -0.15511475563E+02 -0.38062887774E+03 -0.16754640514E+01  0.38094849471E+03  0.00000000000E+00 0. -1.
         -2    1    4    4    0  503 -0.16201245918E+03 -0.51444645347E+03  0.52408246071E+02  0.54189465274E+03  0.00000000000E+00 0.  1.
         -3    1    5    5    0  502  0.58213023566E+02 -0.34749757502E+03 -0.37643103496E+03  0.51560027623E+03  0.00000000000E+00 0.  1.
<mgrwt>
<rscale>  0 0.34693696E+04</rscale>
<asrwt>0</asrwt>
<pdfrwt beam="1">  1        2 0.26938449E+00 0.34693696E+04</pdfrwt>
<pdfrwt beam="2">  1       -2 0.26438806E+00 0.34693696E+04</pdfrwt>
<totfact> 0.39694200E-01</totfact>
</mgrwt>
</event>
<event>
11    1  0.2045212E-008  0.1888988E+04  0.7818608E-02  0.8660357E-01
          2   -1    0    0  501    0  0.00000000000E+00  0.00000000000E+00  0.18114057183E+04  0.18114057183E+04  0.00000000000E+00 0. -1.
         -2   -1    0    0    0  501 -0.00000000000E+00 -0.00000000000E+00 -0.49247354069E+03  0.49247354069E+03  0.00000000000E+00 0.  1.
         23    2    1    2    0    0 -0.63077982377E+03  0.28655531538E+03  0.25479005270E+03  0.74385470768E+03  0.91677261800E+02 0.  0.
        254    2    1    2    0    0  0.63077982377E+03 -0.28655531538E+03  0.10641421249E+04  0.15600245513E+04  0.90624555385E+03 0.  0.
         24    2    4    4    0    0 -0.16976621933E+03  0.12441807635E+03  0.16791083382E+03  0.28089488343E+03  0.80046614421E+02 0.  0.
         11    1    3    3    0    0 -0.23653716287E+03  0.94065794868E+02  0.13932939619E+03  0.29019111604E+03  0.00000000000E+00 0.  1.
        -11    1    3    3    0    0 -0.39424266090E+03  0.19248952051E+03  0.11546065651E+03  0.45366359164E+03  0.00000000000E+00 0. -1.
          2    1    5    5  502    0 -0.12188309016E+02 -0.54156936975E+01  0.34523185004E+02  0.37009929988E+02  0.00000000000E+00 0. -1.
          3    1    4    4  503    0  0.31411649642E+03 -0.13839292289E+03  0.24455285864E+03  0.42145922116E+03  0.00000000000E+00 0. -1.
         -2    1    4    4    0  503  0.48642954667E+03 -0.27258046883E+03  0.65167843244E+03  0.85767044672E+03  0.00000000000E+00 0.  1.
         -1    1    5    5    0  502 -0.15757791031E+03  0.12983377004E+03  0.13338764881E+03  0.24388495345E+03  0.00000000000E+00 0.  1.
<mgrwt>
<rscale>  0 0.18889885E+04</rscale>
<asrwt>0</asrwt>
<pdfrwt beam="1">  1        2 0.27867780E+00 0.18889885E+04</pdfrwt>
<pdfrwt beam="2">  1       -2 0.75765161E-01 0.18889885E+04</pdfrwt>
<totfact> 0.12443820E+01</totfact>
</mgrwt>
</event>
<event>
12    1  0.2045212E-008  0.1284258E+04  0.7818608E-02  0.9042142E-01
         -1   -1    0    0    0  501 -0.00000000000E+00  0.00000000000E+00  0.28197314812E+03  0.28197314812E+03  0.00000000000E+00 0.  1.
          1   -1    0    0  501    0  0.00000000000E+00 -0.00000000000E+00 -0.14623020339E+04  0.14623020339E+04  0.00000000000E+00 0. -1.
         23    2    1    2    0    0 -0.30057195152E+03  0.72447948438E+02 -0.41139865618E+03  0.52267477108E+03  0.91366617249E+02 0.  0.
        254    2    1    2    0    0  0.30057195152E+03 -0.72447948438E+02 -0.76893022961E+03  0.12216004110E+04  0.89747515997E+03 0.  0.
        -24    2    4    4    0    0 -0.28004990533E+03 -0.42554113475E+02 -0.48689457335E+03  0.57050444617E+03  0.90389133732E+02 0.  0.
         24    2    4    4    0    0  0.58062185685E+03 -0.29893834963E+02 -0.28203565626E+03  0.65109596478E+03  0.79790111688E+02 0.  0.
         11    1    3    3    0    0 -0.10545674856E+03  0.11084741932E+02 -0.78388435012E+02  0.13186638716E+03  0.00000000000E+00 0.  1.
        -11    1    3    3    0    0 -0.19511520296E+03  0.61363206507E+02 -0.33301022116E+03  0.39080838392E+03  0.00000000000E+00 0. -1.
          2    1    6    6  502    0  0.42875973580E+03  0.10004178534E+02 -0.18984504542E+03  0.46901613608E+03  0.00000000000E+00 0. -1.
          3    1    5    5  503    0 -0.24058066234E+03 -0.66358831076E+02 -0.43117900702E+03  0.49819462628E+03  0.00000000000E+00 0. -1.
         -4    1    5    5    0  503 -0.39469242993E+02  0.23804717601E+02 -0.55715566325E+02  0.72309819896E+02  0.00000000000E+00 0.  1.
         -1    1    6    6    0  502  0.15186212105E+03 -0.39898013497E+02 -0.92190610845E+02  0.18207982870E+03  0.00000000000E+00 0.  1.
<mgrwt>
<rscale>  0 0.12842584E+04</rscale>
<asrwt>0</asrwt>
<pdfrwt beam="1">  1        1 0.22496955E+00 0.12842584E+04</pdfrwt>
<pdfrwt beam="2">  1       -1 0.43380483E-01 0.12842584E+04</pdfrwt>
<totfact> 0.35835858E+01</totfact>
</mgrwt>
</event>
<event>
12    1  0.2045212E-008  0.2187197E+04  0.7818608E-02  0.8523776E-01
          1   -1    0    0  501    0  0.00000000000E+00  0.00000000000E+00  0.42103883057E+03  0.42103883057E+03  0.00000000000E+00 0. -1.
         -1   -1    0    0    0  501 -0.00000000000E+00 -0.00000000000E+00 -0.28404928195E+04  0.28404928195E+04  0.00000000000E+00 0.  1.
         23    2    1    2    0    0 -0.24775349008E+03  0.70156955376E+03 -0.23664943899E+03  0.78620970252E+03  0.92418119236E+02 0.  0.
        254    2    1    2    0    0  0.24775349008E+03 -0.70156955376E+03 -0.21828045500E+04  0.24753219476E+04  0.89944505676E+03 0.  0.
        -24    2    4    4    0    0  0.94437980337E+02 -0.82093010441E+03 -0.11364966298E+04  0.14082220574E+04  0.92843982129E+02 0.  0.
         24    2    4    4    0    0  0.15331550974E+03  0.11936055065E+03 -0.10463079201E+04  0.10670998901E+04  0.78672264289E+02 0.  0.
         11    1    3    3    0    0 -0.25604399367E+03  0.67746715801E+03 -0.22969763555E+03  0.75979028729E+03  0.00000000000E+00 0. -1.
        -11    1    3    3    0    0  0.82905035884E+01  0.24102395742E+02 -0.69518034398E+01  0.26419415234E+02  0.00000000000E+00 0.  1.
          4    1    6    6  502    0  0.14024992657E+03  0.70057901310E+02 -0.84577454003E+03  0.86018179706E+03  0.00000000000E+00 0. -1.
          3    1    5    5  503    0  0.61515894926E+01 -0.37282958009E+03 -0.46316700396E+03  0.59461198390E+03  0.00000000000E+00 0. -1.
         -4    1    5    5    0  503  0.88286390845E+02 -0.44810052432E+03 -0.67332962586E+03  0.81361007354E+03  0.00000000000E+00 0.  1.
         -3    1    6    6    0  502  0.13065583176E+02  0.49302649339E+02 -0.20053338011E+03  0.20691809305E+03  0.00000000000E+00 0.  1.
<mgrwt>
<rscale>  0 0.21871971E+04</rscale>
<asrwt>0</asrwt>
<pdfrwt beam="1">  1        1 0.64775204E-01 0.21871971E+04</pdfrwt>
<pdfrwt beam="2">  1       -1 0.43699890E+00 0.21871971E+04</pdfrwt>
<totfact> 0.20349350E-01</totfact>
</mgrwt>
</event>
<event>
12    1  0.2045212E-008  0.1573449E+04  0.7818608E-02  0.8837027E-01
          2   -1    0    0  501    0  0.00000000000E+00  0.00000000000E+00  0.12107006241E+04  0.12107006241E+04  0.00000000000E+00 0. -1.
         -2   -1    0    0    0  501 -0.00000000000E+00 -0.00000000000E+00 -0.51122105679E+03  0.51122105679E+03  0.00000000000E+00 0.  1.
         23    2    1    2    0    0 -0.38420583461E+03  0.18746593954E+03  0.56656381302E+03  0.71546617610E+03  0.90220247609E+02 0.  0.
        254    2    1    2    0    0  0.38420583461E+03 -0.18746593954E+03  0.13291575431E+03  0.10064555048E+04  0.90140361858E+03 0.  0.
        -24    2    4    4    0    0 -0.21718680028E+03 -0.28795214715E+03  0.11931755345E+03  0.39143857616E+03  0.94344767109E+02 0.  0.
         24    2    4    4    0    0  0.60139263489E+03  0.10048620761E+03  0.13598200863E+02  0.61501692866E+03  0.79311614835E+02 0.  0.
         11    1    3    3    0    0  0.67106028690E+00  0.50648285917E+01  0.29894722134E+02  0.30328158897E+02  0.00000000000E+00 0.  1.
        -11    1    3    3    0    0 -0.38487689490E+03  0.18240111095E+03  0.53666909089E+03  0.68513801721E+03  0.00000000000E+00 0. -1.
          2    1    6    6  502    0  0.30250732231E+03  0.90632640195E+02  0.41409361565E+01  0.31581973160E+03  0.00000000000E+00 0. -1.
          1    1    5    5  503    0 -0.12019597751E+03 -0.85208623270E+02  0.59238906252E+02  0.15879808092E+03  0.00000000000E+00 0. -1.
         -2    1    5    5    0  503 -0.96990822766E+02 -0.20274352388E+03  0.60078647198E+02  0.23264049524E+03  0.00000000000E+00 0.  1.
         -1    1    6    6    0  502  0.29888531258E+03  0.98535674156E+01  0.94572647066E+01  0.29919719705E+03  0.00000000000E+00 0.  1.
<mgrwt>
<rscale>  0 0.15734493E+04</rscale>
<asrwt>0</asrwt>
<pdfrwt beam="1">  1        2 0.18626163E+00 0.15734493E+04</pdfrwt>
<pdfrwt beam="2">  1       -2 0.78649394E-01 0.15734493E+04</pdfrwt>
<totfact> 0.25759528E+01</totfact>
</mgrwt>
</event>
<event>
12    1  0.2045212E-008  0.1224147E+04  0.7818608E-02  0.9091979E-01
         -2   -1    0    0    0  501 -0.00000000000E+00  0.00000000000E+00  0.50791943270E+03  0.50791943270E+03  0.00000000000E+00 0.  1.
          2   -1    0    0  501    0  0.00000000000E+00 -0.00000000000E+00 -0.73758567780E+03  0.73758567780E+03  0.00000000000E+00 0. -1.
         23    2    1    2    0    0  0.60364974190E+02  0.12057842547E+03 -0.33451203510E+03  0.37213231608E+03  0.91657363305E+02 0.  0.
        254    2    1    2    0    0 -0.60364974190E+02 -0.12057842547E+03  0.10484578999E+03  0.87337279442E+03  0.85650704116E+03 0.  0.
        -24    2    4    4    0    0  0.13610684188E+03 -0.19998515528E+03 -0.30650843112E+03  0.40379524817E+03  0.10287880907E+03 0.  0.
         24    2    4    4    0    0 -0.19647181607E+03  0.79406729815E+02  0.41135422111E+03  0.46957754625E+03  0.79901022960E+02 0.  0.
         11    1    3    3    0    0  0.52226286858E+02  0.83021620615E+02 -0.31318069722E+03  0.32818032184E+03  0.00000000000E+00 0. -1.
        -11    1    3    3    0    0  0.81386873324E+01  0.37556804852E+02 -0.21331337874E+02  0.43951994240E+02  0.00000000000E+00 0.  1.
          4    1    6    6  502    0 -0.15326939626E+02  0.14153104071E+02  0.11003853514E+03  0.11199868146E+03  0.00000000000E+00 0. -1.
          3    1    5    5  503    0  0.45899141079E+01 -0.87695825862E+02 -0.79784614519E+02  0.11864741843E+03  0.00000000000E+00 0. -1.
         -4    1    5    5    0  503  0.13151692778E+03 -0.11228932942E+03 -0.22672381660E+03  0.28514782974E+03  0.00000000000E+00 0.  1.
         -3    1    6    6    0  502 -0.18114487645E+03  0.65253625745E+02  0.30131568597E+03  0.35757886479E+03  0.00000000000E+00 0.  1.
<mgrwt>
<rscale>  0 0.12241472E+04</rscale>
<asrwt>0</asrwt>
<pdfrwt beam="1">  1        2 0.11347472E+00 0.12241472E+04</pdfrwt>
<pdfrwt beam="2">  1       -2 0.78141451E-01 0.12241472E+04</pdfrwt>
<totfact> 0.55040062E+01</totfact>
</mgrwt>
</event>
<event>
11    1  0.2045212E-008  0.1310041E+04  0.7818608E-02  0.9021640E-01
         -2   -1    0    0    0  501 -0.00000000000E+00  0.00000000000E+00  0.55408548655E+03  0.55408548655E+03  0.00000000000E+00 0.  1.
          2   -1    0    0  501    0  0.00000000000E+00 -0.00000000000E+00 -0.77434201952E+03  0.77434201952E+03  0.00000000000E+00 0. -1.
         23    2    1    2    0    0  0.22093406540E+03 -0.19313023385E+03 -0.23112976813E+03  0.38504737476E+03  0.93431058055E+02 0.  0.
        254    2    1    2    0    0 -0.22093406540E+03  0.19313023385E+03  0.10873235159E+02  0.94338013131E+03  0.89651363427E+03 0.  0.
         24    2    4    4    0    0 -0.33144383181E+03  0.22025286546E+03 -0.89389952256E+01  0.40731578694E+03  0.86370748902E+02 0.  0.
         11    1    3    3    0    0  0.27338831249E+01 -0.38871322313E+02 -0.16554212829E+02  0.42337876395E+02  0.00000000000E+00 0.  1.
        -11    1    3    3    0    0  0.21820018228E+03 -0.15425891154E+03 -0.21457555530E+03  0.34270949836E+03  0.00000000000E+00 0. -1.
          4    1    5    5  502    0 -0.22620774158E+03  0.17793504921E+03  0.25090828502E+02  0.28889509127E+03  0.00000000000E+00 0. -1.
          3    1    4    4  503    0  0.16511547851E+03 -0.12618224916E+03 -0.20027648691E+03  0.28861003526E+03  0.00000000000E+00 0. -1.
         -4    1    4    4    0  503 -0.54605712101E+02  0.99059617544E+02  0.22008871729E+03  0.24745430912E+03  0.00000000000E+00 0.  1.
         -3    1    5    5    0  502 -0.10523609023E+03  0.42317816259E+02 -0.34029823728E+02  0.11842069567E+03  0.00000000000E+00 0.  1.
<mgrwt>
<rscale>  0 0.13100407E+04</rscale>
<asrwt>0</asrwt>
<pdfrwt beam="1">  1        2 0.11912954E+00 0.13100407E+04</pdfrwt>
<pdfrwt beam="2">  1       -2 0.85243921E-01 0.13100407E+04</pdfrwt>
<totfact> 0.42187790E+01</totfact>
</mgrwt>
</event>
<event>
12    1  0.2045212E-008  0.1671153E+04  0.7818608E-02  0.8777990E-01
          1   -1    0    0  501    0  0.00000000000E+00  0.00000000000E+00  0.18427541719E+04  0.18427541719E+04  0.00000000000E+00 0. -1.
         -1   -1    0    0    0  501 -0.00000000000E+00 -0.00000000000E+00 -0.37888298453E+03  0.37888298453E+03  0.00000000000E+00 0.  1.
         23    2    1    2    0    0  0.10184932984E+03 -0.83329370182E+01 -0.25060269725E+03  0.28394801843E+03  0.85918807429E+02 0.  0.
        254    2    1    2    0    0 -0.10184932984E+03  0.83329370182E+01  0.17144738846E+04  0.19376891380E+04  0.89709295542E+03 0.  0.
        -24    2    4    4    0    0  0.15148073403E+03  0.31289940989E+03  0.29208826128E+03  0.45930291241E+03  0.69218201987E+02 0.  0.
         24    2    4    4    0    0 -0.25333006386E+03 -0.30456647287E+03  0.14223856233E+04  0.14783862256E+04  0.74216661753E+02 0.  0.
         13    1    3    3    0    0  0.10446854258E+03 -0.12061161735E+02 -0.14971934265E+03  0.18296182545E+03  0.00000000000E+00 0. -1.
        -13    1    3    3    0    0 -0.26192127369E+01  0.37282247168E+01 -0.10088335461E+03  0.10098619297E+03  0.00000000000E+00 0.  1.
          4    1    6    6  502    0 -0.21588789799E+03 -0.22668329553E+03  0.10261051911E+04  0.10727929736E+04  0.00000000000E+00 0. -1.
          1    1    5    5  503    0  0.13063313971E+03  0.29382114956E+03  0.24447775114E+03  0.40393719305E+03  0.00000000000E+00 0. -1.
         -2    1    5    5    0  503  0.20847594313E+02  0.19078260321E+02  0.47610510136E+02  0.55365719367E+02  0.00000000000E+00 0.  1.
         -3    1    6    6    0  502 -0.37442165875E+02 -0.77883177340E+02  0.39628043220E+03  0.40559325197E+03  0.00000000000E+00 0.  1.
<mgrwt>
<rscale>  0 0.16711531E+04</rscale>
<asrwt>0</asrwt>
<pdfrwt beam="1">  1        1 0.28350064E+00 0.16711531E+04</pdfrwt>
<pdfrwt beam="2">  1       -1 0.58289691E-01 0.16711531E+04</pdfrwt>
<totfact> 0.10840438E+01</totfact>
</mgrwt>
</event>
<event>
12    1  0.2045212E-008  0.2005538E+04  0.7818608E-02  0.8604036E-01
          2   -1    0    0  501    0  0.00000000000E+00  0.00000000000E+00  0.12984999426E+04  0.12984999426E+04  0.00000000000E+00 0. -1.
         -2   -1    0    0    0  501 -0.00000000000E+00 -0.00000000000E+00 -0.77439020797E+03  0.77439020797E+03  0.00000000000E+00 0.  1.
         23    2    1    2    0    0  0.25770179442E+03 -0.39877234061E+03 -0.45342399264E+03  0.66300132394E+03  0.92454550837E+02 0.  0.
        254    2    1    2    0    0 -0.25770179442E+03  0.39877234061E+03  0.97753372728E+03  0.14098888266E+04  0.89821195774E+03 0.  0.
        -24    2    4    4    0    0 -0.28393342970E+03 -0.14692760604E+03  0.58253649129E+02  0.33734785605E+03  0.90576897855E+02 0.  0.
         24    2    4    4    0    0  0.26231635281E+02  0.54569994664E+03  0.91928007815E+03  0.10725409706E+04  0.82412020160E+02 0.  0.
         11    1    3    3    0    0  0.20900711373E+03 -0.36130966804E+03 -0.36011272317E+03  0.55128016761E+03  0.00000000000E+00 0.  1.
        -11    1    3    3    0    0  0.48694680689E+02 -0.37462672569E+02 -0.93311269468E+02  0.11172115634E+03  0.00000000000E+00 0. -1.
          4    1    6    6  502    0  0.12590443445E+02  0.53459482762E+03  0.89451643146E+03  0.10421659154E+04  0.00000000000E+00 0. -1.
          1    1    5    5  503    0 -0.11478946949E+03 -0.75016563889E+02 -0.18111450129E+02  0.13831894950E+03  0.00000000000E+00 0. -1.
         -2    1    5    5    0  503 -0.16914396021E+03 -0.71911042146E+02  0.76365099258E+02  0.19902890655E+03  0.00000000000E+00 0.  1.
         -3    1    6    6    0  502  0.13641191836E+02  0.11105119022E+02  0.24763646689E+02  0.30375055235E+02  0.00000000000E+00 0.  1.
<mgrwt>
<rscale>  0 0.20055380E+04</rscale>
<asrwt>0</asrwt>
<pdfrwt beam="1">  1        2 0.19976922E+00 0.20055380E+04</pdfrwt>
<pdfrwt beam="2">  1       -2 0.11913696E+00 0.20055380E+04</pdfrwt>
<totfact> 0.83176636E+00</totfact>
</mgrwt>
</event>
<event>
11    1  0.2045212E-008  0.1398355E+04  0.7818608E-02  0.8955010E-01
         -2   -1    0    0    0  501 -0.00000000000E+00  0.00000000000E+00  0.22385519110E+03  0.22385519110E+03  0.00000000000E+00 0. -1.
          2   -1    0    0  501    0  0.00000000000E+00 -0.00000000000E+00 -0.21837733126E+04  0.21837733126E+04  0.00000000000E+00 0.  1.
         23    2    1    2    0    0  0.37829148550E+03 -0.88690168720E+02 -0.36718651830E+03  0.54027519668E+03  0.78108609618E+02 0.  0.
        254    2    1    2    0    0 -0.37829148550E+03  0.88690168720E+02 -0.15927316032E+04  0.18673533070E+04  0.89400448507E+03 0.  0.
         24    2    4    4    0    0 -0.41640384516E+02 -0.10172126625E+03  0.70417808445E+02  0.15248611114E+03  0.78817566025E+02 0.  0.
         11    1    3    3    0    0  0.47911631633E+02 -0.39755519890E+02 -0.53784208131E+02  0.82272515773E+02  0.00000000000E+00 0.  1.
        -11    1    3    3    0    0  0.33037985387E+03 -0.48934648829E+02 -0.31340231017E+03  0.45800268091E+03  0.00000000000E+00 0. -1.
          2    1    5    5  502    0 -0.20765691740E+02 -0.20090922772E+02 -0.14956930146E+02  0.32535655682E+02  0.00000000000E+00 0. -1.
          1    1    4    4  503    0 -0.18933248135E+03  0.19019456303E+03 -0.11568728873E+04  0.11875923701E+04  0.00000000000E+00 0. -1.
         -2    1    4    4    0  503 -0.14731861964E+03  0.21687193254E+00 -0.50627652437E+03  0.52727482573E+03  0.00000000000E+00 0.  1.
         -1    1    5    5    0  502 -0.20874692776E+02 -0.81630343473E+02  0.85374738591E+02  0.11995045545E+03  0.00000000000E+00 0.  1.
<mgrwt>
<rscale>  0 0.13983547E+04</rscale>
<asrwt>0</asrwt>
<pdfrwt beam="1">  1        2 0.33596511E+00 0.13983547E+04</pdfrwt>
<pdfrwt beam="2">  1       -2 0.34439262E-01 0.13983547E+04</pdfrwt>
<totfact> 0.40619094E+01</totfact>
</mgrwt>
</event>
<event>
11    1  0.2045212E-008  0.2168524E+04  0.7818608E-02  0.8531644E-01
          1   -1    0    0  501    0  0.00000000000E+00  0.00000000000E+00  0.22734718248E+04  0.22734718248E+04  0.00000000000E+00 0. -1.
         -1   -1    0    0    0  501 -0.00000000000E+00 -0.00000000000E+00 -0.51710527889E+03  0.51710527889E+03  0.00000000000E+00 0.  1.
         23    2    1    2    0    0  0.78680748178E+03 -0.22754415871E+02  0.12832140588E+04  0.15080301037E+04  0.89065684429E+02 0.  0.
        254    2    1    2    0    0 -0.78680748178E+03  0.22754415871E+02  0.47315248716E+03  0.12825470000E+04  0.89524843165E+03 0.  0.
         24    2    4    4    0    0 -0.14709155916E+02 -0.11917625359E+03  0.46110722852E+03  0.48319976180E+03  0.80267022618E+02 0.  0.
         11    1    3    3    0    0  0.61225623103E+03 -0.50826065974E+02  0.96394541937E+03  0.11430799416E+04  0.00000000000E+00 0. -1.
        -11    1    3    3    0    0  0.17455125075E+03  0.28071650102E+02  0.31926863942E+03  0.36495016207E+03  0.00000000000E+00 0.  1.
          4    1    5    5  502    0 -0.41478171080E+01 -0.10441568287E+03  0.44988251540E+03  0.46185941246E+03  0.00000000000E+00 0. -1.
          1    1    4    4  503    0 -0.76453759750E+03  0.14677982949E+03  0.30207061852E+02  0.77908569677E+03  0.00000000000E+00 0. -1.
         -2    1    4    4    0  503 -0.75607283700E+01 -0.48491600295E+01 -0.18161803216E+02  0.20261541465E+02  0.00000000000E+00 0.  1.
         -3    1    5    5    0  502 -0.10561338808E+02 -0.14760570718E+02  0.11224713130E+02  0.21340349345E+02  0.00000000000E+00 0.  1.
<mgrwt>
<rscale>  0 0.21685242E+04</rscale>
<asrwt>0</asrwt>
<pdfrwt beam="1">  1        1 0.34976489E+00 0.21685242E+04</pdfrwt>
<pdfrwt beam="2">  1       -1 0.79554659E-01 0.21685242E+04</pdfrwt>
<totfact> 0.28004730E+00</totfact>
</mgrwt>
</event>
<event>
11    1  0.2045212E-008  0.1633804E+04  0.7818608E-02  0.8800046E-01
          1   -1    0    0  501    0  0.00000000000E+00  0.00000000000E+00  0.10658617450E+04  0.10658617450E+04  0.00000000000E+00 0.  1.
         -1   -1    0    0    0  501 -0.00000000000E+00 -0.00000000000E+00 -0.62609292556E+03  0.62609292556E+03  0.00000000000E+00 0. -1.
         23    2    1    2    0    0  0.29423182624E+03 -0.42463941218E+03 -0.91626145816E+02  0.53231375472E+03  0.89841999737E+02 0.  0.
        254    2    1    2    0    0 -0.29423182624E+03  0.42463941218E+03  0.53139496521E+03  0.11596409158E+04  0.89190551438E+03 0.  0.
         24    2    4    4    0    0  0.14520015262E+03 -0.69199111894E+02 -0.12665381580E+03  0.21908665281E+03  0.78013915264E+02 0.  0.
         13    1    3    3    0    0  0.24052561607E+01 -0.36058168988E+02  0.60290895121E+01  0.36637777339E+02  0.00000000000E+00 0.  1.
        -13    1    3    3    0    0  0.29182657008E+03 -0.38858124320E+03 -0.97655235328E+02  0.49567597738E+03  0.00000000000E+00 0. -1.
          4    1    5    5  502    0 -0.96510706483E+01 -0.27736589267E+01 -0.47031022491E+01  0.11088530979E+02  0.00000000000E+00 0. -1.
          3    1    4    4  503    0 -0.15296476907E+03  0.23021269981E+03  0.21086089625E+03  0.34764698373E+03  0.00000000000E+00 0. -1.
         -2    1    4    4    0  503 -0.28646720980E+03  0.26362582427E+03  0.44718788476E+03  0.59290727925E+03  0.00000000000E+00 0.  1.
         -3    1    5    5    0  502  0.15485122327E+03 -0.66425452967E+02 -0.12195071355E+03  0.20799812183E+03  0.00000000000E+00 0.  1.
<mgrwt>
<rscale>  0 0.16338035E+04</rscale>
<asrwt>0</asrwt>
<pdfrwt beam="1">  1        1 0.16397873E+00 0.16338035E+04</pdfrwt>
<pdfrwt beam="2">  1       -1 0.96321988E-01 0.16338035E+04</pdfrwt>
<totfact> 0.13368035E+01</totfact>
</mgrwt>
</event>
<event>
11    1  0.2045212E-008  0.2244028E+04  0.7818608E-02  0.8500323E-01
         -1   -1    0    0    0  501 -0.00000000000E+00  0.00000000000E+00  0.50287230129E+03  0.50287230129E+03  0.00000000000E+00 0.  1.
          1   -1    0    0  501    0  0.00000000000E+00 -0.00000000000E+00 -0.25034505234E+04  0.25034505234E+04  0.00000000000E+00 0. -1.
         23    2    1    2    0    0 -0.61898146507E+03  0.63461460684E+03 -0.12549595434E+04  0.15388270730E+04  0.84803017812E+02 0.  0.
        254    2    1    2    0    0  0.61898146507E+03 -0.63461460684E+03 -0.74561867872E+03  0.14674957517E+04  0.90095661039E+03 0.  0.
         24    2    4    4    0    0  0.38933941810E+03 -0.39191342430E+03  0.80499701726E+02  0.56407324264E+03  0.80728597473E+02 0.  0.
         13    1    3    3    0    0 -0.44535075300E+02  0.81386152021E+02 -0.12011905058E+03  0.15177504730E+03  0.00000000000E+00 0.  1.
        -13    1    3    3    0    0 -0.57444638977E+03  0.55322845482E+03 -0.11348404928E+04  0.13870520257E+04  0.00000000000E+00 0. -1.
          2    1    5    5  502    0  0.37617871457E+03 -0.37866542484E+03  0.92726264505E+02  0.54175279362E+03  0.00000000000E+00 0. -1.
          1    1    4    4  503    0  0.14117218448E+03 -0.20845771065E+03 -0.71096592673E+03  0.75422592886E+03  0.00000000000E+00 0. -1.
         -2    1    4    4    0  503  0.88469862488E+02 -0.34243471882E+02 -0.11515245371E+03  0.14919658016E+03  0.00000000000E+00 0.  1.
         -1    1    5    5    0  502  0.13160703536E+02 -0.13247999464E+02 -0.12226562779E+02  0.22320449027E+02  0.00000000000E+00 0.  1.
<mgrwt>
<rscale>  0 0.22440285E+04</rscale>
<asrwt>0</asrwt>
<pdfrwt beam="1">  1        1 0.38514623E+00 0.22440285E+04</pdfrwt>
<pdfrwt beam="2">  1       -1 0.77364969E-01 0.22440285E+04</pdfrwt>
<totfact> 0.20493946E+00</totfact>
</mgrwt>
</event>
<event>
11    1  0.2045212E-008  0.2063555E+04  0.7818608E-02  0.8577470E-01
         -2   -1    0    0    0  501 -0.00000000000E+00  0.00000000000E+00  0.82365319184E+03  0.82365319184E+03  0.00000000000E+00 0.  1.
          2   -1    0    0  501    0  0.00000000000E+00 -0.00000000000E+00 -0.12924921420E+04  0.12924921420E+04  0.00000000000E+00 0. -1.
         23    2    1    2    0    0 -0.20286150025E+03 -0.57503362711E+03 -0.76933153014E+03  0.98573583107E+03  0.89373736682E+02 0.  0.
        254    2    1    2    0    0  0.20286150025E+03  0.57503362711E+03  0.30049257996E+03  0.11304095028E+04  0.90316852956E+03 0.  0.
         24    2    4    4    0    0 -0.27005434773E+03  0.51823538752E+03  0.22327446617E+03  0.63076220365E+03  0.80698219995E+02 0.  0.
         11    1    3    3    0    0 -0.10040645812E+00 -0.94050079376E+02 -0.12794167270E+03  0.15879074005E+03  0.00000000000E+00 0.  1.
        -11    1    3    3    0    0 -0.20276109379E+03 -0.48098354773E+03 -0.64138985744E+03  0.82694509102E+03  0.00000000000E+00 0. -1.
          2    1    5    5  502    0 -0.23000999329E+03  0.39418944404E+03  0.14572375784E+03  0.47908801739E+03  0.00000000000E+00 0. -1.
          1    1    4    4  503    0  0.17964314838E+03 -0.14025728653E+02  0.81849582994E+02  0.19790840320E+03  0.00000000000E+00 0. -1.
         -2    1    4    4    0  503  0.29327269960E+03  0.70823968243E+02 -0.46314692094E+01  0.30173889593E+03  0.00000000000E+00 0.  1.
         -1    1    5    5    0  502 -0.40044354432E+02  0.12404594348E+03  0.77550708337E+02  0.15167418627E+03  0.00000000000E+00 0.  1.
<mgrwt>
<rscale>  0 0.20635555E+04</rscale>
<asrwt>0</asrwt>
<pdfrwt beam="1">  1        2 0.19884494E+00 0.20635555E+04</pdfrwt>
<pdfrwt beam="2">  1       -2 0.12671588E+00 0.20635555E+04</pdfrwt>
<totfact> 0.71524322E+00</totfact>
</mgrwt>
</event>
<event>
12    1  0.2045212E-008  0.2367052E+04  0.7818608E-02  0.8451943E-01
          2   -1    0    0  501    0  0.00000000000E+00  0.00000000000E+00  0.22971231526E+04  0.22971231526E+04  0.00000000000E+00 0.  1.
         -2   -1    0    0    0  501 -0.00000000000E+00 -0.00000000000E+00 -0.60977720795E+03  0.60977720795E+03  0.00000000000E+00 0. -1.
         23    2    1    2    0    0 -0.29917642753E+03 -0.41056206759E+03 -0.34574827000E+03  0.62121541883E+03  0.91098760968E+02 0.  0.
        254    2    1    2    0    0  0.29917642753E+03  0.41056206759E+03  0.20330942147E+04  0.22856849417E+04  0.91258743196E+03 0.  0.
        -24    2    4    4    0    0  0.34411405328E+03  0.42526255846E+03  0.49271659533E+03  0.74266883273E+03  0.97594192974E+02 0.  0.
         24    2    4    4    0    0 -0.44937625746E+02 -0.14700490869E+02  0.15403776193E+04  0.15430161090E+04  0.76811508465E+02 0.  0.
         11    1    3    3    0    0 -0.29552772593E+03 -0.38051189504E+03 -0.34172310152E+03  0.59067809945E+03  0.00000000000E+00 0. -1.
        -11    1    3    3    0    0 -0.36487016011E+01 -0.30050172549E+02 -0.40251684863E+01  0.30537319380E+02  0.00000000000E+00 0.  1.
          4    1    6    6  502    0 -0.25891012092E+02  0.30739615951E+02  0.59541760752E+03  0.59677248248E+03  0.00000000000E+00 0. -1.
          1    1    5    5  503    0  0.87231896548E+02  0.13767851729E+03  0.94737449452E+02  0.18852045572E+03  0.00000000000E+00 0. -1.
         -2    1    5    5    0  503  0.25688215673E+03  0.28758404117E+03  0.39797914588E+03  0.55414837701E+03  0.00000000000E+00 0.  1.
         -3    1    6    6    0  502 -0.19046613655E+02 -0.45440106820E+02  0.94496001180E+03  0.94624362651E+03  0.00000000000E+00 0.  1.
<mgrwt>
<rscale>  0 0.23670516E+04</rscale>
<asrwt>0</asrwt>
<pdfrwt beam="1">  1        2 0.35340356E+00 0.23670516E+04</pdfrwt>
<pdfrwt beam="2">  1       -2 0.93811879E-01 0.23670516E+04</pdfrwt>
<totfact> 0.39377161E+00</totfact>
</mgrwt>
</event>
<event>
12    1  0.2045212E-008  0.1096621E+04  0.7818608E-02  0.9208491E-01
          1   -1    0    0  501    0  0.00000000000E+00  0.00000000000E+00  0.42316265811E+03  0.42316265811E+03  0.00000000000E+00 0. -1.
         -1   -1    0    0    0  501 -0.00000000000E+00 -0.00000000000E+00 -0.71047070088E+03  0.71047070088E+03  0.00000000000E+00 0.  1.
         23    2    1    2    0    0  0.72200084801E+02  0.36791467036E+01 -0.19861207751E+03  0.22882928642E+03  0.87690915298E+02 0.  0.
        254    2    1    2    0    0 -0.72200084801E+02 -0.36791467036E+01 -0.88695965253E+02  0.90480407256E+03  0.89753944042E+03 0.  0.
        -24    2    4    4    0    0 -0.21184249978E+03  0.17066040132E+03  0.32409322285E+03  0.42865024256E+03  0.68574018854E+02 0.  0.
         24    2    4    4    0    0  0.13964241497E+03 -0.17433954802E+03 -0.41278918811E+03  0.47615383000E+03  0.80207692524E+02 0.  0.
         11    1    3    3    0    0  0.47117133250E+02  0.15769371477E+02 -0.19442281987E+03  0.20067119925E+03  0.00000000000E+00 0.  1.
        -11    1    3    3    0    0  0.25082951551E+02 -0.12090224773E+02 -0.41892576403E+01  0.28158087171E+02  0.00000000000E+00 0. -1.
          4    1    6    6  502    0  0.55252981863E+02 -0.13160210550E+03 -0.24616605087E+03  0.28455180685E+03  0.00000000000E+00 0. -1.
          1    1    5    5  503    0 -0.12913388051E+02  0.41130376935E+02  0.46924735069E+02  0.63721222987E+02  0.00000000000E+00 0. -1.
         -2    1    5    5    0  503 -0.19892911173E+03  0.12953002438E+03  0.27716848778E+03  0.36492901958E+03  0.00000000000E+00 0.  1.
         -3    1    6    6    0  502  0.84389433112E+02 -0.42737442517E+02 -0.16662313724E+03  0.19160202315E+03  0.00000000000E+00 0.  1.
<mgrwt>
<rscale>  0 0.10966215E+04</rscale>
<asrwt>0</asrwt>
<pdfrwt beam="1">  1        1 0.65101948E-01 0.10966215E+04</pdfrwt>
<pdfrwt beam="2">  1       -1 0.10930318E+00 0.10966215E+04</pdfrwt>
<totfact> 0.42984991E+01</totfact>
</mgrwt>
</event>
<event>
12    1  0.2045212E-008  0.2504870E+04  0.7818608E-02  0.8401253E-01
         -2   -1    0    0    0  501 -0.00000000000E+00  0.00000000000E+00  0.97930708304E+03  0.97930708304E+03  0.00000000000E+00 0.  1.
          2   -1    0    0  501    0  0.00000000000E+00 -0.00000000000E+00 -0.16017384479E+04  0.16017384479E+04  0.00000000000E+00 0. -1.
         23    2    1    2    0    0  0.20433663307E+03 -0.10483857084E+04 -0.48244031682E+02  0.10727915666E+04  0.87682412933E+02 0.  0.
        254    2    1    2    0    0 -0.20433663307E+03  0.10483857084E+04 -0.57418733316E+03  0.15082539643E+04  0.89681261933E+03 0.  0.
        -24    2    4    4    0    0  0.23197911484E+03  0.60554546245E+02  0.41292431866E+02  0.26272783522E+03  0.99195199851E+02 0.  0.
         24    2    4    4    0    0 -0.43631574792E+03  0.98783116215E+03 -0.61547976503E+03  0.12455261291E+04  0.79612564099E+02 0.  0.
         11    1    3    3    0    0  0.58843745240E+02 -0.25145120314E+03 -0.48094320472E+02  0.26268490169E+03  0.00000000000E+00 0. -1.
        -11    1    3    3    0    0  0.14549288783E+03 -0.79693450526E+03 -0.14971121039E+00  0.81010666489E+03  0.00000000000E+00 0.  1.
          2    1    6    6  502    0 -0.30840704393E+03  0.60338648296E+03 -0.38960968552E+03  0.78165584474E+03  0.00000000000E+00 0. -1.
          1    1    5    5  503    0 -0.65383909743E+01  0.15548345072E+01 -0.96856134585E+01  0.11788942910E+02  0.00000000000E+00 0. -1.
         -2    1    5    5    0  503  0.23851750582E+03  0.58999711738E+02  0.50978045324E+02  0.25093889231E+03  0.00000000000E+00 0.  1.
         -1    1    6    6    0  502 -0.12790870399E+03  0.38444467919E+03 -0.22587007951E+03  0.46387028438E+03  0.00000000000E+00 0.  1.
<mgrwt>
<rscale>  0 0.25048703E+04</rscale>
<asrwt>0</asrwt>
<pdfrwt beam="1">  1        2 0.24642130E+00 0.25048703E+04</pdfrwt>
<pdfrwt beam="2">  1       -2 0.15066263E+00 0.25048703E+04</pdfrwt>
<totfact> 0.29380899E+00</totfact>
</mgrwt>
</event>
<event>
12    1  0.2045212E-008  0.1552019E+04  0.7818608E-02  0.8850579E-01
         -1   -1    0    0    0  501 -0.00000000000E+00  0.00000000000E+00  0.47858035697E+03  0.47858035697E+03  0.00000000000E+00 0.  1.
          1   -1    0    0  501    0  0.00000000000E+00 -0.00000000000E+00 -0.12582859284E+04  0.12582859284E+04  0.00000000000E+00 0. -1.
         23    2    1    2    0    0  0.42062329417E+03  0.23138693106E+03 -0.44378623027E+03  0.65993232803E+03  0.90003288517E+02 0.  0.
        254    2    1    2    0    0 -0.42062329417E+03 -0.23138693106E+03 -0.33591934118E+03  0.10769339574E+04  0.90359342476E+03 0.  0.
        -24    2    4    4    0    0 -0.10421111819E+02  0.21852897324E+02  0.27449420127E+03  0.29414351286E+03  0.10289407627E+03 0.  0.
         24    2    4    4    0    0 -0.41020218235E+03 -0.25323982838E+03 -0.61041354245E+03  0.78279044450E+03  0.88090556332E+02 0.  0.
         13    1    3    3    0    0 -0.16009415738E+01 -0.42690088275E+01 -0.20507323647E+01  0.49992953027E+01  0.00000000000E+00 0.  1.
        -13    1    3    3    0    0  0.42222423574E+03  0.23565593989E+03 -0.44173549790E+03  0.65493303273E+03  0.00000000000E+00 0. -1.
          4    1    6    6  502    0 -0.34145839926E+03 -0.16873551700E+03 -0.48484942984E+03  0.61655858014E+03  0.00000000000E+00 0. -1.
          1    1    5    5  503    0  0.10621732075E+02  0.42106183076E+02  0.25581578575E+03  0.25947537087E+03  0.00000000000E+00 0. -1.
         -2    1    5    5    0  503 -0.21042843894E+02 -0.20253285752E+02  0.18678415516E+02  0.34668141990E+02  0.00000000000E+00 0.  1.
         -3    1    6    6    0  502 -0.68743783091E+02 -0.84504311380E+02 -0.12556411261E+03  0.16623186436E+03  0.00000000000E+00 0.  1.
<mgrwt>
<rscale>  0 0.15520192E+04</rscale>
<asrwt>0</asrwt>
<pdfrwt beam="1">  1        1 0.19358245E+00 0.15520192E+04</pdfrwt>
<pdfrwt beam="2">  1       -1 0.73627748E-01 0.15520192E+04</pdfrwt>
<totfact> 0.17350112E+01</totfact>
</mgrwt>
</event>
<event>
11    1  0.2045212E-008  0.1308204E+04  0.7818608E-02  0.9023085E-01
          2   -1    0    0  501    0  0.00000000000E+00  0.00000000000E+00  0.97682618075E+03  0.97682618075E+03  0.00000000000E+00 0. -1.
         -2   -1    0    0    0  501 -0.00000000000E+00 -0.00000000000E+00 -0.43799942036E+03  0.43799942036E+03  0.00000000000E+00 0.  1.
         23    2    1    2    0    0  0.12575474683E+02 -0.28812902437E+03  0.33381287021E+03  0.45038600508E+03  0.90774688120E+02 0.  0.
        254    2    1    2    0    0 -0.12575474683E+02  0.28812902437E+03  0.20501389018E+03  0.96443959603E+03  0.89718256892E+03 0.  0.
         24    2    4    4    0    0 -0.27906815617E+03  0.32637030539E+03  0.40845812376E+03  0.59785680201E+03  0.78728043392E+02 0.  0.
         11    1    3    3    0    0 -0.11173496377E+02 -0.76161087023E+02  0.38409876802E+02  0.86027186597E+02  0.00000000000E+00 0.  1.
        -11    1    3    3    0    0  0.23748971059E+02 -0.21196793735E+03  0.29540299341E+03  0.36435881848E+03  0.00000000000E+00 0. -1.
          2    1    5    5  502    0 -0.23817946473E+03  0.23367260994E+03  0.29093744450E+03  0.44269283105E+03  0.00000000000E+00 0. -1.
          3    1    4    4  503    0  0.12708581434E+02 -0.47830381102E+02 -0.20409276610E+02  0.53533092291E+02  0.00000000000E+00 0. -1.
         -4    1    4    4    0  503  0.25378410006E+03  0.95891000865E+01 -0.18303495697E+03  0.31304970173E+03  0.00000000000E+00 0.  1.
         -1    1    5    5    0  502 -0.40888691445E+02  0.92697695443E+02  0.11752067926E+03  0.15516397096E+03  0.00000000000E+00 0.  1.
<mgrwt>
<rscale>  0 0.13082038E+04</rscale>
<asrwt>0</asrwt>
<pdfrwt beam="1">  1        2 0.15028095E+00 0.13082038E+04</pdfrwt>
<pdfrwt beam="2">  1       -2 0.67384527E-01 0.13082038E+04</pdfrwt>
<totfact> 0.51598448E+01</totfact>
</mgrwt>
</event>
<event>
12    1  0.2045212E-008  0.2293087E+04  0.7818608E-02  0.8480652E-01
         -2   -1    0    0    0  501 -0.00000000000E+00  0.00000000000E+00  0.79265858458E+03  0.79265858458E+03  0.00000000000E+00 0.  1.
          2   -1    0    0  501    0  0.00000000000E+00 -0.00000000000E+00 -0.16584214670E+04  0.16584214670E+04  0.00000000000E+00 0. -1.
         23    2    1    2    0    0 -0.93904670558E+03  0.22419489697E+03 -0.41176192390E+03  0.10526125473E+04  0.79832485593E+02 0.  0.
        254    2    1    2    0    0  0.93904670558E+03 -0.22419489697E+03 -0.45400095854E+03  0.13984675043E+04  0.90416946588E+03 0.  0.
        -24    2    4    4    0    0  0.98767715271E+02  0.29698570908E+03 -0.14009306595E+03  0.35769337388E+03  0.10179837727E+03 0.  0.
         24    2    4    4    0    0  0.84027899030E+03 -0.52118060605E+03 -0.31390789259E+03  0.10407741304E+04  0.83514188978E+02 0.  0.
         13    1    3    3    0    0 -0.16621026574E+03  0.52402433418E+02 -0.44451296906E+02  0.17985490058E+03  0.00000000000E+00 0.  1.
        -13    1    3    3    0    0 -0.77283643984E+03  0.17179246355E+03 -0.36731062700E+03  0.87275764676E+03  0.00000000000E+00 0. -1.
          2    1    6    6  502    0  0.96052202832E+01 -0.19498295064E+02 -0.96352632757E+01  0.23775661200E+02  0.00000000000E+00 0. -1.
          1    1    5    5  503    0  0.79780392769E+02  0.93372412574E+02 -0.70886806067E+02  0.14180358872E+03  0.00000000000E+00 0. -1.
         -2    1    5    5    0  503  0.18987322502E+02  0.20361329651E+03 -0.69206259880E+02  0.21588978516E+03  0.00000000000E+00 0.  1.
         -1    1    6    6    0  502  0.83067377002E+03 -0.50168231099E+03 -0.30427262932E+03  0.10169984692E+04  0.00000000000E+00 0.  1.
<mgrwt>
<rscale>  0 0.22930870E+04</rscale>
<asrwt>0</asrwt>
<pdfrwt beam="1">  1        2 0.25514176E+00 0.22930870E+04</pdfrwt>
<pdfrwt beam="2">  1       -2 0.12194748E+00 0.22930870E+04</pdfrwt>
<totfact> 0.47873281E+00</totfact>
</mgrwt>
</event>
<event>
11    1  0.2045212E-008  0.1518242E+04  0.7818608E-02  0.8872412E-01
         -1   -1    0    0    0  501 -0.00000000000E+00  0.00000000000E+00  0.43698070360E+03  0.43698070360E+03  0.00000000000E+00 0.  1.
          1   -1    0    0  501    0  0.00000000000E+00 -0.00000000000E+00 -0.13187412449E+04  0.13187412449E+04  0.00000000000E+00 0. -1.
         23    2    1    2    0    0  0.26291948508E+03 -0.32858353052E+03  0.31731166880E+02  0.43322511668E+03  0.97894548432E+02 0.  0.
        254    2    1    2    0    0 -0.26291948508E+03  0.32858353052E+03 -0.91349170818E+03  0.13224968318E+04  0.85874150774E+03 0.  0.
         24    2    4    4    0    0 -0.87514393465E+02  0.24498722360E+03  0.71704820509E+02  0.28133377805E+03  0.79558812179E+02 0.  0.
         11    1    3    3    0    0  0.23523733457E+03 -0.27686491914E+03  0.59800900471E+02  0.36819415357E+03  0.00000000000E+00 0.  1.
        -11    1    3    3    0    0  0.27682150509E+02 -0.51718611377E+02 -0.28069733591E+02  0.65030963113E+02  0.00000000000E+00 0. -1.
          2    1    5    5  502    0 -0.20805499070E+01 -0.49758551533E+01 -0.37968510954E+01  0.65957486810E+01  0.00000000000E+00 0. -1.
          1    1    4    4  503    0 -0.48967870026E+02  0.12794395174E+03 -0.18707098506E+03  0.23186862774E+03  0.00000000000E+00 0. -1.
         -2    1    4    4    0  503 -0.12643722159E+03 -0.44347644825E+02 -0.79812554363E+03  0.80929442603E+03  0.00000000000E+00 0.  1.
         -1    1    5    5    0  502 -0.85433843558E+02  0.24996307876E+03  0.75501671605E+02  0.27473802937E+03  0.00000000000E+00 0.  1.
<mgrwt>
<rscale>  0 0.15182417E+04</rscale>
<asrwt>0</asrwt>
<pdfrwt beam="1">  1        1 0.20288326E+00 0.15182417E+04</pdfrwt>
<pdfrwt beam="2">  1       -1 0.67227803E-01 0.15182417E+04</pdfrwt>
<totfact> 0.18986995E+01</totfact>
</mgrwt>
</event>
<event>
11    1  0.2045212E-008  0.1436143E+04  0.7818608E-02  0.8928064E-01
          1   -1    0    0  501    0  0.00000000000E+00  0.00000000000E+00  0.18948512658E+04  0.18948512658E+04  0.00000000000E+00 0. -1.
         -1   -1    0    0    0  501 -0.00000000000E+00 -0.00000000000E+00 -0.27211997180E+03  0.27211997180E+03  0.00000000000E+00 0.  1.
         23    2    1    2    0    0 -0.17549601071E+02 -0.38521448969E+03  0.20046979217E+03  0.44483220023E+03  0.94812220851E+02 0.  0.
        254    2    1    2    0    0  0.17549601071E+02  0.38521448969E+03  0.14222615018E+04  0.17221390373E+04  0.89119969303E+03 0.  0.
         24    2    4    4    0    0  0.16528792880E+03  0.63133276889E+03  0.90147565426E+03  0.11162849739E+04  0.86790686350E+02 0.  0.
         11    1    3    3    0    0  0.23991849709E+02 -0.76030449564E+02  0.12732306424E+02  0.80736297539E+02  0.00000000000E+00 0. -1.
        -11    1    3    3    0    0 -0.41541450780E+02 -0.30918404013E+03  0.18773748575E+03  0.36409590269E+03  0.00000000000E+00 0.  1.
          4    1    5    5  502    0  0.12277951538E+03  0.57100144562E+03  0.78604418317E+03  0.97927673218E+03  0.00000000000E+00 0. -1.
          1    1    4    4  503    0 -0.10043543833E+03 -0.23479362656E+03  0.38856990208E+03  0.46497515326E+03  0.00000000000E+00 0. -1.
         -2    1    4    4    0  503 -0.47302889402E+02 -0.11324652633E+02  0.13221594545E+03  0.14087891019E+03  0.00000000000E+00 0.  1.
         -3    1    5    5    0  502  0.42508413423E+02  0.60331323268E+02  0.11543147109E+03  0.13700824171E+03  0.00000000000E+00 0.  1.
<mgrwt>
<rscale>  0 0.14361433E+04</rscale>
<asrwt>0</asrwt>
<pdfrwt beam="1">  1        1 0.29151557E+00 0.14361433E+04</pdfrwt>
<pdfrwt beam="2">  1       -1 0.41864612E-01 0.14361433E+04</pdfrwt>
<totfact> 0.19136934E+01</totfact>
</mgrwt>
</event>
<event>
12    1  0.2045212E-008  0.1417028E+04  0.7818608E-02  0.8941584E-01
          1   -1    0    0  501    0  0.00000000000E+00  0.00000000000E+00  0.11837249501E+04  0.11837249501E+04  0.00000000000E+00 0.  1.
         -1   -1    0    0    0  501 -0.00000000000E+00 -0.00000000000E+00 -0.42407857373E+03  0.42407857373E+03  0.00000000000E+00 0. -1.
         23    2    1    2    0    0  0.72987833398E+01  0.34196515586E+03 -0.49093842807E+02  0.35576383119E+03  0.84641940652E+02 0.  0.
        254    2    1    2    0    0 -0.72987833398E+01 -0.34196515586E+03  0.80874021918E+03  0.12520396926E+04  0.89249605589E+03 0.  0.
        -24    2    4    4    0    0 -0.25089126345E+03  0.10120234040E+03 -0.10718348476E+02  0.28593791552E+03  0.91963409895E+02 0.  0.
         24    2    4    4    0    0  0.24359248011E+03 -0.44316749627E+03  0.81945856765E+03  0.96610177713E+03  0.78138169652E+02 0.  0.
         13    1    3    3    0    0 -0.86858888539E+01  0.15392680392E+02  0.14271569212E+02  0.22716887168E+02  0.00000000000E+00 0.  1.
        -13    1    3    3    0    0  0.15984672194E+02  0.32657247547E+03 -0.63365412019E+02  0.33304694402E+03  0.00000000000E+00 0. -1.
          4    1    6    6  502    0  0.91872660576E+01 -0.18455142522E+02  0.11252393104E+02  0.23486474697E+02  0.00000000000E+00 0. -1.
          1    1    5    5  503    0 -0.92635024701E+02  0.92642868080E+01 -0.38638651717E+02  0.10079692564E+03  0.00000000000E+00 0. -1.
         -2    1    5    5    0  503 -0.15825623875E+03  0.91938053596E+02  0.27920303240E+02  0.18514098988E+03  0.00000000000E+00 0.  1.
         -3    1    6    6    0  502  0.23440521405E+03 -0.42471235374E+03  0.80820617455E+03  0.94261530243E+03  0.00000000000E+00 0.  1.
<mgrwt>
<rscale>  0 0.14170284E+04</rscale>
<asrwt>0</asrwt>
<pdfrwt beam="1">  1        1 0.18211153E+00 0.14170284E+04</pdfrwt>
<pdfrwt beam="2">  1       -1 0.65242858E-01 0.14170284E+04</pdfrwt>
<totfact> 0.25473592E+01</totfact>
</mgrwt>
</event>
<event>
11    1  0.2045212E-008  0.1196916E+04  0.7818608E-02  0.9115560E-01
         -2   -1    0    0    0  501 -0.00000000000E+00  0.00000000000E+00  0.10155647452E+04  0.10155647452E+04  0.00000000000E+00 0.  1.
          2   -1    0    0  501    0  0.00000000000E+00 -0.00000000000E+00 -0.35266312043E+03  0.35266312043E+03  0.00000000000E+00 0. -1.
         23    2    1    2    0    0 -0.22901188044E+03  0.51067428333E+02  0.10387324891E+02  0.25147164240E+03  0.89865270236E+02 0.  0.
        254    2    1    2    0    0  0.22901188044E+03 -0.51067428333E+02  0.65251429989E+03  0.11167562232E+04  0.87539432655E+03 0.  0.
         24    2    4    4    0    0  0.28624452314E+03 -0.21580762055E+03  0.80387189869E+03  0.88434235464E+03  0.85688474055E+02 0.  0.
         13    1    3    3    0    0 -0.20911565750E+03  0.16056811616E+02  0.17952144422E+02  0.21049812089E+03  0.00000000000E+00 0. -1.
        -13    1    3    3    0    0 -0.19896222942E+02  0.35010616717E+02 -0.75648195318E+01  0.40973521509E+02  0.00000000000E+00 0.  1.
          2    1    5    5  502    0  0.15365917208E+03 -0.89641942189E+02  0.48615403908E+03  0.51767998675E+03  0.00000000000E+00 0. -1.
          3    1    4    4  503    0 -0.27488572400E+02  0.11351605575E+03 -0.10716256908E+03  0.15850972443E+03  0.00000000000E+00 0. -1.
         -4    1    4    4    0  503 -0.29744070301E+02  0.51224136457E+02 -0.44195029719E+02  0.73904144172E+02  0.00000000000E+00 0.  1.
         -1    1    5    5    0  502  0.13258535107E+03 -0.12616567836E+03  0.31771785961E+03  0.36666236789E+03  0.00000000000E+00 0.  1.
<mgrwt>
<rscale>  0 0.11969164E+04</rscale>
<asrwt>0</asrwt>
<pdfrwt beam="1">  1        2 0.54255865E-01 0.11969164E+04</pdfrwt>
<pdfrwt beam="2">  1       -2 0.15624073E+00 0.11969164E+04</pdfrwt>
<totfact> 0.24269100E+01</totfact>
</mgrwt>
</event>
<event>
12    1  0.2045212E-008  0.2181871E+04  0.7818608E-02  0.8526012E-01
         -1   -1    0    0    0  501 -0.00000000000E+00  0.00000000000E+00  0.25924014811E+03  0.25924014811E+03  0.00000000000E+00 0.  1.
          1   -1    0    0  501    0  0.00000000000E+00 -0.00000000000E+00 -0.45908776364E+04  0.45908776364E+04  0.00000000000E+00 0. -1.
         23    2    1    2    0    0  0.83871459452E+03  0.64556101905E+02 -0.10666587404E+04  0.13614808129E+04  0.90881647856E+02 0.  0.
        254    2    1    2    0    0 -0.83871459452E+03 -0.64556101905E+02 -0.32649787479E+04  0.34886369716E+04  0.89604242901E+03 0.  0.
        -24    2    4    4    0    0 -0.82165328830E+03  0.25123422403E+03 -0.19198518502E+04  0.21044807241E+04  0.69103038372E+02 0.  0.
         24    2    4    4    0    0 -0.17061306220E+02 -0.31579032594E+03 -0.13451268976E+04  0.13841562475E+04  0.80669254787E+02 0.  0.
         13    1    3    3    0    0  0.75399982862E+03  0.80150974389E+02 -0.98237033263E+03  0.12409638958E+04  0.00000000000E+00 0.  1.
        -13    1    3    3    0    0  0.84714765896E+02 -0.15594872484E+02 -0.84288407791E+02  0.12051691706E+03  0.00000000000E+00 0. -1.
          4    1    6    6  502    0  0.47202141234E+01 -0.28238895275E+03 -0.10932223726E+04  0.11291151213E+04  0.00000000000E+00 0. -1.
          3    1    5    5  503    0 -0.67603357599E+03  0.22569469971E+03 -0.15422764706E+04  0.16989927031E+04  0.00000000000E+00 0. -1.
         -4    1    5    5    0  503 -0.14561971231E+03  0.25539524318E+02 -0.37757537963E+03  0.40548802106E+03  0.00000000000E+00 0.  1.
         -3    1    6    6    0  502 -0.21781520343E+02 -0.33401373182E+02 -0.25190452500E+03  0.25504112624E+03  0.00000000000E+00 0.  1.
<mgrwt>
<rscale>  0 0.21818706E+04</rscale>
<asrwt>0</asrwt>
<pdfrwt beam="1">  1        1 0.70628892E+00 0.21818706E+04</pdfrwt>
<pdfrwt beam="2">  1       -1 0.39883097E-01 0.21818706E+04</pdfrwt>
<totfact> 0.14634341E-01</totfact>
</mgrwt>
</event>
<event>
11    1  0.2045212E-008  0.2598237E+04  0.7818608E-02  0.8368800E-01
         -1   -1    0    0    0  501 -0.00000000000E+00  0.00000000000E+00  0.21665092212E+04  0.21665092212E+04  0.00000000000E+00 0.  1.
          1   -1    0    0  501    0  0.00000000000E+00 -0.00000000000E+00 -0.77899907386E+03  0.77899907386E+03  0.00000000000E+00 0. -1.
         23    2    1    2    0    0  0.31842285397E+03  0.45143776192E+03  0.17435931615E+04  0.18312293593E+04  0.89970477431E+02 0.  0.
        254    2    1    2    0    0 -0.31842285397E+03 -0.45143776192E+03 -0.35608301418E+03  0.11142789357E+04  0.89979623625E+03 0.  0.
         24    2    4    4    0    0 -0.37184555430E+03 -0.38197174188E+02  0.18197192972E+03  0.42323987998E+03  0.79309976817E+02 0.  0.
         11    1    3    3    0    0  0.28452494656E+02  0.10064494850E+03  0.32325401267E+03  0.33975300855E+03  0.00000000000E+00 0. -1.
        -11    1    3    3    0    0  0.28997035931E+03  0.35079281342E+03  0.14203391488E+04  0.14914763508E+04  0.00000000000E+00 0.  1.
          2    1    5    5  502    0 -0.88806218901E+02 -0.35285874589E+02  0.71685474768E+02  0.11945896682E+03  0.00000000000E+00 0. -1.
          1    1    4    4  503    0 -0.96281630145E+01 -0.35425173811E+02 -0.88590823952E+01  0.37764107344E+02  0.00000000000E+00 0. -1.
         -2    1    4    4    0  503  0.63050863353E+02 -0.37781541392E+03 -0.52919586151E+03  0.65327494840E+03  0.00000000000E+00 0.  1.
         -1    1    5    5    0  502 -0.28303933540E+03 -0.29112995987E+01  0.11028645495E+03  0.30378091315E+03  0.00000000000E+00 0.  1.
<mgrwt>
<rscale>  0 0.25982368E+04</rscale>
<asrwt>0</asrwt>
<pdfrwt beam="1">  1        1 0.11984601E+00 0.25982368E+04</pdfrwt>
<pdfrwt beam="2">  1       -1 0.33330911E+00 0.25982368E+04</pdfrwt>
<totfact> 0.40698819E-01</totfact>
</mgrwt>
</event>
<event>
12    1  0.2045212E-008  0.1513938E+04  0.7818608E-02  0.8875237E-01
          1   -1    0    0  501    0  0.00000000000E+00  0.00000000000E+00  0.77385689002E+03  0.77385689002E+03  0.00000000000E+00 0. -1.
         -1   -1    0    0    0  501 -0.00000000000E+00 -0.00000000000E+00 -0.74044932330E+03  0.74044932330E+03  0.00000000000E+00 0.  1.
         23    2    1    2    0    0  0.34940076947E+03  0.29271446789E+03 -0.15770626892E+03  0.49125430125E+03  0.93256977318E+02 0.  0.
        254    2    1    2    0    0 -0.34940076947E+03 -0.29271446789E+03  0.19111383564E+03  0.10230519121E+04  0.89573883427E+03 0.  0.
        -24    2    4    4    0    0  0.21923917889E+03  0.63420792040E+02 -0.13492353980E+03  0.27182645332E+03  0.59977034831E+02 0.  0.
         24    2    4    4    0    0 -0.56863994836E+03 -0.35613525993E+03  0.32603737544E+03  0.75122545876E+03  0.88631853537E+02 0.  0.
         11    1    3    3    0    0  0.24874472616E+03  0.15923201188E+03 -0.74920996752E+02  0.30469973441E+03  0.00000000000E+00 0.  1.
        -11    1    3    3    0    0  0.10065604331E+03  0.13348245601E+03 -0.82785272172E+02  0.18655456683E+03  0.00000000000E+00 0. -1.
          2    1    6    6  502    0 -0.12278195422E+03 -0.80763976394E+02  0.32283030226E+02  0.15046734598E+03  0.00000000000E+00 0. -1.
          1    1    5    5  503    0  0.41191947125E+02  0.37796116001E+02 -0.36698431276E+02  0.66873744855E+02  0.00000000000E+00 0. -1.
         -2    1    5    5    0  503  0.17804723177E+03  0.25624676038E+02 -0.98225108524E+02  0.20495270846E+03  0.00000000000E+00 0.  1.
         -1    1    6    6    0  502 -0.44585799414E+03 -0.27537128353E+03  0.29375434522E+03  0.60075811278E+03  0.00000000000E+00 0.  1.
<mgrwt>
<rscale>  0 0.15139377E+04</rscale>
<asrwt>0</asrwt>
<pdfrwt beam="1">  1        1 0.11905491E+00 0.15139377E+04</pdfrwt>
<pdfrwt beam="2">  1       -1 0.11391528E+00 0.15139377E+04</pdfrwt>
<totfact> 0.15824098E+01</totfact>
</mgrwt>
</event>
<event>
11    1  0.2045212E-008  0.3202073E+04  0.7818608E-02  0.8188270E-01
          2   -1    0    0  501    0  0.00000000000E+00  0.00000000000E+00  0.23435794496E+04  0.23435794496E+04  0.00000000000E+00 0.  1.
         -2   -1    0    0    0  501 -0.00000000000E+00 -0.00000000000E+00 -0.10937617181E+04  0.10937617181E+04  0.00000000000E+00 0. -1.
         23    2    1    2    0    0  0.37131166787E+01  0.10096890451E+04 -0.56731466136E+03  0.11618174745E+04  0.92131232752E+02 0.  0.
        254    2    1    2    0    0 -0.37131166787E+01 -0.10096890451E+04  0.18171323928E+04  0.22755236933E+04  0.92550104846E+03 0.  0.
         24    2    4    4    0    0  0.10649631944E+03  0.13931387232E+03  0.15695709199E+03  0.24882130181E+03  0.80787934955E+02 0.  0.
         11    1    3    3    0    0  0.90157324952E+01  0.10060998549E+04 -0.56796774004E+03  0.11553811298E+04  0.00000000000E+00 0. -1.
        -11    1    3    3    0    0 -0.53026158164E+01  0.35891901625E+01  0.65307867991E+00  0.64363446366E+01  0.00000000000E+00 0.  1.
          2    1    5    5  502    0  0.69067523237E+00  0.54392237645E+02  0.26127076278E+02  0.60345808994E+02  0.00000000000E+00 0. -1.
          3    1    4    4  503    0 -0.83947506770E+02 -0.11093875774E+04  0.16150263255E+04  0.19611471165E+04  0.00000000000E+00 0. -1.
         -4    1    4    4    0  503 -0.26261929344E+02 -0.39615339995E+02  0.45148975388E+02  0.65555274955E+02  0.00000000000E+00 0.  1.
         -1    1    5    5    0  502  0.10580564420E+03  0.84921634677E+02  0.13083001571E+03  0.18847549282E+03  0.00000000000E+00 0.  1.
<mgrwt>
<rscale>  0 0.32020728E+04</rscale>
<asrwt>0</asrwt>
<pdfrwt beam="1">  1        2 0.36055068E+00 0.32020728E+04</pdfrwt>
<pdfrwt beam="2">  1       -2 0.16827103E+00 0.32020728E+04</pdfrwt>
<totfact> 0.79047400E-01</totfact>
</mgrwt>
</event>
<event>
11    1  0.2045212E-008  0.2927305E+04  0.7818608E-02  0.8264800E-01
          2   -1    0    0  501    0  0.00000000000E+00  0.00000000000E+00  0.14253074262E+04  0.14253074262E+04  0.00000000000E+00 0. -1.
         -2   -1    0    0    0  501 -0.00000000000E+00 -0.00000000000E+00 -0.15030287488E+04  0.15030287488E+04  0.00000000000E+00 0.  1.
         23    2    1    2    0    0  0.10297312810E+04  0.80427843072E+03 -0.24882427817E+03  0.13332833084E+04  0.92306846611E+02 0.  0.
        254    2    1    2    0    0 -0.10297312810E+04 -0.80427843072E+03  0.17110295552E+03  0.15950528666E+04  0.89872527548E+03 0.  0.
         24    2    4    4    0    0 -0.28747597941E+03  0.74796290705E+02 -0.18955541321E+03  0.36164420247E+03  0.81353246147E+02 0.  0.
         11    1    3    3    0    0  0.25754536076E+03  0.23409929068E+03 -0.98418396296E+02  0.36168808589E+03  0.00000000000E+00 0. -1.
        -11    1    3    3    0    0  0.77218592021E+03  0.57017914004E+03 -0.15040588188E+03  0.97159522251E+03  0.00000000000E+00 0.  1.
          2    1    5    5  502    0 -0.16972894398E+03  0.33461963491E+01 -0.11480295629E+03  0.20493616134E+03  0.00000000000E+00 0. -1.
          1    1    4    4  503    0 -0.57877279109E+03 -0.72793280403E+03  0.39075677637E+03  0.10087392969E+04  0.00000000000E+00 0. -1.
         -2    1    4    4    0  503 -0.16348251046E+03 -0.15114191740E+03 -0.30098407646E+02  0.22466936722E+03  0.00000000000E+00 0.  1.
         -1    1    5    5    0  502 -0.11774703544E+03  0.71450094355E+02 -0.74752456928E+02  0.15670804113E+03  0.00000000000E+00 0.  1.
<mgrwt>
<rscale>  0 0.29273046E+04</rscale>
<asrwt>0</asrwt>
<pdfrwt beam="1">  1        2 0.21927807E+00 0.29273046E+04</pdfrwt>
<pdfrwt beam="2">  1       -2 0.23123519E+00 0.29273046E+04</pdfrwt>
<totfact> 0.10123541E+00</totfact>
</mgrwt>
</event>
<event>
12    1  0.2045212E-008  0.2449725E+04  0.7818608E-02  0.8421119E-01
          2   -1    0    0  501    0  0.00000000000E+00  0.00000000000E+00  0.73619001241E+03  0.73619001241E+03  0.00000000000E+00 0.  1.
         -2   -1    0    0    0  501 -0.00000000000E+00 -0.00000000000E+00 -0.20379083093E+04  0.20379083093E+04  0.00000000000E+00 0. -1.
         23    2    1    2    0    0 -0.20052087505E+03 -0.76068201212E+03  0.23174509910E+03  0.82542389464E+03  0.93664667794E+02 0.  0.
        254    2    1    2    0    0  0.20052087505E+03  0.76068201212E+03 -0.15334633960E+04  0.19486744270E+04  0.90938236784E+03 0.  0.
        -24    2    4    4    0    0 -0.35118461157E+03  0.31372753655E+03 -0.69963255144E+03  0.85062634554E+03  0.11101294563E+03 0.  0.
         24    2    4    4    0    0  0.55170548662E+03  0.44695447557E+03 -0.83383084453E+03  0.10980480815E+04  0.79299841131E+02 0.  0.
         13    1    3    3    0    0 -0.11862440532E+03 -0.32522595767E+03  0.66440322169E+02  0.35250246735E+03  0.00000000000E+00 0. -1.
        -13    1    3    3    0    0 -0.81896469728E+02 -0.43545605445E+03  0.16530477693E+03  0.47292142729E+03  0.00000000000E+00 0.  1.
          4    1    6    6  502    0  0.40783289688E+03  0.32770313846E+03 -0.55829258194E+03  0.76511935395E+03  0.00000000000E+00 0. -1.
          1    1    5    5  503    0 -0.33137076316E+03  0.27223348273E+03 -0.67137147381E+03  0.79665381920E+03  0.00000000000E+00 0. -1.
         -2    1    5    5    0  503 -0.19813848414E+02  0.41494053817E+02 -0.28261077636E+02  0.53972526348E+02  0.00000000000E+00 0.  1.
         -3    1    6    6    0  502  0.14387258974E+03  0.11925133710E+03 -0.27553826258E+03  0.33292872755E+03  0.00000000000E+00 0.  1.
<mgrwt>
<rscale>  0 0.24497247E+04</rscale>
<asrwt>0</asrwt>
<pdfrwt beam="1">  1        2 0.11326000E+00 0.24497247E+04</pdfrwt>
<pdfrwt beam="2">  1       -2 0.31352436E+00 0.24497247E+04</pdfrwt>
<totfact> 0.90340426E-01</totfact>
</mgrwt>
</event>
<event>
11    1  0.2045212E-008  0.2293692E+04  0.7818608E-02  0.8480412E-01
         -1   -1    0    0    0  501 -0.00000000000E+00  0.00000000000E+00  0.99194841341E+03  0.99194841341E+03  0.00000000000E+00 0.  1.
          1   -1    0    0  501    0  0.00000000000E+00 -0.00000000000E+00 -0.13259313750E+04  0.13259313750E+04  0.00000000000E+00 0. -1.
         23    2    1    2    0    0  0.75871819591E+03  0.56625086046E+03 -0.33533328217E+03  0.10085833954E+04  0.92188489656E+02 0.  0.
        254    2    1    2    0    0 -0.75871819591E+03 -0.56625086046E+03  0.13503206162E+01  0.13092963930E+04  0.90441245207E+03 0.  0.
         24    2    4    4    0    0 -0.76667063896E+03 -0.47816596405E+02  0.65650236102E+02  0.77488739349E+03  0.77911639490E+02 0.  0.
         13    1    3    3    0    0  0.95761098143E+02  0.69400248113E+02 -0.75531583462E+02  0.14032677028E+03  0.00000000000E+00 0.  1.
        -13    1    3    3    0    0  0.66295709777E+03  0.49685061234E+03 -0.25980169871E+03  0.86825662515E+03  0.00000000000E+00 0. -1.
          2    1    5    5  502    0 -0.14472449656E+03 -0.39674560233E+02  0.97289636905E+01  0.15037919859E+03  0.00000000000E+00 0. -1.
          3    1    4    4  503    0 -0.46974568840E+02 -0.13307840395E+03 -0.11498489656E+02  0.14159338608E+03  0.00000000000E+00 0. -1.
         -4    1    4    4    0  503  0.54927011883E+02 -0.38535586010E+03 -0.52801425830E+02  0.39281561338E+03  0.00000000000E+00 0.  1.
         -1    1    5    5    0  502 -0.62194614240E+03 -0.81420361712E+01  0.55921272411E+02  0.62450819491E+03  0.00000000000E+00 0.  1.
<mgrwt>
<rscale>  0 0.22936918E+04</rscale>
<asrwt>0</asrwt>
<pdfrwt beam="1">  1        1 0.20398944E+00 0.22936918E+04</pdfrwt>
<pdfrwt beam="2">  1       -1 0.15260745E+00 0.22936918E+04</pdfrwt>
<totfact> 0.26104893E+00</totfact>
</mgrwt>
</event>
<event>
11    1  0.2045212E-008  0.1734753E+04  0.7818608E-02  0.8741788E-01
         -1   -1    0    0    0  501 -0.00000000000E+00  0.00000000000E+00  0.22495227688E+04  0.22495227688E+04  0.00000000000E+00 0.  1.
          1   -1    0    0  501    0  0.00000000000E+00 -0.00000000000E+00 -0.33444519841E+03  0.33444519841E+03  0.00000000000E+00 0. -1.
         23    2    1    2    0    0 -0.18803393113E+03  0.31471175887E+03 -0.66445802931E+02  0.38378490442E+03  0.92062792213E+02 0.  0.
        254    2    1    2    0    0  0.18803393113E+03 -0.31471175887E+03  0.19815233733E+04  0.22001830627E+04  0.88315931760E+03 0.  0.
         24    2    4    4    0    0  0.12281152342E+03 -0.51915057482E+03  0.18177836491E+04  0.18961124922E+04  0.79405280668E+02 0.  0.
         13    1    3    3    0    0 -0.85146868399E+02  0.86795384004E+02 -0.55031747167E+02  0.13346130930E+03  0.00000000000E+00 0.  1.
        -13    1    3    3    0    0 -0.10288706273E+03  0.22791637487E+03 -0.11414055764E+02  0.25032359513E+03  0.00000000000E+00 0. -1.
          4    1    5    5  502    0  0.11005016852E+03 -0.36094125572E+03  0.11795095997E+04  0.12383991785E+04  0.00000000000E+00 0. -1.
          1    1    4    4  503    0  0.75118384516E+02  0.20650460718E+03  0.10333758474E+03  0.24282829510E+03  0.00000000000E+00 0. -1.
         -2    1    4    4    0  503 -0.98959768053E+01 -0.20657912331E+01  0.60402139443E+02  0.61242275429E+02  0.00000000000E+00 0.  1.
         -3    1    5    5    0  502  0.12761354900E+02 -0.15820931909E+03  0.63827404941E+03  0.65771331366E+03  0.00000000000E+00 0.  1.
<mgrwt>
<rscale>  0 0.17347531E+04</rscale>
<asrwt>0</asrwt>
<pdfrwt beam="1">  1        1 0.51453109E-01 0.17347531E+04</pdfrwt>
<pdfrwt beam="2">  1       -1 0.34608042E+00 0.17347531E+04</pdfrwt>
<totfact> 0.11934047E+00</totfact>
</mgrwt>
</event>
<event>
12    1  0.2045212E-008  0.1362597E+04  0.7818608E-02  0.8981347E-01
          2   -1    0    0  501    0  0.00000000000E+00  0.00000000000E+00  0.22840439399E+03  0.22840439399E+03  0.00000000000E+00 0. -1.
         -2   -1    0    0    0  501 -0.00000000000E+00 -0.00000000000E+00 -0.20322190442E+04  0.20322190442E+04  0.00000000000E+00 0.  1.
         23    2    1    2    0    0  0.26703130372E+03  0.13459822354E+03 -0.92441026111E+03  0.97638786191E+03  0.96832469161E+02 0.  0.
        254    2    1    2    0    0 -0.26703130372E+03 -0.13459822354E+03 -0.87940438912E+03  0.12842355763E+04  0.88684076187E+03 0.  0.
        -24    2    4    4    0    0  0.27118066897E+03 -0.16696793455E+03 -0.12739131473E+03  0.35553716274E+03  0.93599575996E+02 0.  0.
         24    2    4    4    0    0 -0.53821197269E+03  0.32369711012E+02 -0.75201307439E+03  0.92869841357E+03  0.78975651771E+02 0.  0.
         13    1    3    3    0    0  0.83569564418E+02  0.68700166373E+02 -0.21502767753E+03  0.24070830285E+03  0.00000000000E+00 0. -1.
        -13    1    3    3    0    0  0.18346173930E+03  0.65898057167E+02 -0.70938258358E+03  0.73567955906E+03  0.00000000000E+00 0.  1.
          2    1    6    6  502    0 -0.48608188488E+03  0.32576793144E+02 -0.63297075146E+03  0.79874202248E+03  0.00000000000E+00 0. -1.
          1    1    5    5  503    0  0.15389287706E+03 -0.60980862306E+02 -0.10462068145E+03  0.19582433497E+03  0.00000000000E+00 0. -1.
         -4    1    5    5    0  503  0.11728779191E+03 -0.10598707224E+03 -0.22770633275E+02  0.15971282777E+03  0.00000000000E+00 0.  1.
         -1    1    6    6    0  502 -0.52130087811E+02 -0.20708213171E+00 -0.11904232293E+03  0.12995639110E+03  0.00000000000E+00 0.  1.
<mgrwt>
<rscale>  0 0.13625972E+04</rscale>
<asrwt>0</asrwt>
<pdfrwt beam="1">  1        2 0.35139139E-01 0.13625972E+04</pdfrwt>
<pdfrwt beam="2">  1       -2 0.31264907E+00 0.13625972E+04</pdfrwt>
<totfact> 0.38889192E+00</totfact>
</mgrwt>
</event>
<event>
11    1  0.2045212E-008  0.2241632E+04  0.7818608E-02  0.8501297E-01
          1   -1    0    0  501    0  0.00000000000E+00  0.00000000000E+00  0.11169856965E+04  0.11169856965E+04  0.00000000000E+00 0. -1.
         -1   -1    0    0    0  501 -0.00000000000E+00 -0.00000000000E+00 -0.11246591560E+04  0.11246591560E+04  0.00000000000E+00 0.  1.
         23    2    1    2    0    0 -0.40040285958E+02  0.79073563972E+03  0.50206678105E+03  0.94194216977E+03  0.91202643192E+02 0.  0.
        254    2    1    2    0    0  0.40040285958E+02 -0.79073563972E+03 -0.50974024057E+03  0.12997026828E+04  0.89583808486E+03 0.  0.
         24    2    4    4    0    0  0.66248780857E+02  0.66505496031E+02  0.16175042454E+03  0.20387335495E+03  0.81174275796E+02 0.  0.
         13    1    3    3    0    0 -0.59590956995E+02  0.66028971447E+03  0.39234138557E+03  0.77036702423E+03  0.00000000000E+00 0. -1.
        -13    1    3    3    0    0  0.19550671036E+02  0.13044592526E+03  0.10972539548E+03  0.17157514554E+03  0.00000000000E+00 0.  1.
          4    1    5    5  502    0 -0.16772469039E+02  0.26963392384E+02  0.34704859645E+02  0.47040063026E+02  0.00000000000E+00 0. -1.
          3    1    4    4  503    0 -0.59354387974E+02 -0.38595104828E+03 -0.34981366868E+03  0.52426210795E+03  0.00000000000E+00 0. -1.
         -4    1    4    4    0  503  0.33145893076E+02 -0.47129008748E+03 -0.32167699643E+03  0.57156721986E+03  0.00000000000E+00 0.  1.
         -3    1    5    5    0  502  0.83021249896E+02  0.39542103647E+02  0.12704556490E+03  0.15683329192E+03  0.00000000000E+00 0.  1.
<mgrwt>
<rscale>  0 0.22416317E+04</rscale>
<asrwt>0</asrwt>
<pdfrwt beam="1">  1        1 0.17184395E+00 0.22416317E+04</pdfrwt>
<pdfrwt beam="2">  1       -1 0.17302449E+00 0.22416317E+04</pdfrwt>
<totfact> 0.26151769E+00</totfact>
</mgrwt>
</event>
<event>
12    1  0.2045212E-008  0.2063039E+04  0.7818608E-02  0.8577702E-01
         -2   -1    0    0    0  501 -0.00000000000E+00  0.00000000000E+00  0.37494821468E+03  0.37494821468E+03  0.00000000000E+00 0.  1.
          2   -1    0    0  501    0  0.00000000000E+00 -0.00000000000E+00 -0.28378121401E+04  0.28378121401E+04  0.00000000000E+00 0. -1.
         23    2    1    2    0    0  0.61787874877E+03  0.26929182337E+03 -0.23644795842E+03  0.72011982571E+03  0.91502415381E+02 0.  0.
        254    2    1    2    0    0 -0.61787874877E+03 -0.26929182337E+03 -0.22264159670E+04  0.24926405291E+04  0.89556491377E+03 0.  0.
        -24    2    4    4    0    0 -0.13537593537E+03 -0.22297063630E+03 -0.76147689020E+02  0.28696464040E+03  0.92237117084E+02 0.  0.
         24    2    4    4    0    0 -0.48250281340E+03 -0.46321187072E+02 -0.21502682780E+04  0.22056758887E+04  0.79986506998E+02 0.  0.
         13    1    3    3    0    0  0.26787079210E+03  0.14007795110E+03 -0.63484421749E+02  0.30888001789E+03  0.00000000000E+00 0. -1.
        -13    1    3    3    0    0  0.35000795666E+03  0.12921387228E+03 -0.17296353667E+03  0.41123980782E+03  0.00000000000E+00 0.  1.
          4    1    6    6  502    0 -0.42992854072E+03 -0.15233207150E+02 -0.18833352329E+04  0.19318442485E+04  0.00000000000E+00 0. -1.
          1    1    5    5  503    0 -0.11608382110E+03 -0.18804342110E+03 -0.25450722291E+02  0.22244891774E+03  0.00000000000E+00 0. -1.
         -2    1    5    5    0  503 -0.19292114271E+02 -0.34927215201E+02 -0.50696966728E+02  0.64515722659E+02  0.00000000000E+00 0.  1.
         -1    1    6    6    0  502 -0.52574272681E+02 -0.31087979922E+02 -0.26693304503E+03  0.27383164019E+03  0.00000000000E+00 0.  1.
<mgrwt>
<rscale>  0 0.20630391E+04</rscale>
<asrwt>0</asrwt>
<pdfrwt beam="1">  1        2 0.43658647E+00 0.20630391E+04</pdfrwt>
<pdfrwt beam="2">  1       -2 0.57684343E-01 0.20630391E+04</pdfrwt>
<totfact> 0.57127055E+00</totfact>
</mgrwt>
</event>
<event>
12    1  0.2045212E-008  0.1494745E+04  0.7818608E-02  0.8887955E-01
          1   -1    0    0  501    0  0.00000000000E+00  0.00000000000E+00  0.16994455009E+04  0.16994455009E+04  0.00000000000E+00 0. -1.
         -1   -1    0    0    0  501 -0.00000000000E+00 -0.00000000000E+00 -0.32867536968E+03  0.32867536968E+03  0.00000000000E+00 0.  1.
         23    2    1    2    0    0  0.26221357024E+03  0.58763426888E+02  0.91586552735E+03  0.95884982545E+03  0.91510801645E+02 0.  0.
        254    2    1    2    0    0 -0.26221357024E+03 -0.58763426888E+02  0.45490460384E+03  0.10692710451E+04  0.92961996136E+03 0.  0.
        -24    2    4    4    0    0 -0.19829059635E+03 -0.37740796040E+02 -0.26313508549E+03  0.34371916123E+03  0.90328623898E+02 0.  0.
         24    2    4    4    0    0 -0.63922973889E+02 -0.21022630848E+02  0.71803968933E+03  0.72555188389E+03  0.79476053991E+02 0.  0.
         11    1    3    3    0    0  0.13477422865E+03  0.68286805239E+02  0.40564502294E+03  0.43286841548E+03  0.00000000000E+00 0. -1.
        -11    1    3    3    0    0  0.12743934159E+03 -0.95233783508E+01  0.51022050441E+03  0.52598140997E+03  0.00000000000E+00 0.  1.
          4    1    6    6  502    0 -0.23472088307E+02  0.25876108675E+02  0.40103564555E+03  0.40255446952E+03  0.00000000000E+00 0. -1.
          1    1    5    5  503    0 -0.13919986074E+03 -0.23851148678E+02 -0.11006466525E+03  0.17905225232E+03  0.00000000000E+00 0. -1.
         -2    1    5    5    0  503 -0.59090735603E+02 -0.13889647362E+02 -0.15307042023E+03  0.16466690890E+03  0.00000000000E+00 0.  1.
         -3    1    6    6    0  502 -0.40450885582E+02 -0.46898739523E+02  0.31700404378E+03  0.32299741437E+03  0.00000000000E+00 0.  1.
<mgrwt>
<rscale>  0 0.14947453E+04</rscale>
<asrwt>0</asrwt>
<pdfrwt beam="1">  1        1 0.26145315E+00 0.14947453E+04</pdfrwt>
<pdfrwt beam="2">  1       -1 0.50565443E-01 0.14947453E+04</pdfrwt>
<totfact> 0.18137273E+01</totfact>
</mgrwt>
</event>
<event>
12    1  0.2045212E-008  0.1505508E+04  0.7818608E-02  0.8880798E-01
         -1   -1    0    0    0  501 -0.00000000000E+00  0.00000000000E+00  0.47388944955E+03  0.47388944955E+03  0.00000000000E+00 0.  1.
          1   -1    0    0  501    0  0.00000000000E+00 -0.00000000000E+00 -0.11957192157E+04  0.11957192157E+04  0.00000000000E+00 0. -1.
         23    2    1    2    0    0 -0.31932906595E+03  0.14273448612E+03  0.14599408274E+03  0.39112932241E+03  0.96559249995E+02 0.  0.
        254    2    1    2    0    0  0.31932906595E+03 -0.14273448612E+03 -0.86782384885E+03  0.12784793428E+04  0.87123304084E+03 0.  0.
        -24    2    4    4    0    0 -0.16430937398E+03 -0.36099921266E+03 -0.36594064489E+03  0.54358561327E+03  0.65228532480E+02 0.  0.
         24    2    4    4    0    0  0.48363843993E+03  0.21826472654E+03 -0.50188320396E+03  0.73489372954E+03  0.81464175362E+02 0.  0.
         13    1    3    3    0    0 -0.19619898713E+03  0.98197213301E+02  0.40782762664E+02  0.22315906654E+03  0.00000000000E+00 0.  1.
        -13    1    3    3    0    0 -0.12313007883E+03  0.44537272817E+02  0.10521132008E+03  0.16797025586E+03  0.00000000000E+00 0. -1.
          4    1    6    6  502    0  0.10037184388E+03  0.78613084485E+02 -0.14294646702E+03  0.19154168353E+03  0.00000000000E+00 0. -1.
          3    1    5    5  503    0 -0.81332006010E+02 -0.24937121700E+03 -0.22518017200E+03  0.34569785787E+03  0.00000000000E+00 0. -1.
         -4    1    5    5    0  503 -0.82977367965E+02 -0.11162799566E+03 -0.14076047289E+03  0.19788775540E+03  0.00000000000E+00 0.  1.
         -3    1    6    6    0  502  0.38326659604E+03  0.13965164206E+03 -0.35893673694E+03  0.54335204600E+03  0.00000000000E+00 0.  1.
<mgrwt>
<rscale>  0 0.15055082E+04</rscale>
<asrwt>0</asrwt>
<pdfrwt beam="1">  1        1 0.18395680E+00 0.15055082E+04</pdfrwt>
<pdfrwt beam="2">  1       -1 0.72906070E-01 0.15055082E+04</pdfrwt>
<totfact> 0.19741008E+01</totfact>
</mgrwt>
</event>
<event>
12    1  0.2045212E-008  0.2287009E+04  0.7818608E-02  0.8483061E-01
          1   -1    0    0  501    0  0.00000000000E+00  0.00000000000E+00  0.16011656934E+04  0.16011656934E+04  0.00000000000E+00 0.  1.
         -1   -1    0    0    0  501 -0.00000000000E+00 -0.00000000000E+00 -0.81665687477E+03  0.81665687477E+03  0.00000000000E+00 0. -1.
         23    2    1    2    0    0  0.36703351559E+03 -0.85356226783E+03  0.58625659837E+02  0.93327858444E+03  0.65496576703E+02 0.  0.
        254    2    1    2    0    0 -0.36703351559E+03  0.85356226783E+03  0.72588315876E+03  0.14845439837E+04  0.90204342065E+03 0.  0.
        -24    2    4    4    0    0 -0.29427690286E+03  0.83292002797E+03  0.91064185503E+03  0.12702177564E+04  0.61886120789E+02 0.  0.
         24    2    4    4    0    0 -0.72756612733E+02  0.20642239865E+02 -0.18475869628E+03  0.21432622731E+03  0.77976465057E+02 0.  0.
         11    1    3    3    0    0  0.36678913770E+03 -0.83699596765E+03  0.51628141446E+02  0.91529338814E+03  0.00000000000E+00 0. -1.
        -11    1    3    3    0    0  0.24437789235E+00 -0.16566300186E+02  0.69975183908E+01  0.17985196302E+02  0.00000000000E+00 0.  1.
          4    1    6    6  502    0 -0.76931560319E+02  0.36355784685E+02 -0.17683007887E+03  0.19623731767E+03  0.00000000000E+00 0. -1.
          1    1    5    5  503    0 -0.21892905383E+03  0.57462959531E+03  0.59811149265E+03  0.85782659090E+03  0.00000000000E+00 0. -1.
         -2    1    5    5    0  503 -0.75347849026E+02  0.25829043266E+03  0.31253036239E+03  0.41239116548E+03  0.00000000000E+00 0.  1.
         -3    1    6    6    0  502  0.41749475859E+01 -0.15713544820E+02 -0.79286174022E+01  0.18088909643E+02  0.00000000000E+00 0.  1.
<mgrwt>
<rscale>  0 0.22870094E+04</rscale>
<asrwt>0</asrwt>
<pdfrwt beam="1">  1        1 0.24633318E+00 0.22870094E+04</pdfrwt>
<pdfrwt beam="2">  1       -1 0.12563952E+00 0.22870094E+04</pdfrwt>
<totfact> 0.27848461E+00</totfact>
</mgrwt>
</event>
<event>
11    1  0.2045212E-008  0.2911609E+04  0.7818608E-02  0.8269432E-01
         -2   -1    0    0    0  501 -0.00000000000E+00  0.00000000000E+00  0.52048782136E+03  0.52048782136E+03  0.00000000000E+00 0. -1.
          2   -1    0    0  501    0  0.00000000000E+00 -0.00000000000E+00 -0.40718855356E+04  0.40718855356E+04  0.00000000000E+00 0.  1.
         23    2    1    2    0    0  0.74299827813E+03  0.17910020826E+03 -0.32881969703E+04  0.33770785906E+04  0.91088778585E+02 0.  0.
        254    2    1    2    0    0 -0.74299827813E+03 -0.17910020826E+03 -0.26320074397E+03  0.12152947664E+04  0.90749292655E+03 0.  0.
         24    2    4    4    0    0 -0.17094011253E+03 -0.36856556496E+03  0.19540783838E+03  0.45784172676E+03  0.79835616817E+02 0.  0.
         11    1    3    3    0    0  0.59874457532E+03  0.11966549356E+03 -0.27330632769E+04  0.28004374252E+04  0.00000000000E+00 0.  1.
        -11    1    3    3    0    0  0.14425370281E+03  0.59434714707E+02 -0.55513369335E+03  0.57664116535E+03  0.00000000000E+00 0. -1.
          4    1    5    5  502    0 -0.91874553228E+02 -0.18418163766E+03  0.55249808379E+02  0.21311112244E+03  0.00000000000E+00 0. -1.
          3    1    4    4  503    0 -0.16221887652E+03  0.61474734957E+02 -0.13124736631E+03  0.21753155656E+03  0.00000000000E+00 0. -1.
         -4    1    4    4    0  503 -0.40983928909E+03  0.12799062174E+03 -0.32736121604E+03  0.53992148309E+03  0.00000000000E+00 0.  1.
         -3    1    5    5    0  502 -0.79065559301E+02 -0.18438392730E+03  0.14015803001E+03  0.24473060432E+03  0.00000000000E+00 0.  1.
<mgrwt>
<rscale>  0 0.29116091E+04</rscale>
<asrwt>0</asrwt>
<pdfrwt beam="1">  1        2 0.62644389E+00 0.29116091E+04</pdfrwt>
<pdfrwt beam="2">  1       -2 0.80075054E-01 0.29116091E+04</pdfrwt>
<totfact> 0.35526710E-01</totfact>
</mgrwt>
</event>
<event>
12    1  0.2045212E-008  0.1684780E+04  0.7818608E-02  0.8770093E-01
         -2   -1    0    0    0  501 -0.00000000000E+00  0.00000000000E+00  0.46227420859E+03  0.46227420859E+03  0.00000000000E+00 0.  1.
          2   -1    0    0  501    0  0.00000000000E+00 -0.00000000000E+00 -0.15350644939E+04  0.15350644939E+04  0.00000000000E+00 0. -1.
         23    2    1    2    0    0 -0.42446634454E+03 -0.34740628939E+03 -0.68211309320E+03  0.87990395047E+03  0.89943774543E+02 0.  0.
        254    2    1    2    0    0  0.42446634454E+03  0.34740628939E+03 -0.39067719215E+03  0.11174347521E+04  0.89172246193E+03 0.  0.
        -24    2    4    4    0    0  0.15095696897E+03  0.40098499103E+03 -0.61468985940E+03  0.75112470724E+03  0.52609248958E+02 0.  0.
         24    2    4    4    0    0  0.27350937557E+03 -0.53578701640E+02  0.22401266724E+03  0.36631004483E+03  0.79519293633E+02 0.  0.
         13    1    3    3    0    0 -0.27989025813E+03 -0.22300971170E+03 -0.37479226550E+03  0.51820954294E+03  0.00000000000E+00 0.  1.
        -13    1    3    3    0    0 -0.14457608641E+03 -0.12439657768E+03 -0.30732082770E+03  0.36169440753E+03  0.00000000000E+00 0. -1.
          2    1    6    6  502    0  0.31402383368E+02 -0.19453384929E+02  0.35801874637E+01  0.37112822699E+02  0.00000000000E+00 0. -1.
          1    1    5    5  503    0  0.21015907963E+01  0.41965631366E+02 -0.45869067615E+02  0.62205323436E+02  0.00000000000E+00 0. -1.
         -2    1    5    5    0  503  0.14885537817E+03  0.35901935966E+03 -0.56882079178E+03  0.68891938380E+03  0.00000000000E+00 0.  1.
         -1    1    6    6    0  502  0.24210699220E+03 -0.34125316711E+02  0.22043247978E+03  0.32919722213E+03  0.00000000000E+00 0.  1.
<mgrwt>
<rscale>  0 0.16847798E+04</rscale>
<asrwt>0</asrwt>
<pdfrwt beam="1">  1        2 0.23616377E+00 0.16847798E+04</pdfrwt>
<pdfrwt beam="2">  1       -2 0.71119110E-01 0.16847798E+04</pdfrwt>
<totfact> 0.20744337E+01</totfact>
</mgrwt>
</event>
<event>
11    1  0.2045212E-008  0.2240981E+04  0.7818608E-02  0.8501562E-01
         -2   -1    0    0    0  501 -0.00000000000E+00  0.00000000000E+00  0.28496480917E+03  0.28496480917E+03  0.00000000000E+00 0.  1.
          2   -1    0    0  501    0  0.00000000000E+00 -0.00000000000E+00 -0.44058023239E+04  0.44058023239E+04  0.00000000000E+00 0. -1.
         23    2    1    2    0    0 -0.34003369227E+03  0.55302779704E+03 -0.32162882050E+03  0.73026151399E+03  0.91510242376E+02 0.  0.
        254    2    1    2    0    0  0.34003369227E+03 -0.55302779704E+03 -0.37992086942E+04  0.39605056191E+04  0.91112864096E+03 0.  0.
         24    2    4    4    0    0 -0.12148911441E+03 -0.49981043575E+03 -0.13382708882E+04  0.14360068170E+04  0.81095817624E+02 0.  0.
         13    1    3    3    0    0 -0.69192820982E+02  0.19091292957E+03 -0.88585890173E+02  0.22154650323E+03  0.00000000000E+00 0. -1.
        -13    1    3    3    0    0 -0.27084087129E+03  0.36211486746E+03 -0.23304293033E+03  0.50871501076E+03  0.00000000000E+00 0.  1.
          2    1    5    5  502    0 -0.92186831653E+01 -0.20523057530E+03 -0.52039181128E+03  0.55947494172E+03  0.00000000000E+00 0. -1.
          3    1    4    4  503    0  0.41467696029E+03 -0.14886570441E+03 -0.17009844618E+04  0.17571186980E+04  0.00000000000E+00 0. -1.
         -4    1    4    4    0  503  0.46845846391E+02  0.95648343120E+02 -0.75995334417E+03  0.76738010410E+03  0.00000000000E+00 0.  1.
         -1    1    5    5    0  502 -0.11227043125E+03 -0.29457986045E+03 -0.81787907691E+03  0.87653187527E+03  0.00000000000E+00 0.  1.
<mgrwt>
<rscale>  0 0.22409807E+04</rscale>
<asrwt>0</asrwt>
<pdfrwt beam="1">  1        2 0.67781572E+00 0.22409807E+04</pdfrwt>
<pdfrwt beam="2">  1       -2 0.43840741E-01 0.22409807E+04</pdfrwt>
<totfact> 0.68796990E-01</totfact>
</mgrwt>
</event>
<event>
12    1  0.2045212E-008  0.2171117E+04  0.7818608E-02  0.8530547E-01
          1   -1    0    0  501    0  0.00000000000E+00  0.00000000000E+00  0.30436310883E+04  0.30436310883E+04  0.00000000000E+00 0. -1.
         -1   -1    0    0    0  501 -0.00000000000E+00 -0.00000000000E+00 -0.38718143277E+03  0.38718143277E+03  0.00000000000E+00 0.  1.
         23    2    1    2    0    0 -0.13570927350E+03 -0.86247357721E+03  0.79959191454E+03  0.11880541177E+04  0.99235470312E+02 0.  0.
        254    2    1    2    0    0  0.13570927350E+03  0.86247357721E+03  0.18568577410E+04  0.22427584033E+04  0.90540980068E+03 0.  0.
        -24    2    4    4    0    0  0.42299606846E+03  0.79484991967E+03  0.16197807804E+04  0.18557277457E+04  0.96558898344E+02 0.  0.
         24    2    4    4    0    0 -0.28728679497E+03  0.67623657533E+02  0.23707696055E+03  0.38703065761E+03  0.80502068816E+02 0.  0.
         13    1    3    3    0    0 -0.29520313133E+02 -0.22798337698E+03  0.27145494868E+03  0.35571850983E+03  0.00000000000E+00 0. -1.
        -13    1    3    3    0    0 -0.10618896036E+03 -0.63449020022E+03  0.52813696586E+03  0.83233560791E+03  0.00000000000E+00 0.  1.
          4    1    6    6  502    0 -0.26886117407E+03  0.83207678172E+02  0.22310285653E+03  0.35914444617E+03  0.00000000000E+00 0. -1.
          1    1    5    5  503    0  0.20344551746E+03  0.46869361092E+03  0.86306741513E+03  0.10029701603E+04  0.00000000000E+00 0. -1.
         -2    1    5    5    0  503  0.21955055101E+03  0.32615630875E+03  0.75671336531E+03  0.85275758538E+03  0.00000000000E+00 0.  1.
         -3    1    6    6    0  502 -0.18425620900E+02 -0.15584020640E+02  0.13974104028E+02  0.27886211436E+02  0.00000000000E+00 0.  1.
<mgrwt>
<rscale>  0 0.21711172E+04</rscale>
<asrwt>0</asrwt>
<pdfrwt beam="1">  1        1 0.46825092E+00 0.21711172E+04</pdfrwt>
<pdfrwt beam="2">  1       -1 0.59566376E-01 0.21711172E+04</pdfrwt>
<totfact> 0.14520355E+00</totfact>
</mgrwt>
</event>
<event>
11    1  0.2045212E-008  0.1472789E+04  0.7818608E-02  0.8902752E-01
         -2   -1    0    0    0  501 -0.00000000000E+00  0.00000000000E+00  0.41528899643E+03  0.41528899643E+03  0.00000000000E+00 0.  1.
          2   -1    0    0  501    0  0.00000000000E+00 -0.00000000000E+00 -0.13057821194E+04  0.13057821194E+04  0.00000000000E+00 0. -1.
         23    2    1    2    0    0  0.21391255365E+03 -0.39742275037E+03 -0.31489278612E+03  0.55656419492E+03  0.83083170321E+02 0.  0.
        254    2    1    2    0    0 -0.21391255365E+03  0.39742275037E+03 -0.57560033687E+03  0.11645069209E+04  0.90612206570E+03 0.  0.
         24    2    4    4    0    0  0.39357732996E+02  0.34870553190E+03  0.14548434512E+03  0.38800269126E+03  0.78967174342E+02 0.  0.
         11    1    3    3    0    0  0.20100872894E+03 -0.36053177058E+03 -0.31189902919E+03  0.51736705647E+03  0.00000000000E+00 0. -1.
        -11    1    3    3    0    0  0.12903824710E+02 -0.36890979792E+02 -0.29937569316E+01  0.39197138451E+02  0.00000000000E+00 0.  1.
          2    1    5    5  502    0  0.28497496543E+02  0.69528626782E+02  0.50658543679E+01  0.75312682411E+02  0.00000000000E+00 0. -1.
          1    1    4    4  503    0 -0.17316569410E+03  0.63214123804E+02 -0.33936476814E+03  0.38620050352E+03  0.00000000000E+00 0. -1.
         -2    1    4    4    0  503 -0.80104592549E+02 -0.14496905331E+02 -0.38171991385E+03  0.39030372614E+03  0.00000000000E+00 0.  1.
         -1    1    5    5    0  502  0.10860236452E+02  0.27917690512E+03  0.14041849076E+03  0.31269000885E+03  0.00000000000E+00 0.  1.
<mgrwt>
<rscale>  0 0.14727891E+04</rscale>
<asrwt>0</asrwt>
<pdfrwt beam="1">  1        2 0.20088955E+00 0.14727891E+04</pdfrwt>
<pdfrwt beam="2">  1       -2 0.63890616E-01 0.14727891E+04</pdfrwt>
<totfact> 0.35976110E+01</totfact>
</mgrwt>
</event>
<event>
12    1  0.2045212E-008  0.2227969E+04  0.7818608E-02  0.8506876E-01
         -2   -1    0    0    0  501 -0.00000000000E+00  0.00000000000E+00  0.42818017811E+03  0.42818017811E+03  0.00000000000E+00 0.  1.
          2   -1    0    0  501    0  0.00000000000E+00 -0.00000000000E+00 -0.28982237441E+04  0.28982237441E+04  0.00000000000E+00 0. -1.
         23    2    1    2    0    0  0.90399281366E+03 -0.17109554062E+03 -0.12487968258E+04  0.15539868417E+04  0.94365782562E+02 0.  0.
        254    2    1    2    0    0 -0.90399281366E+03  0.17109554062E+03 -0.12212467401E+04  0.17724170804E+04  0.89640505107E+03 0.  0.
        -24    2    4    4    0    0 -0.84666292840E+01  0.33694631394E+03 -0.50525125874E+03  0.61119916451E+03  0.68418432843E+02 0.  0.
         24    2    4    4    0    0 -0.89552618437E+03 -0.16585077332E+03 -0.71599548137E+03  0.11612179159E+04  0.79397059107E+02 0.  0.
         11    1    3    3    0    0  0.59450571423E+03 -0.80260744254E+02 -0.75748677844E+03  0.96626344794E+03  0.00000000000E+00 0. -1.
        -11    1    3    3    0    0  0.30948709943E+03 -0.90834796366E+02 -0.49131004741E+03  0.58772339381E+03  0.00000000000E+00 0.  1.
          2    1    6    6  502    0 -0.13205525548E+03  0.18874757807E+01 -0.11669637521E+03  0.17623903385E+03  0.00000000000E+00 0. -1.
          3    1    5    5  503    0  0.28203628089E+01  0.13102266479E+03 -0.25678907775E+03  0.28829763021E+03  0.00000000000E+00 0. -1.
         -4    1    5    5    0  503 -0.11286992093E+02  0.20592364915E+03 -0.24846218099E+03  0.32290153430E+03  0.00000000000E+00 0.  1.
         -1    1    6    6    0  502 -0.76347092890E+03 -0.16773824910E+03 -0.59929910616E+03  0.98497888207E+03  0.00000000000E+00 0.  1.
<mgrwt>
<rscale>  0 0.22279694E+04</rscale>
<asrwt>0</asrwt>
<pdfrwt beam="1">  1        2 0.44588059E+00 0.22279694E+04</pdfrwt>
<pdfrwt beam="2">  1       -2 0.65873872E-01 0.22279694E+04</pdfrwt>
<totfact> 0.38992941E+00</totfact>
</mgrwt>
</event>
<event>
11    1  0.2045212E-008  0.1671110E+04  0.7818608E-02  0.8778015E-01
         -2   -1    0    0    0  501 -0.00000000000E+00  0.00000000000E+00  0.67863120249E+03  0.67863120249E+03  0.00000000000E+00 0.  1.
          2   -1    0    0  501    0  0.00000000000E+00 -0.00000000000E+00 -0.10287651529E+04  0.10287651529E+04  0.00000000000E+00 0. -1.
         23    2    1    2    0    0  0.47757222741E+03 -0.21431527029E+02 -0.47559276037E+03  0.68044010118E+03  0.90970955928E+02 0.  0.
        254    2    1    2    0    0 -0.47757222741E+03  0.21431527029E+02  0.12545880998E+03  0.10269562542E+04  0.90020258401E+03 0.  0.
         24    2    4    4    0    0 -0.54303626930E+03  0.98384576169E+02  0.41795679997E+03  0.69652868964E+03  0.76788112639E+02 0.  0.
         11    1    3    3    0    0  0.37405699286E+03  0.11467855327E+02 -0.33111463254E+03  0.49968694749E+03  0.00000000000E+00 0. -1.
        -11    1    3    3    0    0  0.10351523455E+03 -0.32899382356E+02 -0.14447812783E+03  0.18075315368E+03  0.00000000000E+00 0.  1.
          4    1    5    5  502    0 -0.19271996915E+03  0.62468008735E+02  0.18455246409E+03  0.27404899311E+03  0.00000000000E+00 0. -1.
          1    1    4    4  503    0  0.11325059544E+02  0.26439269352E+02 -0.23289319177E+02  0.37009246484E+02  0.00000000000E+00 0. -1.
         -2    1    4    4    0  503  0.54138982342E+02 -0.10339231849E+03 -0.26920867082E+03  0.29341831806E+03  0.00000000000E+00 0.  1.
         -3    1    5    5    0  502 -0.35031630015E+03  0.35916567433E+02  0.23340433588E+03  0.42247969653E+03  0.00000000000E+00 0.  1.
<mgrwt>
<rscale>  0 0.16711100E+04</rscale>
<asrwt>0</asrwt>
<pdfrwt beam="1">  1        2 0.15827156E+00 0.16711100E+04</pdfrwt>
<pdfrwt beam="2">  1       -2 0.10440480E+00 0.16711100E+04</pdfrwt>
<totfact> 0.17161447E+01</totfact>
</mgrwt>
</event>
<event>
12    1  0.2045212E-008  0.1746830E+04  0.7818608E-02  0.8735097E-01
         -2   -1    0    0    0  501 -0.00000000000E+00  0.00000000000E+00  0.22504489066E+03  0.22504489066E+03  0.00000000000E+00 0.  1.
          2   -1    0    0  501    0  0.00000000000E+00 -0.00000000000E+00 -0.33897851354E+04  0.33897851354E+04  0.00000000000E+00 0. -1.
         23    2    1    2    0    0  0.28171665289E+02 -0.64581995346E+03 -0.11320144019E+04  0.13067679529E+04  0.91152737731E+02 0.  0.
        254    2    1    2    0    0 -0.28171665289E+02  0.64581995346E+03 -0.20327258428E+04  0.23080620732E+04  0.88164569210E+03 0.  0.
        -24    2    4    4    0    0 -0.18647974238E+03 -0.11958840073E+03 -0.20419816498E+03  0.31778683697E+03  0.10107177282E+03 0.  0.
         24    2    4    4    0    0  0.15830807709E+03  0.76540835419E+03 -0.18285276779E+04  0.19902752362E+04  0.82283966680E+02 0.  0.
         13    1    3    3    0    0  0.30448164866E+01 -0.60365069314E+03 -0.10412644775E+04  0.12035925981E+04  0.00000000000E+00 0.  1.
        -13    1    3    3    0    0  0.25126848802E+02 -0.42169260316E+02 -0.90749924468E+02  0.10317535480E+03  0.00000000000E+00 0. -1.
          2    1    6    6  502    0  0.45745500331E+02  0.14048752894E+03 -0.27936667042E+03  0.31603027249E+03  0.00000000000E+00 0. -1.
          1    1    5    5  503    0 -0.10841391320E+03 -0.93395043949E+02 -0.18383657897E+03  0.23296372803E+03  0.00000000000E+00 0. -1.
         -2    1    5    5    0  503 -0.78065829181E+02 -0.26193356779E+02 -0.20361586008E+02  0.84823108938E+02  0.00000000000E+00 0.  1.
         -1    1    6    6    0  502  0.11256257676E+03  0.62492082525E+03 -0.15491610074E+04  0.16742449637E+04  0.00000000000E+00 0.  1.
<mgrwt>
<rscale>  0 0.17468301E+04</rscale>
<asrwt>0</asrwt>
<pdfrwt beam="1">  1        2 0.52150539E+00 0.17468301E+04</pdfrwt>
<pdfrwt beam="2">  1       -2 0.34622292E-01 0.17468301E+04</pdfrwt>
<totfact> 0.72412678E+00</totfact>
</mgrwt>
</event>
<event>
12    1  0.2045212E-008  0.1198413E+04  0.7818608E-02  0.9114247E-01
         -2   -1    0    0    0  501 -0.00000000000E+00  0.00000000000E+00  0.48114482945E+03  0.48114482945E+03  0.00000000000E+00 0.  1.
          2   -1    0    0  501    0  0.00000000000E+00 -0.00000000000E+00 -0.74623768707E+03  0.74623768707E+03  0.00000000000E+00 0. -1.
         23    2    1    2    0    0  0.50890887612E+02  0.17527553412E+03 -0.31275705684E+03  0.37353402959E+03  0.91647691505E+02 0.  0.
        254    2    1    2    0    0 -0.50890887612E+02 -0.17527553412E+03  0.47664199227E+02  0.85384848693E+03  0.83275084355E+03 0.  0.
        -24    2    4    4    0    0 -0.15915300526E+03 -0.39045596731E+03  0.28009321300E+03  0.50962029788E+03  0.58949966526E+02 0.  0.
         24    2    4    4    0    0  0.10826211764E+03  0.21518043319E+03 -0.23242901377E+03  0.34422818905E+03  0.80290066297E+02 0.  0.
         11    1    3    3    0    0  0.54565063322E+02  0.78851913135E+02 -0.21863103353E+03  0.23873520721E+03  0.00000000000E+00 0. -1.
        -11    1    3    3    0    0 -0.36741757097E+01  0.96423620987E+02 -0.94126023310E+02  0.13479882238E+03  0.00000000000E+00 0.  1.
          4    1    6    6  502    0 -0.52396194575E+01  0.67161367230E+02 -0.59935392133E+02  0.90168476146E+02  0.00000000000E+00 0. -1.
          3    1    5    5  503    0 -0.42030577304E+02 -0.15427307791E+03  0.13132131178E+03  0.20691070278E+03  0.00000000000E+00 0. -1.
         -4    1    5    5    0  503 -0.11712242795E+03 -0.23618288940E+03  0.14877190122E+03  0.30270959510E+03  0.00000000000E+00 0.  1.
         -3    1    6    6    0  502  0.11350173710E+03  0.14801906596E+03 -0.17249362164E+03  0.25405971290E+03  0.00000000000E+00 0.  1.
<mgrwt>
<rscale>  0 0.11984130E+04</rscale>
<asrwt>0</asrwt>
<pdfrwt beam="1">  1        2 0.11480580E+00 0.11984130E+04</pdfrwt>
<pdfrwt beam="2">  1       -2 0.74022282E-01 0.11984130E+04</pdfrwt>
<totfact> 0.61265490E+01</totfact>
</mgrwt>
</event>
<event>
11    1  0.2045212E-008  0.1213868E+04  0.7818608E-02  0.9100804E-01
          1   -1    0    0  501    0  0.00000000000E+00  0.00000000000E+00  0.22861805479E+04  0.22861805479E+04  0.00000000000E+00 0. -1.
         -1   -1    0    0    0  501 -0.00000000000E+00 -0.00000000000E+00 -0.16112842935E+03  0.16112842935E+03  0.00000000000E+00 0.  1.
         23    2    1    2    0    0  0.40238855415E+02 -0.21954055565E+03  0.21893781637E+03  0.32773034021E+03  0.98265901496E+02 0.  0.
        254    2    1    2    0    0 -0.40238855415E+02  0.21954055565E+03  0.19061143022E+04  0.21195786370E+04  0.89973587489E+03 0.  0.
         24    2    4    4    0    0 -0.26806492293E+03  0.11304412992E+01  0.12412769737E+03  0.30638021792E+03  0.81246980711E+02 0.  0.
         11    1    3    3    0    0 -0.32105263355E+02 -0.61380952258E+02  0.73683014345E+02  0.10113137910E+03  0.00000000000E+00 0. -1.
        -11    1    3    3    0    0  0.72344118771E+02 -0.15815960339E+03  0.14525480203E+03  0.22659896111E+03  0.00000000000E+00 0.  1.
          2    1    5    5  502    0 -0.12527722312E+02  0.20225984106E+02  0.86870591188E+01  0.25327835587E+02  0.00000000000E+00 0. -1.
          3    1    4    4  503    0  0.67944413493E+02  0.72912901392E+02  0.31557706029E+03  0.33094050144E+03  0.00000000000E+00 0. -1.
         -4    1    4    4    0  503  0.15988165402E+03  0.14549721296E+03  0.14664095445E+04  0.14822579177E+04  0.00000000000E+00 0.  1.
         -1    1    5    5    0  502 -0.25553720062E+03 -0.19095542807E+02  0.11544063825E+03  0.28105238233E+03  0.00000000000E+00 0.  1.
<mgrwt>
<rscale>  0 0.12138677E+04</rscale>
<asrwt>0</asrwt>
<pdfrwt beam="1">  1        1 0.35172006E+00 0.12138677E+04</pdfrwt>
<pdfrwt beam="2">  1       -1 0.24788991E-01 0.12138677E+04</pdfrwt>
<totfact> 0.26836833E+01</totfact>
</mgrwt>
</event>
<event>
11    1  0.2045212E-008  0.1912748E+04  0.7818608E-02  0.8648537E-01
          2   -1    0    0  501    0  0.00000000000E+00  0.00000000000E+00  0.10078852083E+04  0.10078852083E+04  0.00000000000E+00 0. -1.
         -2   -1    0    0    0  501 -0.00000000000E+00 -0.00000000000E+00 -0.90749501661E+03  0.90749501661E+03  0.00000000000E+00 0.  1.
         23    2    1    2    0    0 -0.22391271017E+03 -0.46192908851E+03  0.57742385547E+03  0.77842202403E+03  0.94906027458E+02 0.  0.
        254    2    1    2    0    0  0.22391271017E+03  0.46192908851E+03 -0.47703366382E+03  0.11369582008E+04  0.89531974705E+03 0.  0.
         24    2    4    4    0    0  0.68998296186E+01  0.62842766821E+03 -0.11872449805E+03  0.64462599382E+03  0.80487413021E+02 0.  0.
         11    1    3    3    0    0 -0.79873119615E+02 -0.14726635188E+03  0.12606721034E+03  0.20966648553E+03  0.00000000000E+00 0.  1.
        -11    1    3    3    0    0 -0.14403959055E+03 -0.31466273662E+03  0.45135664513E+03  0.56875553850E+03  0.00000000000E+00 0. -1.
          4    1    5    5  502    0 -0.36203180436E+02  0.25499557884E+03 -0.54797561978E+02  0.26331765664E+03  0.00000000000E+00 0. -1.
          1    1    4    4  503    0  0.22722476607E+03 -0.94447829046E+02 -0.19646658341E+03  0.31488189075E+03  0.00000000000E+00 0. -1.
         -2    1    4    4    0  503 -0.10211885520E+02 -0.72050750659E+02 -0.16184258236E+03  0.17745031626E+03  0.00000000000E+00 0.  1.
         -3    1    5    5    0  502  0.43103010054E+02  0.37343208938E+03 -0.63926936071E+02  0.38130833718E+03  0.00000000000E+00 0.  1.
<mgrwt>
<rscale>  0 0.19127476E+04</rscale>
<asrwt>0</asrwt>
<pdfrwt beam="1">  1        2 0.15505926E+00 0.19127476E+04</pdfrwt>
<pdfrwt beam="2">  1       -2 0.13961462E+00 0.19127476E+04</pdfrwt>
<totfact> 0.84258119E+00</totfact>
</mgrwt>
</event>
<event>
11    1  0.2045212E-008  0.1246168E+04  0.7818608E-02  0.9073379E-01
          2   -1    0    0  501    0  0.00000000000E+00  0.00000000000E+00  0.13175422680E+04  0.13175422680E+04  0.00000000000E+00 0. -1.
         -2   -1    0    0    0  501 -0.00000000000E+00 -0.00000000000E+00 -0.29466492950E+03  0.29466492950E+03  0.00000000000E+00 0.  1.
         23    2    1    2    0    0  0.22688436627E+03 -0.18830755533E+03  0.26374382953E+03  0.40644922517E+03  0.93294769277E+02 0.  0.
        254    2    1    2    0    0 -0.22688436627E+03  0.18830755533E+03  0.75913350901E+03  0.12057579724E+04  0.88917509659E+03 0.  0.
         24    2    4    4    0    0  0.79776615830E+02  0.26591907953E+03  0.66809465926E+02  0.29666260146E+03  0.80423436126E+02 0.  0.
         13    1    3    3    0    0  0.16790408182E+03 -0.17739584257E+03  0.23846138101E+03  0.34135743128E+03  0.00000000000E+00 0. -1.
        -13    1    3    3    0    0  0.58980284452E+02 -0.10911712754E+02  0.25282448520E+02  0.65091793895E+02  0.00000000000E+00 0.  1.
          2    1    5    5  502    0  0.76001924743E+02  0.25115688961E+03  0.82226995590E+02  0.27498609887E+03  0.00000000000E+00 0. -1.
          3    1    4    4  503    0 -0.43255776987E+03 -0.57860417274E+02  0.63216920021E+03  0.76817442671E+03  0.00000000000E+00 0. -1.
         -4    1    4    4    0  503  0.12589678776E+03 -0.19751106925E+02  0.60154842875E+02  0.14092094420E+03  0.00000000000E+00 0.  1.
         -1    1    5    5    0  502  0.37746910876E+01  0.14762189913E+02 -0.15417529664E+02  0.21676502596E+02  0.00000000000E+00 0.  1.
<mgrwt>
<rscale>  0 0.12461677E+04</rscale>
<asrwt>0</asrwt>
<pdfrwt beam="1">  1        2 0.20269881E+00 0.12461677E+04</pdfrwt>
<pdfrwt beam="2">  1       -2 0.45333067E-01 0.12461677E+04</pdfrwt>
<totfact> 0.73266766E+01</totfact>
</mgrwt>
</event>
<event>
12    1  0.2045212E-008  0.1117869E+04  0.7818608E-02  0.9187949E-01
         -2   -1    0    0    0  501 -0.00000000000E+00  0.00000000000E+00  0.58947041104E+03  0.58947041104E+03  0.00000000000E+00 0.  1.
          2   -1    0    0  501    0  0.00000000000E+00 -0.00000000000E+00 -0.52998033520E+03  0.52998033520E+03  0.00000000000E+00 0. -1.
         23    2    1    2    0    0  0.29781737514E+02  0.14498052560E+03 -0.71802221435E+02  0.18783469433E+03  0.90664263623E+02 0.  0.
        254    2    1    2    0    0 -0.29781737514E+02 -0.14498052560E+03  0.13129229727E+03  0.93161605192E+03  0.91036503457E+03 0.  0.
        -24    2    4    4    0    0 -0.33463656114E+03 -0.35062858822E+03 -0.77637744174E+02  0.50105181204E+03  0.10051499441E+03 0.  0.
         24    2    4    4    0    0  0.30485482363E+03  0.20564806262E+03  0.20893004145E+03  0.43056423988E+03  0.80661101482E+02 0.  0.
         11    1    3    3    0    0  0.10279186498E+02  0.13871841483E+03 -0.85424383428E+02  0.16323536863E+03  0.00000000000E+00 0. -1.
        -11    1    3    3    0    0  0.19502551016E+02  0.62621107688E+01  0.13622161993E+02  0.24599325698E+02  0.00000000000E+00 0.  1.
          4    1    6    6  502    0  0.11944660053E+02 -0.30293511616E+01  0.22064861285E+02  0.25272712078E+02  0.00000000000E+00 0. -1.
          3    1    5    5  503    0 -0.12235357570E+03 -0.18537020408E+03 -0.40586720153E+01  0.22214630960E+03  0.00000000000E+00 0. -1.
         -4    1    5    5    0  503 -0.21228298544E+03 -0.16525838414E+03 -0.73579072158E+02  0.27890550245E+03  0.00000000000E+00 0.  1.
         -3    1    6    6    0  502  0.29291016358E+03  0.20867741378E+03  0.18686518016E+03  0.40529152780E+03  0.00000000000E+00 0.  1.
<mgrwt>
<rscale>  0 0.11178689E+04</rscale>
<asrwt>0</asrwt>
<pdfrwt beam="1">  1        2 0.81535437E-01 0.11178689E+04</pdfrwt>
<pdfrwt beam="2">  1       -2 0.90687755E-01 0.11178689E+04</pdfrwt>
<totfact> 0.59264896E+01</totfact>
</mgrwt>
</event>
<event>
11    1  0.2045212E-008  0.2739022E+04  0.7818608E-02  0.8322454E-01
         -3   -1    0    0    0  501 -0.00000000000E+00  0.00000000000E+00  0.31817691340E+04  0.31817691340E+04  0.00000000000E+00 0.  1.
          3   -1    0    0  501    0  0.00000000000E+00 -0.00000000000E+00 -0.58947088128E+03  0.58947088128E+03  0.00000000000E+00 0. -1.
         23    2    1    2    0    0 -0.42784043888E+03 -0.84019192619E+03  0.84905581434E+02  0.95095487999E+03  0.90201507941E+02 0.  0.
        254    2    1    2    0    0  0.42784043888E+03  0.84019192619E+03  0.25073926713E+04  0.28202851353E+04  0.88205460280E+03 0.  0.
         24    2    4    4    0    0 -0.65628341348E+02  0.51212625189E+03  0.55674041994E+03  0.76383160181E+03  0.83056870049E+02 0.  0.
         11    1    3    3    0    0 -0.31240803463E+03 -0.67562589559E+03  0.42862864752E+02  0.74559127950E+03  0.00000000000E+00 0. -1.
        -11    1    3    3    0    0 -0.11543240425E+03 -0.16456603060E+03  0.42042716682E+02  0.20536360049E+03  0.00000000000E+00 0.  1.
          4    1    5    5  502    0 -0.43228367365E+02  0.16755890899E+03  0.13970347200E+03  0.22239995462E+03  0.00000000000E+00 0. -1.
          3    1    4    4  503    0  0.26420875372E+03  0.32855228899E+03  0.12360226646E+04  0.13059498074E+04  0.00000000000E+00 0. -1.
         -4    1    4    4    0  503  0.22926002650E+03 -0.48661468262E+00  0.71462958680E+03  0.75050372609E+03  0.00000000000E+00 0.  1.
         -3    1    5    5    0  502 -0.22399973984E+02  0.34456734290E+03  0.41703694794E+03  0.54143164718E+03  0.00000000000E+00 0.  1.
<mgrwt>
<rscale>  0 0.27390219E+04</rscale>
<asrwt>0</asrwt>
<pdfrwt beam="1">  1        3 0.90687830E-01 0.27390219E+04</pdfrwt>
<pdfrwt beam="2">  1       -3 0.48950293E+00 0.27390219E+04</pdfrwt>
<totfact> 0.86088612E-03</totfact>
</mgrwt>
</event>
<event>
11    1  0.2045212E-008  0.1472881E+04  0.7818608E-02  0.8902690E-01
          2   -1    0    0  501    0  0.00000000000E+00  0.00000000000E+00  0.27689643729E+04  0.27689643729E+04  0.00000000000E+00 0. -1.
         -2   -1    0    0    0  501 -0.00000000000E+00 -0.00000000000E+00 -0.19586553142E+03  0.19586553142E+03  0.00000000000E+00 0.  1.
         23    2    1    2    0    0 -0.43637616678E+03 -0.96150234005E+01  0.61758310154E+03  0.76238361133E+03  0.96453490878E+02 0.  0.
        254    2    1    2    0    0  0.43637616678E+03  0.96150234005E+01  0.19555157400E+04  0.22024462930E+04  0.91444587415E+03 0.  0.
         24    2    4    4    0    0  0.35158961206E+03 -0.34599833574E+03  0.63534685632E+03  0.80833087355E+03  0.80019182984E+02 0.  0.
         11    1    3    3    0    0 -0.22450025029E+03 -0.17196950009E+02  0.39719077578E+03  0.45657048726E+03  0.00000000000E+00 0.  1.
        -11    1    3    3    0    0 -0.21187591648E+03  0.75819266084E+01  0.22039232576E+03  0.30581312407E+03  0.00000000000E+00 0. -1.
          2    1    5    5  502    0  0.48602665165E+02 -0.89106385528E+02  0.10945647976E+03  0.14927453890E+03  0.00000000000E+00 0. -1.
          3    1    4    4  503    0  0.17448823588E+03  0.25366660354E+03  0.82190591843E+03  0.87768002653E+03  0.00000000000E+00 0. -1.
         -4    1    4    4    0  503 -0.89701681164E+02  0.10194675560E+03  0.49826296521E+03  0.51643539294E+03  0.00000000000E+00 0.  1.
         -1    1    5    5    0  502  0.30298694690E+03 -0.25689195021E+03  0.52589037657E+03  0.65905633465E+03  0.00000000000E+00 0.  1.
<mgrwt>
<rscale>  0 0.14728811E+04</rscale>
<asrwt>0</asrwt>
<pdfrwt beam="1">  1        2 0.42599449E+00 0.14728811E+04</pdfrwt>
<pdfrwt beam="2">  1       -2 0.30133161E-01 0.14728811E+04</pdfrwt>
<totfact> 0.23898962E+01</totfact>
</mgrwt>
</event>
<event>
11    1  0.2045212E-008  0.1763596E+04  0.7818608E-02  0.8725902E-01
          2   -1    0    0  501    0  0.00000000000E+00  0.00000000000E+00  0.19401646280E+04  0.19401646280E+04  0.00000000000E+00 0. -1.
         -2   -1    0    0    0  501 -0.00000000000E+00 -0.00000000000E+00 -0.40077406499E+03  0.40077406499E+03  0.00000000000E+00 0.  1.
         23    2    1    2    0    0 -0.32684831435E+03 -0.30330687706E+02  0.13268869343E+04  0.13699009241E+04  0.90828597823E+02 0.  0.
        254    2    1    2    0    0  0.32684831435E+03  0.30330687706E+02  0.21250362868E+03  0.97103776887E+03  0.88882325868E+03 0.  0.
         24    2    4    4    0    0 -0.21564276258E+02  0.36924025946E+03 -0.51291150424E+02  0.38215327767E+03  0.81283198190E+02 0.  0.
         11    1    3    3    0    0 -0.22562661174E+03 -0.19770541966E+01  0.10442596709E+04  0.10683583373E+04  0.00000000000E+00 0. -1.
        -11    1    3    3    0    0 -0.10122170261E+03 -0.28353633510E+02  0.28262726345E+03  0.30154258681E+03  0.00000000000E+00 0.  1.
          4    1    5    5  502    0 -0.17999776982E+02  0.23972409460E+03  0.60301124500E+01  0.24047452206E+03  0.00000000000E+00 0. -1.
          1    1    4    4  503    0  0.24058941448E+03 -0.29847358089E+03  0.11403050919E+03  0.39996587589E+03  0.00000000000E+00 0. -1.
         -2    1    4    4    0  503  0.10782317613E+03 -0.40435990866E+02  0.14976426991E+03  0.18891861531E+03  0.00000000000E+00 0.  1.
         -3    1    5    5    0  502 -0.35644992763E+01  0.12951616486E+03 -0.57321262874E+02  0.14167875562E+03  0.00000000000E+00 0.  1.
<mgrwt>
<rscale>  0 0.17635959E+04</rscale>
<asrwt>0</asrwt>
<pdfrwt beam="1">  1        2 0.29848686E+00 0.17635959E+04</pdfrwt>
<pdfrwt beam="2">  1       -2 0.61657550E-01 0.17635959E+04</pdfrwt>
<totfact> 0.16693264E+01</totfact>
</mgrwt>
</event>
<event>
11    1  0.2045212E-008  0.4843321E+04  0.7818608E-02  0.7853142E-01
          2   -1    0    0  501    0  0.00000000000E+00  0.00000000000E+00  0.34455980056E+04  0.34455980056E+04  0.00000000000E+00 0. -1.
         -2   -1    0    0    0  501 -0.00000000000E+00 -0.00000000000E+00 -0.17020094477E+04  0.17020094477E+04  0.00000000000E+00 0.  1.
         23    2    1    2    0    0  0.19253515643E+03 -0.23274558193E+04  0.89684687235E+03  0.25033483875E+04  0.91095881797E+02 0.  0.
        254    2    1    2    0    0 -0.19253515643E+03  0.23274558193E+04  0.84674168549E+03  0.26442590657E+04  0.90609831011E+03 0.  0.
         24    2    4    4    0    0 -0.16049296960E+03  0.62657787025E+02 -0.56510711205E+02  0.19936059422E+03  0.82868537334E+02 0.  0.
         11    1    3    3    0    0  0.12561998164E+03 -0.16563548947E+04  0.59508232780E+03  0.17644871475E+04  0.00000000000E+00 0. -1.
        -11    1    3    3    0    0  0.66915174795E+02 -0.67110092460E+03  0.30176454456E+03  0.73886123999E+03  0.00000000000E+00 0.  1.
          4    1    5    5  502    0 -0.23872864729E+02 -0.14025637775E+02 -0.29358650531E+02  0.40355452498E+02  0.00000000000E+00 0. -1.
          1    1    4    4  503    0 -0.84101795957E+02  0.56772104535E+03  0.21652193803E+03  0.61340202728E+03  0.00000000000E+00 0. -1.
         -2    1    4    4    0  503  0.52059609130E+02  0.16970769869E+04  0.68673045867E+03  0.18314964442E+04  0.00000000000E+00 0.  1.
         -3    1    5    5    0  502 -0.13662010488E+03  0.76683424801E+02 -0.27152060675E+02  0.15900514172E+03  0.00000000000E+00 0.  1.
<mgrwt>
<rscale>  0 0.48433213E+04</rscale>
<asrwt>0</asrwt>
<pdfrwt beam="1">  1        2 0.53009200E+00 0.48433213E+04</pdfrwt>
<pdfrwt beam="2">  1       -2 0.26184761E+00 0.48433213E+04</pdfrwt>
<totfact> 0.35480449E-02</totfact>
</mgrwt>
</event>
<event>
11    1  0.2045212E-008  0.1844918E+04  0.7818608E-02  0.8682771E-01
         -2   -1    0    0    0  501 -0.00000000000E+00  0.00000000000E+00  0.75933303138E+03  0.75933303138E+03  0.00000000000E+00 0. -1.
          2   -1    0    0  501    0  0.00000000000E+00 -0.00000000000E+00 -0.11206289680E+04  0.11206289680E+04  0.00000000000E+00 0.  1.
         23    2    1    2    0    0 -0.21074617995E+03 -0.34567721249E+03  0.44382816932E+03  0.60768834596E+03  0.91624201712E+02 0.  0.
        254    2    1    2    0    0  0.21074617995E+03  0.34567721249E+03 -0.80512410595E+03  0.12722736534E+04  0.89808058416E+03 0.  0.
         24    2    4    4    0    0 -0.23077473638E+03  0.19643820202E+03  0.24773790276E+02  0.31399166411E+03  0.78307587647E+02 0.  0.
         11    1    3    3    0    0 -0.30665830878E+02 -0.24195571701E+02  0.84098177672E+02  0.92727139291E+02  0.00000000000E+00 0.  1.
        -11    1    3    3    0    0 -0.18008034907E+03 -0.32148164079E+03  0.35972999165E+03  0.51496120667E+03  0.00000000000E+00 0. -1.
          2    1    5    5  502    0  0.10536635069E+01  0.84666131966E+01 -0.10417238070E+02  0.13465236530E+02  0.00000000000E+00 0. -1.
          1    1    4    4  503    0  0.12825613156E+03 -0.58820526396E+00 -0.17436823756E+03  0.21645845684E+03  0.00000000000E+00 0. -1.
         -2    1    4    4    0  503  0.31326478477E+03  0.14982721573E+03 -0.65552965867E+03  0.74182353248E+03  0.00000000000E+00 0.  1.
         -1    1    5    5    0  502 -0.23182839989E+03  0.18797158882E+03  0.35191028346E+02  0.30052642758E+03  0.00000000000E+00 0.  1.
<mgrwt>
<rscale>  0 0.18449180E+04</rscale>
<asrwt>0</asrwt>
<pdfrwt beam="1">  1        2 0.17240446E+00 0.18449180E+04</pdfrwt>
<pdfrwt beam="2">  1       -2 0.11682047E+00 0.18449180E+04</pdfrwt>
<totfact> 0.11294922E+01</totfact>
</mgrwt>
</event>
<event>
11    1  0.2045212E-008  0.2918931E+04  0.7818608E-02  0.8267267E-01
         -2   -1    0    0    0  501 -0.00000000000E+00  0.00000000000E+00  0.13026780387E+04  0.13026780387E+04  0.00000000000E+00 0.  1.
          2   -1    0    0  501    0  0.00000000000E+00 -0.00000000000E+00 -0.16351235817E+04  0.16351235817E+04  0.00000000000E+00 0. -1.
         23    2    1    2    0    0 -0.94971841468E+02  0.69088059105E+03 -0.12678591365E+04  0.14499303688E+04  0.92171811175E+02 0.  0.
        254    2    1    2    0    0  0.94971841468E+02 -0.69088059105E+03  0.93541359348E+03  0.14878712516E+04  0.92326953201E+03 0.  0.
         24    2    4    4    0    0  0.29162119018E+03 -0.54116329057E+02  0.14459936003E+03  0.33969805658E+03  0.80711207953E+02 0.  0.
         13    1    3    3    0    0 -0.40931535296E+02  0.49507225968E+03 -0.96333277683E+03  0.10838735959E+04  0.00000000000E+00 0. -1.
        -13    1    3    3    0    0 -0.54040306171E+02  0.19580833137E+03 -0.30452635964E+03  0.36605677297E+03  0.00000000000E+00 0.  1.
          2    1    5    5  502    0  0.12816144841E+03 -0.61437114342E+02  0.84725465052E+02  0.16546383383E+03  0.00000000000E+00 0. -1.
          3    1    4    4  503    0 -0.34442650466E+03 -0.28840923601E+03  0.36765231308E+03  0.58049782760E+03  0.00000000000E+00 0. -1.
         -4    1    4    4    0  503  0.14777715594E+03 -0.34835502598E+03  0.42316192037E+03  0.56767536743E+03  0.00000000000E+00 0.  1.
         -1    1    5    5    0  502  0.16345974177E+03  0.73207852851E+01  0.59873894975E+02  0.17423422275E+03  0.00000000000E+00 0.  1.
<mgrwt>
<rscale>  0 0.29189310E+04</rscale>
<asrwt>0</asrwt>
<pdfrwt beam="1">  1        2 0.25155747E+00 0.29189310E+04</pdfrwt>
<pdfrwt beam="2">  1       -2 0.20041201E+00 0.29189310E+04</pdfrwt>
<totfact> 0.12141446E+00</totfact>
</mgrwt>
</event>
<event>
11    1  0.2045212E-008  0.1354265E+04  0.7818608E-02  0.8987606E-01
         -2   -1    0    0    0  501 -0.00000000000E+00  0.00000000000E+00  0.17434622177E+03  0.17434622177E+03  0.00000000000E+00 0.  1.
          2   -1    0    0  501    0  0.00000000000E+00 -0.00000000000E+00 -0.26298711822E+04  0.26298711822E+04  0.00000000000E+00 0. -1.
         23    2    1    2    0    0 -0.34939695640E+03 -0.38445659416E+02 -0.43892598209E+03  0.56954643048E+03  0.90392570772E+02 0.  0.
        254    2    1    2    0    0  0.34939695640E+03  0.38445659416E+02 -0.20165989783E+04  0.22346709735E+04  0.89639646274E+03 0.  0.
         24    2    4    4    0    0  0.52535974949E+03  0.10316953705E+03 -0.17914640341E+04  0.18714434307E+04  0.79437453256E+02 0.  0.
         13    1    3    3    0    0 -0.17938053474E+03 -0.34287356148E+02 -0.29399382385E+03  0.34610022753E+03  0.00000000000E+00 0.  1.
        -13    1    3    3    0    0 -0.17001642166E+03 -0.41583032679E+01 -0.14493215824E+03  0.22344620295E+03  0.00000000000E+00 0. -1.
          4    1    5    5  502    0  0.36060534931E+03  0.95746012389E+02 -0.13324667485E+04  0.13837164279E+04  0.00000000000E+00 0. -1.
          1    1    4    4  503    0 -0.13537796542E+03 -0.13226802430E+03 -0.21050752610E+03  0.28308204167E+03  0.00000000000E+00 0. -1.
         -2    1    4    4    0  503 -0.40584827668E+02  0.67544146660E+02 -0.14627418087E+02  0.80145501089E+02  0.00000000000E+00 0.  1.
         -3    1    5    5    0  502  0.16475440018E+03  0.74235246624E+01 -0.45899728560E+03  0.48772700283E+03  0.00000000000E+00 0.  1.
<mgrwt>
<rscale>  0 0.13542645E+04</rscale>
<asrwt>0</asrwt>
<pdfrwt beam="1">  1        2 0.40459558E+00 0.13542645E+04</pdfrwt>
<pdfrwt beam="2">  1       -2 0.26822495E-01 0.13542645E+04</pdfrwt>
<totfact> 0.36201683E+01</totfact>
</mgrwt>
</event>
<event>
12    1  0.2045212E-008  0.2532341E+04  0.7818608E-02  0.8391554E-01
         -2   -1    0    0    0  501 -0.00000000000E+00  0.00000000000E+00  0.74673947310E+03  0.74673947310E+03  0.00000000000E+00 0.  1.
          2   -1    0    0  501    0  0.00000000000E+00 -0.00000000000E+00 -0.21469163563E+04  0.21469163563E+04  0.00000000000E+00 0. -1.
         23    2    1    2    0    0  0.57900804241E+03 -0.87939566901E+03 -0.24126235616E+03  0.10842573674E+04  0.93911971746E+02 0.  0.
        254    2    1    2    0    0 -0.57900804241E+03  0.87939566901E+03 -0.11589145270E+04  0.18093984619E+04  0.90678159298E+03 0.  0.
        -24    2    4    4    0    0 -0.69613497039E+03  0.94517768022E+03 -0.82069331817E+03  0.14361293613E+04  0.10471521205E+03 0.  0.
         24    2    4    4    0    0  0.11712692798E+03 -0.65782011209E+02 -0.33822120882E+03  0.37326910067E+03  0.83007500670E+02 0.  0.
         11    1    3    3    0    0  0.34942152790E+03 -0.59513662367E+03 -0.12973074959E+03  0.70222010252E+03  0.00000000000E+00 0. -1.
        -11    1    3    3    0    0  0.22958651451E+03 -0.28425904534E+03 -0.11153160657E+03  0.38203726490E+03  0.00000000000E+00 0.  1.
          2    1    6    6  502    0  0.12271107766E+03 -0.43551693920E+02 -0.24708915585E+03  0.27929878188E+03  0.00000000000E+00 0. -1.
          1    1    5    5  503    0 -0.45136966265E+03  0.68820908922E+03 -0.55185751452E+03  0.99091525328E+03  0.00000000000E+00 0. -1.
         -2    1    5    5    0  503 -0.24476530774E+03  0.25696859100E+03 -0.26883580365E+03  0.44521410799E+03  0.00000000000E+00 0.  1.
         -1    1    6    6    0  502 -0.55841496895E+01 -0.22230317288E+02 -0.91132052974E+02  0.93970318791E+02  0.00000000000E+00 0.  1.
<mgrwt>
<rscale>  0 0.25323406E+04</rscale>
<asrwt>0</asrwt>
<pdfrwt beam="1">  1        2 0.33029482E+00 0.25323406E+04</pdfrwt>
<pdfrwt beam="2">  1       -2 0.11488300E+00 0.25323406E+04</pdfrwt>
<totfact> 0.29079483E+00</totfact>
</mgrwt>
</event>
<event>
12    1  0.2045212E-008  0.4460619E+04  0.7818608E-02  0.7917568E-01
          2   -1    0    0  501    0  0.00000000000E+00  0.00000000000E+00  0.20101870840E+04  0.20101870840E+04  0.00000000000E+00 0. -1.
         -2   -1    0    0    0  501 -0.00000000000E+00 -0.00000000000E+00 -0.24745359175E+04  0.24745359175E+04  0.00000000000E+00 0.  1.
         23    2    1    2    0    0  0.99209433515E+03  0.17067080780E+03 -0.21209141680E+04  0.23494564744E+04  0.91044617226E+02 0.  0.
        254    2    1    2    0    0 -0.99209433515E+03 -0.17067080780E+03  0.16565653345E+04  0.21352665271E+04  0.89541875127E+03 0.  0.
        -24    2    4    4    0    0 -0.83893563849E+02  0.28861328792E+03  0.28122498082E+03  0.42257410383E+03  0.95632752599E+02 0.  0.
         24    2    4    4    0    0 -0.90820077130E+03 -0.45928409572E+03  0.13753403536E+04  0.17126924233E+04  0.77354553594E+02 0.  0.
         13    1    3    3    0    0  0.42725125377E+03  0.68668572460E+02 -0.80867764449E+03  0.91717966582E+03  0.00000000000E+00 0. -1.
        -13    1    3    3    0    0  0.56484308138E+03  0.10200223534E+03 -0.13122365235E+04  0.14322768085E+04  0.00000000000E+00 0.  1.
          2    1    6    6  502    0 -0.81862336449E+03 -0.41216293457E+03  0.12743606349E+04  0.15697189319E+04  0.00000000000E+00 0. -1.
          1    1    5    5  503    0 -0.57635836899E+02  0.27651723894E+03  0.23216003772E+03  0.36562543161E+03  0.00000000000E+00 0. -1.
         -2    1    5    5    0  503 -0.26257726950E+02  0.12096048974E+02  0.49064943105E+02  0.56948672216E+02  0.00000000000E+00 0.  1.
         -3    1    6    6    0  502 -0.89577406812E+02 -0.47121161150E+02  0.10097971877E+03  0.14297349140E+03  0.00000000000E+00 0.  1.
<mgrwt>
<rscale>  0 0.44606189E+04</rscale>
<asrwt>0</asrwt>
<pdfrwt beam="1">  1        2 0.30925955E+00 0.44606189E+04</pdfrwt>
<pdfrwt beam="2">  1       -2 0.38069783E+00 0.44606189E+04</pdfrwt>
<totfact> 0.49668045E-02</totfact>
</mgrwt>
</event>
<event>
12    1  0.3866106E-008  0.1820598E+04  0.7818608E-02  0.8695422E-01
         -2   -1    0    0    0  501 -0.00000000000E+00  0.00000000000E+00  0.41445421461E+03  0.41445421461E+03  0.00000000000E+00 0.  1.
          2   -1    0    0  501    0  0.00000000000E+00 -0.00000000000E+00 -0.19993622827E+04  0.19993622827E+04  0.00000000000E+00 0. -1.
         23    2    1    2    0    0  0.16772066094E+03  0.58288887504E+03 -0.10281584639E+04  0.11971737069E+04  0.90693974103E+02 0.  0.
        254    2    1    2    0    0 -0.16772066094E+03 -0.58288887504E+03 -0.55674960421E+03  0.12166427904E+04  0.89574544202E+03 0.  0.
        -24    2    4    4    0    0 -0.24061951469E+03 -0.12702261007E+03  0.18285923053E+03  0.34072715623E+03  0.92870891474E+02 0.  0.
         24    2    4    4    0    0  0.72898853759E+02 -0.45586626496E+03 -0.73960883474E+03  0.87591563417E+03  0.84134864031E+02 0.  0.
         13    1    3    3    0    0  0.41336784712E+02  0.81678579995E+02 -0.10627272982E+03  0.14026408416E+03  0.00000000000E+00 0.  1.
        -13    1    3    3    0    0  0.12638387622E+03  0.50121029504E+03 -0.92188573403E+03  0.10569096227E+04  0.00000000000E+00 0. -1.
          2    1    6    6  502    0 -0.13308083494E+02 -0.28724765072E+02 -0.32857045167E+02  0.45626775383E+02  0.00000000000E+00 0. -1.
          1    1    5    5  503    0 -0.32721353702E+02  0.12162850138E+02  0.89656158765E+01  0.36041700566E+02  0.00000000000E+00 0. -1.
         -2    1    5    5    0  503 -0.20789816099E+03 -0.13918546021E+03  0.17389361465E+03  0.30468545567E+03  0.00000000000E+00 0.  1.
         -1    1    6    6    0  502  0.86206937253E+02 -0.42714149989E+03 -0.70675178957E+03  0.83028885878E+03  0.00000000000E+00 0.  1.
<mgrwt>
<rscale>  0 0.18205978E+04</rscale>
<asrwt>0</asrwt>
<pdfrwt beam="1">  1        2 0.30759420E+00 0.18205978E+04</pdfrwt>
<pdfrwt beam="2">  1       -2 0.63762186E-01 0.18205978E+04</pdfrwt>
<totfact> 0.14338759E+01</totfact>
</mgrwt>
</event>
<event>
12    1  0.2045212E-008  0.2025552E+04  0.7818608E-02  0.8594767E-01
          2   -1    0    0  501    0  0.00000000000E+00  0.00000000000E+00  0.18829673879E+04  0.18829673879E+04  0.00000000000E+00 0. -1.
         -2   -1    0    0    0  501 -0.00000000000E+00 -0.00000000000E+00 -0.54473331502E+03  0.54473331502E+03  0.00000000000E+00 0.  1.
         23    2    1    2    0    0 -0.69421912304E+03  0.87486367102E+02  0.51761206545E+02  0.70758598616E+03  0.91676878668E+02 0.  0.
        254    2    1    2    0    0  0.69421912304E+03 -0.87486367102E+02  0.12864728663E+04  0.17201147168E+04  0.90232374888E+03 0.  0.
        -24    2    4    4    0    0  0.79299353547E+03 -0.33014282447E+03  0.92548943344E+03  0.12669898744E+04  0.10440123827E+03 0.  0.
         24    2    4    4    0    0 -0.98774412435E+02  0.24265645737E+03  0.36098343289E+03  0.45312484237E+03  0.79840735816E+02 0.  0.
         13    1    3    3    0    0 -0.49367374779E+03  0.77943777128E+02  0.75333687624E+02  0.50543463093E+03  0.00000000000E+00 0.  1.
        -13    1    3    3    0    0 -0.20054537525E+03  0.95425899734E+01 -0.23572481079E+02  0.20215135523E+03  0.00000000000E+00 0. -1.
          4    1    6    6  502    0 -0.78169590386E+02  0.10891702720E+03  0.13876647760E+03  0.19294957626E+03  0.00000000000E+00 0. -1.
          3    1    5    5  503    0  0.76585669106E+03 -0.31170083061E+03  0.85597109835E+03  0.11901178094E+04  0.00000000000E+00 0. -1.
         -4    1    5    5    0  503  0.27136844410E+02 -0.18441993859E+02  0.69518335084E+02  0.76872064984E+02  0.00000000000E+00 0.  1.
         -3    1    6    6    0  502 -0.20604822049E+02  0.13373943017E+03  0.22221695529E+03  0.26017526610E+03  0.00000000000E+00 0.  1.
<mgrwt>
<rscale>  0 0.20255518E+04</rscale>
<asrwt>0</asrwt>
<pdfrwt beam="1">  1        2 0.28968729E+00 0.20255518E+04</pdfrwt>
<pdfrwt beam="2">  1       -2 0.83805127E-01 0.20255518E+04</pdfrwt>
<totfact> 0.89527481E+00</totfact>
</mgrwt>
</event>
<event>
11    1  0.2045212E-008  0.1359037E+04  0.7818608E-02  0.8984015E-01
         -2   -1    0    0    0  501 -0.00000000000E+00  0.00000000000E+00  0.80678324955E+03  0.80678324955E+03  0.00000000000E+00 0.  1.
          2   -1    0    0  501    0  0.00000000000E+00 -0.00000000000E+00 -0.57232869189E+03  0.57232869189E+03  0.00000000000E+00 0. -1.
         23    2    1    2    0    0  0.72572375051E+02  0.52058539066E+01  0.43690391300E+03  0.45432108482E+03  0.10113737379E+03 0.  0.
        254    2    1    2    0    0 -0.72572375051E+02 -0.52058539066E+01 -0.20244935535E+03  0.92479085662E+03  0.89942122305E+03 0.  0.
         24    2    4    4    0    0 -0.24409985693E+03 -0.31977737742E+03  0.86022849085E+02  0.41925074851E+03  0.80801907779E+02 0.  0.
         13    1    3    3    0    0  0.89224241505E+02 -0.19339232298E+02  0.37069780201E+03  0.38177458217E+03  0.00000000000E+00 0.  1.
        -13    1    3    3    0    0 -0.16651866454E+02  0.24545086205E+02  0.66206110995E+02  0.72546502646E+02  0.00000000000E+00 0. -1.
          2    1    5    5  502    0 -0.19766250277E+03 -0.27969981741E+03  0.44955458043E+02  0.34543225974E+03  0.00000000000E+00 0. -1.
          1    1    4    4  503    0 -0.21029834331E+02  0.16872187964E+03 -0.15218241889E+03  0.22818592248E+03  0.00000000000E+00 0. -1.
         -2    1    4    4    0  503  0.19255731621E+03  0.14584964387E+03 -0.13628978554E+03  0.27735418563E+03  0.00000000000E+00 0.  1.
         -1    1    5    5    0  502 -0.46437354163E+02 -0.40077560008E+02  0.41067391042E+02  0.73818488774E+02  0.00000000000E+00 0.  1.
<mgrwt>
<rscale>  0 0.13590367E+04</rscale>
<asrwt>0</asrwt>
<pdfrwt beam="1">  1        2 0.88050568E-01 0.13590367E+04</pdfrwt>
<pdfrwt beam="2">  1       -2 0.12412050E+00 0.13590367E+04</pdfrwt>
<totfact> 0.25003857E+01</totfact>
</mgrwt>
</event>
<event>
12    1  0.2045212E-008  0.2961082E+04  0.7818608E-02  0.8254932E-01
          2   -1    0    0  501    0  0.00000000000E+00  0.00000000000E+00  0.23285489528E+04  0.23285489528E+04  0.00000000000E+00 0. -1.
         -2   -1    0    0    0  501 -0.00000000000E+00 -0.00000000000E+00 -0.94135947051E+03  0.94135947051E+03  0.00000000000E+00 0.  1.
         23    2    1    2    0    0  0.35237399396E+03  0.52662764799E+03  0.19360177913E+04  0.20390976187E+04  0.90830055871E+02 0.  0.
        254    2    1    2    0    0 -0.35237399396E+03 -0.52662764799E+03 -0.54882830902E+03  0.12308108046E+04  0.90120952767E+03 0.  0.
        -24    2    4    4    0    0 -0.39120401661E+02  0.83323967891E+02 -0.52346411306E+03  0.53981076562E+03  0.94380588930E+02 0.  0.
         24    2    4    4    0    0 -0.31325359230E+03 -0.60995161589E+03 -0.25364195952E+02  0.69100003900E+03  0.81663484228E+02 0.  0.
         13    1    3    3    0    0  0.95754960820E+02  0.22223462368E+03  0.73503143406E+03  0.77384006716E+03  0.00000000000E+00 0.  1.
        -13    1    3    3    0    0  0.25661903314E+03  0.30439302432E+03  0.12009863572E+04  0.12652575515E+04  0.00000000000E+00 0. -1.
          4    1    6    6  502    0 -0.77262833302E+02 -0.22565423243E+03  0.93100757382E+01  0.23869657629E+03  0.00000000000E+00 0. -1.
          3    1    5    5  503    0 -0.63618803967E+02  0.63229545074E+02 -0.27316842194E+03  0.28751750265E+03  0.00000000000E+00 0. -1.
         -4    1    5    5    0  503  0.24498402306E+02  0.20094422817E+02 -0.25029569113E+03  0.25229326297E+03  0.00000000000E+00 0.  1.
         -3    1    6    6    0  502 -0.23599075900E+03 -0.38429738345E+03 -0.34674271690E+02  0.45230346271E+03  0.00000000000E+00 0.  1.
<mgrwt>
<rscale>  0 0.29610820E+04</rscale>
<asrwt>0</asrwt>
<pdfrwt beam="1">  1        2 0.35823830E+00 0.29610820E+04</pdfrwt>
<pdfrwt beam="2">  1       -2 0.14482453E+00 0.29610820E+04</pdfrwt>
<totfact> 0.12327214E+00</totfact>
</mgrwt>
</event>
<event>
12    1  0.2045212E-008  0.1514140E+04  0.7818608E-02  0.8875104E-01
         -2   -1    0    0    0  501 -0.00000000000E+00  0.00000000000E+00  0.19436332788E+03  0.19436332788E+03  0.00000000000E+00 0. -1.
          2   -1    0    0  501    0  0.00000000000E+00 -0.00000000000E+00 -0.29488837943E+04  0.29488837943E+04  0.00000000000E+00 0.  1.
         23    2    1    2    0    0 -0.19692763775E+03 -0.43449496782E+03 -0.74847587863E+03  0.89223071045E+03  0.91066614145E+02 0.  0.
        254    2    1    2    0    0  0.19692763775E+03  0.43449496782E+03 -0.20060445878E+04  0.22510164117E+04  0.90293611407E+03 0.  0.
        -24    2    4    4    0    0  0.17162722755E+03 -0.16501214807E+03 -0.12643692195E+03  0.27630994923E+03  0.60629848782E+02 0.  0.
         24    2    4    4    0    0  0.25300410205E+02  0.59950711589E+03 -0.18796076658E+04  0.19747064625E+04  0.80571352111E+02 0.  0.
         13    1    3    3    0    0 -0.18581980688E+03 -0.32714684295E+03 -0.60952236617E+03  0.71629014536E+03  0.00000000000E+00 0.  1.
        -13    1    3    3    0    0 -0.11107830878E+02 -0.10734812487E+03 -0.13895351246E+03  0.17594056510E+03  0.00000000000E+00 0. -1.
          4    1    6    6  502    0  0.40272272036E+02  0.18024803392E+03 -0.63344513158E+03  0.65982114573E+03  0.00000000000E+00 0. -1.
          1    1    5    5  503    0  0.55168594614E+02 -0.28073596083E+02 -0.11546384084E+02  0.62968401712E+02  0.00000000000E+00 0. -1.
         -2    1    5    5    0  503  0.11645863294E+03 -0.13693855199E+03 -0.11489053787E+03  0.21334154752E+03  0.00000000000E+00 0.  1.
         -3    1    6    6    0  502 -0.14971861830E+02  0.41925908197E+03 -0.12461625343E+04  0.13148853168E+04  0.00000000000E+00 0.  1.
<mgrwt>
<rscale>  0 0.15141398E+04</rscale>
<asrwt>0</asrwt>
<pdfrwt beam="1">  1        2 0.45367444E+00 0.15141398E+04</pdfrwt>
<pdfrwt beam="2">  1       -2 0.29902050E-01 0.15141398E+04</pdfrwt>
<totfact> 0.18783248E+01</totfact>
</mgrwt>
</event>
<event>
12    1  0.2045212E-008  0.2565572E+04  0.7818608E-02  0.8379991E-01
         -1   -1    0    0    0  501 -0.00000000000E+00  0.00000000000E+00  0.11196460599E+04  0.11196460599E+04  0.00000000000E+00 0.  1.
          1   -1    0    0  501    0  0.00000000000E+00 -0.00000000000E+00 -0.14696962809E+04  0.14696962809E+04  0.00000000000E+00 0. -1.
         23    2    1    2    0    0  0.10333983527E+04 -0.42696618070E+03 -0.36672488751E+02  0.11224603420E+04  0.91433435873E+02 0.  0.
        254    2    1    2    0    0 -0.10333983527E+04  0.42696618070E+03 -0.31337773229E+03  0.14668819987E+04  0.89628395066E+03 0.  0.
        -24    2    4    4    0    0 -0.13918184720E+03  0.28230519573E+03  0.23483650538E+03  0.40507496407E+03  0.99346525514E+02 0.  0.
         24    2    4    4    0    0 -0.89421650551E+03  0.14466098497E+03 -0.54821423767E+03  0.10618070346E+04  0.79657825301E+02 0.  0.
         13    1    3    3    0    0  0.22929575482E+03 -0.11081915178E+03  0.26996037110E+02  0.25609805466E+03  0.00000000000E+00 0. -1.
        -13    1    3    3    0    0  0.80410259789E+03 -0.31614702892E+03 -0.63668525861E+02  0.86636228739E+03  0.00000000000E+00 0.  1.
          2    1    6    6  502    0 -0.71278001379E+03  0.13086240222E+03 -0.46992875302E+03  0.86372064309E+03  0.00000000000E+00 0. -1.
          1    1    5    5  503    0 -0.69629992556E+02  0.12144703060E+03  0.16509272495E+03  0.21645628875E+03  0.00000000000E+00 0. -1.
         -2    1    5    5    0  503 -0.69551854642E+02  0.16085816513E+03  0.69743780424E+02  0.18861867532E+03  0.00000000000E+00 0.  1.
         -1    1    6    6    0  502 -0.18143649172E+03  0.13798582744E+02 -0.78285484645E+02  0.19808639155E+03  0.00000000000E+00 0.  1.
<mgrwt>
<rscale>  0 0.25655718E+04</rscale>
<asrwt>0</asrwt>
<pdfrwt beam="1">  1        1 0.22610712E+00 0.25655718E+04</pdfrwt>
<pdfrwt beam="2">  1       -1 0.17225324E+00 0.25655718E+04</pdfrwt>
<totfact> 0.14369453E+00</totfact>
</mgrwt>
</event>
<event>
11    1  0.2045212E-008  0.1377786E+04  0.7818608E-02  0.8970057E-01
          1   -1    0    0  501    0  0.00000000000E+00  0.00000000000E+00  0.16817155211E+04  0.16817155211E+04  0.00000000000E+00 0. -1.
         -1   -1    0    0    0  501 -0.00000000000E+00 -0.00000000000E+00 -0.28219616288E+03  0.28219616288E+03  0.00000000000E+00 0.  1.
         23    2    1    2    0    0  0.25670593686E+03  0.21955381832E+03  0.52723137036E+02  0.34642037435E+03  0.55906434529E+02 0.  0.
        254    2    1    2    0    0 -0.25670593686E+03 -0.21955381832E+03  0.13467962212E+04  0.16174913096E+04  0.82964827376E+03 0.  0.
         24    2    4    4    0    0 -0.16002897036E+03  0.23086264725E+03  0.17951300145E+03  0.34253164387E+03  0.78715793282E+02 0.  0.
         11    1    3    3    0    0  0.35135532822E+02  0.46459128537E+02 -0.79263938934E+01  0.58785916776E+02  0.00000000000E+00 0.  1.
        -11    1    3    3    0    0  0.22157040404E+03  0.17309468979E+03  0.60649530930E+02  0.28763445757E+03  0.00000000000E+00 0. -1.
          2    1    5    5  502    0 -0.11546612737E+02 -0.53445053472E+01  0.76482392827E+01  0.14845321392E+02  0.00000000000E+00 0. -1.
          1    1    4    4  503    0 -0.98313956487E+02 -0.13223019896E+03  0.21471277948E+03  0.27065113566E+03  0.00000000000E+00 0. -1.
         -2    1    4    4    0  503  0.16369899817E+01 -0.31818626661E+03  0.95257044025E+03  0.10043085301E+04  0.00000000000E+00 0.  1.
         -1    1    5    5    0  502 -0.14848235762E+03  0.23620715260E+03  0.17186476217E+03  0.32768632248E+03  0.00000000000E+00 0.  1.
<mgrwt>
<rscale>  0 0.13777861E+04</rscale>
<asrwt>0</asrwt>
<pdfrwt beam="1">  1        1 0.25872546E+00 0.13777861E+04</pdfrwt>
<pdfrwt beam="2">  1       -1 0.43414795E-01 0.13777861E+04</pdfrwt>
<totfact> 0.25088955E+01</totfact>
</mgrwt>
</event>
<event>
11    1  0.2045212E-008  0.1907037E+04  0.7818608E-02  0.8651361E-01
          2   -1    0    0  501    0  0.00000000000E+00  0.00000000000E+00  0.29246422470E+04  0.29246422470E+04  0.00000000000E+00 0. -1.
         -2   -1    0    0    0  501 -0.00000000000E+00 -0.00000000000E+00 -0.31087488549E+03  0.31087488549E+03  0.00000000000E+00 0.  1.
         23    2    1    2    0    0 -0.63635128989E+03 -0.15312225140E+02  0.38417527035E+03  0.74679879551E+03  0.70287795817E+02 0.  0.
        254    2    1    2    0    0  0.63635128989E+03  0.15312225140E+02  0.22295920912E+04  0.24887183370E+04  0.90413529932E+03 0.  0.
         24    2    4    4    0    0 -0.15787680769E+03  0.19654314965E+03  0.43824272616E+03  0.51155855576E+03  0.77981875172E+02 0.  0.
         13    1    3    3    0    0 -0.14569001992E+03 -0.30287941915E+02  0.74737992565E+02  0.16651939485E+03  0.00000000000E+00 0. -1.
        -13    1    3    3    0    0 -0.49066126997E+03  0.14975716775E+02  0.30943727778E+03  0.58027940066E+03  0.00000000000E+00 0.  1.
          4    1    5    5  502    0 -0.11763411312E+02 -0.23107018108E+01  0.50889559451E+02  0.52282544407E+02  0.00000000000E+00 0. -1.
          3    1    4    4  503    0  0.32060468483E+03  0.20150827242E+01  0.83303899036E+03  0.89260595111E+03  0.00000000000E+00 0. -1.
         -4    1    4    4    0  503  0.47362341275E+03 -0.18324600724E+03  0.95831037464E+03  0.10845538301E+04  0.00000000000E+00 0.  1.
         -3    1    5    5    0  502 -0.14611339637E+03  0.19885385147E+03  0.38735316671E+03  0.45927601135E+03  0.00000000000E+00 0.  1.
<mgrwt>
<rscale>  0 0.19070373E+04</rscale>
<asrwt>0</asrwt>
<pdfrwt beam="1">  1        2 0.44994494E+00 0.19070373E+04</pdfrwt>
<pdfrwt beam="2">  1       -2 0.47826908E-01 0.19070373E+04</pdfrwt>
<totfact> 0.75412116E+00</totfact>
</mgrwt>
</event>
<event>
11    1  0.2045212E-008  0.1170559E+04  0.7818608E-02  0.9139024E-01
          1   -1    0    0  501    0  0.00000000000E+00  0.00000000000E+00  0.47942372914E+03  0.47942372914E+03  0.00000000000E+00 0. -1.
         -1   -1    0    0    0  501 -0.00000000000E+00 -0.00000000000E+00 -0.71450800615E+03  0.71450800615E+03  0.00000000000E+00 0.  1.
         23    2    1    2    0    0  0.15627089392E+02  0.23156723892E+03 -0.39568786289E+02  0.25486228728E+03  0.97578197197E+02 0.  0.
        254    2    1    2    0    0 -0.15627089392E+02 -0.23156723892E+03 -0.19551549072E+03  0.93906944800E+03  0.88868303066E+03 0.  0.
         24    2    4    4    0    0 -0.17813166267E+03 -0.48100715720E+03 -0.30158763609E+03  0.60181505510E+03  0.90152558340E+02 0.  0.
         11    1    3    3    0    0  0.31909720907E+02  0.17631794505E+03 -0.66699412445E+02  0.19119377515E+03  0.00000000000E+00 0.  1.
        -11    1    3    3    0    0 -0.16282631515E+02  0.55249293867E+02  0.27130626155E+02  0.63668512135E+02  0.00000000000E+00 0. -1.
          4    1    5    5  502    0 -0.12116637324E+03 -0.36901509545E+03 -0.26757368817E+03  0.47164510946E+03  0.00000000000E+00 0. -1.
          1    1    4    4  503    0  0.53857056873E+02  0.14325505718E+03  0.10451557636E+03  0.18532700743E+03  0.00000000000E+00 0. -1.
         -2    1    4    4    0  503  0.10864751641E+03  0.10618486110E+03  0.15565690104E+01  0.15192738547E+03  0.00000000000E+00 0.  1.
         -3    1    5    5    0  502 -0.56965289430E+02 -0.11199206174E+03 -0.34013947921E+02  0.13016994564E+03  0.00000000000E+00 0.  1.
<mgrwt>
<rscale>  0 0.11705590E+04</rscale>
<asrwt>0</asrwt>
<pdfrwt beam="1">  1        1 0.73757497E-01 0.11705590E+04</pdfrwt>
<pdfrwt beam="2">  1       -1 0.10992431E+00 0.11705590E+04</pdfrwt>
<totfact> 0.35623203E+01</totfact>
</mgrwt>
</event>
<event>
12    1  0.2045212E-008  0.1536293E+04  0.7818608E-02  0.8860671E-01
          1   -1    0    0  501    0  0.00000000000E+00  0.00000000000E+00  0.12897920312E+04  0.12897920312E+04  0.00000000000E+00 0. -1.
         -1   -1    0    0    0  501 -0.00000000000E+00 -0.00000000000E+00 -0.45747625780E+03  0.45747625780E+03  0.00000000000E+00 0.  1.
         23    2    1    2    0    0  0.64033307813E+02  0.10424495352E+03  0.83225270952E+03  0.84602084597E+03  0.90218758987E+02 0.  0.
        254    2    1    2    0    0 -0.64033307813E+02 -0.10424495352E+03  0.63063868557E-01  0.90124744302E+03  0.89290518798E+03 0.  0.
        -24    2    4    4    0    0  0.65437475549E+02  0.84028673040E+02 -0.40311656169E+03  0.43088278124E+03  0.10869281377E+03 0.  0.
         24    2    4    4    0    0 -0.12947078336E+03 -0.18827362656E+03  0.40317962556E+03  0.47036466177E+03  0.80495107795E+02 0.  0.
         13    1    3    3    0    0  0.45247841100E+02  0.11512388143E+03  0.59174145640E+03  0.60453190687E+03  0.00000000000E+00 0. -1.
        -13    1    3    3    0    0  0.18785466713E+02 -0.10878927913E+02  0.24051125312E+03  0.24148893910E+03  0.00000000000E+00 0.  1.
          2    1    6    6  502    0  0.18830275195E+01 -0.33630244682E+02  0.27862561473E+02  0.43713401628E+02  0.00000000000E+00 0. -1.
          1    1    5    5  503    0  0.33869149383E+02  0.56207214665E+02 -0.73261076303E+02  0.98354235096E+02  0.00000000000E+00 0. -1.
         -2    1    5    5    0  503  0.31568326167E+02  0.27821458375E+02 -0.32985548539E+03  0.33252854615E+03  0.00000000000E+00 0.  1.
         -1    1    6    6    0  502 -0.13135381088E+03 -0.15464338188E+03  0.37531706408E+03  0.42665126015E+03  0.00000000000E+00 0.  1.
<mgrwt>
<rscale>  0 0.15362932E+04</rscale>
<asrwt>0</asrwt>
<pdfrwt beam="1">  1        1 0.19842954E+00 0.15362932E+04</pdfrwt>
<pdfrwt beam="2">  1       -1 0.70380963E-01 0.15362932E+04</pdfrwt>
<totfact> 0.18103404E+01</totfact>
</mgrwt>
</event>
<event>
11    1  0.2045212E-008  0.2542513E+04  0.7818608E-02  0.8387995E-01
         -1   -1    0    0    0  501 -0.00000000000E+00  0.00000000000E+00  0.19041364210E+04  0.19041364210E+04  0.00000000000E+00 0.  1.
          1   -1    0    0  501    0  0.00000000000E+00 -0.00000000000E+00 -0.84872737795E+03  0.84872737795E+03  0.00000000000E+00 0. -1.
         23    2    1    2    0    0 -0.27566887673E+03 -0.89111390820E+03 -0.18906896721E+03  0.95612433040E+03  0.91374689219E+02 0.  0.
        254    2    1    2    0    0  0.27566887673E+03  0.89111390820E+03  0.12444780103E+04  0.17967394686E+04  0.89970543671E+03 0.  0.
         24    2    4    4    0    0 -0.13836004708E+02  0.65253838241E+03  0.12410621079E+04  0.14044008220E+04  0.78158414407E+02 0.  0.
         11    1    3    3    0    0 -0.23800916444E+03 -0.74841262864E+03 -0.19212425716E+03  0.80850575462E+03  0.00000000000E+00 0. -1.
        -11    1    3    3    0    0 -0.37659712290E+02 -0.14270127956E+03  0.30552899449E+01  0.14761857578E+03  0.00000000000E+00 0.  1.
          4    1    5    5  502    0 -0.27271360727E+02  0.51542991392E+03  0.91726017384E+03  0.10525103086E+04  0.00000000000E+00 0. -1.
          1    1    4    4  503    0  0.25118965855E+03  0.24673852719E+03  0.11701679556E+02  0.35229685588E+03  0.00000000000E+00 0. -1.
         -2    1    4    4    0  503  0.38315222890E+02 -0.81630014004E+01 -0.82857771444E+01  0.40041790667E+02  0.00000000000E+00 0.  1.
         -3    1    5    5    0  502  0.13435356019E+02  0.13710846850E+03  0.32380193402E+03  0.35189051337E+03  0.00000000000E+00 0.  1.
<mgrwt>
<rscale>  0 0.25425127E+04</rscale>
<asrwt>0</asrwt>
<pdfrwt beam="1">  1        1 0.13057344E+00 0.25425127E+04</pdfrwt>
<pdfrwt beam="2">  1       -1 0.29294406E+00 0.25425127E+04</pdfrwt>
<totfact> 0.65210608E-01</totfact>
</mgrwt>
</event>
<event>
12    1  0.2045212E-008  0.1771358E+04  0.7818608E-02  0.8721681E-01
         -2   -1    0    0    0  501 -0.00000000000E+00  0.00000000000E+00  0.53388661542E+03  0.53388661542E+03  0.00000000000E+00 0.  1.
          2   -1    0    0  501    0  0.00000000000E+00 -0.00000000000E+00 -0.14692772363E+04  0.14692772363E+04  0.00000000000E+00 0. -1.
         23    2    1    2    0    0  0.41949882960E+02 -0.49853001619E+03  0.12922142686E+03  0.52492214986E+03  0.92483060785E+02 0.  0.
        254    2    1    2    0    0 -0.41949882960E+02  0.49853001619E+03 -0.10646120478E+04  0.14782417019E+04  0.89526965058E+03 0.  0.
        -24    2    4    4    0    0  0.21970387535E+03  0.65674148378E+03 -0.82734431353E+03  0.10829837322E+04  0.93680209315E+02 0.  0.
         24    2    4    4    0    0 -0.26165375831E+03 -0.15821146759E+03 -0.23726773425E+03  0.39525796975E+03  0.80245418680E+02 0.  0.
         13    1    3    3    0    0 -0.34024098264E+01 -0.19867154871E+03  0.96574774478E+01  0.19893523451E+03  0.00000000000E+00 0. -1.
        -13    1    3    3    0    0  0.45352292786E+02 -0.29985846749E+03  0.11956394941E+03  0.32598691536E+03  0.00000000000E+00 0.  1.
          2    1    6    6  502    0 -0.17488850504E+03 -0.14243146973E+03 -0.19160975774E+03  0.29595102977E+03  0.00000000000E+00 0. -1.
          3    1    5    5  503    0  0.15971911991E+03  0.44504320610E+03 -0.62781188127E+03  0.78595254998E+03  0.00000000000E+00 0. -1.
         -2    1    5    5    0  503  0.59984755438E+02  0.21169827768E+03 -0.19953243226E+03  0.29703118217E+03  0.00000000000E+00 0.  1.
         -1    1    6    6    0  502 -0.86765253274E+02 -0.15779997859E+02 -0.45657976512E+02  0.99306939976E+02  0.00000000000E+00 0.  1.
<mgrwt>
<rscale>  0 0.17713582E+04</rscale>
<asrwt>0</asrwt>
<pdfrwt beam="1">  1        2 0.22604264E+00 0.17713582E+04</pdfrwt>
<pdfrwt beam="2">  1       -2 0.82136405E-01 0.17713582E+04</pdfrwt>
<totfact> 0.16283572E+01</totfact>
</mgrwt>
</event>
<event>
11    1  0.2045212E-008  0.1308438E+04  0.7818608E-02  0.9022900E-01
         -2   -1    0    0    0  501 -0.00000000000E+00  0.00000000000E+00  0.47636674329E+03  0.47636674329E+03  0.00000000000E+00 0.  1.
          2   -1    0    0  501    0  0.00000000000E+00 -0.00000000000E+00 -0.89847250949E+03  0.89847250949E+03  0.00000000000E+00 0. -1.
         23    2    1    2    0    0  0.22142712956E+03  0.25947209027E+03 -0.14657324184E+03  0.38251176960E+03  0.92064104414E+02 0.  0.
        254    2    1    2    0    0 -0.22142712956E+03 -0.25947209027E+03 -0.27553252436E+03  0.99232748318E+03  0.89019094724E+03 0.  0.
         24    2    4    4    0    0  0.18438684167E+03  0.19599423170E+03 -0.20882105699E+03  0.35000078160E+03  0.80511285173E+02 0.  0.
         13    1    3    3    0    0  0.98688694115E+01  0.82175635563E+01  0.12179515719E+02  0.17699252453E+02  0.00000000000E+00 0. -1.
        -13    1    3    3    0    0  0.21155826015E+03  0.25125452672E+03 -0.15875275756E+03  0.36481251714E+03  0.00000000000E+00 0.  1.
          4    1    5    5  502    0  0.18323504990E+03  0.19577635589E+03 -0.18412644145E+03  0.32527835999E+03  0.00000000000E+00 0. -1.
          1    1    4    4  503    0 -0.27858815068E+03 -0.20764380500E+03  0.26769753375E+02  0.34848805883E+03  0.00000000000E+00 0. -1.
         -2    1    4    4    0  503 -0.12722582055E+03 -0.24782251698E+03 -0.93481220746E+02  0.29383864274E+03  0.00000000000E+00 0.  1.
         -3    1    5    5    0  502  0.11517917740E+01  0.21787581707E+00 -0.24694615535E+02  0.24722421616E+02  0.00000000000E+00 0.  1.
<mgrwt>
<rscale>  0 0.13084379E+04</rscale>
<asrwt>0</asrwt>
<pdfrwt beam="1">  1        2 0.13822654E+00 0.13084379E+04</pdfrwt>
<pdfrwt beam="2">  1       -2 0.73287192E-01 0.13084379E+04</pdfrwt>
<totfact> 0.48404919E+01</totfact>
</mgrwt>
</event>
<event>
12    1  0.2812556E-008  0.1348533E+04  0.7818608E-02  0.8991939E-01
          2   -1    0    0  501    0  0.00000000000E+00  0.00000000000E+00  0.11901402574E+04  0.11901402574E+04  0.00000000000E+00 0. -1.
         -2   -1    0    0    0  501 -0.00000000000E+00 -0.00000000000E+00 -0.38200146969E+03  0.38200146969E+03  0.00000000000E+00 0.  1.
         23    2    1    2    0    0  0.22367567975E+02 -0.59844881650E+02  0.67839151184E+03  0.68743223227E+03  0.90919264502E+02 0.  0.
        254    2    1    2    0    0 -0.22367567975E+02  0.59844881650E+02  0.12974727591E+03  0.88470949487E+03  0.87280857967E+03 0.  0.
        -24    2    4    4    0    0 -0.21884731080E+03  0.39184224426E+03 -0.29215964927E+02  0.45987863632E+03  0.95918182329E+02 0.  0.
         24    2    4    4    0    0  0.19647974282E+03 -0.33199736261E+03  0.15896324083E+03  0.42483085855E+03  0.79908749950E+02 0.  0.
         11    1    3    3    0    0  0.86143372593E+00  0.19962884622E+02  0.27127976495E+03  0.27201464979E+03  0.00000000000E+00 0.  1.
        -11    1    3    3    0    0  0.21506134249E+02 -0.79807766272E+02  0.40711174689E+03  0.41541758247E+03  0.00000000000E+00 0. -1.
          2    1    6    6  502    0  0.17251896637E+03 -0.22129545168E+03  0.11772334078E+03  0.30429139925E+03  0.00000000000E+00 0. -1.
          1    1    5    5  503    0 -0.22734956675E+03  0.35964879705E+03 -0.23833599467E+02  0.42614917949E+03  0.00000000000E+00 0. -1.
         -2    1    5    5    0  503  0.85022559479E+01  0.32193447214E+02 -0.53823654603E+01  0.33729456824E+02  0.00000000000E+00 0.  1.
         -1    1    6    6    0  502  0.23960776453E+02 -0.11070191094E+03  0.41239900050E+02  0.12053945930E+03  0.00000000000E+00 0.  1.
<mgrwt>
<rscale>  0 0.13485330E+04</rscale>
<asrwt>0</asrwt>
<pdfrwt beam="1">  1        2 0.18309850E+00 0.13485330E+04</pdfrwt>
<pdfrwt beam="2">  1       -2 0.58769457E-01 0.13485330E+04</pdfrwt>
<totfact> 0.50750456E+01</totfact>
</mgrwt>
</event>
<event>
11    1  0.2045212E-008  0.1895793E+04  0.7818608E-02  0.8656953E-01
          2   -1    0    0  501    0  0.00000000000E+00  0.00000000000E+00  0.14929114875E+04  0.14929114875E+04  0.00000000000E+00 0. -1.
         -2   -1    0    0    0  501 -0.00000000000E+00 -0.00000000000E+00 -0.60184921661E+03  0.60184921661E+03  0.00000000000E+00 0.  1.
         23    2    1    2    0    0  0.48200163561E+03  0.48216760385E+03  0.64720475534E+03  0.94239977385E+03  0.66574495712E+02 0.  0.
        254    2    1    2    0    0 -0.48200163561E+03 -0.48216760385E+03  0.24385751554E+03  0.11523609302E+04  0.89646977124E+03 0.  0.
         24    2    4    4    0    0 -0.32873131528E+03 -0.36805054580E+03 -0.27049182882E+03  0.56807686991E+03  0.77588779854E+02 0.  0.
         11    1    3    3    0    0 -0.69167451845E+00  0.61375811323E+01  0.11407364225E+02  0.12972134534E+02  0.00000000000E+00 0.  1.
        -11    1    3    3    0    0  0.48269331013E+03  0.47603002272E+03  0.63579739112E+03  0.92942763931E+03  0.00000000000E+00 0. -1.
          4    1    5    5  502    0 -0.30938591703E+03 -0.36710035993E+03 -0.26205048569E+03  0.54694860542E+03  0.00000000000E+00 0. -1.
          3    1    4    4  503    0 -0.67445830248E+02 -0.15896308149E+03  0.39125050798E+03  0.42766243848E+03  0.00000000000E+00 0. -1.
         -4    1    4    4    0  503 -0.85824490083E+02  0.44846023438E+02  0.12309883638E+03  0.15662162186E+03  0.00000000000E+00 0.  1.
         -3    1    5    5    0  502 -0.19345398245E+02 -0.95018586670E+00 -0.84413431309E+01  0.21128264489E+02  0.00000000000E+00 0.  1.
<mgrwt>
<rscale>  0 0.18957928E+04</rscale>
<asrwt>0</asrwt>
<pdfrwt beam="1">  1        2 0.22967869E+00 0.18957928E+04</pdfrwt>
<pdfrwt beam="2">  1       -2 0.92592187E-01 0.18957928E+04</pdfrwt>
<totfact> 0.11877770E+01</totfact>
</mgrwt>
</event>
<event>
11    1  0.2045212E-008  0.2726902E+04  0.7818608E-02  0.8326329E-01
         -1   -1    0    0    0  501 -0.00000000000E+00  0.00000000000E+00  0.12552864006E+04  0.12552864006E+04  0.00000000000E+00 0.  1.
          1   -1    0    0  501    0  0.00000000000E+00 -0.00000000000E+00 -0.14809359954E+04  0.14809359954E+04  0.00000000000E+00 0. -1.
         23    2    1    2    0    0 -0.55818611391E+03  0.33234624048E+02 -0.11795088350E+04  0.13085467479E+04  0.91527162933E+02 0.  0.
        254    2    1    2    0    0  0.55818611391E+03 -0.33234624048E+02  0.95385924017E+03  0.14276756481E+04  0.90317995327E+03 0.  0.
         24    2    4    4    0    0  0.18325565257E+03  0.25887719214E+02  0.98768064172E+03  0.10079813489E+04  0.79123583801E+02 0.  0.
         11    1    3    3    0    0 -0.26351479915E+02 -0.11842694952E+02 -0.32817852171E+02  0.43722549543E+02  0.00000000000E+00 0.  1.
        -11    1    3    3    0    0 -0.53183463400E+03  0.45077319000E+02 -0.11466909828E+04  0.12648241983E+04  0.00000000000E+00 0. -1.
          4    1    5    5  502    0  0.99151000357E+02 -0.25275949795E+02  0.53927599030E+03  0.54889742960E+03  0.00000000000E+00 0. -1.
          1    1    4    4  503    0  0.22083576346E+03 -0.11076245290E+03  0.21571555302E+02  0.24799614391E+03  0.00000000000E+00 0. -1.
         -2    1    4    4    0  503  0.15409469789E+03  0.51640109638E+02 -0.55392956859E+02  0.17169815523E+03  0.00000000000E+00 0.  1.
         -3    1    5    5    0  502  0.84104652211E+02  0.51163669009E+02  0.44840465143E+03  0.45908391931E+03  0.00000000000E+00 0.  1.
<mgrwt>
<rscale>  0 0.27269021E+04</rscale>
<asrwt>0</asrwt>
<pdfrwt beam="1">  1        1 0.22783631E+00 0.27269021E+04</pdfrwt>
<pdfrwt beam="2">  1       -1 0.19312099E+00 0.27269021E+04</pdfrwt>
<totfact> 0.98720227E-01</totfact>
</mgrwt>
</event>
<event>
12    1  0.2045212E-008  0.1592916E+04  0.7818608E-02  0.8824912E-01
         -2   -1    0    0    0  501 -0.00000000000E+00  0.00000000000E+00  0.72841557711E+03  0.72841557711E+03  0.00000000000E+00 0. -1.
          2   -1    0    0  501    0  0.00000000000E+00 -0.00000000000E+00 -0.87085618749E+03  0.87085618749E+03  0.00000000000E+00 0.  1.
         23    2    1    2    0    0 -0.50826566172E+03  0.10943769954E+03  0.76736431440E+02  0.53339882022E+03  0.91187874950E+02 0.  0.
        254    2    1    2    0    0  0.50826566172E+03 -0.10943769954E+03 -0.21917704183E+03  0.10658729444E+04  0.90428754549E+03 0.  0.
        -24    2    4    4    0    0  0.60458846206E+03 -0.38082323799E+03 -0.43791002708E+02  0.71873387529E+03  0.64087319462E+02 0.  0.
         24    2    4    4    0    0 -0.96322800342E+02  0.27138553844E+03 -0.17538603912E+03  0.34713906909E+03  0.82565599550E+02 0.  0.
         11    1    3    3    0    0 -0.34633339758E+03  0.50377879850E+02  0.87323192133E+02  0.36070776668E+03  0.00000000000E+00 0. -1.
        -11    1    3    3    0    0 -0.16193226414E+03  0.59059819694E+02 -0.10586760694E+02  0.17269105354E+03  0.00000000000E+00 0.  1.
          2    1    6    6  502    0 -0.59218402089E+02  0.24055593009E+03 -0.16539305035E+03  0.29787385880E+03  0.00000000000E+00 0. -1.
          3    1    5    5  503    0  0.45114191367E+03 -0.30952016053E+03 -0.16638199227E+02  0.54736513016E+03  0.00000000000E+00 0. -1.
         -4    1    5    5    0  503  0.15344654839E+03 -0.71303077457E+02 -0.27152803481E+02  0.17136874512E+03  0.00000000000E+00 0.  1.
         -1    1    6    6    0  502 -0.37104398253E+02  0.30829608347E+02 -0.99929887640E+01  0.49265210291E+02  0.00000000000E+00 0.  1.
<mgrwt>
<rscale>  0 0.15929158E+04</rscale>
<asrwt>0</asrwt>
<pdfrwt beam="1">  1        2 0.13397788E+00 0.15929158E+04</pdfrwt>
<pdfrwt beam="2">  1       -2 0.11206393E+00 0.15929158E+04</pdfrwt>
<totfact> 0.18498830E+01</totfact>
</mgrwt>
</event>
<event>
12    1  0.2045212E-008  0.1083871E+04  0.7818608E-02  0.9221056E-01
         -2   -1    0    0    0  501 -0.00000000000E+00  0.00000000000E+00  0.27465173320E+03  0.27465173320E+03  0.00000000000E+00 0.  1.
          2   -1    0    0  501    0  0.00000000000E+00 -0.00000000000E+00 -0.10693336373E+04  0.10693336373E+04  0.00000000000E+00 0. -1.
         23    2    1    2    0    0 -0.84327149420E+02 -0.10522884012E+03 -0.62563259329E+02  0.17393154496E+03  0.90298637811E+02 0.  0.
        254    2    1    2    0    0  0.84327149420E+02  0.10522884012E+03 -0.73211864474E+03  0.11700538255E+04  0.90268713723E+03 0.  0.
        -24    2    4    4    0    0 -0.30022838536E+03  0.10656884378E+03 -0.70155804712E+03  0.77602608528E+03  0.92405571877E+02 0.  0.
         24    2    4    4    0    0  0.38455553478E+03 -0.13400036631E+01 -0.30560597621E+02  0.39402774024E+03  0.80244345699E+02 0.  0.
         11    1    3    3    0    0 -0.72736082015E+02 -0.19238540000E+02 -0.34197898978E+02  0.82644753873E+02  0.00000000000E+00 0. -1.
        -11    1    3    3    0    0 -0.11591067405E+02 -0.85990300121E+02 -0.28365360350E+02  0.91286791083E+02  0.00000000000E+00 0.  1.
          4    1    6    6  502    0  0.86058702496E+02 -0.33834510228E+02 -0.11148966775E+02  0.93140613149E+02  0.00000000000E+00 0. -1.
          3    1    5    5  503    0 -0.65116483187E+02  0.54815841122E+02 -0.25320772682E+03  0.26713121446E+03  0.00000000000E+00 0. -1.
         -4    1    5    5    0  503 -0.23511190217E+03  0.51753002662E+02 -0.44835032030E+03  0.50889487081E+03  0.00000000000E+00 0.  1.
         -3    1    6    6    0  502  0.29849683228E+03  0.32494506565E+02 -0.19411630846E+02  0.30088712709E+03  0.00000000000E+00 0.  1.
<mgrwt>
<rscale>  0 0.10838715E+04</rscale>
<asrwt>0</asrwt>
<pdfrwt beam="1">  1        2 0.16451287E+00 0.10838715E+04</pdfrwt>
<pdfrwt beam="2">  1       -2 0.42254113E-01 0.10838715E+04</pdfrwt>
<totfact> 0.12001686E+02</totfact>
</mgrwt>
</event>
<event>
11    1  0.2045212E-008  0.2754616E+04  0.7818608E-02  0.8317498E-01
         -1   -1    0    0    0  501 -0.00000000000E+00  0.00000000000E+00  0.10626274315E+04  0.10626274315E+04  0.00000000000E+00 0. -1.
          1   -1    0    0  501    0  0.00000000000E+00 -0.00000000000E+00 -0.17851767120E+04  0.17851767120E+04  0.00000000000E+00 0.  1.
         23    2    1    2    0    0  0.69788024707E+03 -0.43052581306E+03 -0.12683467773E+04  0.15130821833E+04  0.91240512594E+02 0.  0.
        254    2    1    2    0    0 -0.69788024707E+03  0.43052581306E+03  0.54579749676E+03  0.13347219602E+04  0.90066558086E+03 0.  0.
         24    2    4    4    0    0 -0.83841866720E+03  0.15376811641E+03  0.48079035936E+03  0.98190654773E+03  0.79941251538E+02 0.  0.
         11    1    3    3    0    0  0.69225426900E+02 -0.53365537704E+02 -0.91285476440E+02  0.12638464524E+03  0.00000000000E+00 0. -1.
        -11    1    3    3    0    0  0.62865482017E+03 -0.37716027535E+03 -0.11770613008E+04  0.13866975381E+04  0.00000000000E+00 0.  1.
          4    1    5    5  502    0 -0.47463620301E+03  0.12395686282E+03  0.29358452563E+03  0.57169633787E+03  0.00000000000E+00 0. -1.
          3    1    4    4  503    0  0.10569906234E+03  0.66003563591E+02 -0.13251512501E+02  0.12531705698E+03  0.00000000000E+00 0. -1.
         -4    1    4    4    0  503  0.34839357795E+02  0.21075413306E+03  0.78258649900E+02  0.22749835546E+03  0.00000000000E+00 0.  1.
         -3    1    5    5    0  502 -0.36378246419E+03  0.29811253589E+02  0.18720583374E+03  0.41021020986E+03  0.00000000000E+00 0.  1.
<mgrwt>
<rscale>  0 0.27546163E+04</rscale>
<asrwt>0</asrwt>
<pdfrwt beam="1">  1        1 0.27464257E+00 0.27546163E+04</pdfrwt>
<pdfrwt beam="2">  1       -1 0.16348115E+00 0.27546163E+04</pdfrwt>
<totfact> 0.99690144E-01</totfact>
</mgrwt>
</event>
<event>
11    1  0.2045212E-008  0.1556863E+04  0.7818608E-02  0.8847496E-01
          2   -1    0    0  501    0  0.00000000000E+00  0.00000000000E+00  0.17178036768E+04  0.17178036768E+04  0.00000000000E+00 0. -1.
         -2   -1    0    0    0  501 -0.00000000000E+00 -0.00000000000E+00 -0.35275023911E+03  0.35275023911E+03  0.00000000000E+00 0.  1.
         23    2    1    2    0    0  0.12240331048E+03  0.43075563219E+03  0.13260246213E+03  0.47676185242E+03  0.95840836154E+02 0.  0.
        254    2    1    2    0    0 -0.12240331048E+03 -0.43075563219E+03  0.12324509756E+04  0.15937920635E+04  0.90592756302E+03 0.  0.
         24    2    4    4    0    0 -0.45539974280E+03 -0.29693563732E+03  0.42524248606E+03  0.69511215306E+03  0.82401668245E+02 0.  0.
         13    1    3    3    0    0  0.11460657486E+01 -0.52328093418E+01  0.23781322055E+01  0.58609959132E+01  0.00000000000E+00 0.  1.
        -13    1    3    3    0    0  0.12125724473E+03  0.43598844153E+03  0.13022432993E+03  0.47090085650E+03  0.00000000000E+00 0. -1.
          4    1    5    5  502    0 -0.32885088955E+03 -0.20425535327E+03  0.34675672333E+03  0.51971471219E+03  0.00000000000E+00 0. -1.
          3    1    4    4  503    0  0.32623572782E+03 -0.90417697121E+02  0.76992506347E+03  0.84106463093E+03  0.00000000000E+00 0. -1.
         -4    1    4    4    0  503  0.67607045093E+01 -0.43402297748E+02  0.37283426035E+02  0.57615279502E+02  0.00000000000E+00 0.  1.
         -3    1    5    5    0  502 -0.12654885325E+03 -0.92680284055E+02  0.78485762725E+02  0.17539744087E+03  0.00000000000E+00 0.  1.
<mgrwt>
<rscale>  0 0.15568631E+04</rscale>
<asrwt>0</asrwt>
<pdfrwt beam="1">  1        2 0.26427748E+00 0.15568631E+04</pdfrwt>
<pdfrwt beam="2">  1       -2 0.54269269E-01 0.15568631E+04</pdfrwt>
<totfact> 0.29476591E+01</totfact>
</mgrwt>
</event>
<event>
12    1  0.2045212E-008  0.1744595E+04  0.7818608E-02  0.8736331E-01
          2   -1    0    0  501    0  0.00000000000E+00  0.00000000000E+00  0.31950754472E+04  0.31950754472E+04  0.00000000000E+00 0. -1.
         -2   -1    0    0    0  501 -0.00000000000E+00 -0.00000000000E+00 -0.23814873228E+03  0.23814873228E+03  0.00000000000E+00 0.  1.
         23    2    1    2    0    0 -0.55589358941E+03  0.14839969034E+03  0.16121254631E+04  0.17142932670E+04  0.93876226005E+02 0.  0.
        254    2    1    2    0    0  0.55589358941E+03 -0.14839969034E+03  0.13448012519E+04  0.17189309125E+04  0.90288034868E+03 0.  0.
        -24    2    4    4    0    0  0.22625748329E+03  0.13997226094E+03  0.12257488422E+04  0.12577398332E+04  0.93083732265E+02 0.  0.
         24    2    4    4    0    0  0.32963610612E+03 -0.28837195128E+03  0.11905240970E+03  0.46119107934E+03  0.81886449806E+02 0.  0.
         11    1    3    3    0    0 -0.10116026998E+03  0.12500481592E+02  0.39410538256E+03  0.40707335313E+03  0.00000000000E+00 0.  1.
        -11    1    3    3    0    0 -0.45473331943E+03  0.13589920875E+03  0.12180200805E+04  0.13072199139E+04  0.00000000000E+00 0. -1.
          4    1    6    6  502    0  0.11850710177E+03 -0.57115540457E+02  0.48466813259E+02  0.14019682635E+03  0.00000000000E+00 0. -1.
          1    1    5    5  503    0  0.72911336078E+02  0.17840256674E+01  0.25145426808E+03  0.26181767437E+03  0.00000000000E+00 0. -1.
         -2    1    5    5    0  503  0.15334614721E+03  0.13818823528E+03  0.97429457413E+03  0.99592215881E+03  0.00000000000E+00 0.  1.
         -3    1    6    6    0  502  0.21112900435E+03 -0.23125641083E+03  0.70585596439E+02  0.32099425299E+03  0.00000000000E+00 0.  1.
<mgrwt>
<rscale>  0 0.17445953E+04</rscale>
<asrwt>0</asrwt>
<pdfrwt beam="1">  1        2 0.49155004E+00 0.17445953E+04</pdfrwt>
<pdfrwt beam="2">  1       -2 0.36638269E-01 0.17445953E+04</pdfrwt>
<totfact> 0.87432482E+00</totfact>
</mgrwt>
</event>
<event>
11    1  0.2045212E-008  0.1227589E+04  0.7818608E-02  0.9089045E-01
         -2   -1    0    0    0  501 -0.00000000000E+00  0.00000000000E+00  0.42290780993E+03  0.42290780993E+03  0.00000000000E+00 0.  1.
          2   -1    0    0  501    0  0.00000000000E+00 -0.00000000000E+00 -0.89084068777E+03  0.89084068777E+03  0.00000000000E+00 0. -1.
         23    2    1    2    0    0 -0.19947357033E+03 -0.13305709742E+03 -0.24010659620E+03  0.35109341989E+03  0.90119451415E+02 0.  0.
        254    2    1    2    0    0  0.19947357033E+03  0.13305709742E+03 -0.22782628165E+03  0.96265507780E+03  0.90404982594E+03 0.  0.
         24    2    4    4    0    0 -0.32730355803E+03  0.14135550224E+02  0.53458259896E+02  0.34126035372E+03  0.79204864679E+02 0.  0.
         13    1    3    3    0    0  0.18945115213E+01 -0.21843534895E+02 -0.56729708629E+01  0.22647555917E+02  0.00000000000E+00 0.  1.
        -13    1    3    3    0    0 -0.20136808185E+03 -0.11121356252E+03 -0.23443362533E+03  0.32844586398E+03  0.00000000000E+00 0. -1.
          4    1    5    5  502    0 -0.86170412526E+02  0.22691155263E+02 -0.15204700599E+02  0.90395859653E+02  0.00000000000E+00 0. -1.
          3    1    4    4  503    0  0.99214887466E+02  0.44730467066E+02 -0.92459423647E+01  0.10922406342E+03  0.00000000000E+00 0. -1.
         -2    1    4    4    0  503  0.42756224089E+03  0.74191080127E+02 -0.27203859918E+03  0.51217066067E+03  0.00000000000E+00 0.  1.
         -3    1    5    5    0  502 -0.24113314551E+03 -0.85556050396E+01  0.68662960495E+02  0.25086449407E+03  0.00000000000E+00 0.  1.
<mgrwt>
<rscale>  0 0.12275887E+04</rscale>
<asrwt>0</asrwt>
<pdfrwt beam="1">  1        2 0.13705241E+00 0.12275887E+04</pdfrwt>
<pdfrwt beam="2">  1       -2 0.65062741E-01 0.12275887E+04</pdfrwt>
<totfact> 0.63847916E+01</totfact>
</mgrwt>
</event>
<event>
12    1  0.2045212E-008  0.1532091E+04  0.7818608E-02  0.8863389E-01
         -2   -1    0    0    0  501 -0.00000000000E+00  0.00000000000E+00  0.31679914932E+03  0.31679914932E+03  0.00000000000E+00 0. -1.
          2   -1    0    0  501    0  0.00000000000E+00 -0.00000000000E+00 -0.18523595986E+04  0.18523595986E+04  0.00000000000E+00 0.  1.
         23    2    1    2    0    0 -0.22095368209E+03 -0.44261720645E+03 -0.53198276565E+03  0.73215468216E+03  0.91182753770E+02 0.  0.
        254    2    1    2    0    0  0.22095368209E+03  0.44261720645E+03 -0.10035776836E+04  0.14370040658E+04  0.90171059483E+03 0.  0.
        -24    2    4    4    0    0 -0.32726142372E+03  0.12129293408E+03 -0.54399317976E+03  0.64883959815E+03  0.57028319158E+02 0.  0.
         24    2    4    4    0    0  0.54821510581E+03  0.32132427238E+03 -0.45958450387E+03  0.78816446761E+03  0.78716081868E+02 0.  0.
         11    1    3    3    0    0 -0.77327794977E+02 -0.19132685633E+03 -0.16168612447E+03  0.26216017371E+03  0.00000000000E+00 0. -1.
        -11    1    3    3    0    0 -0.14362588711E+03 -0.25129035012E+03 -0.37029664117E+03  0.46999450845E+03  0.00000000000E+00 0.  1.
          2    1    6    6  502    0  0.45715207134E+03  0.28738109367E+03 -0.35976772463E+03  0.64885185136E+03  0.00000000000E+00 0. -1.
          1    1    5    5  503    0 -0.26967388527E+03  0.75427699447E+02 -0.43097998951E+03  0.51396215191E+03  0.00000000000E+00 0. -1.
         -2    1    5    5    0  503 -0.57587538452E+02  0.45865234628E+02 -0.11301319025E+03  0.13487744623E+03  0.00000000000E+00 0.  1.
         -1    1    6    6    0  502  0.91063034472E+02  0.33943178709E+02 -0.99816779241E+02  0.13931261625E+03  0.00000000000E+00 0.  1.
<mgrwt>
<rscale>  0 0.15320913E+04</rscale>
<asrwt>0</asrwt>
<pdfrwt beam="1">  1        2 0.28497840E+00 0.15320913E+04</pdfrwt>
<pdfrwt beam="2">  1       -2 0.48738330E-01 0.15320913E+04</pdfrwt>
<totfact> 0.31011018E+01</totfact>
</mgrwt>
</event>
<event>
11    1  0.2045212E-008  0.2130558E+04  0.7818608E-02  0.8547900E-01
          4   -1    0    0  501    0  0.00000000000E+00  0.00000000000E+00  0.35216159163E+04  0.35216159163E+04  0.00000000000E+00 0. -1.
         -4   -1    0    0    0  501 -0.00000000000E+00 -0.00000000000E+00 -0.32224401034E+03  0.32224401034E+03  0.00000000000E+00 0.  1.
         23    2    1    2    0    0 -0.28059834428E+03 -0.57022581779E+03  0.33718373613E+03  0.72537099948E+03  0.92613718681E+02 0.  0.
        254    2    1    2    0    0  0.28059834428E+03  0.57022581779E+03  0.28621881698E+04  0.31184889272E+04  0.10625248963E+04 0.  0.
         24    2    4    4    0    0  0.71298936690E+02 -0.27027344906E+03  0.48074994821E+03  0.56179520725E+03  0.79762563500E+02 0.  0.
         11    1    3    3    0    0 -0.11123398527E+02 -0.90307647314E+02  0.35117959191E+02  0.97531903579E+02  0.00000000000E+00 0. -1.
        -11    1    3    3    0    0 -0.26947494576E+03 -0.47991817048E+03  0.30206577694E+03  0.62783909590E+03  0.00000000000E+00 0.  1.
          2    1    5    5  502    0  0.64629102090E+01 -0.16746686256E+03  0.24972164806E+03  0.30074544182E+03  0.00000000000E+00 0. -1.
          1    1    4    4  503    0  0.20706757701E+03  0.85955774433E+03  0.21532928081E+04  0.23277427724E+04  0.00000000000E+00 0. -1.
         -2    1    4    4    0  503  0.22318305842E+01 -0.19058477482E+02  0.22814541356E+03  0.22895094750E+03  0.00000000000E+00 0.  1.
         -1    1    5    5    0  502  0.64836026481E+02 -0.10280658650E+03  0.23102830016E+03  0.26104976543E+03  0.00000000000E+00 0.  1.
<mgrwt>
<rscale>  0 0.21305583E+04</rscale>
<asrwt>0</asrwt>
<pdfrwt beam="1">  1        4 0.54178704E+00 0.21305583E+04</pdfrwt>
<pdfrwt beam="2">  1       -4 0.49576004E-01 0.21305583E+04</pdfrwt>
<totfact> 0.39607485E-03</totfact>
</mgrwt>
</event>
<event>
11    1  0.2045212E-008  0.1914115E+04  0.7818608E-02  0.8647862E-01
         -1   -1    0    0    0  501 -0.00000000000E+00  0.00000000000E+00  0.49067537673E+03  0.49067537673E+03  0.00000000000E+00 0.  1.
          1   -1    0    0  501    0  0.00000000000E+00 -0.00000000000E+00 -0.18667304890E+04  0.18667304890E+04  0.00000000000E+00 0. -1.
         23    2    1    2    0    0  0.24018171048E+03  0.63538583247E+03 -0.14380729821E+03  0.70060786193E+03  0.93639879462E+02 0.  0.
        254    2    1    2    0    0 -0.24018171048E+03 -0.63538583247E+03 -0.12322478140E+04  0.16567980038E+04  0.87472426509E+03 0.  0.
         24    2    4    4    0    0 -0.10884012251E+03 -0.37179394629E+03 -0.12694971786E+03  0.41639524388E+03  0.84804820012E+02 0.  0.
         11    1    3    3    0    0  0.67032118408E+02  0.17140189712E+03  0.29983599569E+01  0.18406766527E+03  0.00000000000E+00 0.  1.
        -11    1    3    3    0    0  0.17314959207E+03  0.46398393535E+03 -0.14680565817E+03  0.51654019666E+03  0.00000000000E+00 0. -1.
          4    1    5    5  502    0 -0.12112199703E+03 -0.35572904826E+03 -0.12522584405E+03  0.39609999490E+03  0.00000000000E+00 0. -1.
          3    1    4    4  503    0  0.12057391841E+03 -0.83573723122E+02 -0.77064746469E+03  0.78448719035E+03  0.00000000000E+00 0. -1.
         -4    1    4    4    0  503 -0.25191550638E+03 -0.18001816305E+03 -0.33465063147E+03  0.45591556952E+03  0.00000000000E+00 0.  1.
         -3    1    5    5    0  502  0.12281874520E+02 -0.16064898031E+02 -0.17238738121E+01  0.20295248985E+02  0.00000000000E+00 0.  1.
<mgrwt>
<rscale>  0 0.19141146E+04</rscale>
<asrwt>0</asrwt>
<pdfrwt beam="1">  1        1 0.28718931E+00 0.19141146E+04</pdfrwt>
<pdfrwt beam="2">  1       -1 0.75488519E-01 0.19141146E+04</pdfrwt>
<totfact> 0.60485973E+00</totfact>
</mgrwt>
</event>
<event>
12    1  0.2045212E-008  0.1556269E+04  0.7818608E-02  0.8847873E-01
          1   -1    0    0  501    0  0.00000000000E+00  0.00000000000E+00  0.15436600728E+04  0.15436600728E+04  0.00000000000E+00 0. -1.
         -1   -1    0    0    0  501 -0.00000000000E+00 -0.00000000000E+00 -0.39224534813E+03  0.39224534813E+03  0.00000000000E+00 0.  1.
         23    2    1    2    0    0 -0.32843665340E+03  0.40996629901E+03  0.26799955017E+03  0.59613070197E+03  0.87206956821E+02 0.  0.
        254    2    1    2    0    0  0.32843665340E+03 -0.40996629901E+03  0.88341517448E+03  0.13397747189E+04  0.85943639985E+03 0.  0.
        -24    2    4    4    0    0 -0.15535333452E+03 -0.23045727243E+03 -0.33514080055E+02  0.28445605761E+03  0.50466247987E+02 0.  0.
         24    2    4    4    0    0  0.48378998792E+03 -0.17950902658E+03  0.91692925454E+03  0.10553186613E+04  0.81620929177E+02 0.  0.
         13    1    3    3    0    0 -0.30303197534E+03  0.35374582447E+03  0.20818655415E+03  0.51020204600E+03  0.00000000000E+00 0. -1.
        -13    1    3    3    0    0 -0.25404678060E+02  0.56220474539E+02  0.59812996015E+02  0.85928655971E+02  0.00000000000E+00 0.  1.
          4    1    6    6  502    0  0.30083977147E+03 -0.81296700182E+02  0.60594686231E+03  0.68138485564E+03  0.00000000000E+00 0. -1.
          1    1    5    5  503    0 -0.82040870061E+02 -0.16464184301E+03 -0.21124666864E+02  0.18515910019E+03  0.00000000000E+00 0. -1.
         -2    1    5    5    0  503 -0.73312464461E+02 -0.65815429420E+02 -0.12389413191E+02  0.99296957427E+02  0.00000000000E+00 0.  1.
         -3    1    6    6    0  502  0.18295021645E+03 -0.98212326398E+02  0.31098239223E+03  0.37393380568E+03  0.00000000000E+00 0.  1.
<mgrwt>
<rscale>  0 0.15562692E+04</rscale>
<asrwt>0</asrwt>
<pdfrwt beam="1">  1        1 0.23748616E+00 0.15562692E+04</pdfrwt>
<pdfrwt beam="2">  1       -1 0.60345439E-01 0.15562692E+04</pdfrwt>
<totfact> 0.16361221E+01</totfact>
</mgrwt>
</event>
<event>
11    1  0.2045212E-008  0.2312703E+04  0.7818608E-02  0.8472929E-01
         -1   -1    0    0    0  501 -0.00000000000E+00  0.00000000000E+00  0.80284119579E+03  0.80284119579E+03  0.00000000000E+00 0.  1.
          1   -1    0    0  501    0  0.00000000000E+00 -0.00000000000E+00 -0.16655204317E+04  0.16655204317E+04  0.00000000000E+00 0. -1.
         23    2    1    2    0    0  0.17837921386E+03  0.91981964301E+03 -0.72740887049E+02  0.94454678243E+03  0.94815968843E+02 0.  0.
        254    2    1    2    0    0 -0.17837921386E+03 -0.91981964301E+03 -0.78993834890E+03  0.15238148451E+04  0.90560574615E+03 0.  0.
         24    2    4    4    0    0 -0.31466020177E+03 -0.72389457698E+03 -0.93192613014E+03  0.12235802471E+04  0.75019382875E+02 0.  0.
         13    1    3    3    0    0  0.10966200333E+03  0.75660771409E+03 -0.65419178830E+02  0.76730740708E+03  0.00000000000E+00 0.  1.
        -13    1    3    3    0    0  0.68717210531E+02  0.16321192892E+03 -0.73217082189E+01  0.17723937535E+03  0.00000000000E+00 0. -1.
          2    1    5    5  502    0 -0.20346984833E+02 -0.78173384808E+02 -0.12695880046E+03  0.15047795486E+03  0.00000000000E+00 0. -1.
          1    1    4    4  503    0 -0.20302359798E+02 -0.26046536438E+02  0.11963873194E+02  0.35124665630E+02  0.00000000000E+00 0. -1.
         -2    1    4    4    0  503  0.15658334771E+03 -0.16987852959E+03  0.13002390804E+03  0.26510993240E+03  0.00000000000E+00 0.  1.
         -1    1    5    5    0  502 -0.29431321693E+03 -0.64572119217E+03 -0.80496732968E+03  0.10731022922E+04  0.00000000000E+00 0.  1.
<mgrwt>
<rscale>  0 0.23127027E+04</rscale>
<asrwt>0</asrwt>
<pdfrwt beam="1">  1        1 0.25623391E+00 0.23127027E+04</pdfrwt>
<pdfrwt beam="2">  1       -1 0.12351403E+00 0.23127027E+04</pdfrwt>
<totfact> 0.26190901E+00</totfact>
</mgrwt>
</event>
<event>
11    1  0.2045212E-008  0.1583101E+04  0.7818608E-02  0.8830997E-01
         -1   -1    0    0    0  501 -0.00000000000E+00  0.00000000000E+00  0.40217660497E+03  0.40217660497E+03  0.00000000000E+00 0.  1.
          1   -1    0    0  501    0  0.00000000000E+00 -0.00000000000E+00 -0.15579034490E+04  0.15579034490E+04  0.00000000000E+00 0. -1.
         23    2    1    2    0    0  0.35997816175E+03  0.22086555109E+03  0.27272380913E+01  0.43186822858E+03  0.90204547751E+02 0.  0.
        254    2    1    2    0    0 -0.35997816175E+03 -0.22086555109E+03 -0.11584540821E+04  0.15282118254E+04  0.90280100479E+03 0.  0.
         24    2    4    4    0    0  0.17887481169E+03  0.13347971715E+03 -0.67079456873E+03  0.71108199054E+03  0.76545481186E+02 0.  0.
         13    1    3    3    0    0  0.21234518435E+03  0.16570999118E+03 -0.29645554326E+02  0.27097811238E+03  0.00000000000E+00 0. -1.
        -13    1    3    3    0    0  0.14763297740E+03  0.55155559912E+02  0.32372792417E+02  0.16089011621E+03  0.00000000000E+00 0.  1.
          2    1    5    5  502    0  0.15251375933E+03  0.11067727178E+03 -0.45480473093E+03  0.49229792661E+03  0.00000000000E+00 0. -1.
          3    1    4    4  503    0 -0.28136668419E+03 -0.18349398414E+03 -0.32723163751E+03  0.46895393993E+03  0.00000000000E+00 0. -1.
         -4    1    4    4    0  503 -0.25748628925E+03 -0.17085128410E+03 -0.16042787587E+03  0.34817589490E+03  0.00000000000E+00 0.  1.
         -1    1    5    5    0  502  0.26361052367E+02  0.22802445367E+02 -0.21598983780E+03  0.21878406393E+03  0.00000000000E+00 0.  1.
<mgrwt>
<rscale>  0 0.15831012E+04</rscale>
<asrwt>0</asrwt>
<pdfrwt beam="1">  1        1 0.23967745E+00 0.15831012E+04</pdfrwt>
<pdfrwt beam="2">  1       -1 0.61873324E-01 0.15831012E+04</pdfrwt>
<totfact> 0.15185143E+01</totfact>
</mgrwt>
</event>
<event>
11    1  0.2045212E-008  0.1979877E+04  0.7818608E-02  0.8616087E-01
          2   -1    0    0  501    0  0.00000000000E+00  0.00000000000E+00  0.26440033176E+04  0.26440033176E+04  0.00000000000E+00 0. -1.
         -2   -1    0    0    0  501 -0.00000000000E+00 -0.00000000000E+00 -0.37064191059E+03  0.37064191059E+03  0.00000000000E+00 0.  1.
         23    2    1    2    0    0  0.56953501914E+03 -0.22643436746E+03  0.16417412561E+04  0.17547379838E+04  0.90268373154E+02 0.  0.
        254    2    1    2    0    0 -0.56953501914E+03  0.22643436746E+03  0.63162015092E+03  0.12599072443E+04  0.90154289333E+03 0.  0.
         24    2    4    4    0    0 -0.51993919681E+03  0.59655919291E+02 -0.21177824330E+02  0.53002638141E+03  0.81141035599E+02 0.  0.
         11    1    3    3    0    0  0.73186917675E+02 -0.63778114074E+02  0.26960141133E+03  0.28654649491E+03  0.00000000000E+00 0.  1.
        -11    1    3    3    0    0  0.49634810147E+03 -0.16265625339E+03  0.13721398447E+04  0.14681914889E+04  0.00000000000E+00 0. -1.
          4    1    5    5  502    0 -0.26871865117E+03  0.23883671589E+02  0.29086431033E+02  0.27134141543E+03  0.00000000000E+00 0. -1.
          3    1    4    4  503    0 -0.14328508536E+03  0.12098963570E+03  0.24258683788E+03  0.30662270226E+03  0.00000000000E+00 0. -1.
         -4    1    4    4    0  503  0.93689263029E+02  0.45788812472E+02  0.41021113737E+03  0.42325816067E+03  0.00000000000E+00 0.  1.
         -3    1    5    5    0  502 -0.25122054564E+03  0.35772247702E+02 -0.50264255363E+02  0.25868496598E+03  0.00000000000E+00 0.  1.
<mgrwt>
<rscale>  0 0.19798772E+04</rscale>
<asrwt>0</asrwt>
<pdfrwt beam="1">  1        2 0.40676973E+00 0.19798772E+04</pdfrwt>
<pdfrwt beam="2">  1       -2 0.57021834E-01 0.19798772E+04</pdfrwt>
<totfact> 0.76993465E+00</totfact>
</mgrwt>
</event>
<event>
11    1  0.2045212E-008  0.1543039E+04  0.7818608E-02  0.8856326E-01
         -1   -1    0    0    0  501 -0.00000000000E+00  0.00000000000E+00  0.10230256992E+04  0.10230256992E+04  0.00000000000E+00 0.  1.
          1   -1    0    0  501    0  0.00000000000E+00 -0.00000000000E+00 -0.58184485149E+03  0.58184485149E+03  0.00000000000E+00 0. -1.
         23    2    1    2    0    0 -0.40520508001E+03  0.45359662742E+02 -0.15963753493E+03  0.44707954551E+03  0.90262514848E+02 0.  0.
        254    2    1    2    0    0  0.40520508001E+03 -0.45359662742E+02  0.60081838263E+03  0.11577910052E+04  0.90180298673E+03 0.  0.
         24    2    4    4    0    0  0.28347724727E+03 -0.23495382130E+03 -0.11809422481E+03  0.39496691124E+03  0.80560332531E+02 0.  0.
         11    1    3    3    0    0 -0.92420499877E+02  0.96068107428E+01  0.25152009145E+01  0.92952492413E+02  0.00000000000E+00 0. -1.
        -11    1    3    3    0    0 -0.31278458013E+03  0.35752851999E+02 -0.16215273584E+03  0.35412705310E+03  0.00000000000E+00 0.  1.
          2    1    5    5  502    0  0.27328550294E+03 -0.19623614056E+03 -0.11118577568E+03  0.35433863139E+03  0.00000000000E+00 0. -1.
          3    1    4    4  503    0  0.13941761678E+03  0.14485539872E+03  0.63536575623E+03  0.66641578807E+03  0.00000000000E+00 0. -1.
         -4    1    4    4    0  503 -0.17689784041E+02  0.44738759838E+02  0.83546851212E+02  0.96408305859E+02  0.00000000000E+00 0.  1.
         -1    1    5    5    0  502  0.10191744325E+02 -0.38717680739E+02 -0.69084491364E+01  0.40628279851E+02  0.00000000000E+00 0.  1.
<mgrwt>
<rscale>  0 0.15430389E+04</rscale>
<asrwt>0</asrwt>
<pdfrwt beam="1">  1        1 0.89514593E-01 0.15430389E+04</pdfrwt>
<pdfrwt beam="2">  1       -1 0.15738857E+00 0.15430389E+04</pdfrwt>
<totfact> 0.10558168E+01</totfact>
</mgrwt>
</event>
<event>
11    1  0.2045212E-008  0.1754265E+04  0.7818608E-02  0.8731006E-01
          2   -1    0    0  501    0  0.00000000000E+00  0.00000000000E+00  0.20433622571E+04  0.20433622571E+04  0.00000000000E+00 0. -1.
         -2   -1    0    0    0  501 -0.00000000000E+00 -0.00000000000E+00 -0.37651755209E+03  0.37651755209E+03  0.00000000000E+00 0.  1.
         23    2    1    2    0    0  0.11171603560E+03  0.56822825931E+03  0.10392860218E+04  0.11932251497E+04  0.91142720208E+02 0.  0.
        254    2    1    2    0    0 -0.11171603560E+03 -0.56822825931E+03  0.62755868317E+03  0.12266546595E+04  0.88061792254E+03 0.  0.
         24    2    4    4    0    0 -0.37311947623E+03 -0.38023373813E+03  0.39137188805E+02  0.54015276163E+03  0.80233703653E+02 0.  0.
         13    1    3    3    0    0  0.93085554969E+02  0.46811706080E+03  0.77719851296E+03  0.91205045458E+03  0.00000000000E+00 0. -1.
        -13    1    3    3    0    0  0.18630480628E+02  0.10011119851E+03  0.26208750889E+03  0.28117469515E+03  0.00000000000E+00 0.  1.
          4    1    5    5  502    0 -0.27308149149E+03 -0.23987030242E+03  0.31893628812E+00  0.36347127080E+03  0.00000000000E+00 0. -1.
          3    1    4    4  503    0  0.80919025966E+02 -0.14805809780E+03  0.27569832815E+03  0.32323158452E+03  0.00000000000E+00 0. -1.
         -4    1    4    4    0  503  0.18048441466E+03 -0.39936423381E+02  0.31272316622E+03  0.36327031332E+03  0.00000000000E+00 0.  1.
         -3    1    5    5    0  502 -0.10003798473E+03 -0.14036343571E+03  0.38818252517E+02  0.17668149083E+03  0.00000000000E+00 0.  1.
<mgrwt>
<rscale>  0 0.17542654E+04</rscale>
<asrwt>0</asrwt>
<pdfrwt beam="1">  1        2 0.31436342E+00 0.17542654E+04</pdfrwt>
<pdfrwt beam="2">  1       -2 0.57925779E-01 0.17542654E+04</pdfrwt>
<totfact> 0.16704962E+01</totfact>
</mgrwt>
</event>
<event>
11    1  0.2045212E-008  0.1461312E+04  0.7818608E-02  0.8910596E-01
          2   -1    0    0  501    0  0.00000000000E+00  0.00000000000E+00  0.32598539988E+03  0.32598539988E+03  0.00000000000E+00 0. -1.
         -2   -1    0    0    0  501 -0.00000000000E+00 -0.00000000000E+00 -0.16376745934E+04  0.16376745934E+04  0.00000000000E+00 0.  1.
         23    2    1    2    0    0 -0.38534361973E+03  0.15349521696E+03 -0.63302357840E+03  0.76236639472E+03  0.91832358695E+02 0.  0.
        254    2    1    2    0    0  0.38534361973E+03 -0.15349521696E+03 -0.67866561514E+03  0.12012935986E+04  0.90026041006E+03 0.  0.
         24    2    4    4    0    0  0.60683858848E+03 -0.21247023255E+03 -0.53514171027E+03  0.84043556388E+03  0.80985275055E+02 0.  0.
         11    1    3    3    0    0 -0.22614437095E+02 -0.72492028460E+01 -0.15452134253E+02  0.28332528302E+02  0.00000000000E+00 0. -1.
        -11    1    3    3    0    0 -0.36272918263E+03  0.16074441981E+03 -0.61757144414E+03  0.73403386642E+03  0.00000000000E+00 0.  1.
          2    1    5    5  502    0  0.56609155501E+03 -0.19983828922E+03 -0.52270465174E+03  0.79599946196E+03  0.00000000000E+00 0. -1.
          1    1    4    4  503    0 -0.23192137036E+03  0.12293225194E+03 -0.13598047205E+03  0.29561892595E+03  0.00000000000E+00 0. -1.
         -2    1    4    4    0  503  0.10426401605E+02 -0.63957236349E+02 -0.75434328160E+01  0.65239108750E+02  0.00000000000E+00 0.  1.
         -3    1    5    5    0  502  0.40747033475E+02 -0.12631943330E+02 -0.12437058533E+02  0.44436101925E+02  0.00000000000E+00 0.  1.
<mgrwt>
<rscale>  0 0.14613117E+04</rscale>
<asrwt>0</asrwt>
<pdfrwt beam="1">  1        2 0.50151600E-01 0.14613117E+04</pdfrwt>
<pdfrwt beam="2">  1       -2 0.25194994E+00 0.14613117E+04</pdfrwt>
<totfact> 0.60664142E+00</totfact>
</mgrwt>
</event>
<event>
12    1  0.2653404E-008  0.1696084E+04  0.7818608E-02  0.8763601E-01
         -1   -1    0    0    0  501 -0.00000000000E+00  0.00000000000E+00  0.11172554016E+04  0.11172554016E+04  0.00000000000E+00 0.  1.
          1   -1    0    0  501    0  0.00000000000E+00 -0.00000000000E+00 -0.64369850184E+03  0.64369850184E+03  0.00000000000E+00 0. -1.
         23    2    1    2    0    0 -0.74688986963E+02 -0.46954830972E+03 -0.21908125521E+03  0.53134602202E+03  0.90983178602E+02 0.  0.
        254    2    1    2    0    0  0.74688986963E+02  0.46954830972E+03  0.69263815493E+03  0.12296078814E+04  0.89784958003E+03 0.  0.
        -24    2    4    4    0    0  0.32757280020E+03 -0.10747554126E+03  0.39323114219E+03  0.52752823509E+03  0.69284747421E+02 0.  0.
         24    2    4    4    0    0 -0.25288381324E+03  0.57702385098E+03  0.29940701274E+03  0.70207964630E+03  0.79777959741E+02 0.  0.
         13    1    3    3    0    0 -0.30162888758E+02 -0.84341629553E+02 -0.77787126542E+02  0.11863451180E+03  0.00000000000E+00 0.  1.
        -13    1    3    3    0    0 -0.44526098205E+02 -0.38520668017E+03 -0.14129412867E+03  0.41271151022E+03  0.00000000000E+00 0. -1.
          2    1    6    6  502    0 -0.25261056135E+03  0.53510133538E+03  0.29061617051E+03  0.65924448681E+03  0.00000000000E+00 0. -1.
          3    1    5    5  503    0  0.28451979007E+03 -0.94813845213E+02  0.30070524661E+03  0.42469379737E+03  0.00000000000E+00 0. -1.
         -4    1    5    5    0  503  0.43053010134E+02 -0.12661696046E+02  0.92525895573E+02  0.10283443771E+03  0.00000000000E+00 0.  1.
         -1    1    6    6    0  502 -0.27325189613E+00  0.41922515599E+02  0.87908422375E+01  0.42835159484E+02  0.00000000000E+00 0.  1.
<mgrwt>
<rscale>  0 0.16960845E+04</rscale>
<asrwt>0</asrwt>
<pdfrwt beam="1">  1        1 0.99030539E-01 0.16960845E+04</pdfrwt>
<pdfrwt beam="2">  1       -1 0.17188545E+00 0.16960845E+04</pdfrwt>
<totfact> 0.70101550E+00</totfact>
</mgrwt>
</event>
<event>
11    1  0.2045212E-008  0.1207735E+04  0.7818608E-02  0.9106113E-01
         -1   -1    0    0    0  501 -0.00000000000E+00  0.00000000000E+00  0.96136627243E+03  0.96136627243E+03  0.00000000000E+00 0.  1.
          1   -1    0    0  501    0  0.00000000000E+00 -0.00000000000E+00 -0.37930985382E+03  0.37930985382E+03  0.00000000000E+00 0. -1.
         23    2    1    2    0    0 -0.76715562454E+02  0.38030734352E+02  0.40132291754E+03  0.42087709209E+03  0.93519132959E+02 0.  0.
        254    2    1    2    0    0  0.76715562454E+02 -0.38030734352E+02  0.18073350107E+03  0.91979903415E+03  0.89779399115E+03 0.  0.
         24    2    4    4    0    0  0.20392815522E+03 -0.31266376897E+03  0.31828070107E+03  0.49753601511E+03  0.83031058885E+02 0.  0.
         11    1    3    3    0    0  0.21924694982E+02  0.42918112808E+01  0.62107728224E+02  0.66003649894E+02  0.00000000000E+00 0. -1.
        -11    1    3    3    0    0 -0.98640257436E+02  0.33738923071E+02  0.33921518931E+03  0.35487344220E+03  0.00000000000E+00 0.  1.
          2    1    5    5  502    0  0.13347503248E+02 -0.74510686326E+01 -0.24909872529E+01  0.15488036810E+02  0.00000000000E+00 0. -1.
          3    1    4    4  503    0 -0.10151826557E+03 -0.13409042170E+02 -0.73560062817E+02  0.12608268517E+03  0.00000000000E+00 0. -1.
         -2    1    4    4    0  503 -0.25694327193E+02  0.28804207679E+03 -0.63987137177E+02  0.29618033388E+03  0.00000000000E+00 0.  1.
         -1    1    5    5    0  502  0.19058065197E+03 -0.30521270034E+03  0.32077168832E+03  0.48204797830E+03  0.00000000000E+00 0.  1.
<mgrwt>
<rscale>  0 0.12077346E+04</rscale>
<asrwt>0</asrwt>
<pdfrwt beam="1">  1        1 0.58355363E-01 0.12077346E+04</pdfrwt>
<pdfrwt beam="2">  1       -1 0.14790250E+00 0.12077346E+04</pdfrwt>
<totfact> 0.23083555E+01</totfact>
</mgrwt>
</event>
<event>
11    1  0.2045212E-008  0.2942591E+04  0.7818608E-02  0.8260317E-01
          3   -1    0    0  501    0  0.00000000000E+00  0.00000000000E+00  0.86979405101E+03  0.86979405101E+03  0.00000000000E+00 0. -1.
         -3   -1    0    0    0  501 -0.00000000000E+00 -0.00000000000E+00 -0.24887617759E+04  0.24887617759E+04  0.00000000000E+00 0.  1.
         23    2    1    2    0    0 -0.74226842287E+03  0.10270254709E+04 -0.12080639738E+04  0.17530688307E+04  0.89933481146E+02 0.  0.
        254    2    1    2    0    0  0.74226842287E+03 -0.10270254709E+04 -0.41090375107E+03  0.16054869962E+04  0.89610427568E+03 0.  0.
         24    2    4    4    0    0  0.26243467263E+03  0.81539222476E+02 -0.25203960418E+03  0.38116958149E+03  0.79029650032E+02 0.  0.
         11    1    3    3    0    0 -0.19838450037E+03  0.27328379894E+03 -0.37825774218E+03  0.50706938802E+03  0.00000000000E+00 0. -1.
        -11    1    3    3    0    0 -0.54388392250E+03  0.75374167192E+03 -0.82980623161E+03  0.12459994427E+04  0.00000000000E+00 0.  1.
          4    1    5    5  502    0  0.17519663171E+03  0.14908806050E+02 -0.16420674949E+03  0.24058260294E+03  0.00000000000E+00 0. -1.
          3    1    4    4  503    0  0.98607895997E+02 -0.35821391220E+03 -0.28366132283E+02  0.37261959356E+03  0.00000000000E+00 0. -1.
         -4    1    4    4    0  503  0.38122585424E+03 -0.75035078113E+03 -0.13049801462E+03  0.85169782112E+03  0.00000000000E+00 0.  1.
         -3    1    5    5    0  502  0.87238040920E+02  0.66630416426E+02 -0.87832854688E+02  0.14058697856E+03  0.00000000000E+00 0.  1.
<mgrwt>
<rscale>  0 0.29425908E+04</rscale>
<asrwt>0</asrwt>
<pdfrwt beam="1">  1        3 0.13381447E+00 0.29425908E+04</pdfrwt>
<pdfrwt beam="2">  1       -3 0.38288643E+00 0.29425908E+04</pdfrwt>
<totfact> 0.12706348E-02</totfact>
</mgrwt>
</event>
<event>
11    1  0.2045212E-008  0.1686677E+04  0.7818608E-02  0.8769000E-01
          1   -1    0    0  501    0  0.00000000000E+00  0.00000000000E+00  0.14236926515E+04  0.14236926515E+04  0.00000000000E+00 0. -1.
         -1   -1    0    0    0  501 -0.00000000000E+00 -0.00000000000E+00 -0.49955977871E+03  0.49955977871E+03  0.00000000000E+00 0.  1.
         23    2    1    2    0    0 -0.24236404178E+03  0.11882595529E+03  0.95313162549E+03  0.99484247567E+03  0.91606328817E+02 0.  0.
        254    2    1    2    0    0  0.24236404178E+03 -0.11882595529E+03 -0.28998752695E+02  0.92840995455E+03  0.88783116618E+03 0.  0.
         24    2    4    4    0    0 -0.95276627802E+02 -0.32763021039E+03 -0.26104466306E+03  0.43777165466E+03  0.84145795764E+02 0.  0.
         11    1    3    3    0    0 -0.98335600596E+02  0.27311444162E+01  0.38399077079E+03  0.39639155080E+03  0.00000000000E+00 0.  1.
        -11    1    3    3    0    0 -0.14402844118E+03  0.11609481088E+03  0.56914085470E+03  0.59845092487E+03  0.00000000000E+00 0. -1.
          4    1    5    5  502    0 -0.64171872258E+02 -0.30614266809E+03 -0.24174536845E+03  0.39532541732E+03  0.00000000000E+00 0. -1.
          1    1    4    4  503    0  0.22066187649E+03  0.14167957936E+03  0.24007667974E+03  0.35552999746E+03  0.00000000000E+00 0. -1.
         -2    1    4    4    0  503  0.11697879309E+03  0.67124675744E+02 -0.80307693807E+01  0.13510830243E+03  0.00000000000E+00 0.  1.
         -3    1    5    5    0  502 -0.31104755544E+02 -0.21487542304E+02 -0.19299294607E+02  0.42446237337E+02  0.00000000000E+00 0.  1.
<mgrwt>
<rscale>  0 0.16866767E+04</rscale>
<asrwt>0</asrwt>
<pdfrwt beam="1">  1        1 0.21902964E+00 0.16866767E+04</pdfrwt>
<pdfrwt beam="2">  1       -1 0.76855351E-01 0.16866767E+04</pdfrwt>
<totfact> 0.11963618E+01</totfact>
</mgrwt>
</event>
<event>
11    1  0.2045212E-008  0.1420078E+04  0.7818608E-02  0.8939412E-01
          2   -1    0    0  501    0  0.00000000000E+00  0.00000000000E+00  0.92596736567E+03  0.92596736567E+03  0.00000000000E+00 0. -1.
         -2   -1    0    0    0  501 -0.00000000000E+00 -0.00000000000E+00 -0.54446345596E+03  0.54446345596E+03  0.00000000000E+00 0.  1.
         23    2    1    2    0    0 -0.41657293851E+03  0.46304543727E+02  0.17740596778E+03  0.46432344035E+03  0.91903514528E+02 0.  0.
        254    2    1    2    0    0  0.41657293851E+03 -0.46304543727E+02  0.20409794193E+03  0.10061073813E+04  0.89158228386E+03 0.  0.
         24    2    4    4    0    0  0.18723850678E+03 -0.29083186863E+03 -0.24609079066E+03  0.43212341995E+03  0.80799372459E+02 0.  0.
         13    1    3    3    0    0 -0.20944955734E+03  0.63836543746E+02  0.11482710467E+03  0.24724377718E+03  0.00000000000E+00 0. -1.
        -13    1    3    3    0    0 -0.20712338117E+03 -0.17532000019E+02  0.62578863104E+02  0.21707966316E+03  0.00000000000E+00 0.  1.
          2    1    5    5  502    0  0.52876739323E+02 -0.11001306023E+03 -0.44808085244E+02  0.13002533402E+03  0.00000000000E+00 0. -1.
          1    1    4    4  503    0  0.13715404351E+03  0.13945826278E+03  0.16310655974E+03  0.25468331028E+03  0.00000000000E+00 0. -1.
         -2    1    4    4    0  503  0.92180388225E+02  0.10506906212E+03  0.28708217286E+03  0.31930065105E+03  0.00000000000E+00 0.  1.
         -3    1    5    5    0  502  0.13436176745E+03 -0.18081880839E+03 -0.20128270541E+03  0.30209808593E+03  0.00000000000E+00 0.  1.
<mgrwt>
<rscale>  0 0.14200780E+04</rscale>
<asrwt>0</asrwt>
<pdfrwt beam="1">  1        2 0.14245652E+00 0.14200780E+04</pdfrwt>
<pdfrwt beam="2">  1       -2 0.83763609E-01 0.14200780E+04</pdfrwt>
<totfact> 0.34111722E+01</totfact>
</mgrwt>
</event>
<event>
12    1  0.2045212E-008  0.1057378E+04  0.7818608E-02  0.9247760E-01
          2   -1    0    0  501    0  0.00000000000E+00  0.00000000000E+00  0.10013505246E+04  0.10013505246E+04  0.00000000000E+00 0. -1.
         -2   -1    0    0    0  501 -0.00000000000E+00 -0.00000000000E+00 -0.27913492964E+03  0.27913492964E+03  0.00000000000E+00 0.  1.
         23    2    1    2    0    0  0.11878358308E+03 -0.24720704942E+02  0.11064670986E+03  0.18876533059E+03  0.93107479644E+02 0.  0.
        254    2    1    2    0    0 -0.11878358308E+03  0.24720704942E+02  0.61156888508E+03  0.10917201236E+04  0.89616721334E+03 0.  0.
        -24    2    4    4    0    0 -0.13403421979E+03 -0.31042603790E+03 -0.49615169946E+02  0.34571298935E+03  0.52214067407E+02 0.  0.
         24    2    4    4    0    0  0.15250636707E+02  0.33514674284E+03  0.66118405503E+03  0.74600713428E+03  0.82500718844E+02 0.  0.
         11    1    3    3    0    0  0.89368535145E+02  0.10244143289E+01  0.22236988720E+02  0.92099229997E+02  0.00000000000E+00 0.  1.
        -11    1    3    3    0    0  0.29415047939E+02 -0.25745119270E+02  0.88409721136E+02  0.96666100588E+02  0.00000000000E+00 0. -1.
          4    1    6    6  502    0 -0.22695837497E+02  0.54935379552E+02  0.79795239428E+02  0.99500136691E+02  0.00000000000E+00 0. -1.
          3    1    5    5  503    0  0.24400637515E+01 -0.31461113295E+02 -0.34976724355E+01  0.31748846804E+02  0.00000000000E+00 0. -1.
         -4    1    5    5    0  503 -0.13647428354E+03 -0.27896492461E+03 -0.46117497511E+02  0.31396414255E+03  0.00000000000E+00 0.  1.
         -3    1    6    6    0  502  0.37946474203E+02  0.28021136329E+03  0.58138881560E+03  0.64650699759E+03  0.00000000000E+00 0.  1.
<mgrwt>
<rscale>  0 0.10573777E+04</rscale>
<asrwt>0</asrwt>
<pdfrwt beam="1">  1        2 0.15405393E+00 0.10573777E+04</pdfrwt>
<pdfrwt beam="2">  1       -2 0.42943836E-01 0.10573777E+04</pdfrwt>
<totfact> 0.12854914E+02</totfact>
</mgrwt>
</event>
<event>
11    1  0.2045212E-008  0.1510576E+04  0.7818608E-02  0.8877450E-01
          1   -1    0    0  501    0  0.00000000000E+00  0.00000000000E+00  0.21017150629E+04  0.21017150629E+04  0.00000000000E+00 0. -1.
         -1   -1    0    0    0  501 -0.00000000000E+00 -0.00000000000E+00 -0.27142584807E+03  0.27142584807E+03  0.00000000000E+00 0.  1.
         23    2    1    2    0    0 -0.44650229034E+03  0.15893574973E+03  0.74188918664E+03  0.88508540198E+03  0.91387831307E+02 0.  0.
        254    2    1    2    0    0  0.44650229034E+03 -0.15893574973E+03  0.10884000282E+04  0.14880555090E+04  0.89725676856E+03 0.  0.
         24    2    4    4    0    0  0.45616661802E+03  0.45139255573E+01  0.11712073677E+04  0.12593694292E+04  0.78589452338E+02 0.  0.
         11    1    3    3    0    0 -0.10703693966E+03  0.53325631031E+02  0.26061755424E+03  0.28674385600E+03  0.00000000000E+00 0. -1.
        -11    1    3    3    0    0 -0.33946535067E+03  0.10561011870E+03  0.48127163241E+03  0.59834154598E+03  0.00000000000E+00 0.  1.
          4    1    5    5  502    0  0.22773661179E+03  0.28225708561E+02  0.66560579982E+03  0.70405378753E+03  0.00000000000E+00 0. -1.
          1    1    4    4  503    0  0.33764137108E+02 -0.48095378316E+02  0.26013332809E+02  0.64264110154E+02  0.00000000000E+00 0. -1.
         -4    1    4    4    0  503 -0.43428464790E+02 -0.11535429698E+03 -0.10882067234E+03  0.16442196968E+03  0.00000000000E+00 0.  1.
         -3    1    5    5    0  502  0.22843000623E+03 -0.23711783004E+02  0.50560156793E+03  0.55531564168E+03  0.00000000000E+00 0.  1.
<mgrwt>
<rscale>  0 0.15105758E+04</rscale>
<asrwt>0</asrwt>
<pdfrwt beam="1">  1        1 0.32334077E+00 0.15105758E+04</pdfrwt>
<pdfrwt beam="2">  1       -1 0.41757824E-01 0.15105758E+04</pdfrwt>
<totfact> 0.13836442E+01</totfact>
</mgrwt>
</event>
<event>
12    1  0.2045212E-008  0.1709742E+04  0.7818608E-02  0.8755828E-01
         -2   -1    0    0    0  501 -0.00000000000E+00  0.00000000000E+00  0.21197896062E+03  0.21197896062E+03  0.00000000000E+00 0.  1.
          2   -1    0    0  501    0  0.00000000000E+00 -0.00000000000E+00 -0.34475326583E+04  0.34475326583E+04  0.00000000000E+00 0. -1.
         23    2    1    2    0    0 -0.55867513741E+03 -0.15368094967E+03 -0.75717460294E+03  0.95756505409E+03  0.88778995354E+02 0.  0.
        254    2    1    2    0    0  0.55867513741E+03  0.15368094967E+03 -0.24783790948E+04  0.27019465649E+04  0.90687185343E+03 0.  0.
        -24    2    4    4    0    0  0.26144387829E+03  0.15936545917E+03 -0.15055285462E+03  0.35388783324E+03  0.93915842147E+02 0.  0.
         24    2    4    4    0    0  0.29723125912E+03 -0.56845095012E+01 -0.23278262402E+04  0.23480587316E+04  0.78905435895E+02 0.  0.
         13    1    3    3    0    0 -0.45174085422E+03 -0.11595028830E+03 -0.66044041203E+03  0.80851456794E+03  0.00000000000E+00 0.  1.
        -13    1    3    3    0    0 -0.10693428320E+03 -0.37730661375E+02 -0.96734190909E+02  0.14905048615E+03  0.00000000000E+00 0. -1.
          2    1    6    6  502    0  0.21091057608E+03 -0.40015376288E+02 -0.16165397968E+04  0.16307315586E+04  0.00000000000E+00 0. -1.
          3    1    5    5  503    0  0.23608588442E+03  0.17096063296E+03 -0.12954520063E+03  0.31897655377E+03  0.00000000000E+00 0. -1.
         -4    1    5    5    0  503  0.25357993866E+02 -0.11595173787E+02 -0.21007653994E+02  0.34911279472E+02  0.00000000000E+00 0.  1.
         -1    1    6    6    0  502  0.86320683040E+02  0.34330866787E+02 -0.71128644331E+03  0.71732717303E+03  0.00000000000E+00 0.  1.
<mgrwt>
<rscale>  0 0.17097420E+04</rscale>
<asrwt>0</asrwt>
<pdfrwt beam="1">  1        2 0.53038963E+00 0.17097420E+04</pdfrwt>
<pdfrwt beam="2">  1       -2 0.32612149E-01 0.17097420E+04</pdfrwt>
<totfact> 0.74369664E+00</totfact>
</mgrwt>
</event>
<event>
12    1  0.2045212E-008  0.1465584E+04  0.7818608E-02  0.8907667E-01
         -4   -1    0    0    0  501 -0.00000000000E+00  0.00000000000E+00  0.64956795777E+03  0.64956795777E+03  0.00000000000E+00 0.  1.
          4   -1    0    0  501    0  0.00000000000E+00 -0.00000000000E+00 -0.82667853855E+03  0.82667853855E+03  0.00000000000E+00 0. -1.
         23    2    1    2    0    0  0.33579853734E+02  0.29889067909E+03  0.27401182175E+03  0.41713837766E+03  0.91971207620E+02 0.  0.
        254    2    1    2    0    0 -0.33579853734E+02 -0.29889067909E+03 -0.45112240254E+03  0.10591081187E+04  0.90979961549E+03 0.  0.
        -24    2    4    4    0    0 -0.41111149853E+03 -0.27973770533E+01 -0.44792897726E+02  0.42512562213E+03  0.98513457766E+02 0.  0.
         24    2    4    4    0    0  0.37753164480E+03 -0.29609330203E+03 -0.40632950481E+03  0.63398249654E+03  0.81417154896E+02 0.  0.
         11    1    3    3    0    0  0.24788380425E+01  0.20344182913E+03  0.12948016241E+03  0.24116350249E+03  0.00000000000E+00 0. -1.
        -11    1    3    3    0    0  0.31101015692E+02  0.95448849959E+02  0.14453165935E+03  0.17597487517E+03  0.00000000000E+00 0.  1.
          4    1    6    6  502    0  0.23097297562E+03 -0.20992725364E+03 -0.30317145006E+03  0.43512170185E+03  0.00000000000E+00 0. -1.
          3    1    5    5  503    0 -0.37502742730E+03 -0.40162264168E+01 -0.69422836464E+02  0.38142001982E+03  0.00000000000E+00 0. -1.
         -4    1    5    5    0  503 -0.36084071234E+02  0.12188493635E+01  0.24629938739E+02  0.43705602305E+02  0.00000000000E+00 0.  1.
         -3    1    6    6    0  502  0.14655866918E+03 -0.86166048393E+02 -0.10315805475E+03  0.19886079470E+03  0.00000000000E+00 0.  1.
<mgrwt>
<rscale>  0 0.14655837E+04</rscale>
<asrwt>0</asrwt>
<pdfrwt beam="1">  1        4 0.12718131E+00 0.14655837E+04</pdfrwt>
<pdfrwt beam="2">  1       -4 0.99933532E-01 0.14655837E+04</pdfrwt>
<totfact> 0.73241389E-01</totfact>
</mgrwt>
</event>
<event>
12    1  0.2045212E-008  0.1949799E+04  0.7818608E-02  0.8630458E-01
         -2   -1    0    0    0  501 -0.00000000000E+00  0.00000000000E+00  0.46893723965E+03  0.46893723965E+03  0.00000000000E+00 0.  1.
          2   -1    0    0  501    0  0.00000000000E+00 -0.00000000000E+00 -0.20267716996E+04  0.20267716996E+04  0.00000000000E+00 0. -1.
         23    2    1    2    0    0 -0.35838905099E+03  0.60111758525E+03 -0.23253070821E+03  0.74297750859E+03  0.90332634460E+02 0.  0.
        254    2    1    2    0    0  0.35838905099E+03 -0.60111758525E+03 -0.13253037517E+04  0.17527314306E+04  0.90876419959E+03 0.  0.
        -24    2    4    4    0    0 -0.10468606861E+03 -0.33483906847E+02 -0.88030040430E+03  0.89214977722E+03  0.94456753129E+02 0.  0.
         24    2    4    4    0    0  0.46307511960E+03 -0.56763367840E+03 -0.44500334743E+03  0.86058165343E+03  0.76982100144E+02 0.  0.
         11    1    3    3    0    0 -0.21630306191E+03  0.33168220194E+03 -0.87144361346E+02  0.40545559237E+03  0.00000000000E+00 0. -1.
        -11    1    3    3    0    0 -0.14208598908E+03  0.26943538331E+03 -0.14538634686E+03  0.33752191622E+03  0.00000000000E+00 0.  1.
          2    1    6    6  502    0  0.44198436156E+02 -0.46598738809E+02 -0.15829412213E+02  0.66147671979E+02  0.00000000000E+00 0. -1.
          1    1    5    5  503    0 -0.71485220655E+01 -0.41791789703E+02 -0.17364273238E+03  0.17874410078E+03  0.00000000000E+00 0. -1.
         -2    1    5    5    0  503 -0.97537546540E+02  0.83078828561E+01 -0.70665767191E+03  0.71340567644E+03  0.00000000000E+00 0.  1.
         -1    1    6    6    0  502  0.41887668344E+03 -0.52103493959E+03 -0.42917393522E+03  0.79443398145E+03  0.00000000000E+00 0.  1.
<mgrwt>
<rscale>  0 0.19497987E+04</rscale>
<asrwt>0</asrwt>
<pdfrwt beam="1">  1        2 0.31181103E+00 0.19497987E+04</pdfrwt>
<pdfrwt beam="2">  1       -2 0.72144191E-01 0.19497987E+04</pdfrwt>
<totfact> 0.10476991E+01</totfact>
</mgrwt>
</event>
<event>
12    1  0.2045212E-008  0.2681356E+04  0.7818608E-02  0.8341080E-01
          2   -1    0    0  501    0  0.00000000000E+00  0.00000000000E+00  0.16212157707E+04  0.16212157707E+04  0.00000000000E+00 0.  1.
         -2   -1    0    0    0  501 -0.00000000000E+00 -0.00000000000E+00 -0.11086851511E+04  0.11086851511E+04  0.00000000000E+00 0. -1.
         23    2    1    2    0    0 -0.50267611950E+03  0.87483524440E+03 -0.37071785192E+03  0.10788161366E+04  0.91610834432E+02 0.  0.
        254    2    1    2    0    0  0.50267611950E+03 -0.87483524440E+03  0.88324847149E+03  0.16510847852E+04  0.96329285244E+03 0.  0.
        -24    2    4    4    0    0  0.26050197987E+03 -0.73914710601E+02 -0.14700599212E+03  0.32145130808E+03  0.91627047235E+02 0.  0.
         24    2    4    4    0    0  0.24217413963E+03 -0.80092053380E+03  0.10302544636E+04  0.13296334771E+04  0.79868068258E+02 0.  0.
         11    1    3    3    0    0 -0.12497254899E+03  0.27725603948E+03 -0.80245526834E+02  0.31452884447E+03  0.00000000000E+00 0.  1.
        -11    1    3    3    0    0 -0.37770357051E+03  0.59757920492E+03 -0.29047232508E+03  0.76428729217E+03  0.00000000000E+00 0. -1.
          4    1    6    6  502    0  0.18645971687E+03 -0.55243921552E+03  0.66556225682E+03  0.88483299586E+03  0.00000000000E+00 0. -1.
          1    1    5    5  503    0  0.20780747065E+03 -0.72598683223E+02 -0.15347471116E+03  0.26834492845E+03  0.00000000000E+00 0. -1.
         -2    1    5    5    0  503  0.52694509225E+02 -0.13160273785E+01  0.64687190394E+01  0.53106379622E+02  0.00000000000E+00 0.  1.
         -3    1    6    6    0  502  0.55714422765E+02 -0.24848131828E+03  0.36469220679E+03  0.44480048126E+03  0.00000000000E+00 0.  1.
<mgrwt>
<rscale>  0 0.26813563E+04</rscale>
<asrwt>0</asrwt>
<pdfrwt beam="1">  1        2 0.24941781E+00 0.26813563E+04</pdfrwt>
<pdfrwt beam="2">  1       -2 0.17056695E+00 0.26813563E+04</pdfrwt>
<totfact> 0.20136187E+00</totfact>
</mgrwt>
</event>
<event>
12    1  0.2045212E-008  0.1890951E+04  0.7818608E-02  0.8659374E-01
         -2   -1    0    0    0  501 -0.00000000000E+00  0.00000000000E+00  0.15752009214E+04  0.15752009214E+04  0.00000000000E+00 0. -1.
          2   -1    0    0  501    0  0.00000000000E+00 -0.00000000000E+00 -0.56749853650E+03  0.56749853650E+03  0.00000000000E+00 0.  1.
         23    2    1    2    0    0  0.63108058746E+03 -0.24012651916E+03  0.69422657149E+03  0.97282193940E+03  0.92241748327E+02 0.  0.
        254    2    1    2    0    0 -0.63108058746E+03  0.24012651916E+03  0.31347581337E+03  0.11698775185E+04  0.90245380467E+03 0.  0.
        -24    2    4    4    0    0 -0.52229140415E+03 -0.93462507391E+02  0.52783803054E+03  0.75080367907E+03  0.59746354536E+02 0.  0.
         24    2    4    4    0    0 -0.10878918331E+03  0.33358902655E+03 -0.21436221717E+03  0.41907383939E+03  0.80962940119E+02 0.  0.
         13    1    3    3    0    0  0.58795893881E+03 -0.24693868504E+03  0.65421365404E+03  0.91360272167E+03  0.00000000000E+00 0. -1.
        -13    1    3    3    0    0  0.43121648647E+02  0.68121658778E+01  0.40012917447E+02  0.59219217730E+02  0.00000000000E+00 0.  1.
          4    1    6    6  502    0  0.67660056022E+01  0.14060427000E+02  0.27586065503E+01  0.15845641336E+02  0.00000000000E+00 0. -1.
          1    1    5    5  503    0 -0.21338718297E+03 -0.19145265155E+02  0.18128688518E+03  0.28065203683E+03  0.00000000000E+00 0. -1.
         -2    1    5    5    0  503 -0.30890422118E+03 -0.74317242237E+02  0.34655114536E+03  0.47015164224E+03  0.00000000000E+00 0.  1.
         -3    1    6    6    0  502 -0.11555518891E+03  0.31952859955E+03 -0.21712082372E+03  0.40322819806E+03  0.00000000000E+00 0.  1.
<mgrwt>
<rscale>  0 0.18909513E+04</rscale>
<asrwt>0</asrwt>
<pdfrwt beam="1">  1        2 0.87307468E-01 0.18909513E+04</pdfrwt>
<pdfrwt beam="2">  1       -2 0.24233860E+00 0.18909513E+04</pdfrwt>
<totfact> 0.35602831E+00</totfact>
</mgrwt>
</event>
<event>
12    1  0.2045212E-008  0.1762298E+04  0.7818608E-02  0.8726610E-01
          2   -1    0    0  501    0  0.00000000000E+00  0.00000000000E+00  0.82969876548E+03  0.82969876548E+03  0.00000000000E+00 0. -1.
         -2   -1    0    0    0  501 -0.00000000000E+00 -0.00000000000E+00 -0.93578994113E+03  0.93578994113E+03  0.00000000000E+00 0.  1.
         23    2    1    2    0    0 -0.24771478792E+03  0.30585156169E+03  0.44757429768E+03  0.60289850060E+03  0.90862842426E+02 0.  0.
        254    2    1    2    0    0  0.24771478792E+03 -0.30585156169E+03 -0.55366547333E+03  0.11625902060E+04  0.94348435960E+03 0.  0.
        -24    2    4    4    0    0  0.11036031674E+03 -0.34358007389E+03  0.18135325098E+03  0.40967557921E+03  0.68690697196E+02 0.  0.
         24    2    4    4    0    0  0.13735447119E+03  0.37728512195E+02 -0.73501872430E+03  0.75291462680E+03  0.79612931017E+02 0.  0.
         13    1    3    3    0    0 -0.23437839433E+03  0.29645468873E+03  0.39002756041E+03  0.54308389046E+03  0.00000000000E+00 0. -1.
        -13    1    3    3    0    0 -0.13336393596E+02  0.93968729648E+01  0.57546737271E+02  0.59814610140E+02  0.00000000000E+00 0.  1.
          2    1    6    6  502    0  0.13044608196E+03  0.25571958523E+02 -0.72086604328E+03  0.73301975261E+03  0.00000000000E+00 0. -1.
          1    1    5    5  503    0  0.76233477384E+01 -0.10266372165E+03  0.73190297279E+02  0.12631221156E+03  0.00000000000E+00 0. -1.
         -2    1    5    5    0  503  0.10273696900E+03 -0.24091635224E+03  0.10816295370E+03  0.28336336765E+03  0.00000000000E+00 0.  1.
         -1    1    6    6    0  502  0.69083892309E+01  0.12156553672E+02 -0.14152681024E+02  0.19894874192E+02  0.00000000000E+00 0.  1.
<mgrwt>
<rscale>  0 0.17622982E+04</rscale>
<asrwt>0</asrwt>
<pdfrwt beam="1">  1        2 0.12764596E+00 0.17622982E+04</pdfrwt>
<pdfrwt beam="2">  1       -2 0.14396768E+00 0.17622982E+04</pdfrwt>
<totfact> 0.10366742E+01</totfact>
</mgrwt>
</event>
<event>
12    1  0.2045212E-008  0.1136709E+04  0.7818608E-02  0.9170133E-01
          1   -1    0    0  501    0  0.00000000000E+00  0.00000000000E+00  0.24983686083E+03  0.24983686083E+03  0.00000000000E+00 0. -1.
         -1   -1    0    0    0  501 -0.00000000000E+00 -0.00000000000E+00 -0.12929517451E+04  0.12929517451E+04  0.00000000000E+00 0.  1.
         23    2    1    2    0    0 -0.11269759200E+02  0.16325872309E+03 -0.36192195101E+03  0.40755387006E+03  0.91281105627E+02 0.  0.
        254    2    1    2    0    0  0.11269759200E+02 -0.16325872309E+03 -0.68119293327E+03  0.11352347359E+04  0.89328252813E+03 0.  0.
        -24    2    4    4    0    0  0.30099624458E+03 -0.18856990989E+03 -0.74187415450E+03  0.82784305598E+03  0.93752408264E+02 0.  0.
         24    2    4    4    0    0 -0.28972648538E+03  0.25311186804E+02  0.60681221230E+02  0.30739167989E+03  0.78900834892E+02 0.  0.
         11    1    3    3    0    0 -0.78180862001E+01  0.13432319599E+03 -0.35188705181E+03  0.37673377959E+03  0.00000000000E+00 0.  1.
        -11    1    3    3    0    0 -0.34516729997E+01  0.28935527093E+02 -0.10034899197E+02  0.30820090470E+02  0.00000000000E+00 0. -1.
          2    1    6    6  502    0  0.53530154960E+00 -0.89951582208E+01  0.27747884192E+01  0.94286197260E+01  0.00000000000E+00 0. -1.
          3    1    5    5  503    0  0.51305242625E+02 -0.34635887711E+02 -0.22685681400E+03  0.23515077439E+03  0.00000000000E+00 0. -1.
         -4    1    5    5    0  503  0.24969100196E+03 -0.15393402218E+03 -0.51501734049E+03  0.59269228159E+03  0.00000000000E+00 0.  1.
         -1    1    6    6    0  502 -0.29026178693E+03  0.34306345024E+02  0.57906432811E+02  0.29796306016E+03  0.00000000000E+00 0.  1.
<mgrwt>
<rscale>  0 0.11367093E+04</rscale>
<asrwt>0</asrwt>
<pdfrwt beam="1">  1        1 0.38436440E-01 0.11367093E+04</pdfrwt>
<pdfrwt beam="2">  1       -1 0.19891565E+00 0.11367093E+04</pdfrwt>
<totfact> 0.16952083E+01</totfact>
</mgrwt>
</event>
<event>
12    1  0.2045212E-008  0.2401334E+04  0.7818608E-02  0.8439004E-01
         -2   -1    0    0    0  501 -0.00000000000E+00  0.00000000000E+00  0.10646841980E+04  0.10646841980E+04  0.00000000000E+00 0.  1.
          2   -1    0    0  501    0  0.00000000000E+00 -0.00000000000E+00 -0.13540172680E+04  0.13540172680E+04  0.00000000000E+00 0. -1.
         23    2    1    2    0    0  0.41763251339E+03 -0.79769961715E+02 -0.10704757420E+04  0.11554954047E+04  0.92038866239E+02 0.  0.
        254    2    1    2    0    0 -0.41763251339E+03  0.79769961715E+02  0.78114267198E+03  0.12632060614E+04  0.89706494553E+03 0.  0.
        -24    2    4    4    0    0  0.24499169417E+03 -0.75907046054E+02  0.82039872021E+02  0.28414129347E+03  0.90680340762E+02 0.  0.
         24    2    4    4    0    0 -0.66262420756E+03  0.15567700777E+03  0.69910279996E+03  0.97906476791E+03  0.80727465392E+02 0.  0.
         11    1    3    3    0    0  0.31942656854E+03 -0.77441660823E+02 -0.90769411316E+03  0.96536995322E+03  0.00000000000E+00 0. -1.
        -11    1    3    3    0    0  0.98205944849E+02 -0.23283008913E+01 -0.16278162886E+03  0.19012545143E+03  0.00000000000E+00 0.  1.
          2    1    6    6  502    0 -0.16450120871E+03  0.39410054564E+02  0.22611186348E+03  0.28238338279E+03  0.00000000000E+00 0. -1.
          3    1    5    5  503    0  0.53341976002E+02 -0.35625269707E+02  0.58643574195E+02  0.86911420653E+02  0.00000000000E+00 0. -1.
         -4    1    5    5    0  503  0.19164971817E+03 -0.40281776347E+02  0.23396297826E+02  0.19722987282E+03  0.00000000000E+00 0.  1.
         -1    1    6    6    0  502 -0.49812299885E+03  0.11626695321E+03  0.47299093647E+03  0.69668138513E+03  0.00000000000E+00 0.  1.
<mgrwt>
<rscale>  0 0.24013336E+04</rscale>
<asrwt>0</asrwt>
<pdfrwt beam="1">  1        2 0.20831035E+00 0.24013336E+04</pdfrwt>
<pdfrwt beam="2">  1       -2 0.16379757E+00 0.24013336E+04</pdfrwt>
<totfact> 0.32669794E+00</totfact>
</mgrwt>
</event>
<event>
11    1  0.2045212E-008  0.1741552E+04  0.7818608E-02  0.8738014E-01
         -1   -1    0    0    0  501 -0.00000000000E+00  0.00000000000E+00  0.34878292047E+03  0.34878292047E+03  0.00000000000E+00 0.  1.
          1   -1    0    0  501    0  0.00000000000E+00 -0.00000000000E+00 -0.21739898478E+04  0.21739898478E+04  0.00000000000E+00 0. -1.
         23    2    1    2    0    0  0.53529168556E+03  0.76519789188E+02 -0.11739562320E+04  0.12954185512E+04  0.86853448179E+02 0.  0.
        254    2    1    2    0    0 -0.53529168556E+03 -0.76519789188E+02 -0.65125069535E+03  0.12273542171E+04  0.88875105579E+03 0.  0.
         24    2    4    4    0    0  0.21387107446E+03  0.86564333091E+02 -0.26109260272E+03  0.35735956215E+03  0.79386958706E+02 0.  0.
         11    1    3    3    0    0  0.71333855975E+02  0.28742877538E+02 -0.23007360369E+03  0.24258717018E+03  0.00000000000E+00 0.  1.
        -11    1    3    3    0    0  0.46395782959E+03  0.47776911650E+02 -0.94388262829E+03  0.10528313810E+04  0.00000000000E+00 0. -1.
          2    1    5    5  502    0  0.17976839497E+03  0.10184601936E+03 -0.21956531894E+03  0.30149331132E+03  0.00000000000E+00 0. -1.
          3    1    4    4  503    0 -0.74316428145E+03 -0.15110816877E+03 -0.39581957301E+03  0.85545307427E+03  0.00000000000E+00 0. -1.
         -4    1    4    4    0  503 -0.59984785647E+01 -0.11975953504E+02  0.56614803782E+01  0.14541580640E+02  0.00000000000E+00 0.  1.
         -1    1    5    5    0  502  0.34102679482E+02 -0.15281686274E+02 -0.41527283780E+02  0.55866250826E+02  0.00000000000E+00 0.  1.
<mgrwt>
<rscale>  0 0.17415516E+04</rscale>
<asrwt>0</asrwt>
<pdfrwt beam="1">  1        1 0.33445998E+00 0.17415516E+04</pdfrwt>
<pdfrwt beam="2">  1       -1 0.53658911E-01 0.17415516E+04</pdfrwt>
<totfact> 0.75462150E+00</totfact>
</mgrwt>
</event>
<event>
11    1  0.2045212E-008  0.1553779E+04  0.7818608E-02  0.8849458E-01
          2   -1    0    0  501    0  0.00000000000E+00  0.00000000000E+00  0.25388787494E+04  0.25388787494E+04  0.00000000000E+00 0. -1.
         -2   -1    0    0    0  501 -0.00000000000E+00 -0.00000000000E+00 -0.23772582333E+03  0.23772582333E+03  0.00000000000E+00 0.  1.
         23    2    1    2    0    0 -0.15626453606E+02  0.13746115048E+03  0.16423679502E+04  0.16508458116E+04  0.93699819419E+02 0.  0.
        254    2    1    2    0    0  0.15626453606E+02 -0.13746115048E+03  0.65878497592E+03  0.11257587611E+04  0.90232776182E+03 0.  0.
         24    2    4    4    0    0  0.38148366248E+03  0.16309810981E+03  0.29009902066E+03  0.51290570606E+03  0.82365304315E+02 0.  0.
         13    1    3    3    0    0 -0.10415414570E+02  0.42096186086E+02  0.17211497964E+03  0.17749404486E+03  0.00000000000E+00 0.  1.
        -13    1    3    3    0    0 -0.52110390359E+01  0.95364964393E+02  0.14702529705E+04  0.14733517668E+04  0.00000000000E+00 0. -1.
          4    1    5    5  502    0  0.32395090741E+03  0.11492844305E+03  0.20838505186E+03  0.40196650019E+03  0.00000000000E+00 0. -1.
          3    1    4    4  503    0 -0.31278344731E+03 -0.20344074070E+03  0.24247352106E+03  0.44498879570E+03  0.00000000000E+00 0. -1.
         -4    1    4    4    0  503 -0.53073761568E+02 -0.97118519596E+02  0.12621243420E+03  0.16786425933E+03  0.00000000000E+00 0.  1.
         -3    1    5    5    0  502  0.57532755071E+02  0.48169666761E+02  0.81713968808E+02  0.11093920588E+03  0.00000000000E+00 0.  1.
<mgrwt>
<rscale>  0 0.15537787E+04</rscale>
<asrwt>0</asrwt>
<pdfrwt beam="1">  1        2 0.39059671E+00 0.15537787E+04</pdfrwt>
<pdfrwt beam="2">  1       -2 0.36573205E-01 0.15537787E+04</pdfrwt>
<totfact> 0.22445934E+01</totfact>
</mgrwt>
</event>
<event>
11    1  0.2045212E-008  0.2053829E+04  0.7818608E-02  0.8581859E-01
          3   -1    0    0  501    0  0.00000000000E+00  0.00000000000E+00  0.13424189461E+04  0.13424189461E+04  0.00000000000E+00 0. -1.
         -3   -1    0    0    0  501 -0.00000000000E+00 -0.00000000000E+00 -0.78556226729E+03  0.78556226729E+03  0.00000000000E+00 0.  1.
         23    2    1    2    0    0  0.49181226266E+03 -0.81170073263E+02 -0.45870147954E+03  0.68302458490E+03  0.87450864768E+02 0.  0.
        254    2    1    2    0    0 -0.49181226266E+03  0.81170073263E+02  0.10155581584E+04  0.14449566285E+04  0.89892903097E+03 0.  0.
         24    2    4    4    0    0 -0.51469188717E+03 -0.14633599859E+03  0.10546254305E+04  0.11847302340E+04  0.70915200417E+02 0.  0.
         11    1    3    3    0    0  0.26442324283E+03 -0.24167996151E+02 -0.19038825835E+03  0.32672837695E+03  0.00000000000E+00 0. -1.
        -11    1    3    3    0    0  0.22738901984E+03 -0.57002077112E+02 -0.26831322119E+03  0.35629620795E+03  0.00000000000E+00 0.  1.
          2    1    5    5  502    0 -0.39493401501E+03 -0.11678637968E+03  0.74167126342E+03  0.84834438625E+03  0.00000000000E+00 0. -1.
          1    1    4    4  503    0  0.42876189588E+02  0.18901630778E+03 -0.70948468165E+02  0.20639577848E+03  0.00000000000E+00 0. -1.
         -2    1    4    4    0  503 -0.19996565081E+02  0.38489764073E+02  0.31881196055E+02  0.53830615966E+02  0.00000000000E+00 0.  1.
         -1    1    5    5    0  502 -0.11975787216E+03 -0.29549618908E+02  0.31295416706E+03  0.33638584780E+03  0.00000000000E+00 0.  1.
<mgrwt>
<rscale>  0 0.20538293E+04</rscale>
<asrwt>0</asrwt>
<pdfrwt beam="1">  1        3 0.20652599E+00 0.20538293E+04</pdfrwt>
<pdfrwt beam="2">  1       -3 0.12085573E+00 0.20538293E+04</pdfrwt>
<totfact> 0.18002694E-01</totfact>
</mgrwt>
</event>
<event>
12    1  0.2045212E-008  0.1347861E+04  0.7818608E-02  0.8992449E-01
          3   -1    0    0  501    0  0.00000000000E+00  0.00000000000E+00  0.95839613812E+03  0.95839613812E+03  0.00000000000E+00 0. -1.
         -3   -1    0    0    0  501 -0.00000000000E+00 -0.00000000000E+00 -0.47389800870E+03  0.47389800870E+03  0.00000000000E+00 0.  1.
         23    2    1    2    0    0  0.60672781366E+02 -0.25073447769E+03 -0.14690892834E+03  0.31012188043E+03  0.89690483306E+02 0.  0.
        254    2    1    2    0    0 -0.60672781366E+02  0.25073447769E+03  0.63140705776E+03  0.11221722664E+04  0.89109301319E+03 0.  0.
        -24    2    4    4    0    0 -0.35898212169E+03  0.37710402278E+03  0.16602837331E+03  0.54975103400E+03  0.59876297065E+02 0.  0.
         24    2    4    4    0    0  0.29830934032E+03 -0.12636954509E+03  0.46537868445E+03  0.57242123239E+03  0.78300848632E+02 0.  0.
         11    1    3    3    0    0  0.77875724807E+01 -0.19851848603E+03 -0.11109891205E+03  0.22762513886E+03  0.00000000000E+00 0.  1.
        -11    1    3    3    0    0  0.52885208886E+02 -0.52215991658E+02 -0.35810016290E+02  0.82496741575E+02  0.00000000000E+00 0. -1.
          2    1    6    6  502    0  0.28545493005E+03 -0.97526833865E+02  0.41784397831E+03  0.51535384991E+03  0.00000000000E+00 0. -1.
          1    1    5    5  503    0 -0.14582733881E+03  0.18585908875E+03  0.54630245189E+02  0.24247407553E+03  0.00000000000E+00 0. -1.
         -2    1    5    5    0  503 -0.21315478288E+03  0.19124493403E+03  0.11139812812E+03  0.30727695847E+03  0.00000000000E+00 0.  1.
         -3    1    6    6    0  502  0.12854410278E+02 -0.28842711228E+02  0.47534706147E+02  0.57067382480E+02  0.00000000000E+00 0.  1.
<mgrwt>
<rscale>  0 0.13478606E+04</rscale>
<asrwt>0</asrwt>
<pdfrwt beam="1">  1        3 0.14744556E+00 0.13478606E+04</pdfrwt>
<pdfrwt beam="2">  1       -3 0.72907386E-01 0.13478606E+04</pdfrwt>
<totfact> 0.15460189E+00</totfact>
</mgrwt>
</event>
<event>
12    1  0.2410963E-008  0.1524541E+04  0.7818608E-02  0.8868295E-01
         -1   -1    0    0    0  501 -0.00000000000E+00  0.00000000000E+00  0.25049678167E+03  0.25049678167E+03  0.00000000000E+00 0. -1.
          1   -1    0    0  501    0  0.00000000000E+00 -0.00000000000E+00 -0.23196161732E+04  0.23196161732E+04  0.00000000000E+00 0.  1.
         23    2    1    2    0    0 -0.38720138079E+02  0.48150892108E+03 -0.56449759330E+03  0.74857746308E+03  0.91436290498E+02 0.  0.
        254    2    1    2    0    0  0.38720138079E+02 -0.48150892108E+03 -0.15046217983E+04  0.18215354918E+04  0.90595513242E+03 0.  0.
        -24    2    4    4    0    0  0.42991781587E+03 -0.44425221083E+03 -0.88994593876E+03  0.10875343365E+04  0.92400237140E+02 0.  0.
         24    2    4    4    0    0 -0.39119767779E+03 -0.37256710249E+02 -0.61467585951E+03  0.73400115536E+03  0.80669686053E+02 0.  0.
         11    1    3    3    0    0  0.22407850525E+00 -0.15420164571E+01 -0.18360060704E+02  0.18426064555E+02  0.00000000000E+00 0. -1.
        -11    1    3    3    0    0 -0.38944216585E+02  0.48305093754E+03 -0.54613753259E+03  0.73015139852E+03  0.00000000000E+00 0.  1.
          4    1    6    6  502    0 -0.20676723246E+03 -0.22747487584E+02 -0.25114362635E+03  0.32610313962E+03  0.00000000000E+00 0. -1.
          3    1    5    5  503    0  0.33362562864E+03 -0.36726730172E+03 -0.76643131735E+03  0.91302151958E+03  0.00000000000E+00 0. -1.
         -4    1    5    5    0  503  0.96292187224E+02 -0.76984909114E+02 -0.12351462140E+03  0.17451281687E+03  0.00000000000E+00 0.  1.
         -3    1    6    6    0  502 -0.18443044532E+03 -0.14509222665E+02 -0.36353223316E+03  0.40789801574E+03  0.00000000000E+00 0.  1.
<mgrwt>
<rscale>  0 0.15245411E+04</rscale>
<asrwt>0</asrwt>
<pdfrwt beam="1">  1        1 0.35686402E+00 0.15245411E+04</pdfrwt>
<pdfrwt beam="2">  1       -1 0.38537967E-01 0.15245411E+04</pdfrwt>
<totfact> 0.11375828E+01</totfact>
</mgrwt>
</event>
<event>
12    1  0.2045212E-008  0.2720685E+04  0.7818608E-02  0.8328324E-01
         -1   -1    0    0    0  501 -0.00000000000E+00  0.00000000000E+00  0.21548740368E+04  0.21548740368E+04  0.00000000000E+00 0.  1.
          1   -1    0    0  501    0  0.00000000000E+00 -0.00000000000E+00 -0.85876575928E+03  0.85876575928E+03  0.00000000000E+00 0. -1.
         23    2    1    2    0    0  0.71461602294E+03 -0.55228412075E+03  0.14714585395E+04  0.17289116229E+04  0.90836974859E+02 0.  0.
        254    2    1    2    0    0 -0.71461602294E+03  0.55228412075E+03 -0.17535026202E+03  0.12847281732E+04  0.89670784219E+03 0.  0.
        -24    2    4    4    0    0 -0.75936709185E+03  0.11311214083E+03  0.62378364295E+02  0.77695096418E+03  0.10163170675E+03 0.  0.
         24    2    4    4    0    0  0.44751068906E+02  0.43917197992E+03 -0.23772862631E+03  0.50777720898E+03  0.80300112591E+02 0.  0.
         11    1    3    3    0    0  0.71552993431E+03 -0.55209755874E+03  0.14577834942E+04  0.17152048033E+04  0.00000000000E+00 0.  1.
        -11    1    3    3    0    0 -0.91391137145E+00 -0.18656201158E+00  0.13675045326E+02  0.13706819618E+02  0.00000000000E+00 0. -1.
          4    1    6    6  502    0  0.10991553159E+02  0.33949344258E+03 -0.15241048608E+03  0.37229768742E+03  0.00000000000E+00 0. -1.
          3    1    5    5  503    0 -0.44182972876E+03  0.67356608392E+02  0.86500983956E+02  0.45522834066E+03  0.00000000000E+00 0. -1.
         -4    1    5    5    0  503 -0.31753736308E+03  0.45755532442E+02 -0.24122619660E+02  0.32172262352E+03  0.00000000000E+00 0.  1.
         -3    1    6    6    0  502  0.33759515747E+02  0.99678537341E+02 -0.85318140227E+02  0.13547952156E+03  0.00000000000E+00 0.  1.
<mgrwt>
<rscale>  0 0.27206852E+04</rscale>
<asrwt>0</asrwt>
<pdfrwt beam="1">  1        1 0.13211781E+00 0.27206852E+04</pdfrwt>
<pdfrwt beam="2">  1       -1 0.33151908E+00 0.27206852E+04</pdfrwt>
<totfact> 0.35307891E-01</totfact>
</mgrwt>
</event>
<event>
11    1  0.2045212E-008  0.1184475E+04  0.7818608E-02  0.9126555E-01
         -1   -1    0    0    0  501 -0.00000000000E+00  0.00000000000E+00  0.16112359255E+04  0.16112359255E+04  0.00000000000E+00 0.  1.
          1   -1    0    0  501    0  0.00000000000E+00 -0.00000000000E+00 -0.21768720326E+03  0.21768720326E+03  0.00000000000E+00 0. -1.
         23    2    1    2    0    0  0.95881516849E+02 -0.64853268532E+02  0.61810473361E+03  0.63556264701E+03  0.92126026937E+02 0.  0.
        254    2    1    2    0    0 -0.95881516849E+02  0.64853268532E+02  0.77544398860E+03  0.11933604817E+04  0.89966474209E+03 0.  0.
         24    2    4    4    0    0 -0.39378239960E+03  0.24743884940E+03  0.20445646720E+03  0.51397573689E+03  0.77961841329E+02 0.  0.
         13    1    3    3    0    0  0.23410355696E+02 -0.55347711827E+02  0.14680578296E+03  0.15862960590E+03  0.00000000000E+00 0. -1.
        -13    1    3    3    0    0  0.72471161153E+02 -0.95055567049E+01  0.47129895066E+03  0.47693304111E+03  0.00000000000E+00 0.  1.
          2    1    5    5  502    0 -0.25312084676E+03  0.12921890028E+03  0.15488960984E+03  0.32366414459E+03  0.00000000000E+00 0. -1.
          1    1    4    4  503    0 -0.70645138977E+01 -0.92989151261E+01  0.34037050771E+01  0.12163979093E+02  0.00000000000E+00 0. -1.
         -2    1    4    4    0  503  0.30496539665E+03 -0.17328666574E+03  0.56758381632E+03  0.66722076573E+03  0.00000000000E+00 0.  1.
         -1    1    5    5    0  502 -0.14066155284E+03  0.11821994911E+03  0.49566857367E+02  0.19031159231E+03  0.00000000000E+00 0.  1.
<mgrwt>
<rscale>  0 0.11844753E+04</rscale>
<asrwt>0</asrwt>
<pdfrwt beam="1">  1        1 0.33490340E-01 0.11844753E+04</pdfrwt>
<pdfrwt beam="2">  1       -1 0.24788244E+00 0.11844753E+04</pdfrwt>
<totfact> 0.95233790E+00</totfact>
</mgrwt>
</event>
<event>
11    1  0.2045212E-008  0.1188068E+04  0.7818608E-02  0.9123365E-01
         -3   -1    0    0    0  501 -0.00000000000E+00  0.00000000000E+00  0.73601757163E+03  0.73601757163E+03  0.00000000000E+00 0.  1.
          3   -1    0    0  501    0  0.00000000000E+00 -0.00000000000E+00 -0.47944024134E+03  0.47944024134E+03  0.00000000000E+00 0. -1.
         23    2    1    2    0    0  0.10333448541E+03 -0.15544746105E+02  0.27740209677E+03  0.31029309470E+03  0.91707286074E+02 0.  0.
        254    2    1    2    0    0 -0.10333448541E+03  0.15544746105E+02 -0.20824766489E+02  0.90516471826E+03  0.89887142645E+03 0.  0.
         24    2    4    4    0    0 -0.22003502273E+03  0.40613693796E+03 -0.54865349418E+02  0.47202190263E+03  0.80198792968E+02 0.  0.
         11    1    3    3    0    0  0.21192983288E+02  0.36174863633E+02  0.87058035615E+02  0.96627453990E+02  0.00000000000E+00 0.  1.
        -11    1    3    3    0    0  0.82141502122E+02 -0.51719609738E+02  0.19034406116E+03  0.21366564071E+03  0.00000000000E+00 0. -1.
          2    1    5    5  502    0 -0.16569238354E+03  0.23050485937E+03 -0.17502048221E+02  0.28441655691E+03  0.00000000000E+00 0. -1.
          1    1    4    4  503    0  0.90956878681E+01 -0.10738344955E+02 -0.30042130884E+02  0.33174888368E+02  0.00000000000E+00 0. -1.
         -2    1    4    4    0  503  0.10760484945E+03 -0.37985384690E+03  0.64082713813E+02  0.39996792726E+03  0.00000000000E+00 0.  1.
         -1    1    5    5    0  502 -0.54342639187E+02  0.17563207859E+03 -0.37363301196E+02  0.18760534572E+03  0.00000000000E+00 0.  1.
<mgrwt>
<rscale>  0 0.11880681E+04</rscale>
<asrwt>0</asrwt>
<pdfrwt beam="1">  1        3 0.73760037E-01 0.11880681E+04</pdfrwt>
<pdfrwt beam="2">  1       -3 0.11323347E+00 0.11880681E+04</pdfrwt>
<totfact> 0.29319842E+00</totfact>
</mgrwt>
</event>
<event>
11    1  0.2045212E-008  0.1162082E+04  0.7818608E-02  0.9146709E-01
         -1   -1    0    0    0  501 -0.00000000000E+00  0.00000000000E+00  0.99651421861E+03  0.99651421861E+03  0.00000000000E+00 0.  1.
          1   -1    0    0  501    0  0.00000000000E+00 -0.00000000000E+00 -0.33878969884E+03  0.33878969884E+03  0.00000000000E+00 0. -1.
         23    2    1    2    0    0  0.19054490481E+03  0.17300837601E+02  0.16436075811E+02  0.21191838629E+03  0.89624651359E+02 0.  0.
        254    2    1    2    0    0 -0.19054490481E+03 -0.17300837601E+02  0.64128844396E+03  0.11233855312E+04  0.90229568521E+03 0.  0.
         24    2    4    4    0    0 -0.20356780455E+02  0.37732102111E+03  0.49222713194E+03  0.62572535049E+03  0.80368609236E+02 0.  0.
         13    1    3    3    0    0  0.35589885379E+02  0.37517876205E+02  0.20421699142E+02  0.55599251543E+02  0.00000000000E+00 0.  1.
        -13    1    3    3    0    0  0.15495501943E+03 -0.20217038604E+02 -0.39856233308E+01  0.15631913475E+03  0.00000000000E+00 0. -1.
          2    1    5    5  502    0  0.23440518389E+02  0.10000097202E+03  0.99840842894E+02  0.14324051877E+03  0.00000000000E+00 0. -1.
          3    1    4    4  503    0  0.67855329622E+01 -0.18394519595E+03 -0.13749060372E+01  0.18407544360E+03  0.00000000000E+00 0. -1.
         -4    1    4    4    0  503 -0.17697365732E+03 -0.21067666277E+03  0.15043621805E+03  0.31358473707E+03  0.00000000000E+00 0.  1.
         -1    1    5    5    0  502 -0.43797298844E+02  0.27732004909E+03  0.39238628904E+03  0.48248483172E+03  0.00000000000E+00 0.  1.
<mgrwt>
<rscale>  0 0.11620822E+04</rscale>
<asrwt>0</asrwt>
<pdfrwt beam="1">  1        1 0.52121493E-01 0.11620822E+04</pdfrwt>
<pdfrwt beam="2">  1       -1 0.15330988E+00 0.11620822E+04</pdfrwt>
<totfact> 0.24396047E+01</totfact>
</mgrwt>
</event>
<event>
11    1  0.2045212E-008  0.2024223E+04  0.7818608E-02  0.8595379E-01
         -1   -1    0    0    0  501 -0.00000000000E+00  0.00000000000E+00  0.73723098147E+03  0.73723098147E+03  0.00000000000E+00 0.  1.
          1   -1    0    0  501    0  0.00000000000E+00 -0.00000000000E+00 -0.13894829400E+04  0.13894829400E+04  0.00000000000E+00 0. -1.
         23    2    1    2    0    0 -0.31794700856E+03 -0.69459720942E+03 -0.54754920383E+03  0.94430286503E+03  0.91335571880E+02 0.  0.
        254    2    1    2    0    0  0.31794700856E+03  0.69459720942E+03 -0.10470275474E+03  0.11824110565E+04  0.89642493051E+03 0.  0.
         24    2    4    4    0    0  0.47783651818E+03  0.36464787635E+03 -0.37136354545E+03  0.71155814496E+03  0.84310728511E+02 0.  0.
         13    1    3    3    0    0 -0.13022306590E+03 -0.18488562978E+03 -0.15754674872E+03  0.27561154008E+03  0.00000000000E+00 0.  1.
        -13    1    3    3    0    0 -0.18772394266E+03 -0.50971157964E+03 -0.39000245511E+03  0.66869132495E+03  0.00000000000E+00 0. -1.
          4    1    5    5  502    0  0.41960802971E+03  0.35065186740E+03 -0.32859340528E+03  0.63796650124E+03  0.00000000000E+00 0. -1.
          1    1    4    4  503    0 -0.12461032062E+03  0.14855976343E+03  0.18780773035E+03  0.26994347352E+03  0.00000000000E+00 0. -1.
         -2    1    4    4    0  503 -0.35279188989E+02  0.18138956963E+03  0.78853060366E+02  0.20090943800E+03  0.00000000000E+00 0.  1.
         -3    1    5    5    0  502  0.58228488471E+02  0.13996008951E+02 -0.42770140175E+02  0.73591643730E+02  0.00000000000E+00 0.  1.
<mgrwt>
<rscale>  0 0.20242232E+04</rscale>
<asrwt>0</asrwt>
<pdfrwt beam="1">  1        1 0.21376660E+00 0.20242232E+04</pdfrwt>
<pdfrwt beam="2">  1       -1 0.11342015E+00 0.20242232E+04</pdfrwt>
<totfact> 0.51332721E+00</totfact>
</mgrwt>
</event>
<event>
12    1  0.2045212E-008  0.1207988E+04  0.7818608E-02  0.9105893E-01
          1   -1    0    0  501    0  0.00000000000E+00  0.00000000000E+00  0.10964625816E+04  0.10964625816E+04  0.00000000000E+00 0. -1.
         -1   -1    0    0    0  501 -0.00000000000E+00 -0.00000000000E+00 -0.33271433757E+03  0.33271433757E+03  0.00000000000E+00 0.  1.
         23    2    1    2    0    0 -0.18658530074E+03  0.14047707377E+03  0.21852713544E+03  0.33252148382E+03  0.90931543327E+02 0.  0.
        254    2    1    2    0    0  0.18658530074E+03 -0.14047707377E+03  0.54522110857E+03  0.10966554353E+04  0.92240945567E+03 0.  0.
        -24    2    4    4    0    0  0.70467386031E+02 -0.51278799381E+03  0.18113036057E+03  0.55723180479E+03  0.98903476493E+02 0.  0.
         24    2    4    4    0    0  0.11611791471E+03  0.37231092004E+03  0.36409074800E+03  0.53942363054E+03  0.79479488631E+02 0.  0.
         13    1    3    3    0    0 -0.16554101838E+02 -0.11121689840E+02  0.33757130184E+02  0.39208087314E+02  0.00000000000E+00 0. -1.
        -13    1    3    3    0    0 -0.17003119890E+03  0.15159876361E+03  0.18477000526E+03  0.29331339651E+03  0.00000000000E+00 0.  1.
          2    1    6    6  502    0  0.25604269220E+02  0.11839343920E+03  0.16316373335E+03  0.20321168502E+03  0.00000000000E+00 0. -1.
          3    1    5    5  503    0  0.36599258738E+02 -0.41436279042E+03  0.17970333279E+03  0.45313277926E+03  0.00000000000E+00 0. -1.
         -4    1    5    5    0  503  0.33868127293E+02 -0.98425203393E+02  0.14270277854E+01  0.10409902554E+03  0.00000000000E+00 0.  1.
         -1    1    6    6    0  502  0.90513645492E+02  0.25391748084E+03  0.20092701464E+03  0.33621194552E+03  0.00000000000E+00 0.  1.
<mgrwt>
<rscale>  0 0.12079881E+04</rscale>
<asrwt>0</asrwt>
<pdfrwt beam="1">  1        1 0.16868655E+00 0.12079881E+04</pdfrwt>
<pdfrwt beam="2">  1       -1 0.51186822E-01 0.12079881E+04</pdfrwt>
<totfact> 0.48416566E+01</totfact>
</mgrwt>
</event>
<event>
11    1  0.2045212E-008  0.3398675E+04  0.7818608E-02  0.8138232E-01
         -2   -1    0    0    0  501 -0.00000000000E+00  0.00000000000E+00  0.92356990136E+03  0.92356990136E+03  0.00000000000E+00 0.  1.
          2   -1    0    0  501    0  0.00000000000E+00 -0.00000000000E+00 -0.31267232176E+04  0.31267232176E+04  0.00000000000E+00 0. -1.
         23    2    1    2    0    0 -0.11726528005E+04 -0.98038872794E+03 -0.55590316556E+03  0.16289744605E+04  0.90845005183E+02 0.  0.
        254    2    1    2    0    0  0.11726528005E+04  0.98038872794E+03 -0.16472501507E+04  0.24213186584E+04  0.90170634825E+03 0.  0.
         24    2    4    4    0    0  0.35121337414E+03 -0.44782502039E+02 -0.61113130097E+03  0.71093174466E+03  0.81155233241E+02 0.  0.
         13    1    3    3    0    0 -0.96781518957E+03 -0.79387884638E+03 -0.41949566837E+03  0.13201842597E+04  0.00000000000E+00 0. -1.
        -13    1    3    3    0    0 -0.20483761095E+03 -0.18650988157E+03 -0.13640749720E+03  0.30879020074E+03  0.00000000000E+00 0.  1.
          2    1    5    5  502    0  0.25554490765E+03 -0.68700536198E+02 -0.44721907382E+03  0.51964205323E+03  0.00000000000E+00 0. -1.
          3    1    4    4  503    0  0.60552973063E+03  0.49419552257E+03 -0.67661640286E+03  0.10337820011E+04  0.00000000000E+00 0. -1.
         -4    1    4    4    0  503  0.21590969575E+03  0.53097570741E+03 -0.35950244682E+03  0.67660491267E+03  0.00000000000E+00 0.  1.
         -1    1    5    5    0  502  0.95668466495E+02  0.23918034159E+02 -0.16391222715E+03  0.19128969143E+03  0.00000000000E+00 0.  1.
<mgrwt>
<rscale>  0 0.33986747E+04</rscale>
<asrwt>0</asrwt>
<pdfrwt beam="1">  1        2 0.48103434E+00 0.33986747E+04</pdfrwt>
<pdfrwt beam="2">  1       -2 0.14208768E+00 0.33986747E+04</pdfrwt>
<totfact> 0.41380370E-01</totfact>
</mgrwt>
</event>
<event>
12    1  0.2045212E-008  0.1663697E+04  0.7818608E-02  0.8782344E-01
          1   -1    0    0  501    0  0.00000000000E+00  0.00000000000E+00  0.15988182141E+04  0.15988182141E+04  0.00000000000E+00 0. -1.
         -1   -1    0    0    0  501 -0.00000000000E+00 -0.00000000000E+00 -0.43280223782E+03  0.43280223782E+03  0.00000000000E+00 0.  1.
         23    2    1    2    0    0  0.46254517149E+03  0.30168222657E+03  0.63755760115E+03  0.84834458878E+03  0.90822051464E+02 0.  0.
        254    2    1    2    0    0 -0.46254517149E+03 -0.30168222657E+03  0.52845837510E+03  0.11832758631E+04  0.90327919965E+03 0.  0.
        -24    2    4    4    0    0 -0.28647900169E+03  0.25770479581E+03  0.10619931852E+02  0.39693284219E+03  0.94662125784E+02 0.  0.
         24    2    4    4    0    0 -0.17606616979E+03 -0.55938702239E+03  0.51783844325E+03  0.78634302093E+03  0.79155267005E+02 0.  0.
         11    1    3    3    0    0  0.17221710925E+03  0.12526223111E+03  0.31246793670E+03  0.37813432894E+03  0.00000000000E+00 0.  1.
        -11    1    3    3    0    0  0.29032806224E+03  0.17641999547E+03  0.32508966445E+03  0.47021025984E+03  0.00000000000E+00 0. -1.
          4    1    6    6  502    0 -0.11719159221E+02 -0.12717905959E+03  0.13702056801E+03  0.18731387549E+03  0.00000000000E+00 0. -1.
          1    1    5    5  503    0 -0.14058572046E+03  0.90442111031E+02 -0.33886096047E+02  0.17056490773E+03  0.00000000000E+00 0. -1.
         -2    1    5    5    0  503 -0.14589328124E+03  0.16726268478E+03  0.44506027899E+02  0.22636793446E+03  0.00000000000E+00 0.  1.
         -1    1    6    6    0  502 -0.16434701057E+03 -0.43220796280E+03  0.38081787524E+03  0.59902914544E+03  0.00000000000E+00 0.  1.
<mgrwt>
<rscale>  0 0.16636972E+04</rscale>
<asrwt>0</asrwt>
<pdfrwt beam="1">  1        1 0.24597203E+00 0.16636972E+04</pdfrwt>
<pdfrwt beam="2">  1       -1 0.66584961E-01 0.16636972E+04</pdfrwt>
<totfact> 0.12194704E+01</totfact>
</mgrwt>
</event>
<event>
11    1  0.2045212E-008  0.1328370E+04  0.7818608E-02  0.9007365E-01
          2   -1    0    0  501    0  0.00000000000E+00  0.00000000000E+00  0.10448729895E+04  0.10448729895E+04  0.00000000000E+00 0.  1.
         -2   -1    0    0    0  501 -0.00000000000E+00 -0.00000000000E+00 -0.42219663379E+03  0.42219663379E+03  0.00000000000E+00 0. -1.
         23    2    1    2    0    0  0.21773796398E+03  0.27957970166E+03  0.15617180278E+03  0.39786245655E+03  0.91270322724E+02 0.  0.
        254    2    1    2    0    0 -0.21773796398E+03 -0.27957970166E+03  0.46650455298E+03  0.10692071668E+04  0.89442877693E+03 0.  0.
         24    2    4    4    0    0 -0.36273563569E+03  0.11710293852E+03  0.11284945475E+03  0.40511444182E+03  0.78054288311E+02 0.  0.
         11    1    3    3    0    0  0.66205877767E+02  0.48408634594E+02  0.71414297929E+02  0.10875024645E+03  0.00000000000E+00 0.  1.
        -11    1    3    3    0    0  0.15153208621E+03  0.23117106707E+03  0.84757504850E+02  0.28911221010E+03  0.00000000000E+00 0. -1.
          4    1    5    5  502    0 -0.17787453641E+03  0.49593504325E+02  0.94565949000E+02  0.20746465985E+03  0.00000000000E+00 0. -1.
          3    1    4    4  503    0 -0.50657631859E+02  0.84462056638E+01  0.17096943440E+03  0.17851633414E+03  0.00000000000E+00 0. -1.
         -4    1    4    4    0  503  0.19565530357E+03 -0.40512884585E+03  0.18268566382E+03  0.48557639082E+03  0.00000000000E+00 0.  1.
         -3    1    5    5    0  502 -0.18486109928E+03  0.67509434195E+02  0.18283505754E+02  0.19764978198E+03  0.00000000000E+00 0.  1.
<mgrwt>
<rscale>  0 0.13283702E+04</rscale>
<asrwt>0</asrwt>
<pdfrwt beam="1">  1        2 0.16074969E+00 0.13283702E+04</pdfrwt>
<pdfrwt beam="2">  1       -2 0.64953328E-01 0.13283702E+04</pdfrwt>
<totfact> 0.50452202E+01</totfact>
</mgrwt>
</event>
<event>
12    1  0.2045212E-008  0.1719336E+04  0.7818608E-02  0.8750413E-01
          1   -1    0    0  501    0  0.00000000000E+00  0.00000000000E+00  0.14194900843E+04  0.14194900843E+04  0.00000000000E+00 0. -1.
         -1   -1    0    0    0  501 -0.00000000000E+00 -0.00000000000E+00 -0.52062996950E+03  0.52062996950E+03  0.00000000000E+00 0.  1.
         23    2    1    2    0    0  0.19807401475E+03  0.58247023696E+03  0.38385563699E+03  0.73101929472E+03  0.92407613018E+02 0.  0.
        254    2    1    2    0    0 -0.19807401475E+03 -0.58247023696E+03  0.51500447781E+03  0.12091007591E+04  0.90453863442E+03 0.  0.
        -24    2    4    4    0    0 -0.41220865401E+03 -0.45619053330E+02  0.45260420082E+03  0.62246840540E+03  0.10304989406E+03 0.  0.
         24    2    4    4    0    0  0.21413463926E+03 -0.53685118363E+03  0.62400276992E+02  0.58663235367E+03  0.78618615512E+02 0.  0.
         13    1    3    3    0    0  0.16043069832E+03  0.53000983699E+03  0.36684760756E+03  0.66424814899E+03  0.00000000000E+00 0.  1.
        -13    1    3    3    0    0  0.37643316427E+02  0.52460399972E+02  0.17008029429E+02  0.66771145728E+02  0.00000000000E+00 0. -1.
          4    1    6    6  502    0  0.10965350489E+03 -0.25623513221E+03  0.68992552926E+02  0.28712420042E+03  0.00000000000E+00 0. -1.
          1    1    5    5  503    0 -0.36840166086E+03 -0.54386311379E+02  0.35216144300E+03  0.51253813178E+03  0.00000000000E+00 0. -1.
         -2    1    5    5    0  503 -0.43806993147E+02  0.87672580489E+01  0.10044275781E+03  0.10993027362E+03  0.00000000000E+00 0.  1.
         -3    1    6    6    0  502  0.10448113437E+03 -0.28061605143E+03 -0.65922759333E+01  0.29950815324E+03  0.00000000000E+00 0.  1.
<mgrwt>
<rscale>  0 0.17193360E+04</rscale>
<asrwt>0</asrwt>
<pdfrwt beam="1">  1        1 0.21838309E+00 0.17193360E+04</pdfrwt>
<pdfrwt beam="2">  1       -1 0.80096919E-01 0.17193360E+04</pdfrwt>
<totfact> 0.11004273E+01</totfact>
</mgrwt>
</event>
<event>
12    1  0.2045212E-008  0.1329079E+04  0.7818608E-02  0.9006818E-01
          1   -1    0    0  501    0  0.00000000000E+00  0.00000000000E+00  0.28968785706E+03  0.28968785706E+03  0.00000000000E+00 0. -1.
         -1   -1    0    0    0  501 -0.00000000000E+00 -0.00000000000E+00 -0.15244434034E+04  0.15244434034E+04  0.00000000000E+00 0.  1.
         23    2    1    2    0    0 -0.44604177766E+02  0.39774526946E+02  0.13041459792E+03  0.17048787929E+03  0.92122765736E+02 0.  0.
        254    2    1    2    0    0  0.44604177766E+02 -0.39774526946E+02 -0.13651701443E+04  0.16436433812E+04  0.91340160720E+03 0.  0.
        -24    2    4    4    0    0  0.35211562441E+03  0.13325291966E+03 -0.11724572815E+04  0.12324167747E+04  0.49530556458E+02 0.  0.
         24    2    4    4    0    0 -0.30751144665E+03 -0.17302744661E+03 -0.19271286279E+03  0.41122660652E+03  0.86413467244E+02 0.  0.
         13    1    3    3    0    0  0.57450530555E+01 -0.26142456277E+02  0.28798013732E+02  0.39316144899E+02  0.00000000000E+00 0.  1.
        -13    1    3    3    0    0 -0.50349230821E+02  0.65916983224E+02  0.10161658419E+03  0.13117173439E+03  0.00000000000E+00 0. -1.
          4    1    6    6  502    0 -0.29387318056E+03 -0.13621648398E+03 -0.17499739658E+03  0.36815820726E+03  0.00000000000E+00 0. -1.
          1    1    5    5  503    0  0.26029625187E+03  0.11050322358E+03 -0.93444539515E+03  0.97629570197E+03  0.00000000000E+00 0. -1.
         -2    1    5    5    0  503  0.91819372543E+02  0.22749696077E+02 -0.23801188636E+03  0.25612107272E+03  0.00000000000E+00 0.  1.
         -3    1    6    6    0  502 -0.13638266089E+02 -0.36810962631E+02 -0.17715466212E+02  0.43068399260E+02  0.00000000000E+00 0.  1.
<mgrwt>
<rscale>  0 0.13290790E+04</rscale>
<asrwt>0</asrwt>
<pdfrwt beam="1">  1        1 0.44567363E-01 0.13290790E+04</pdfrwt>
<pdfrwt beam="2">  1       -1 0.23452975E+00 0.13290790E+04</pdfrwt>
<totfact> 0.79321877E+00</totfact>
</mgrwt>
</event>
<event>
12    1  0.2373719E-008  0.1531908E+04  0.7818608E-02  0.8863507E-01
         -1   -1    0    0    0  501 -0.00000000000E+00  0.00000000000E+00  0.36943849681E+03  0.36943849681E+03  0.00000000000E+00 0.  1.
          1   -1    0    0  501    0  0.00000000000E+00 -0.00000000000E+00 -0.15880467951E+04  0.15880467951E+04  0.00000000000E+00 0. -1.
         23    2    1    2    0    0 -0.31456415677E+03  0.14528340774E+03  0.96717358381E+02  0.36450132143E+03  0.58728941928E+02 0.  0.
        254    2    1    2    0    0  0.31456415677E+03 -0.14528340774E+03 -0.13153256567E+04  0.15929839705E+04  0.82913115357E+03 0.  0.
        -24    2    4    4    0    0  0.32578581272E+02 -0.33383783612E+03 -0.11588995327E+04  0.12113509586E+04  0.10869201127E+03 0.  0.
         24    2    4    4    0    0  0.28198557550E+03  0.18855442839E+03 -0.15642612402E+03  0.38163301188E+03  0.78140810265E+02 0.  0.
         11    1    3    3    0    0 -0.16135524338E+03  0.60550517901E+02  0.20519507515E+02  0.17355958623E+03  0.00000000000E+00 0. -1.
        -11    1    3    3    0    0 -0.15320891340E+03  0.84732889835E+02  0.76197850866E+02  0.19094173520E+03  0.00000000000E+00 0.  1.
          4    1    6    6  502    0  0.13290279314E+02  0.28421547203E+02 -0.32531566362E+02  0.45196445431E+02  0.00000000000E+00 0. -1.
          3    1    5    5  503    0 -0.91722546916E+01 -0.20749888741E+02 -0.22812749429E+02  0.32173120386E+02  0.00000000000E+00 0. -1.
         -4    1    5    5    0  503  0.41750835964E+02 -0.31308794738E+03 -0.11360867833E+04  0.11791778382E+04  0.00000000000E+00 0.  1.
         -3    1    6    6    0  502  0.26869529619E+03  0.16013288119E+03 -0.12389455766E+03  0.33643656645E+03  0.00000000000E+00 0.  1.
<mgrwt>
<rscale>  0 0.15319081E+04</rscale>
<asrwt>0</asrwt>
<pdfrwt beam="1">  1        1 0.24431489E+00 0.15319081E+04</pdfrwt>
<pdfrwt beam="2">  1       -1 0.56836692E-01 0.15319081E+04</pdfrwt>
<totfact> 0.17193873E+01</totfact>
</mgrwt>
</event>
<event>
12    1  0.2045212E-008  0.1522880E+04  0.7818608E-02  0.8869379E-01
          1   -1    0    0  501    0  0.00000000000E+00  0.00000000000E+00  0.28174466589E+03  0.28174466589E+03  0.00000000000E+00 0. -1.
         -1   -1    0    0    0  501 -0.00000000000E+00 -0.00000000000E+00 -0.20578596898E+04  0.20578596898E+04  0.00000000000E+00 0.  1.
         23    2    1    2    0    0 -0.20867432870E+03  0.39826097751E+03 -0.26746594991E+03  0.53102645625E+03  0.91072944427E+02 0.  0.
        254    2    1    2    0    0  0.20867432870E+03 -0.39826097751E+03 -0.15086490740E+04  0.18085778995E+04  0.89037924965E+03 0.  0.
        -24    2    4    4    0    0  0.30708367782E+03 -0.62097317476E+03 -0.83224068868E+03  0.10849793933E+04  0.68173682428E+02 0.  0.
         24    2    4    4    0    0 -0.98409349119E+02  0.22271219725E+03 -0.67640838534E+03  0.72359850618E+03  0.82349083757E+02 0.  0.
         13    1    3    3    0    0 -0.11744242116E+02  0.33679128114E+02 -0.54499256446E+02  0.65133553923E+02  0.00000000000E+00 0.  1.
        -13    1    3    3    0    0 -0.19693008658E+03  0.36458184939E+03 -0.21296669347E+03  0.46589290232E+03  0.00000000000E+00 0. -1.
          2    1    6    6  502    0 -0.14932338089E+02  0.13259048868E+03 -0.32426557164E+03  0.35064422619E+03  0.00000000000E+00 0. -1.
          3    1    5    5  503    0  0.89944594831E+02 -0.22228683074E+03 -0.33064426262E+03  0.40844472535E+03  0.00000000000E+00 0. -1.
         -4    1    5    5    0  503  0.21713908299E+03 -0.39868634402E+03 -0.50159642606E+03  0.67653466792E+03  0.00000000000E+00 0.  1.
         -1    1    6    6    0  502 -0.83477011030E+02  0.90121708576E+02 -0.35214281369E+03  0.37295427999E+03  0.00000000000E+00 0.  1.
<mgrwt>
<rscale>  0 0.15228802E+04</rscale>
<asrwt>0</asrwt>
<pdfrwt beam="1">  1        1 0.43345335E-01 0.15228802E+04</pdfrwt>
<pdfrwt beam="2">  1       -1 0.31659379E+00 0.15228802E+04</pdfrwt>
<totfact> 0.23745900E+00</totfact>
</mgrwt>
</event>
<event>
11    1  0.2045212E-008  0.1533974E+04  0.7818608E-02  0.8862170E-01
         -2   -1    0    0    0  501 -0.00000000000E+00  0.00000000000E+00  0.33358092348E+03  0.33358092348E+03  0.00000000000E+00 0.  1.
          2   -1    0    0  501    0  0.00000000000E+00 -0.00000000000E+00 -0.17634973021E+04  0.17634973021E+04  0.00000000000E+00 0. -1.
         23    2    1    2    0    0  0.14436077333E+03 -0.17409675165E+03 -0.10502088293E+04  0.10781617757E+04  0.91348330369E+02 0.  0.
        254    2    1    2    0    0 -0.14436077333E+03  0.17409675165E+03 -0.37970754924E+03  0.10189164499E+04  0.91807581226E+03 0.  0.
         24    2    4    4    0    0  0.19557817450E+03  0.44349840592E+03 -0.14408953835E+03  0.51196623370E+03  0.80037310014E+02 0.  0.
         11    1    3    3    0    0  0.14228236252E+03 -0.18205328882E+03 -0.10382408902E+04  0.10636408307E+04  0.00000000000E+00 0. -1.
        -11    1    3    3    0    0  0.20784108129E+01  0.79565371656E+01 -0.11967939122E+02  0.14520944941E+02  0.00000000000E+00 0.  1.
          4    1    5    5  502    0 -0.61574308377E+00  0.30925845670E+02  0.51585160706E+01  0.31359167049E+02  0.00000000000E+00 0. -1.
          3    1    4    4  503    0 -0.46050407797E+02 -0.95717814353E+02 -0.72523984443E+02  0.12861674993E+03  0.00000000000E+00 0. -1.
         -2    1    4    4    0  503 -0.29388854004E+03 -0.17368383992E+03 -0.16309402644E+03  0.37833346624E+03  0.00000000000E+00 0.  1.
         -3    1    5    5    0  502  0.19619391759E+03  0.41257256025E+03 -0.14924805442E+03  0.48060706666E+03  0.00000000000E+00 0.  1.
<mgrwt>
<rscale>  0 0.15339740E+04</rscale>
<asrwt>0</asrwt>
<pdfrwt beam="1">  1        2 0.27130728E+00 0.15339740E+04</pdfrwt>
<pdfrwt beam="2">  1       -2 0.51320142E-01 0.15339740E+04</pdfrwt>
<totfact> 0.31256574E+01</totfact>
</mgrwt>
</event>
<event>
11    1  0.2045212E-008  0.1367883E+04  0.7818608E-02  0.8977400E-01
          1   -1    0    0  501    0  0.00000000000E+00  0.00000000000E+00  0.48608417252E+03  0.48608417252E+03  0.00000000000E+00 0. -1.
         -1   -1    0    0    0  501 -0.00000000000E+00 -0.00000000000E+00 -0.96233506723E+03  0.96233506723E+03  0.00000000000E+00 0.  1.
         23    2    1    2    0    0 -0.11396830430E+01  0.27314104832E+03  0.13590386554E+03  0.31813454810E+03  0.90179814078E+02 0.  0.
        254    2    1    2    0    0  0.11396830430E+01 -0.27314104832E+03 -0.61215476026E+03  0.11302846917E+04  0.91005642821E+03 0.  0.
         24    2    4    4    0    0  0.29216464316E+03 -0.16947528740E+02  0.63180719587E+02  0.31040213556E+03  0.81916329190E+02 0.  0.
         13    1    3    3    0    0 -0.24121120995E+02  0.73411910665E+02  0.33956439858E+01  0.77347705225E+02  0.00000000000E+00 0.  1.
        -13    1    3    3    0    0  0.22981437952E+02  0.19972913766E+03  0.13250822156E+03  0.24078684287E+03  0.00000000000E+00 0. -1.
          4    1    5    5  502    0 -0.49781956231E+01  0.29558926932E+01  0.31934080750E+01  0.66119277377E+01  0.00000000000E+00 0. -1.
          1    1    4    4  503    0 -0.60373866521E+02  0.10372294493E+02 -0.37081464763E+01  0.61370502703E+02  0.00000000000E+00 0. -1.
         -2    1    4    4    0  503 -0.23065109360E+03 -0.26656581408E+03 -0.67162733337E+03  0.75851205339E+03  0.00000000000E+00 0.  1.
         -1    1    5    5    0  502  0.29714283878E+03 -0.19903421433E+02  0.59987311512E+02  0.30379020782E+03  0.00000000000E+00 0.  1.
<mgrwt>
<rscale>  0 0.13678828E+04</rscale>
<asrwt>0</asrwt>
<pdfrwt beam="1">  1        1 0.74782181E-01 0.13678828E+04</pdfrwt>
<pdfrwt beam="2">  1       -1 0.14805155E+00 0.13678828E+04</pdfrwt>
<totfact> 0.16280809E+01</totfact>
</mgrwt>
</event>
<event>
12    1  0.2045212E-008  0.1149752E+04  0.7818608E-02  0.9158013E-01
         -1   -1    0    0    0  501 -0.00000000000E+00  0.00000000000E+00  0.11872911925E+03  0.11872911925E+03  0.00000000000E+00 0.  1.
          1   -1    0    0  501    0  0.00000000000E+00 -0.00000000000E+00 -0.27834978892E+04  0.27834978892E+04  0.00000000000E+00 0. -1.
         23    2    1    2    0    0 -0.17634584693E+02  0.40914397207E+02 -0.14436964717E+02  0.10242091682E+03  0.91085958167E+02 0.  0.
        254    2    1    2    0    0  0.17634584693E+02 -0.40914397207E+02 -0.26503318052E+04  0.27998060916E+04  0.90148239386E+03 0.  0.
        -24    2    4    4    0    0 -0.28773670395E+03  0.24442794435E+03 -0.18985902888E+04  0.19368758839E+04  0.65617637449E+02 0.  0.
         24    2    4    4    0    0  0.30537128864E+03 -0.28534234156E+03 -0.75174151642E+03  0.86293020767E+03  0.69723453571E+02 0.  0.
         13    1    3    3    0    0 -0.28360636161E+02  0.92021941727E+01  0.32926860461E+02  0.44420538052E+02  0.00000000000E+00 0.  1.
        -13    1    3    3    0    0  0.10726051468E+02  0.31712203034E+02 -0.47363825177E+02  0.58000378764E+02  0.00000000000E+00 0. -1.
          4    1    6    6  502    0  0.10111569886E+02  0.34209412337E+01 -0.21033129687E+02  0.23586844403E+02  0.00000000000E+00 0. -1.
          3    1    5    5  503    0 -0.14279689175E+03  0.15828830924E+03 -0.97672280671E+03  0.99971675102E+03  0.00000000000E+00 0. -1.
         -2    1    5    5    0  503 -0.14493981220E+03  0.86139635109E+02 -0.92186748206E+03  0.93715913290E+03  0.00000000000E+00 0.  1.
         -3    1    6    6    0  502  0.29525971876E+03 -0.28876328279E+03 -0.73070838674E+03  0.83934336326E+03  0.00000000000E+00 0.  1.
<mgrwt>
<rscale>  0 0.11497517E+04</rscale>
<asrwt>0</asrwt>
<pdfrwt beam="1">  1        1 0.42823040E+00 0.11497517E+04</pdfrwt>
<pdfrwt beam="2">  1       -1 0.18266020E-01 0.11497517E+04</pdfrwt>
<totfact> 0.20471994E+01</totfact>
</mgrwt>
</event>
<event>
11    1  0.2045212E-008  0.1368478E+04  0.7818608E-02  0.8976957E-01
          1   -1    0    0  501    0  0.00000000000E+00  0.00000000000E+00  0.96794852549E+03  0.96794852549E+03  0.00000000000E+00 0. -1.
         -1   -1    0    0    0  501 -0.00000000000E+00 -0.00000000000E+00 -0.48368616859E+03  0.48368616859E+03  0.00000000000E+00 0.  1.
         23    2    1    2    0    0 -0.28076701950E+03  0.11999823851E+03  0.38807683928E+03  0.50223512599E+03  0.91688560407E+02 0.  0.
        254    2    1    2    0    0  0.28076701950E+03 -0.11999823851E+03  0.96185517617E+02  0.94939956809E+03  0.89379985992E+03 0.  0.
         24    2    4    4    0    0 -0.68764661215E+02 -0.33629849931E+03  0.30513277517E+03  0.46586392919E+03  0.78089248689E+02 0.  0.
         13    1    3    3    0    0 -0.28359309321E+03  0.11091815327E+03  0.35446698687E+03  0.46730581424E+03  0.00000000000E+00 0. -1.
        -13    1    3    3    0    0  0.28260737061E+01  0.90800852403E+01  0.33609852412E+02  0.34929311756E+02  0.00000000000E+00 0.  1.
          4    1    5    5  502    0 -0.81461899410E+02 -0.30751422242E+03  0.26003071552E+03  0.41087347330E+03  0.00000000000E+00 0. -1.
          1    1    4    4  503    0  0.34019235166E+03  0.16548934365E+03 -0.15496985743E+03  0.40881929468E+03  0.00000000000E+00 0. -1.
         -2    1    4    4    0  503  0.93393290572E+01  0.50810917151E+02 -0.53977400126E+02  0.74716344219E+02  0.00000000000E+00 0.  1.
         -3    1    5    5    0  502  0.12697238194E+02 -0.28784276896E+02  0.45102059655E+02  0.54990455893E+02  0.00000000000E+00 0.  1.
<mgrwt>
<rscale>  0 0.13684784E+04</rscale>
<asrwt>0</asrwt>
<pdfrwt beam="1">  1        1 0.14891516E+00 0.13684784E+04</pdfrwt>
<pdfrwt beam="2">  1       -1 0.74413257E-01 0.13684784E+04</pdfrwt>
<totfact> 0.28497723E+01</totfact>
</mgrwt>
</event>
<event>
11    1  0.2045212E-008  0.1293128E+04  0.7818608E-02  0.9035032E-01
         -2   -1    0    0    0  501 -0.00000000000E+00  0.00000000000E+00  0.21764620187E+03  0.21764620187E+03  0.00000000000E+00 0. -1.
          2   -1    0    0  501    0  0.00000000000E+00 -0.00000000000E+00 -0.19207552699E+04  0.19207552699E+04  0.00000000000E+00 0.  1.
         23    2    1    2    0    0  0.31355946440E+03  0.99383602079E+02 -0.42479502589E+03  0.54301557234E+03  0.78857210883E+02 0.  0.
        254    2    1    2    0    0 -0.31355946440E+03 -0.99383602079E+02 -0.12783140421E+04  0.15953858994E+04  0.89608746206E+03 0.  0.
         24    2    4    4    0    0 -0.26383448400E+03  0.10237928136E+03 -0.56421865925E+03  0.63667793247E+03  0.83222244936E+02 0.  0.
         13    1    3    3    0    0  0.24661435264E+03  0.71592971009E+02 -0.37715037056E+03  0.45627469187E+03  0.00000000000E+00 0.  1.
        -13    1    3    3    0    0  0.66945111758E+02  0.27790631070E+02 -0.47644655328E+02  0.86740880471E+02  0.00000000000E+00 0. -1.
          2    1    5    5  502    0 -0.11078221734E+03  0.46329758041E+02 -0.33132737739E+03  0.35241591503E+03  0.00000000000E+00 0. -1.
          1    1    4    4  503    0 -0.69322170421E+02  0.20986165851E+03 -0.18607798866E+03  0.28891607239E+03  0.00000000000E+00 0. -1.
         -2    1    4    4    0  503  0.19597190027E+02 -0.41162454195E+03 -0.52801739419E+03  0.66979189452E+03  0.00000000000E+00 0.  1.
         -1    1    5    5    0  502 -0.15305226666E+03  0.56049523323E+02 -0.23289128186E+03  0.28426201744E+03  0.00000000000E+00 0.  1.
<mgrwt>
<rscale>  0 0.12931281E+04</rscale>
<asrwt>0</asrwt>
<pdfrwt beam="1">  1        2 0.29550081E+00 0.12931281E+04</pdfrwt>
<pdfrwt beam="2">  1       -2 0.33484031E-01 0.12931281E+04</pdfrwt>
<totfact> 0.60483150E+01</totfact>
</mgrwt>
</event>
<event>
12    1  0.2045212E-008  0.1669635E+04  0.7818608E-02  0.8778875E-01
          2   -1    0    0  501    0  0.00000000000E+00  0.00000000000E+00  0.27535052338E+04  0.27535052338E+04  0.00000000000E+00 0. -1.
         -2   -1    0    0    0  501 -0.00000000000E+00 -0.00000000000E+00 -0.25310297861E+03  0.25310297861E+03  0.00000000000E+00 0.  1.
         23    2    1    2    0    0 -0.29469121402E+03  0.37449679128E+03  0.26717164172E+03  0.55395564072E+03  0.91626456073E+02 0.  0.
        254    2    1    2    0    0  0.29469121402E+03 -0.37449679128E+03  0.22332306135E+04  0.24526525717E+04  0.89503905287E+03 0.  0.
        -24    2    4    4    0    0  0.14973490563E+03 -0.66208460907E+03  0.14630379961E+04  0.16141046348E+04  0.63851568365E+02 0.  0.
         24    2    4    4    0    0  0.14495630839E+03  0.28758781779E+03  0.77019261745E+03  0.83854793687E+03  0.79037270871E+02 0.  0.
         13    1    3    3    0    0 -0.17672099659E+03  0.19675748535E+03  0.19560139350E+03  0.32894334438E+03  0.00000000000E+00 0.  1.
        -13    1    3    3    0    0 -0.11797021743E+03  0.17773930593E+03  0.71570248219E+02  0.22501229634E+03  0.00000000000E+00 0. -1.
          2    1    6    6  502    0  0.31561166165E+02  0.14529661856E+03  0.31457067201E+03  0.34793953823E+03  0.00000000000E+00 0. -1.
          1    1    5    5  503    0  0.72387370324E+02 -0.21585756470E+03  0.44424309010E+03  0.49918567960E+03  0.00000000000E+00 0. -1.
         -2    1    5    5    0  503  0.77347535305E+02 -0.44622704437E+03  0.10187949060E+04  0.11149189552E+04  0.00000000000E+00 0.  1.
         -1    1    6    6    0  502  0.11339514222E+03  0.14229119922E+03  0.45562194544E+03  0.49060839864E+03  0.00000000000E+00 0.  1.
<mgrwt>
<rscale>  0 0.16696351E+04</rscale>
<asrwt>0</asrwt>
<pdfrwt beam="1">  1        2 0.42361617E+00 0.16696351E+04</pdfrwt>
<pdfrwt beam="2">  1       -2 0.38938922E-01 0.16696351E+04</pdfrwt>
<totfact> 0.14714210E+01</totfact>
</mgrwt>
</event>
<event>
12    1  0.2623944E-008  0.1290738E+04  0.7818608E-02  0.9036943E-01
         -2   -1    0    0    0  501 -0.00000000000E+00  0.00000000000E+00  0.30147594006E+03  0.30147594006E+03  0.00000000000E+00 0. -1.
          2   -1    0    0  501    0  0.00000000000E+00 -0.00000000000E+00 -0.13815395306E+04  0.13815395306E+04  0.00000000000E+00 0.  1.
         23    2    1    2    0    0  0.18428884140E+03  0.18422463668E+03 -0.28450406657E+02  0.27741882501E+03  0.90833281383E+02 0.  0.
        254    2    1    2    0    0 -0.18428884140E+03 -0.18422463668E+03 -0.10516131839E+04  0.14055966456E+04  0.89549458286E+03 0.  0.
        -24    2    4    4    0    0 -0.32713581453E+03  0.27959194331E+03 -0.51154066378E+03  0.67515714291E+03  0.94730253880E+02 0.  0.
         24    2    4    4    0    0  0.14284697313E+03 -0.46381658000E+03 -0.54007252010E+03  0.73043950274E+03  0.79576771698E+02 0.  0.
         13    1    3    3    0    0 -0.30850263582E+01 -0.67721984444E+01 -0.47096685570E+01  0.88068744352E+01  0.00000000000E+00 0.  1.
        -13    1    3    3    0    0  0.18737386776E+03  0.19099683513E+03 -0.23740738100E+02  0.26861195058E+03  0.00000000000E+00 0. -1.
          4    1    6    6  502    0  0.53413743113E+02 -0.10062080608E+03 -0.89700433038E+02  0.14499566289E+03  0.00000000000E+00 0. -1.
          1    1    5    5  503    0 -0.36644748040E+02  0.49082546248E+02 -0.12665226066E+03  0.14068663417E+03  0.00000000000E+00 0. -1.
         -2    1    5    5    0  503 -0.29049106649E+03  0.23050939706E+03 -0.38488840312E+03  0.53447050873E+03  0.00000000000E+00 0.  1.
         -3    1    6    6    0  502  0.89433230014E+02 -0.36319577391E+03 -0.45037208706E+03  0.58544383985E+03  0.00000000000E+00 0.  1.
<mgrwt>
<rscale>  0 0.12907377E+04</rscale>
<asrwt>0</asrwt>
<pdfrwt beam="1">  1        2 0.21254454E+00 0.12907377E+04</pdfrwt>
<pdfrwt beam="2">  1       -2 0.46380914E-01 0.12907377E+04</pdfrwt>
<totfact> 0.64073363E+01</totfact>
</mgrwt>
</event>
<event>
11    1  0.2045212E-008  0.2046692E+04  0.7818608E-02  0.8585097E-01
         -2   -1    0    0    0  501 -0.00000000000E+00  0.00000000000E+00  0.38850542577E+03  0.38850542577E+03  0.00000000000E+00 0.  1.
          2   -1    0    0  501    0  0.00000000000E+00 -0.00000000000E+00 -0.26955530486E+04  0.26955530486E+04  0.00000000000E+00 0. -1.
         23    2    1    2    0    0  0.48652823740E+03 -0.34148132255E+03 -0.18502187220E+04  0.19455070782E+04  0.91483619582E+02 0.  0.
        254    2    1    2    0    0 -0.48652823740E+03  0.34148132255E+03 -0.45682890076E+03  0.11385513961E+04  0.85690572266E+03 0.  0.
         24    2    4    4    0    0 -0.14855385720E+03  0.12912158547E+03 -0.42967566546E+03  0.47937890651E+03  0.80264102791E+02 0.  0.
         13    1    3    3    0    0 -0.25984730964E+01 -0.53410832252E+01 -0.41063483269E+02  0.41490828995E+02  0.00000000000E+00 0.  1.
        -13    1    3    3    0    0  0.48912671050E+03 -0.33614023932E+03 -0.18091552388E+04  0.19040162492E+04  0.00000000000E+00 0. -1.
          2    1    5    5  502    0 -0.13333887903E+03  0.10709167583E+03 -0.28602002301E+03  0.33324966205E+03  0.00000000000E+00 0. -1.
          3    1    4    4  503    0 -0.21521647459E+03  0.17563811539E+03  0.23727818347E+03  0.36533247168E+03  0.00000000000E+00 0. -1.
         -2    1    4    4    0  503 -0.12275790561E+03  0.36721621695E+02 -0.26443141877E+03  0.29384001790E+03  0.00000000000E+00 0.  1.
         -1    1    5    5    0  502 -0.15214978172E+02  0.22029909632E+02 -0.14365564245E+03  0.14612924446E+03  0.00000000000E+00 0.  1.
<mgrwt>
<rscale>  0 0.20466920E+04</rscale>
<asrwt>0</asrwt>
<pdfrwt beam="1">  1        2 0.41470047E+00 0.20466920E+04</pdfrwt>
<pdfrwt beam="2">  1       -2 0.59770065E-01 0.20466920E+04</pdfrwt>
<totfact> 0.64629166E+00</totfact>
</mgrwt>
</event>
<event>
12    1  0.2045212E-008  0.1585156E+04  0.7818608E-02  0.8829719E-01
         -1   -1    0    0    0  501 -0.00000000000E+00  0.00000000000E+00  0.11741538153E+04  0.11741538153E+04  0.00000000000E+00 0.  1.
          1   -1    0    0  501    0  0.00000000000E+00 -0.00000000000E+00 -0.53500654299E+03  0.53500654299E+03  0.00000000000E+00 0. -1.
         23    2    1    2    0    0  0.30863566427E+03 -0.24644482587E+03  0.60657772610E+03  0.72930149445E+03  0.89180191497E+02 0.  0.
        254    2    1    2    0    0 -0.30863566427E+03  0.24644482587E+03  0.32569546187E+02  0.97985886381E+03  0.89614261822E+03 0.  0.
        -24    2    4    4    0    0 -0.37813933437E+03  0.56450018843E+02 -0.35832365496E+03  0.53249058595E+03  0.94733423833E+02 0.  0.
         24    2    4    4    0    0  0.69503670098E+02  0.18999480703E+03  0.39089320115E+03  0.44736827786E+03  0.80075554806E+02 0.  0.
         11    1    3    3    0    0  0.28042228244E+03 -0.21137273193E+03  0.47839090497E+03  0.59344161149E+03  0.00000000000E+00 0.  1.
        -11    1    3    3    0    0  0.28213381835E+02 -0.35072093946E+02  0.12818682113E+03  0.13585988297E+03  0.00000000000E+00 0. -1.
          2    1    6    6  502    0  0.26677560452E+02  0.73437358135E+02  0.76532740149E+02  0.10937091988E+03  0.00000000000E+00 0. -1.
          1    1    5    5  503    0 -0.91513457869E+02 -0.24650492468E+02 -0.69002601181E+02  0.11723360747E+03  0.00000000000E+00 0. -1.
         -2    1    5    5    0  503 -0.28662587650E+03  0.81100511311E+02 -0.28932105378E+03  0.41525697848E+03  0.00000000000E+00 0.  1.
         -1    1    6    6    0  502  0.42826109646E+02  0.11655744890E+03  0.31436046100E+03  0.33799735798E+03  0.00000000000E+00 0.  1.
<mgrwt>
<rscale>  0 0.15851561E+04</rscale>
<asrwt>0</asrwt>
<pdfrwt beam="1">  1        1 0.82308699E-01 0.15851561E+04</pdfrwt>
<pdfrwt beam="2">  1       -1 0.18063905E+00 0.15851561E+04</pdfrwt>
<totfact> 0.79777953E+00</totfact>
</mgrwt>
</event>
<event>
11    1  0.2045212E-008  0.2160513E+04  0.7818608E-02  0.8535045E-01
          1   -1    0    0  501    0  0.00000000000E+00  0.00000000000E+00  0.27530163948E+04  0.27530163948E+04  0.00000000000E+00 0. -1.
         -1   -1    0    0    0  501 -0.00000000000E+00 -0.00000000000E+00 -0.42388218895E+03  0.42388218895E+03  0.00000000000E+00 0.  1.
         23    2    1    2    0    0 -0.35238398569E+02 -0.36368316274E+03 -0.22929577188E+03  0.44101544046E+03  0.91710850652E+02 0.  0.
        254    2    1    2    0    0  0.35238398569E+02  0.36368316274E+03  0.25584299777E+04  0.27358831433E+04  0.89776691585E+03 0.  0.
         24    2    4    4    0    0  0.15456824641E+03  0.54675026983E+03  0.19719450780E+04  0.20536639532E+04  0.78364799681E+02 0.  0.
         11    1    3    3    0    0  0.20123598262E+02 -0.17296390042E+03 -0.13925319218E+03  0.22296394683E+03  0.00000000000E+00 0. -1.
        -11    1    3    3    0    0 -0.55361996831E+02 -0.19071926232E+03 -0.90042579695E+02  0.21805149362E+03  0.00000000000E+00 0.  1.
          2    1    5    5  502    0  0.12501343909E+03  0.48913142579E+03  0.18144293312E+04  0.18833565010E+04  0.00000000000E+00 0. -1.
          3    1    4    4  503    0 -0.15384545548E+03 -0.23742869471E+03  0.45443862268E+03  0.53530857552E+03  0.00000000000E+00 0. -1.
         -4    1    4    4    0  503  0.34515607637E+02  0.54361587619E+02  0.13204627707E+03  0.14691061455E+03  0.00000000000E+00 0.  1.
         -1    1    5    5    0  502  0.29554807317E+02  0.57618844039E+02  0.15751574675E+03  0.17030745227E+03  0.00000000000E+00 0.  1.
<mgrwt>
<rscale>  0 0.21605135E+04</rscale>
<asrwt>0</asrwt>
<pdfrwt beam="1">  1        1 0.42354097E+00 0.21605135E+04</pdfrwt>
<pdfrwt beam="2">  1       -1 0.65212646E-01 0.21605135E+04</pdfrwt>
<totfact> 0.19640612E+00</totfact>
</mgrwt>
</event>
<event>
12    1  0.2045212E-008  0.3312749E+04  0.7818608E-02  0.8159659E-01
          3   -1    0    0  501    0  0.00000000000E+00  0.00000000000E+00  0.18222456427E+04  0.18222456427E+04  0.00000000000E+00 0. -1.
         -3   -1    0    0    0  501 -0.00000000000E+00 -0.00000000000E+00 -0.15056018386E+04  0.15056018386E+04  0.00000000000E+00 0.  1.
         23    2    1    2    0    0 -0.92406168070E+03 -0.55867256258E+03 -0.94114739148E+03  0.14353888719E+04  0.92616300536E+02 0.  0.
        254    2    1    2    0    0  0.92406168070E+03  0.55867256258E+03  0.12577911956E+04  0.18924586095E+04  0.91288327564E+03 0.  0.
        -24    2    4    4    0    0  0.30160281067E+03  0.70244077442E+03  0.70167066853E+03  0.10416658487E+04  0.91316571545E+02 0.  0.
         24    2    4    4    0    0  0.62245887003E+03 -0.14376821184E+03  0.55612052706E+03  0.85079276080E+03  0.80336402675E+02 0.  0.
         13    1    3    3    0    0 -0.18399968582E+02  0.20636670786E+01 -0.18216995049E+02  0.25974535111E+02  0.00000000000E+00 0. -1.
        -13    1    3    3    0    0 -0.90566171212E+03 -0.56073622966E+03 -0.92293039643E+03  0.14094143368E+04  0.00000000000E+00 0.  1.
          2    1    6    6  502    0  0.27551109142E+02 -0.19136062997E+01  0.49252696592E+02  0.56467279247E+02  0.00000000000E+00 0. -1.
          3    1    5    5  503    0  0.11557088183E+03  0.32548422635E+03  0.26322516155E+03  0.43426270390E+03  0.00000000000E+00 0. -1.
         -4    1    5    5    0  503  0.18603192884E+03  0.37695654807E+03  0.43844550698E+03  0.60740314477E+03  0.00000000000E+00 0.  1.
         -1    1    6    6    0  502  0.59490776089E+03 -0.14185460554E+03  0.50686783047E+03  0.79432548155E+03  0.00000000000E+00 0.  1.
<mgrwt>
<rscale>  0 0.33127489E+04</rscale>
<asrwt>0</asrwt>
<pdfrwt beam="1">  1        3 0.28034548E+00 0.33127489E+04</pdfrwt>
<pdfrwt beam="2">  1       -3 0.23163105E+00 0.33127489E+04</pdfrwt>
<totfact> 0.10061275E-02</totfact>
</mgrwt>
</event>
<event>
12    1  0.2045212E-008  0.2814214E+04  0.7818608E-02  0.8298869E-01
         -1   -1    0    0    0  501 -0.00000000000E+00  0.00000000000E+00  0.11268827559E+04  0.11268827559E+04  0.00000000000E+00 0.  1.
          1   -1    0    0  501    0  0.00000000000E+00 -0.00000000000E+00 -0.17570148153E+04  0.17570148153E+04  0.00000000000E+00 0. -1.
         23    2    1    2    0    0  0.11784772713E+04  0.31982200408E+03  0.51538249524E+02  0.12255611789E+04  0.90825209831E+02 0.  0.
        254    2    1    2    0    0 -0.11784772713E+04 -0.31982200408E+03 -0.68167030897E+03  0.16583363923E+04  0.89124092520E+03 0.  0.
        -24    2    4    4    0    0 -0.12218611459E+04 -0.31558399135E+03 -0.34781345360E+03  0.13127272201E+04  0.98694682844E+02 0.  0.
         24    2    4    4    0    0  0.43383874661E+02 -0.42380127300E+01 -0.33385685537E+03  0.34560917219E+03  0.78007555345E+02 0.  0.
         11    1    3    3    0    0  0.62839240539E+02  0.21393081277E+02  0.23305814464E+02  0.70353358597E+02  0.00000000000E+00 0. -1.
        -11    1    3    3    0    0  0.11156380307E+04  0.29842892280E+03  0.28232435059E+02  0.11552078203E+04  0.00000000000E+00 0.  1.
          2    1    6    6  502    0  0.32704181772E+02  0.10114428583E+02 -0.46738632187E+02  0.57934142867E+02  0.00000000000E+00 0. -1.
          3    1    5    5  503    0 -0.11907982333E+03 -0.37385261557E+02 -0.65177027762E+02  0.14080378921E+03  0.00000000000E+00 0. -1.
         -4    1    5    5    0  503 -0.11027813226E+04 -0.27819872979E+03 -0.28263642584E+03  0.11719234309E+04  0.00000000000E+00 0.  1.
         -1    1    6    6    0  502  0.10679692889E+02 -0.14352441313E+02 -0.28711822318E+03  0.28767502932E+03  0.00000000000E+00 0.  1.
<mgrwt>
<rscale>  0 0.28142137E+04</rscale>
<asrwt>0</asrwt>
<pdfrwt beam="1">  1        1 0.27030997E+00 0.28142137E+04</pdfrwt>
<pdfrwt beam="2">  1       -1 0.17336658E+00 0.28142137E+04</pdfrwt>
<totfact> 0.87604282E-01</totfact>
</mgrwt>
</event>
<event>
12    1  0.2045212E-008  0.1705219E+04  0.7818608E-02  0.8758393E-01
          2   -1    0    0  501    0  0.00000000000E+00  0.00000000000E+00  0.25009514769E+04  0.25009514769E+04  0.00000000000E+00 0. -1.
         -2   -1    0    0    0  501 -0.00000000000E+00 -0.00000000000E+00 -0.29066658007E+03  0.29066658007E+03  0.00000000000E+00 0.  1.
         23    2    1    2    0    0  0.21396003868E+03  0.28723381538E+03  0.16445259052E+04  0.16855389671E+04  0.91071367266E+02 0.  0.
        254    2    1    2    0    0 -0.21396003868E+03 -0.28723381538E+03  0.56575899170E+03  0.11060790899E+04  0.88036671543E+03 0.  0.
        -24    2    4    4    0    0 -0.17985348584E+02 -0.57120752779E+03  0.45936919615E+03  0.73587922821E+03  0.62423293500E+02 0.  0.
         24    2    4    4    0    0 -0.19597469010E+03  0.28397371241E+03  0.10638979555E+03  0.37019986172E+03  0.81743504420E+02 0.  0.
         13    1    3    3    0    0  0.19844671358E+02  0.10969595802E+01  0.47125516552E+02  0.51145171932E+02  0.00000000000E+00 0.  1.
        -13    1    3    3    0    0  0.19411536732E+03  0.28613685580E+03  0.15974003886E+04  0.16343937951E+04  0.00000000000E+00 0. -1.
          4    1    6    6  502    0 -0.18735879349E+03  0.28708884517E+03  0.95302863761E+02  0.35581731037E+03  0.00000000000E+00 0. -1.
          1    1    5    5  503    0 -0.12006946569E+02 -0.50671303867E+03  0.43033348960E+03  0.66489787381E+03  0.00000000000E+00 0. -1.
         -2    1    5    5    0  503 -0.59784020151E+01 -0.64494489121E+02  0.29035706543E+02  0.70981354397E+02  0.00000000000E+00 0.  1.
         -3    1    6    6    0  502 -0.86158966123E+01 -0.31151327597E+01  0.11086931794E+02  0.14382551343E+02  0.00000000000E+00 0.  1.
<mgrwt>
<rscale>  0 0.17052191E+04</rscale>
<asrwt>0</asrwt>
<pdfrwt beam="1">  1        2 0.38476175E+00 0.17052191E+04</pdfrwt>
<pdfrwt beam="2">  1       -2 0.44717937E-01 0.17052191E+04</pdfrwt>
<totfact> 0.15708302E+01</totfact>
</mgrwt>
</event>
<event>
12    1  0.2045212E-008  0.1408653E+04  0.7818608E-02  0.8947579E-01
         -1   -1    0    0    0  501 -0.00000000000E+00  0.00000000000E+00  0.65216329362E+03  0.65216329362E+03  0.00000000000E+00 0.  1.
          1   -1    0    0  501    0  0.00000000000E+00 -0.00000000000E+00 -0.76066172726E+03  0.76066172726E+03  0.00000000000E+00 0. -1.
         23    2    1    2    0    0  0.92683808522E+02  0.93056957547E+02  0.34213886593E+03  0.37762680407E+03  0.91066535354E+02 0.  0.
        254    2    1    2    0    0 -0.92683808522E+02 -0.93056957547E+02 -0.45063729957E+03  0.10351982168E+04  0.92266542505E+03 0.  0.
        -24    2    4    4    0    0  0.19014319406E+03  0.90248440449E+01 -0.64002777358E+03  0.67101881352E+03  0.66293401494E+02 0.  0.
         24    2    4    4    0    0 -0.28282700258E+03 -0.10208180159E+03  0.18939047401E+03  0.36417940328E+03  0.79662277908E+02 0.  0.
         13    1    3    3    0    0  0.63980592929E+02  0.30572158535E+01  0.16239582254E+03  0.17457166443E+03  0.00000000000E+00 0.  1.
        -13    1    3    3    0    0  0.28703215594E+02  0.89999741694E+02  0.17974304339E+03  0.20305513965E+03  0.00000000000E+00 0. -1.
          2    1    6    6  502    0 -0.27312812328E+03 -0.10365249930E+03  0.15976671873E+03  0.33296879246E+03  0.00000000000E+00 0. -1.
          3    1    5    5  503    0  0.19337589469E+03  0.64058755842E+01 -0.63735076274E+03  0.66607151767E+03  0.00000000000E+00 0. -1.
         -4    1    5    5    0  503 -0.32327006286E+01  0.26189684607E+01 -0.26770108445E+01  0.49472958486E+01  0.00000000000E+00 0.  1.
         -1    1    6    6    0  502 -0.96988793032E+01  0.15706977043E+01  0.29623755282E+02  0.31210610824E+02  0.00000000000E+00 0.  1.
<mgrwt>
<rscale>  0 0.14086528E+04</rscale>
<asrwt>0</asrwt>
<pdfrwt beam="1">  1        1 0.11702488E+00 0.14086528E+04</pdfrwt>
<pdfrwt beam="2">  1       -1 0.10033281E+00 0.14086528E+04</pdfrwt>
<totfact> 0.22089165E+01</totfact>
</mgrwt>
</event>
<event>
11    1  0.2045212E-008  0.1621548E+04  0.7818608E-02  0.8807418E-01
          2   -1    0    0  501    0  0.00000000000E+00  0.00000000000E+00  0.92387684471E+03  0.92387684471E+03  0.00000000000E+00 0. -1.
         -2   -1    0    0    0  501 -0.00000000000E+00 -0.00000000000E+00 -0.71151756959E+03  0.71151756959E+03  0.00000000000E+00 0.  1.
         23    2    1    2    0    0  0.12674617236E+03 -0.50546650568E+03  0.27611113556E+03  0.59723641965E+03  0.94302710477E+02 0.  0.
        254    2    1    2    0    0 -0.12674617236E+03  0.50546650568E+03 -0.63751860439E+02  0.10381579947E+04  0.89562645204E+03 0.  0.
         24    2    4    4    0    0 -0.41336987629E+01 -0.37589225345E+02 -0.37787070449E+03  0.38802298827E+03  0.79658852557E+02 0.  0.
         13    1    3    3    0    0  0.38321356425E+02 -0.13654544950E+03  0.29796460296E+02  0.14491727014E+03  0.00000000000E+00 0.  1.
        -13    1    3    3    0    0  0.88424815931E+02 -0.36892105618E+03  0.24631467526E+03  0.45231914951E+03  0.00000000000E+00 0. -1.
          2    1    5    5  502    0 -0.35504873774E+02 -0.41542817919E+02 -0.19842055602E+03  0.20580845180E+03  0.00000000000E+00 0. -1.
          1    1    4    4  503    0  0.22279604793E+01  0.14254128529E+03  0.12642404588E+03  0.19054138972E+03  0.00000000000E+00 0. -1.
         -2    1    4    4    0  503 -0.12484043407E+03  0.40051444574E+03  0.18769479817E+03  0.45959361667E+03  0.00000000000E+00 0.  1.
         -1    1    5    5    0  502  0.31371175011E+02  0.39535925743E+01 -0.17945014847E+03  0.18221453647E+03  0.00000000000E+00 0.  1.
<mgrwt>
<rscale>  0 0.16215482E+04</rscale>
<asrwt>0</asrwt>
<pdfrwt beam="1">  1        2 0.14213490E+00 0.16215482E+04</pdfrwt>
<pdfrwt beam="2">  1       -2 0.10946424E+00 0.16215482E+04</pdfrwt>
<totfact> 0.17986790E+01</totfact>
</mgrwt>
</event>
<event>
12    1  0.2045212E-008  0.2494086E+04  0.7818608E-02  0.8405095E-01
         -1   -1    0    0    0  501 -0.00000000000E+00  0.00000000000E+00  0.11990427958E+04  0.11990427958E+04  0.00000000000E+00 0.  1.
          1   -1    0    0  501    0  0.00000000000E+00 -0.00000000000E+00 -0.12969646543E+04  0.12969646543E+04  0.00000000000E+00 0. -1.
         23    2    1    2    0    0 -0.40839584766E+03  0.94536903127E+03  0.29514182984E+03  0.10755038518E+04  0.95341815474E+02 0.  0.
        254    2    1    2    0    0  0.40839584766E+03 -0.94536903127E+03 -0.39306368833E+03  0.14205035983E+04  0.89600314513E+03 0.  0.
        -24    2    4    4    0    0  0.53571976118E+03 -0.31684805855E+03  0.58780850074E+02  0.63188606401E+03  0.91850176021E+02 0.  0.
         24    2    4    4    0    0 -0.12732391351E+03 -0.62852097272E+03 -0.45184453840E+03  0.78861753430E+03  0.80648226438E+02 0.  0.
         11    1    3    3    0    0 -0.37558831072E+03  0.87138934135E+03  0.24394837174E+03  0.97974321710E+03  0.00000000000E+00 0. -1.
        -11    1    3    3    0    0 -0.32807536941E+02  0.73979689913E+02  0.51193458102E+02  0.95760634669E+02  0.00000000000E+00 0.  1.
          2    1    6    6  502    0 -0.49318610677E+02 -0.26323371582E+03 -0.14095742017E+03  0.30264386465E+03  0.00000000000E+00 0. -1.
          1    1    5    5  503    0  0.28479180445E+03 -0.12674047695E+03  0.46975783874E+00  0.31172061377E+03  0.00000000000E+00 0. -1.
         -2    1    5    5    0  503  0.25092795673E+03 -0.19010758160E+03  0.58311092235E+02  0.32016545024E+03  0.00000000000E+00 0.  1.
         -1    1    6    6    0  502 -0.78005302836E+02 -0.36528725690E+03 -0.31088711823E+03  0.48597366966E+03  0.00000000000E+00 0.  1.
<mgrwt>
<rscale>  0 0.24940859E+04</rscale>
<asrwt>0</asrwt>
<pdfrwt beam="1">  1        1 0.19953302E+00 0.24940859E+04</pdfrwt>
<pdfrwt beam="2">  1       -1 0.18446812E+00 0.24940859E+04</pdfrwt>
<totfact> 0.15624558E+00</totfact>
</mgrwt>
</event>
<event>
12    1  0.2045212E-008  0.1420155E+04  0.7818608E-02  0.8939358E-01
         -1   -1    0    0    0  501 -0.00000000000E+00  0.00000000000E+00  0.10400586817E+04  0.10400586817E+04  0.00000000000E+00 0.  1.
          1   -1    0    0  501    0  0.00000000000E+00 -0.00000000000E+00 -0.48478967308E+03  0.48478967308E+03  0.00000000000E+00 0. -1.
         23    2    1    2    0    0 -0.10617058318E+02  0.15614796372E+03 -0.24928029288E+03  0.30733890084E+03  0.88439962946E+02 0.  0.
        254    2    1    2    0    0  0.10617058318E+02 -0.15614796372E+03  0.80454930154E+03  0.12175094540E+04  0.90029705288E+03 0.  0.
        -24    2    4    4    0    0  0.20634851611E+03 -0.47736958929E+03  0.52990133686E+03  0.74504719570E+03  0.61955323707E+02 0.  0.
         24    2    4    4    0    0 -0.19573145779E+03  0.32122162557E+03  0.27464796468E+03  0.47246225828E+03  0.79340687528E+02 0.  0.
         11    1    3    3    0    0  0.21702538405E+02  0.53589258324E+01 -0.54463436680E+02  0.58872609882E+02  0.00000000000E+00 0.  1.
        -11    1    3    3    0    0 -0.32319596723E+02  0.15078903789E+03 -0.19481685620E+03  0.24846629096E+03  0.00000000000E+00 0. -1.
          2    1    6    6  502    0 -0.38174118778E+02  0.13600407857E+03  0.10231626186E+03  0.17442187412E+03  0.00000000000E+00 0. -1.
          3    1    5    5  503    0  0.67158296869E+02 -0.19062058405E+03  0.24433910202E+03  0.31709311042E+03  0.00000000000E+00 0. -1.
         -4    1    5    5    0  503  0.13919021924E+03 -0.28674900524E+03  0.28556223483E+03  0.42795408527E+03  0.00000000000E+00 0.  1.
         -1    1    6    6    0  502 -0.15755733901E+03  0.18521754700E+03  0.17233170283E+03  0.29804038416E+03  0.00000000000E+00 0.  1.
<mgrwt>
<rscale>  0 0.14201545E+04</rscale>
<asrwt>0</asrwt>
<pdfrwt beam="1">  1        1 0.74583027E-01 0.14201545E+04</pdfrwt>
<pdfrwt beam="2">  1       -1 0.16000903E+00 0.14201545E+04</pdfrwt>
<totfact> 0.13156492E+01</totfact>
</mgrwt>
</event>
<event>
12    1  0.2045212E-008  0.1423140E+04  0.7818608E-02  0.8937237E-01
          2   -1    0    0  501    0  0.00000000000E+00  0.00000000000E+00  0.91804718642E+03  0.91804718642E+03  0.00000000000E+00 0. -1.
         -2   -1    0    0    0  501 -0.00000000000E+00 -0.00000000000E+00 -0.55153111640E+03  0.55153111640E+03  0.00000000000E+00 0.  1.
         23    2    1    2    0    0  0.16319637647E+03 -0.38018113979E+03  0.33371899802E+02  0.42526246465E+03  0.92540390110E+02 0.  0.
        254    2    1    2    0    0 -0.16319637647E+03  0.38018113979E+03  0.33314417021E+03  0.10443158382E+04  0.89913279073E+03 0.  0.
        -24    2    4    4    0    0 -0.30184941682E+03  0.23579097295E+03  0.58817262454E+03  0.71047998028E+03  0.11011045708E+03 0.  0.
         24    2    4    4    0    0  0.13865304034E+03  0.14439016683E+03 -0.25502845433E+03  0.33383585789E+03  0.79584430768E+02 0.  0.
         11    1    3    3    0    0  0.11436695520E+03 -0.31689530429E+03  0.57486118108E+02  0.34177051965E+03  0.00000000000E+00 0.  1.
        -11    1    3    3    0    0  0.48829421275E+02 -0.63285835492E+02 -0.24114218306E+02  0.83491945003E+02  0.00000000000E+00 0. -1.
          2    1    6    6  502    0  0.14144030272E+03  0.10914185966E+03 -0.22601633046E+03  0.28809839708E+03  0.00000000000E+00 0. -1.
          3    1    5    5  503    0 -0.28614224662E+03  0.23826989763E+03  0.58618948875E+03  0.69445521536E+03  0.00000000000E+00 0. -1.
         -4    1    5    5    0  503 -0.15707170198E+02 -0.24789246750E+01  0.19831357880E+01  0.16024764919E+02  0.00000000000E+00 0.  1.
         -1    1    6    6    0  502 -0.27872623803E+01  0.35248307169E+02 -0.29012123866E+02  0.45737460807E+02  0.00000000000E+00 0.  1.
<mgrwt>
<rscale>  0 0.14231396E+04</rscale>
<asrwt>0</asrwt>
<pdfrwt beam="1">  1        2 0.14123803E+00 0.14231396E+04</pdfrwt>
<pdfrwt beam="2">  1       -2 0.84850941E-01 0.14231396E+04</pdfrwt>
<totfact> 0.33524661E+01</totfact>
</mgrwt>
</event>
<event>
11    1  0.2045212E-008  0.1678833E+04  0.7818608E-02  0.8773530E-01
          1   -1    0    0  501    0  0.00000000000E+00  0.00000000000E+00  0.89237292369E+03  0.89237292369E+03  0.00000000000E+00 0. -1.
         -1   -1    0    0    0  501 -0.00000000000E+00 -0.00000000000E+00 -0.78960277155E+03  0.78960277155E+03  0.00000000000E+00 0.  1.
         23    2    1    2    0    0 -0.11241039803E+03 -0.30535221902E+03 -0.46290130688E+03  0.57297681820E+03  0.90270366318E+02 0.  0.
        254    2    1    2    0    0  0.11241039803E+03  0.30535221902E+03  0.56567145903E+03  0.11089988770E+04  0.89667063878E+03 0.  0.
         24    2    4    4    0    0 -0.10408017209E+03  0.29557031423E+03  0.71494685324E+03  0.78457009146E+03  0.78782819051E+02 0.  0.
         13    1    3    3    0    0 -0.11188458947E+03 -0.31176511792E+03 -0.45354267749E+03  0.56161963144E+03  0.00000000000E+00 0.  1.
        -13    1    3    3    0    0 -0.52580856347E+00  0.64128989035E+01 -0.93586293942E+01  0.11357186761E+02  0.00000000000E+00 0. -1.
          2    1    5    5  502    0 -0.96154656648E+02  0.18019369238E+03  0.40139054927E+03  0.45036635955E+03  0.00000000000E+00 0. -1.
          3    1    4    4  503    0  0.22603566344E+03  0.12349350032E+02 -0.59433512949E+02  0.23404480352E+03  0.00000000000E+00 0. -1.
         -4    1    4    4    0  503 -0.95450933167E+01 -0.25674452469E+01 -0.89841881264E+02  0.90383982047E+02  0.00000000000E+00 0.  1.
         -1    1    5    5    0  502 -0.79255154450E+01  0.11537662185E+03  0.31355630397E+03  0.33420373191E+03  0.00000000000E+00 0.  1.
<mgrwt>
<rscale>  0 0.16788331E+04</rscale>
<asrwt>0</asrwt>
<pdfrwt beam="1">  1        1 0.13728814E+00 0.16788331E+04</pdfrwt>
<pdfrwt beam="2">  1       -1 0.12147735E+00 0.16788331E+04</pdfrwt>
<totfact> 0.10574706E+01</totfact>
</mgrwt>
</event>
<event>
12    1  0.2045212E-008  0.1958935E+04  0.7818608E-02  0.8626064E-01
         -2   -1    0    0    0  501 -0.00000000000E+00  0.00000000000E+00  0.13307391822E+04  0.13307391822E+04  0.00000000000E+00 0.  1.
          2   -1    0    0  501    0  0.00000000000E+00 -0.00000000000E+00 -0.72092010262E+03  0.72092010262E+03  0.00000000000E+00 0. -1.
         23    2    1    2    0    0  0.31582658700E+03 -0.37669656223E+03 -0.37973322429E+03  0.62769990039E+03  0.90349932285E+02 0.  0.
        254    2    1    2    0    0 -0.31582658700E+03  0.37669656223E+03  0.98955230390E+03  0.14239593845E+04  0.89822037018E+03 0.  0.
        -24    2    4    4    0    0 -0.48826765969E+03  0.55573556588E+03  0.59898975260E+03  0.95413962261E+03  0.65926997781E+02 0.  0.
         24    2    4    4    0    0  0.17244107268E+03 -0.17903900364E+03  0.39056255129E+03  0.46981976186E+03  0.80003836055E+02 0.  0.
         13    1    3    3    0    0  0.71410451269E+02 -0.12206549484E+03 -0.15221125082E+03  0.20776838657E+03  0.00000000000E+00 0.  1.
        -13    1    3    3    0    0  0.24441613573E+03 -0.25463106739E+03 -0.22752197347E+03  0.41993151382E+03  0.00000000000E+00 0. -1.
          4    1    6    6  502    0  0.30907908003E+02 -0.14551191060E+02  0.17861412974E+02  0.38549526740E+02  0.00000000000E+00 0. -1.
          1    1    5    5  503    0 -0.34334835052E+02  0.21254387578E+02  0.21648019947E+02  0.45817754822E+02  0.00000000000E+00 0. -1.
         -2    1    5    5    0  503 -0.45393282464E+03  0.53448117830E+03  0.57734173265E+03  0.90832186779E+03  0.00000000000E+00 0.  1.
         -3    1    6    6    0  502  0.14153316468E+03 -0.16448781258E+03  0.37270113832E+03  0.43127023512E+03  0.00000000000E+00 0.  1.
<mgrwt>
<rscale>  0 0.19589350E+04</rscale>
<asrwt>0</asrwt>
<pdfrwt beam="1">  1        2 0.11091079E+00 0.19589350E+04</pdfrwt>
<pdfrwt beam="2">  1       -2 0.20472910E+00 0.19589350E+04</pdfrwt>
<totfact> 0.45534673E+00</totfact>
</mgrwt>
</event>
<event>
12    1  0.2045212E-008  0.1166698E+04  0.7818608E-02  0.9142516E-01
         -2   -1    0    0    0  501 -0.00000000000E+00  0.00000000000E+00  0.11054457920E+03  0.11054457920E+03  0.00000000000E+00 0.  1.
          2   -1    0    0  501    0  0.00000000000E+00 -0.00000000000E+00 -0.30783609353E+04  0.30783609353E+04  0.00000000000E+00 0. -1.
         23    2    1    2    0    0  0.16633429504E+03 -0.94387600095E+01 -0.28147960539E+03  0.33924271468E+03  0.89992573667E+02 0.  0.
        254    2    1    2    0    0 -0.16633429504E+03  0.94387600095E+01 -0.26863367507E+04  0.28496627998E+04  0.93617132330E+03 0.  0.
        -24    2    4    4    0    0  0.30491735976E+03  0.16200888959E+03 -0.17594315822E+04  0.17954284294E+04  0.93500138893E+02 0.  0.
         24    2    4    4    0    0 -0.47125165480E+03 -0.15257012958E+03 -0.92690516851E+03  0.10542343704E+04  0.83073159496E+02 0.  0.
         11    1    3    3    0    0  0.12198684709E+03  0.11507477324E+02 -0.12409247421E+03  0.17439081126E+03  0.00000000000E+00 0.  1.
        -11    1    3    3    0    0  0.44347447947E+02 -0.20946237333E+02 -0.15738713119E+03  0.16485190342E+03  0.00000000000E+00 0. -1.
          2    1    6    6  502    0  0.13879544989E+01  0.25285747095E+01 -0.80535144193E+00  0.29947785724E+01  0.00000000000E+00 0. -1.
          3    1    5    5  503    0 -0.49497214644E+01 -0.31368709369E+01 -0.47379176208E+02  0.47740193130E+02  0.00000000000E+00 0. -1.
         -2    1    5    5    0  503  0.30986708122E+03  0.16514576053E+03 -0.17120524060E+04  0.17476882362E+04  0.00000000000E+00 0.  1.
         -1    1    6    6    0  502 -0.47263960929E+03 -0.15509870429E+03 -0.92609981706E+03  0.10512395919E+04  0.00000000000E+00 0.  1.
<mgrwt>
<rscale>  0 0.11666981E+04</rscale>
<asrwt>0</asrwt>
<pdfrwt beam="1">  1        2 0.47359392E+00 0.11666981E+04</pdfrwt>
<pdfrwt beam="2">  1       -2 0.17006861E-01 0.11666981E+04</pdfrwt>
<totfact> 0.44299641E+01</totfact>
</mgrwt>
</event>
<event>
11    1  0.2045212E-008  0.1237577E+04  0.7818608E-02  0.9080587E-01
         -1   -1    0    0    0  501 -0.00000000000E+00  0.00000000000E+00  0.53324805327E+03  0.53324805327E+03  0.00000000000E+00 0.  1.
          1   -1    0    0  501    0  0.00000000000E+00 -0.00000000000E+00 -0.71805098500E+03  0.71805098500E+03  0.00000000000E+00 0. -1.
         23    2    1    2    0    0 -0.12330751426E+03 -0.24674294013E+03 -0.51616779232E+02  0.29488121331E+03  0.90574921967E+02 0.  0.
        254    2    1    2    0    0  0.12330751426E+03  0.24674294013E+03 -0.13318615250E+03  0.95641782496E+03  0.90604066306E+03 0.  0.
         24    2    4    4    0    0  0.30030647787E+02  0.30231438123E+03  0.33765045972E+03  0.46061508841E+03  0.76567629038E+02 0.  0.
         13    1    3    3    0    0 -0.95119432798E+02 -0.15484242343E+03  0.77682541416E+01  0.18189070444E+03  0.00000000000E+00 0.  1.
        -13    1    3    3    0    0 -0.28188081459E+02 -0.91900516705E+02 -0.59385033374E+02  0.11299050888E+03  0.00000000000E+00 0. -1.
          4    1    5    5  502    0  0.36679482149E+02  0.23490950544E+03  0.30109400126E+03  0.38364756972E+03  0.00000000000E+00 0. -1.
          1    1    4    4  503    0  0.57843327997E+02 -0.70287008783E+02 -0.43094712819E+03  0.44045606079E+03  0.00000000000E+00 0. -1.
         -2    1    4    4    0  503  0.35433538473E+02  0.14715567687E+02 -0.39889484033E+02  0.55346675759E+02  0.00000000000E+00 0.  1.
         -3    1    5    5    0  502 -0.66488343614E+01  0.67404875783E+02  0.36556458464E+02  0.76967518689E+02  0.00000000000E+00 0.  1.
<mgrwt>
<rscale>  0 0.12375771E+04</rscale>
<asrwt>0</asrwt>
<pdfrwt beam="1">  1        1 0.11046938E+00 0.12375771E+04</pdfrwt>
<pdfrwt beam="2">  1       -1 0.82038162E-01 0.12375771E+04</pdfrwt>
<totfact> 0.38247725E+01</totfact>
</mgrwt>
</event>
<event>
12    1  0.2045212E-008  0.1717130E+04  0.7818608E-02  0.8751655E-01
          1   -1    0    0  501    0  0.00000000000E+00  0.00000000000E+00  0.21170005603E+04  0.21170005603E+04  0.00000000000E+00 0.  1.
         -1   -1    0    0    0  501 -0.00000000000E+00 -0.00000000000E+00 -0.34819714514E+03  0.34819714514E+03  0.00000000000E+00 0. -1.
         23    2    1    2    0    0  0.11918335847E+02 -0.23461167997E+03  0.14401154259E+04  0.14618077048E+04  0.88117188874E+02 0.  0.
        254    2    1    2    0    0 -0.11918335847E+02  0.23461167997E+03  0.32868798927E+03  0.10033900006E+04  0.91846121958E+03 0.  0.
        -24    2    4    4    0    0 -0.25954989434E+03 -0.26275295116E+03  0.79526935732E+02  0.38935498302E+03  0.94167448189E+02 0.  0.
         24    2    4    4    0    0  0.24763155850E+03  0.49736463113E+03  0.24916105354E+03  0.61403501756E+03  0.79150534580E+02 0.  0.
         13    1    3    3    0    0  0.11112190566E+02 -0.11300598512E+02  0.28260411277E+02  0.32401159723E+02  0.00000000000E+00 0. -1.
        -13    1    3    3    0    0  0.80614528138E+00 -0.22331108146E+03  0.14118550146E+04  0.14294065451E+04  0.00000000000E+00 0.  1.
          4    1    6    6  502    0  0.67364538229E+02  0.12274330520E+03  0.10117992128E+03  0.17274627768E+03  0.00000000000E+00 0. -1.
          1    1    5    5  503    0 -0.25789753770E+03 -0.25567975346E+03  0.59433039686E+02  0.36798853581E+03  0.00000000000E+00 0. -1.
         -2    1    5    5    0  503 -0.16523566442E+01 -0.70731977065E+01  0.20093896046E+02  0.21366447215E+02  0.00000000000E+00 0.  1.
         -3    1    6    6    0  502  0.18026702027E+03  0.37462132593E+03  0.14798113226E+03  0.44128873988E+03  0.00000000000E+00 0.  1.
<mgrwt>
<rscale>  0 0.17171296E+04</rscale>
<asrwt>0</asrwt>
<pdfrwt beam="1">  1        1 0.32569238E+00 0.17171296E+04</pdfrwt>
<pdfrwt beam="2">  1       -1 0.53568793E-01 0.17171296E+04</pdfrwt>
<totfact> 0.82950446E+00</totfact>
</mgrwt>
</event>
<event>
11    1  0.2045212E-008  0.1411842E+04  0.7818608E-02  0.8945291E-01
         -1   -1    0    0    0  501 -0.00000000000E+00  0.00000000000E+00  0.59758072852E+03  0.59758072852E+03  0.00000000000E+00 0.  1.
          1   -1    0    0  501    0  0.00000000000E+00 -0.00000000000E+00 -0.83390279885E+03  0.83390279885E+03  0.00000000000E+00 0. -1.
         23    2    1    2    0    0  0.31689165808E+03  0.11316719823E+03 -0.31732264793E+03  0.47147699674E+03  0.91486380680E+02 0.  0.
        254    2    1    2    0    0 -0.31689165808E+03 -0.11316719823E+03  0.81000577601E+02  0.96000653063E+03  0.89544642920E+03 0.  0.
         24    2    4    4    0    0  0.22937292903E+03 -0.28000980980E+03  0.52425785888E+02  0.37473832406E+03  0.81626676635E+02 0.  0.
         11    1    3    3    0    0  0.31830151239E+03  0.12010706986E+03 -0.30334021550E+03  0.45580351838E+03  0.00000000000E+00 0. -1.
        -11    1    3    3    0    0 -0.14098543115E+01 -0.69398716348E+01 -0.13982432424E+02  0.15673478363E+02  0.00000000000E+00 0.  1.
          4    1    5    5  502    0  0.14294460914E+01  0.34881628433E+01 -0.52089393247E+01  0.64299024128E+01  0.00000000000E+00 0. -1.
          1    1    4    4  503    0  0.51100723140E+01  0.40881185357E+01  0.75479735684E+01  0.99898677271E+01  0.00000000000E+00 0. -1.
         -2    1    4    4    0  503 -0.55137465942E+03  0.16275449304E+03  0.21026818145E+02  0.57527833884E+03  0.00000000000E+00 0.  1.
         -3    1    5    5    0  502  0.22794348294E+03 -0.28349797265E+03  0.57634725213E+02  0.36830842165E+03  0.00000000000E+00 0.  1.
<mgrwt>
<rscale>  0 0.14118417E+04</rscale>
<asrwt>0</asrwt>
<pdfrwt beam="1">  1        1 0.12829274E+00 0.14118417E+04</pdfrwt>
<pdfrwt beam="2">  1       -1 0.91935497E-01 0.14118417E+04</pdfrwt>
<totfact> 0.23208986E+01</totfact>
</mgrwt>
</event>
<event>
12    1  0.2045212E-008  0.1658062E+04  0.7818608E-02  0.8785652E-01
          2   -1    0    0  501    0  0.00000000000E+00  0.00000000000E+00  0.66207157437E+03  0.66207157437E+03  0.00000000000E+00 0. -1.
         -2   -1    0    0    0  501 -0.00000000000E+00 -0.00000000000E+00 -0.10380932363E+04  0.10380932363E+04  0.00000000000E+00 0.  1.
         23    2    1    2    0    0 -0.31828976425E+03  0.23443635857E+03  0.31068865800E+03  0.50730076153E+03  0.67511778181E+02 0.  0.
        254    2    1    2    0    0  0.31828976425E+03 -0.23443635857E+03 -0.68671031997E+03  0.11928640492E+04  0.89167527500E+03 0.  0.
        -24    2    4    4    0    0  0.51938162783E+03 -0.29287684720E+02 -0.99321393279E+02  0.53409273709E+03  0.69103320069E+02 0.  0.
         24    2    4    4    0    0 -0.20109186358E+03 -0.20514867385E+03 -0.58738892669E+03  0.65877131210E+03  0.80187121533E+02 0.  0.
         11    1    3    3    0    0 -0.29495298646E+03  0.19451248631E+03  0.25989237613E+03  0.43860736283E+03  0.00000000000E+00 0. -1.
        -11    1    3    3    0    0 -0.23336777786E+02  0.39923872258E+02  0.50796281874E+02  0.68693398705E+02  0.00000000000E+00 0.  1.
          4    1    6    6  502    0 -0.16057544807E+03 -0.11047617712E+03 -0.36862161324E+03  0.41697884116E+03  0.00000000000E+00 0. -1.
          1    1    5    5  503    0  0.38436806192E+03 -0.20029889658E+02 -0.42183103102E+02  0.38719428933E+03  0.00000000000E+00 0. -1.
         -2    1    5    5    0  503  0.13501356592E+03 -0.92577950627E+01 -0.57138290177E+02  0.14689844776E+03  0.00000000000E+00 0.  1.
         -3    1    6    6    0  502 -0.40516415516E+02 -0.94672496734E+02 -0.21876731345E+03  0.24179247093E+03  0.00000000000E+00 0.  1.
<mgrwt>
<rscale>  0 0.16580615E+04</rscale>
<asrwt>0</asrwt>
<pdfrwt beam="1">  1        2 0.10185717E+00 0.16580615E+04</pdfrwt>
<pdfrwt beam="2">  1       -2 0.15970665E+00 0.16580615E+04</pdfrwt>
<totfact> 0.10613080E+01</totfact>
</mgrwt>
</event>
<event>
12    1  0.2045212E-008  0.1284124E+04  0.7818608E-02  0.9042250E-01
          2   -1    0    0  501    0  0.00000000000E+00  0.00000000000E+00  0.55003886981E+03  0.55003886981E+03  0.00000000000E+00 0. -1.
         -2   -1    0    0    0  501 -0.00000000000E+00 -0.00000000000E+00 -0.74948110420E+03  0.74948110420E+03  0.00000000000E+00 0.  1.
         23    2    1    2    0    0  0.24118335156E+03  0.71822180776E+02 -0.20817228035E+03  0.33996935463E+03  0.94422608842E+02 0.  0.
        254    2    1    2    0    0 -0.24118335156E+03 -0.71822180776E+02  0.87300459661E+01  0.95955061937E+03  0.92592296802E+03 0.  0.
        -24    2    4    4    0    0  0.17268023498E+03 -0.30664549666E+03  0.22698222767E+03  0.42985262303E+03  0.96966085172E+02 0.  0.
         24    2    4    4    0    0 -0.41386358654E+03  0.23482331589E+03 -0.21825218170E+03  0.52969799634E+03  0.80752056082E+02 0.  0.
         13    1    3    3    0    0  0.43176195456E+02  0.30016063501E+02 -0.43815445807E+01  0.52766901132E+02  0.00000000000E+00 0. -1.
        -13    1    3    3    0    0  0.19800715611E+03  0.41806117275E+02 -0.20379073577E+03  0.28720245350E+03  0.00000000000E+00 0.  1.
          4    1    6    6  502    0 -0.31164397168E+03  0.15987227721E+03 -0.19482801972E+03  0.40079803813E+03  0.00000000000E+00 0. -1.
          1    1    5    5  503    0  0.11391517458E+03 -0.26396836376E+03  0.20780108842E+03  0.35473547386E+03  0.00000000000E+00 0. -1.
         -2    1    5    5    0  503  0.58765060399E+02 -0.42677132901E+02  0.19181139243E+02  0.75117149167E+02  0.00000000000E+00 0.  1.
         -3    1    6    6    0  502 -0.10221961485E+03  0.74951038683E+02 -0.23424161985E+02  0.12889995820E+03  0.00000000000E+00 0.  1.
<mgrwt>
<rscale>  0 0.12841242E+04</rscale>
<asrwt>0</asrwt>
<pdfrwt beam="1">  1        2 0.84621364E-01 0.12841242E+04</pdfrwt>
<pdfrwt beam="2">  1       -2 0.11530479E+00 0.12841242E+04</pdfrwt>
<totfact> 0.31639872E+01</totfact>
</mgrwt>
</event>
<event>
11    1  0.2045212E-008  0.1706293E+04  0.7818608E-02  0.8757783E-01
          1   -1    0    0  501    0  0.00000000000E+00  0.00000000000E+00  0.48555019882E+03  0.48555019882E+03  0.00000000000E+00 0. -1.
         -1   -1    0    0    0  501 -0.00000000000E+00 -0.00000000000E+00 -0.14990404175E+04  0.14990404175E+04  0.00000000000E+00 0.  1.
         23    2    1    2    0    0 -0.18712264686E+03 -0.21300782974E+03  0.25423872556E+03  0.39178726091E+03  0.92047312528E+02 0.  0.
        254    2    1    2    0    0  0.18712264686E+03  0.21300782974E+03 -0.12677289443E+04  0.15928033554E+04  0.92168250089E+03 0.  0.
         24    2    4    4    0    0  0.38651141858E+03  0.59146346926E+02 -0.12758172419E+04  0.13369044393E+04  0.81941918806E+02 0.  0.
         11    1    3    3    0    0 -0.13126120389E+02 -0.41911823390E+01 -0.64139027615E+01  0.15198657655E+02  0.00000000000E+00 0.  1.
        -11    1    3    3    0    0 -0.17399652647E+03 -0.20881664740E+03  0.26065262832E+03  0.37658860326E+03  0.00000000000E+00 0. -1.
          2    1    5    5  502    0  0.23951449575E+03  0.48321439150E+02 -0.66242887814E+03  0.70605536168E+03  0.00000000000E+00 0. -1.
          3    1    4    4  503    0 -0.95902056759E+02  0.46690961785E+02  0.73503395571E+01  0.10691715435E+03  0.00000000000E+00 0. -1.
         -4    1    4    4    0  503 -0.10348671496E+03  0.10717052103E+03  0.73795811414E+00  0.14898176174E+03  0.00000000000E+00 0.  1.
         -1    1    5    5    0  502  0.14699692282E+03  0.10824907776E+02 -0.61338836379E+03  0.63084907766E+03  0.00000000000E+00 0.  1.
<mgrwt>
<rscale>  0 0.17062935E+04</rscale>
<asrwt>0</asrwt>
<pdfrwt beam="1">  1        1 0.74700033E-01 0.17062935E+04</pdfrwt>
<pdfrwt beam="2">  1       -1 0.23062159E+00 0.17062935E+04</pdfrwt>
<totfact> 0.41040963E+00</totfact>
</mgrwt>
</event>
<event>
11    1  0.2045212E-008  0.1105670E+04  0.7818608E-02  0.9199683E-01
          2   -1    0    0  501    0  0.00000000000E+00  0.00000000000E+00  0.48009343257E+03  0.48009343257E+03  0.00000000000E+00 0. -1.
         -2   -1    0    0    0  501 -0.00000000000E+00 -0.00000000000E+00 -0.63659854338E+03  0.63659854338E+03  0.00000000000E+00 0.  1.
         23    2    1    2    0    0 -0.11910120491E+03 -0.78076313996E+02  0.96164482997E+02  0.19602266957E+03  0.94320047591E+02 0.  0.
        254    2    1    2    0    0  0.11910120491E+03  0.78076313996E+02 -0.25266959381E+03  0.92066930637E+03  0.87379004357E+03 0.  0.
         24    2    4    4    0    0  0.40719854635E+03 -0.12944144684E+03  0.48191231264E+02  0.43714860187E+03  0.78808381742E+02 0.  0.
         13    1    3    3    0    0 -0.85937031466E+02 -0.61367036658E+02  0.11351131350E+03  0.15503517297E+03  0.00000000000E+00 0. -1.
        -13    1    3    3    0    0 -0.33164173449E+02 -0.16709277337E+02 -0.17346830499E+02  0.40987496607E+02  0.00000000000E+00 0.  1.
          2    1    5    5  502    0  0.36905630942E+03 -0.13689434955E+03  0.55752742518E+02  0.39755627370E+03  0.00000000000E+00 0. -1.
          1    1    4    4  503    0 -0.30064646789E+03  0.20812864594E+03 -0.29408530056E+03  0.46924619969E+03  0.00000000000E+00 0. -1.
         -2    1    4    4    0  503  0.12549126452E+02 -0.61088510809E+00 -0.67755245118E+01  0.14274504816E+02  0.00000000000E+00 0.  1.
         -1    1    5    5    0  502  0.38142236933E+02  0.74529027140E+01 -0.75615112541E+01  0.39592328165E+02  0.00000000000E+00 0.  1.
<mgrwt>
<rscale>  0 0.11056704E+04</rscale>
<asrwt>0</asrwt>
<pdfrwt beam="1">  1        2 0.73860528E-01 0.11056704E+04</pdfrwt>
<pdfrwt beam="2">  1       -2 0.97938237E-01 0.11056704E+04</pdfrwt>
<totfact> 0.55610849E+01</totfact>
</mgrwt>
</event>
<event>
11    1  0.2045212E-008  0.2338973E+04  0.7818608E-02  0.8462711E-01
          2   -1    0    0  501    0  0.00000000000E+00  0.00000000000E+00  0.23429436376E+04  0.23429436376E+04  0.00000000000E+00 0. -1.
         -2   -1    0    0    0  501 -0.00000000000E+00 -0.00000000000E+00 -0.58375224384E+03  0.58375224384E+03  0.00000000000E+00 0.  1.
         23    2    1    2    0    0 -0.47766172947E+03 -0.76695916553E+03  0.28339107181E+03  0.95134248155E+03  0.91405296416E+02 0.  0.
        254    2    1    2    0    0  0.47766172947E+03  0.76695916553E+03  0.14758003219E+04  0.19753533998E+04  0.95270529270E+03 0.  0.
         24    2    4    4    0    0  0.26254710865E+03  0.67946212143E+03  0.15396991656E+04  0.17051583169E+04  0.79319647375E+02 0.  0.
         13    1    3    3    0    0 -0.24400809708E+03 -0.43566690028E+03  0.19725168333E+03  0.53689275094E+03  0.00000000000E+00 0. -1.
        -13    1    3    3    0    0 -0.23365363240E+03 -0.33129226525E+03  0.86139388479E+02  0.41444973060E+03  0.00000000000E+00 0.  1.
          2    1    5    5  502    0  0.17697297254E+03  0.44331001671E+03  0.10930062378E+04  0.11926884923E+04  0.00000000000E+00 0. -1.
          3    1    4    4  503    0  0.14322198240E+03  0.26079843625E+02 -0.91190820284E+02  0.17178026717E+03  0.00000000000E+00 0. -1.
         -4    1    4    4    0  503  0.71892638424E+02  0.61417200474E+02  0.27291976577E+02  0.98414815750E+02  0.00000000000E+00 0.  1.
         -1    1    5    5    0  502  0.85574136111E+02  0.23615210472E+03  0.44669292783E+03  0.51246982458E+03  0.00000000000E+00 0.  1.
<mgrwt>
<rscale>  0 0.23389729E+04</rscale>
<asrwt>0</asrwt>
<pdfrwt beam="1">  1        2 0.36045286E+00 0.23389729E+04</pdfrwt>
<pdfrwt beam="2">  1       -2 0.89808039E-01 0.23389729E+04</pdfrwt>
<totfact> 0.41127744E+00</totfact>
</mgrwt>
</event>
<event>
12    1  0.2045212E-008  0.2134925E+04  0.7818608E-02  0.8546013E-01
          2   -1    0    0  501    0  0.00000000000E+00  0.00000000000E+00  0.16707725516E+04  0.16707725516E+04  0.00000000000E+00 0. -1.
         -2   -1    0    0    0  501 -0.00000000000E+00 -0.00000000000E+00 -0.68200568838E+03  0.68200568838E+03  0.00000000000E+00 0.  1.
         23    2    1    2    0    0  0.63801973034E+03 -0.28638454255E+03 -0.16832333141E+03  0.72494355434E+03  0.90139506162E+02 0.  0.
        254    2    1    2    0    0 -0.63801973034E+03  0.28638454255E+03  0.11570901947E+04  0.16278346857E+04  0.90658853006E+03 0.  0.
        -24    2    4    4    0    0 -0.70917823547E+03  0.48503304638E+03  0.68031472749E+03  0.11002898963E+04  0.98075999887E+02 0.  0.
         24    2    4    4    0    0  0.71158505136E+02 -0.19864850384E+03  0.47677546718E+03  0.52754478937E+03  0.80398369126E+02 0.  0.
         13    1    3    3    0    0  0.23689216449E+03 -0.15160176781E+03 -0.51241656595E+02  0.28587882218E+03  0.00000000000E+00 0. -1.
        -13    1    3    3    0    0  0.40112756585E+03 -0.13478277473E+03 -0.11708167482E+03  0.43906473216E+03  0.00000000000E+00 0.  1.
          4    1    6    6  502    0  0.22031494471E+01  0.51636121693E+01  0.14631111594E+01  0.58015043209E+01  0.00000000000E+00 0. -1.
          1    1    5    5  503    0 -0.26472159192E+03  0.23951580448E+03  0.28266682483E+03  0.45535247412E+03  0.00000000000E+00 0. -1.
         -2    1    5    5    0  503 -0.44445664355E+03  0.24551724191E+03  0.39764790266E+03  0.64493742221E+03  0.00000000000E+00 0.  1.
         -3    1    6    6    0  502  0.68955355688E+02 -0.20381211601E+03  0.47531235602E+03  0.52174328505E+03  0.00000000000E+00 0.  1.
<mgrwt>
<rscale>  0 0.21349252E+04</rscale>
<asrwt>0</asrwt>
<pdfrwt beam="1">  1        2 0.25704193E+00 0.21349252E+04</pdfrwt>
<pdfrwt beam="2">  1       -2 0.10492395E+00 0.21349252E+04</pdfrwt>
<totfact> 0.68899946E+00</totfact>
</mgrwt>
</event>
<event>
12    1  0.2045212E-008  0.2537753E+04  0.7818608E-02  0.8389658E-01
         -2   -1    0    0    0  501 -0.00000000000E+00  0.00000000000E+00  0.53027922138E+03  0.53027922138E+03  0.00000000000E+00 0.  1.
          2   -1    0    0  501    0  0.00000000000E+00 -0.00000000000E+00 -0.30362250185E+04  0.30362250185E+04  0.00000000000E+00 0. -1.
         23    2    1    2    0    0 -0.77431092620E+03  0.15312486619E+03 -0.22049839243E+04  0.23436928184E+04  0.89091445034E+02 0.  0.
        254    2    1    2    0    0  0.77431092620E+03 -0.15312486619E+03 -0.30096187285E+03  0.12228114215E+04  0.88412956549E+03 0.  0.
        -24    2    4    4    0    0  0.67351895184E+03 -0.46367409673E+03 -0.94951281739E+02  0.82850217119E+03  0.93694478471E+02 0.  0.
         24    2    4    4    0    0  0.10079197436E+03  0.31054923054E+03 -0.20601059111E+03  0.39430925032E+03  0.80246959763E+02 0.  0.
         13    1    3    3    0    0 -0.52348914856E+03  0.82451816115E+02 -0.15820952041E+04  0.16684916618E+04  0.00000000000E+00 0.  1.
        -13    1    3    3    0    0 -0.25082177764E+03  0.70673050074E+02 -0.62288872017E+03  0.67520115659E+03  0.00000000000E+00 0. -1.
          4    1    6    6  502    0  0.52141990708E+02  0.20267574960E+03 -0.87494880303E+02  0.22682945300E+03  0.00000000000E+00 0. -1.
          1    1    5    5  503    0  0.36742299655E+03 -0.28215824766E+03 -0.93631601813E+02  0.47263073533E+03  0.00000000000E+00 0. -1.
         -4    1    5    5    0  503  0.30609595529E+03 -0.18151584906E+03 -0.13196799262E+01  0.35587143586E+03  0.00000000000E+00 0.  1.
         -3    1    6    6    0  502  0.48649983651E+02  0.10787348094E+03 -0.11851571081E+03  0.16747979731E+03  0.00000000000E+00 0.  1.
<mgrwt>
<rscale>  0 0.25377526E+04</rscale>
<asrwt>0</asrwt>
<pdfrwt beam="1">  1        2 0.46711155E+00 0.25377526E+04</pdfrwt>
<pdfrwt beam="2">  1       -2 0.81581417E-01 0.25377526E+04</pdfrwt>
<totfact> 0.19429477E+00</totfact>
</mgrwt>
</event>
<event>
11    1  0.2045212E-008  0.1602963E+04  0.7818608E-02  0.8818730E-01
         -2   -1    0    0    0  501 -0.00000000000E+00  0.00000000000E+00  0.38814753993E+03  0.38814753993E+03  0.00000000000E+00 0.  1.
          2   -1    0    0  501    0  0.00000000000E+00 -0.00000000000E+00 -0.16549697410E+04  0.16549697410E+04  0.00000000000E+00 0. -1.
         23    2    1    2    0    0 -0.18137313859E+03 -0.29877315726E+03 -0.96456582548E+03  0.10288391193E+04  0.77208074722E+02 0.  0.
        254    2    1    2    0    0  0.18137313859E+03  0.29877315726E+03 -0.30225637555E+03  0.10142781616E+04  0.90290622860E+03 0.  0.
         24    2    4    4    0    0  0.10395689663E+03 -0.78788238225E+01  0.15146404572E+03  0.20040099092E+03  0.79687438129E+02 0.  0.
         11    1    3    3    0    0 -0.13856413251E+03 -0.27563345987E+03 -0.80832417194E+03  0.86519465438E+03  0.00000000000E+00 0. -1.
        -11    1    3    3    0    0 -0.42809006073E+02 -0.23139697382E+02 -0.15624165353E+03  0.16364446491E+03  0.00000000000E+00 0.  1.
          2    1    5    5  502    0  0.71121429619E+02  0.23618769467E+02  0.52566516196E+02  0.91538749430E+02  0.00000000000E+00 0. -1.
          1    1    4    4  503    0 -0.16300846978E+03  0.20271065820E+03  0.31950187252E+02  0.26207668083E+03  0.00000000000E+00 0. -1.
         -2    1    4    4    0  503  0.24042471175E+03  0.10394132288E+03 -0.48567060852E+03  0.55180048985E+03  0.00000000000E+00 0.  1.
         -1    1    5    5    0  502  0.32835467007E+02 -0.31497593290E+02  0.98897529525E+02  0.10886224149E+03  0.00000000000E+00 0.  1.
<mgrwt>
<rscale>  0 0.16029628E+04</rscale>
<asrwt>0</asrwt>
<pdfrwt beam="1">  1        2 0.25461073E+00 0.16029628E+04</pdfrwt>
<pdfrwt beam="2">  1       -2 0.59715006E-01 0.16029628E+04</pdfrwt>
<totfact> 0.26057217E+01</totfact>
</mgrwt>
</event>
<event>
11    1  0.2045212E-008  0.1769616E+04  0.7818608E-02  0.8722626E-01
         -1   -1    0    0    0  501 -0.00000000000E+00  0.00000000000E+00  0.57288358211E+03  0.57288358211E+03  0.00000000000E+00 0.  1.
          1   -1    0    0  501    0  0.00000000000E+00 -0.00000000000E+00 -0.13665689705E+04  0.13665689705E+04  0.00000000000E+00 0. -1.
         23    2    1    2    0    0 -0.97942993958E+02  0.95575020767E+02  0.40432733434E+03  0.43684268056E+03  0.92862907569E+02 0.  0.
        254    2    1    2    0    0  0.97942993958E+02 -0.95575020767E+02 -0.11980127227E+04  0.15026098720E+04  0.89659050247E+03 0.  0.
         24    2    4    4    0    0 -0.35720132044E+03  0.78831500790E+02 -0.62187457041E+03  0.72581349196E+03  0.79183678637E+02 0.  0.
         13    1    3    3    0    0 -0.11497232510E+03  0.93428076962E+02  0.35832067770E+03  0.38773850618E+03  0.00000000000E+00 0.  1.
        -13    1    3    3    0    0  0.17029331138E+02  0.21469438054E+01  0.46006656636E+02  0.49104174380E+02  0.00000000000E+00 0. -1.
          2    1    5    5  502    0 -0.15020389569E+03  0.81976171913E+01 -0.31382458685E+03  0.34801477342E+03  0.00000000000E+00 0. -1.
          3    1    4    4  503    0  0.46143312463E+03 -0.13630893004E+03 -0.51779271360E+03  0.70683091838E+03  0.00000000000E+00 0. -1.
         -4    1    4    4    0  503 -0.62888102363E+01 -0.38097591512E+02 -0.58345438687E+02  0.69965461685E+02  0.00000000000E+00 0.  1.
         -1    1    5    5    0  502 -0.20699742475E+03  0.70633883598E+02 -0.30804998356E+03  0.37779871855E+03  0.00000000000E+00 0.  1.
<mgrwt>
<rscale>  0 0.17696157E+04</rscale>
<asrwt>0</asrwt>
<pdfrwt beam="1">  1        1 0.21024138E+00 0.17696157E+04</pdfrwt>
<pdfrwt beam="2">  1       -1 0.88135937E-01 0.17696157E+04</pdfrwt>
<totfact> 0.97069978E+00</totfact>
</mgrwt>
</event>
<event>
12    1  0.2045212E-008  0.1158456E+04  0.7818608E-02  0.9150018E-01
          4   -1    0    0  501    0  0.00000000000E+00  0.00000000000E+00  0.22872274512E+03  0.22872274512E+03  0.00000000000E+00 0. -1.
         -4   -1    0    0    0  501 -0.00000000000E+00 -0.00000000000E+00 -0.14668638793E+04  0.14668638793E+04  0.00000000000E+00 0.  1.
         23    2    1    2    0    0  0.68506925306E+02  0.59882814471E+02  0.34135110361E+02  0.13323185436E+03  0.91139294347E+02 0.  0.
        254    2    1    2    0    0 -0.68506925306E+02 -0.59882814471E+02 -0.12722762445E+04  0.15623547700E+04  0.90221196779E+03 0.  0.
        -24    2    4    4    0    0 -0.97270922509E+02 -0.24472398755E+03 -0.13243174310E+04  0.13518694114E+04  0.66202603849E+02 0.  0.
         24    2    4    4    0    0  0.28763997203E+02  0.18484117308E+03  0.52041186520E+02  0.21048535869E+03  0.81253765008E+02 0.  0.
         13    1    3    3    0    0  0.15418192092E+02  0.69329226834E+02  0.35267649546E+02  0.79297348286E+02  0.00000000000E+00 0. -1.
        -13    1    3    3    0    0  0.53088733215E+02 -0.94464123626E+01 -0.11325391850E+01  0.53934506078E+02  0.00000000000E+00 0.  1.
          4    1    6    6  502    0  0.19537901258E+02  0.92058517761E+02  0.67712377597E+02  0.11593733807E+03  0.00000000000E+00 0. -1.
          3    1    5    5  503    0 -0.48112824671E+02 -0.80788509827E+02 -0.61799784354E+03  0.62511035972E+03  0.00000000000E+00 0. -1.
         -4    1    5    5    0  503 -0.49158097838E+02 -0.16393547772E+03 -0.70631958751E+03  0.72675905164E+03  0.00000000000E+00 0.  1.
         -3    1    6    6    0  502  0.92260959457E+01  0.92782655314E+02 -0.15671191077E+02  0.94548020621E+02  0.00000000000E+00 0.  1.
<mgrwt>
<rscale>  0 0.11584561E+04</rscale>
<asrwt>0</asrwt>
<pdfrwt beam="1">  1        4 0.35188115E-01 0.11584561E+04</pdfrwt>
<pdfrwt beam="2">  1       -4 0.22567136E+00 0.11584561E+04</pdfrwt>
<totfact> 0.14008518E+00</totfact>
</mgrwt>
</event>
<event>
12    1  0.2045212E-008  0.1647140E+04  0.7818608E-02  0.8792100E-01
         -2   -1    0    0    0  501 -0.00000000000E+00  0.00000000000E+00  0.48447783172E+03  0.48447783172E+03  0.00000000000E+00 0.  1.
          2   -1    0    0  501    0  0.00000000000E+00 -0.00000000000E+00 -0.13999969718E+04  0.13999969718E+04  0.00000000000E+00 0. -1.
         23    2    1    2    0    0 -0.21734022912E+02  0.17512209403E+03  0.29643170746E+03  0.35682139221E+03  0.91157189417E+02 0.  0.
        254    2    1    2    0    0  0.21734022912E+02 -0.17512209403E+03 -0.12119508475E+04  0.15276534113E+04  0.91310457925E+03 0.  0.
        -24    2    4    4    0    0 -0.21748971622E+03  0.18321475624E+03 -0.99315771191E+03  0.10376225952E+04  0.97102964313E+02 0.  0.
         24    2    4    4    0    0  0.23922373913E+03 -0.35833685028E+03 -0.21879313557E+03  0.49003081611E+03  0.81403126055E+02 0.  0.
         11    1    3    3    0    0 -0.20359347901E+02  0.15509411969E+00  0.55040180531E+02  0.58685164855E+02  0.00000000000E+00 0. -1.
        -11    1    3    3    0    0 -0.13746750113E+01  0.17496699991E+03  0.24139152693E+03  0.29813622736E+03  0.00000000000E+00 0.  1.
          2    1    6    6  502    0  0.68630387222E+02 -0.87628472044E+02 -0.19318243334E+02  0.11296934845E+03  0.00000000000E+00 0. -1.
          1    1    5    5  503    0 -0.56942190248E+02  0.18469402329E+02 -0.33784304136E+03  0.34310559956E+03  0.00000000000E+00 0. -1.
         -2    1    5    5    0  503 -0.16054752597E+03  0.16474535391E+03 -0.65531467055E+03  0.69451699560E+03  0.00000000000E+00 0.  1.
         -1    1    6    6    0  502  0.17059335191E+03 -0.27070837823E+03 -0.19947489224E+03  0.37706146766E+03  0.00000000000E+00 0.  1.
<mgrwt>
<rscale>  0 0.16471399E+04</rscale>
<asrwt>0</asrwt>
<pdfrwt beam="1">  1        2 0.21538415E+00 0.16471399E+04</pdfrwt>
<pdfrwt beam="2">  1       -2 0.74535051E-01 0.16471399E+04</pdfrwt>
<totfact> 0.22384513E+01</totfact>
</mgrwt>
</event>
<event>
12    1  0.2045212E-008  0.1553667E+04  0.7818608E-02  0.8849529E-01
          2   -1    0    0  501    0  0.00000000000E+00  0.00000000000E+00  0.22638299219E+04  0.22638299219E+04  0.00000000000E+00 0. -1.
         -2   -1    0    0    0  501 -0.00000000000E+00 -0.00000000000E+00 -0.26657048558E+03  0.26657048558E+03  0.00000000000E+00 0.  1.
         23    2    1    2    0    0 -0.30911940923E+03  0.23655042307E+03  0.11667125895E+03  0.41650071006E+03  0.91376950037E+02 0.  0.
        254    2    1    2    0    0  0.30911940923E+03 -0.23655042307E+03  0.18805881773E+04  0.21138996974E+04  0.88343031758E+03 0.  0.
        -24    2    4    4    0    0 -0.30064727176E+03 -0.86189839698E+02  0.74462952901E+03  0.81343900787E+03  0.96914465205E+02 0.  0.
         24    2    4    4    0    0  0.60976668100E+03 -0.15036058337E+03  0.11359586483E+04  0.13004606895E+04  0.79826336304E+02 0.  0.
         13    1    3    3    0    0 -0.14742452471E+03  0.16846217711E+03  0.54855857534E+02  0.23048353674E+03  0.00000000000E+00 0. -1.
        -13    1    3    3    0    0 -0.16169488452E+03  0.68088245965E+02  0.61815401416E+02  0.18601717332E+03  0.00000000000E+00 0.  1.
          2    1    6    6  502    0  0.12475650619E+03 -0.13135255075E+02  0.17482270655E+03  0.21517364962E+03  0.00000000000E+00 0. -1.
          1    1    5    5  503    0 -0.19583054942E+03 -0.89295426076E+02  0.57561063798E+03  0.61453306156E+03  0.00000000000E+00 0. -1.
         -2    1    5    5    0  503 -0.10481672235E+03  0.31055863777E+01  0.16901889103E+03  0.19890594631E+03  0.00000000000E+00 0.  1.
         -1    1    6    6    0  502  0.48501017480E+03 -0.13722532830E+03  0.96113594176E+03  0.10852870399E+04  0.00000000000E+00 0.  1.
<mgrwt>
<rscale>  0 0.15536669E+04</rscale>
<asrwt>0</asrwt>
<pdfrwt beam="1">  1        2 0.34828151E+00 0.15536669E+04</pdfrwt>
<pdfrwt beam="2">  1       -2 0.41010845E-01 0.15536669E+04</pdfrwt>
<totfact> 0.25785061E+01</totfact>
</mgrwt>
</event>
<event>
12    1  0.2045212E-008  0.1205164E+04  0.7818608E-02  0.9108349E-01
          1   -1    0    0  501    0  0.00000000000E+00  0.00000000000E+00  0.61762832662E+03  0.61762832662E+03  0.00000000000E+00 0. -1.
         -1   -1    0    0    0  501 -0.00000000000E+00 -0.00000000000E+00 -0.58790208458E+03  0.58790208458E+03  0.00000000000E+00 0.  1.
         23    2    1    2    0    0 -0.10028763768E+02  0.82174587421E+02  0.25123608432E+03  0.28086382934E+03  0.94401703617E+02 0.  0.
        254    2    1    2    0    0  0.10028763768E+02 -0.82174587421E+02 -0.22150984228E+03  0.92466658187E+03  0.89391746737E+03 0.  0.
        -24    2    4    4    0    0 -0.40089423243E+03 -0.18688832871E+03 -0.19603714439E+03  0.49319357328E+03  0.95738736881E+02 0.  0.
         24    2    4    4    0    0  0.41092299620E+03  0.10471374129E+03 -0.25472697895E+02  0.43147300859E+03  0.75481271722E+02 0.  0.
         11    1    3    3    0    0 -0.51648095827E+02  0.39688629930E+02  0.14844394918E+03  0.16210588884E+03  0.00000000000E+00 0.  1.
        -11    1    3    3    0    0  0.41619332058E+02  0.42485957492E+02  0.10279213513E+03  0.11875794049E+03  0.00000000000E+00 0. -1.
          2    1    6    6  502    0  0.26745669234E+03  0.10114752997E+03 -0.13372968291E+01  0.28594701163E+03  0.00000000000E+00 0. -1.
          1    1    5    5  503    0 -0.36992481488E+03 -0.19419636417E+03 -0.19572314860E+03  0.46137202713E+03  0.00000000000E+00 0. -1.
         -2    1    5    5    0  503 -0.30969417552E+02  0.73080354623E+01 -0.31399578467E+00  0.31821546147E+02  0.00000000000E+00 0.  1.
         -1    1    6    6    0  502  0.14346630386E+03  0.35662113201E+01 -0.24135401066E+02  0.14552599696E+03  0.00000000000E+00 0.  1.
<mgrwt>
<rscale>  0 0.12051639E+04</rscale>
<asrwt>0</asrwt>
<pdfrwt beam="1">  1        1 0.95019743E-01 0.12051639E+04</pdfrwt>
<pdfrwt beam="2">  1       -1 0.90446474E-01 0.12051639E+04</pdfrwt>
<totfact> 0.38836270E+01</totfact>
</mgrwt>
</event>
<event>
11    1  0.2045212E-008  0.1413192E+04  0.7818608E-02  0.8944325E-01
          1   -1    0    0  501    0  0.00000000000E+00  0.00000000000E+00  0.79968613778E+03  0.79968613778E+03  0.00000000000E+00 0. -1.
         -1   -1    0    0    0  501 -0.00000000000E+00 -0.00000000000E+00 -0.62434221478E+03  0.62434221478E+03  0.00000000000E+00 0.  1.
         23    2    1    2    0    0 -0.38564835005E+03 -0.13884551070E+03  0.11000815253E+03  0.43077119918E+03  0.73887121248E+02 0.  0.
        254    2    1    2    0    0  0.38564835005E+03  0.13884551070E+03  0.65335770462E+02  0.99325715338E+03  0.90237923519E+03 0.  0.
         24    2    4    4    0    0 -0.15626287732E+03  0.27856332516E+03 -0.12129613994E+03  0.35124538086E+03  0.81516569223E+02 0.  0.
         11    1    3    3    0    0 -0.97771347790E+02 -0.46093543740E+02  0.61775602977E+02  0.12449930259E+03  0.00000000000E+00 0.  1.
        -11    1    3    3    0    0 -0.28787700226E+03 -0.92751966959E+02  0.48232549552E+02  0.30627189659E+03  0.00000000000E+00 0. -1.
          4    1    5    5  502    0 -0.10027962990E+03  0.24116147779E+03 -0.84442610855E+02  0.27449119671E+03  0.00000000000E+00 0. -1.
          3    1    4    4  503    0  0.52092557885E+03 -0.18957739992E+03  0.14295669092E+03  0.57248551487E+03  0.00000000000E+00 0. -1.
         -4    1    4    4    0  503  0.20985648517E+02  0.49859585460E+02  0.43675219487E+02  0.69526257652E+02  0.00000000000E+00 0.  1.
         -3    1    5    5    0  502 -0.55983247419E+02  0.37401847369E+02 -0.36853529089E+02  0.76754184149E+02  0.00000000000E+00 0.  1.
<mgrwt>
<rscale>  0 0.14131919E+04</rscale>
<asrwt>0</asrwt>
<pdfrwt beam="1">  1        1 0.12302864E+00 0.14131919E+04</pdfrwt>
<pdfrwt beam="2">  1       -1 0.96052648E-01 0.14131919E+04</pdfrwt>
<totfact> 0.22517525E+01</totfact>
</mgrwt>
</event>
<event>
12    1  0.2045212E-008  0.1642700E+04  0.7818608E-02  0.8794737E-01
          2   -1    0    0  501    0  0.00000000000E+00  0.00000000000E+00  0.36922536639E+03  0.36922536639E+03  0.00000000000E+00 0. -1.
         -2   -1    0    0    0  501 -0.00000000000E+00 -0.00000000000E+00 -0.18271109876E+04  0.18271109876E+04  0.00000000000E+00 0.  1.
         23    2    1    2    0    0 -0.23924370127E+03  0.39536274340E+03 -0.94032428202E+03  0.10518242922E+04  0.92603125288E+02 0.  0.
        254    2    1    2    0    0  0.23924370127E+03 -0.39536274340E+03 -0.51756133918E+03  0.11445120618E+04  0.91021364104E+03 0.  0.
        -24    2    4    4    0    0  0.24691475400E+03 -0.66802218616E+03 -0.47167797779E+03  0.85682475798E+03  0.66693434460E+02 0.  0.
         24    2    4    4    0    0 -0.76710527295E+01  0.27265944277E+03 -0.45883361392E+02  0.28768730382E+03  0.79099210788E+02 0.  0.
         11    1    3    3    0    0 -0.89602995460E+02  0.73280647997E+02 -0.25023892090E+03  0.27571410501E+03  0.00000000000E+00 0. -1.
        -11    1    3    3    0    0 -0.14964070581E+03  0.32208209540E+03 -0.69008536111E+03  0.77611018717E+03  0.00000000000E+00 0.  1.
          4    1    6    6  502    0 -0.13722807546E+02  0.19520409649E+02  0.13762516705E+02  0.27545756586E+02  0.00000000000E+00 0. -1.
          3    1    5    5  503    0  0.63370403231E+02 -0.18717050636E+03 -0.96532786070E+02  0.21992540836E+03  0.00000000000E+00 0. -1.
         -4    1    5    5    0  503  0.18354435077E+03 -0.48085167981E+03 -0.37514519172E+03  0.63689934962E+03  0.00000000000E+00 0.  1.
         -3    1    6    6    0  502  0.60517548162E+01  0.25313903312E+03 -0.59645878097E+02  0.26014154724E+03  0.00000000000E+00 0.  1.
<mgrwt>
<rscale>  0 0.16426999E+04</rscale>
<asrwt>0</asrwt>
<pdfrwt beam="1">  1        2 0.56803901E-01 0.16426999E+04</pdfrwt>
<pdfrwt beam="2">  1       -2 0.28109401E+00 0.16426999E+04</pdfrwt>
<totfact> 0.34549031E+00</totfact>
</mgrwt>
</event>
<event>
11    1  0.2045212E-008  0.2148313E+04  0.7818608E-02  0.8540255E-01
          2   -1    0    0  501    0  0.00000000000E+00  0.00000000000E+00  0.12588846773E+04  0.12588846773E+04  0.00000000000E+00 0.  1.
         -2   -1    0    0    0  501 -0.00000000000E+00 -0.00000000000E+00 -0.91653508068E+03  0.91653508068E+03  0.00000000000E+00 0. -1.
         23    2    1    2    0    0 -0.45639790581E+02  0.43299598364E+03 -0.63352559647E+03  0.77430332916E+03  0.92857158235E+02 0.  0.
        254    2    1    2    0    0  0.45639790581E+02 -0.43299598364E+03  0.97587519314E+03  0.14011164289E+04  0.90621539511E+03 0.  0.
         24    2    4    4    0    0  0.19419682298E+03  0.31018859769E+02  0.86321742649E+03  0.88882424357E+03  0.78674232359E+02 0.  0.
         13    1    3    3    0    0 -0.44289152172E+02  0.43135255385E+03 -0.59775621077E+03  0.73847074568E+03  0.00000000000E+00 0. -1.
        -13    1    3    3    0    0 -0.13506384097E+01  0.16434297904E+01 -0.35769385697E+02  0.35832583478E+02  0.00000000000E+00 0.  1.
          2    1    5    5  502    0  0.29120188823E+02  0.20486577384E+02  0.69900299512E+02  0.78445759107E+02  0.00000000000E+00 0. -1.
          3    1    4    4  503    0 -0.22371359371E+02 -0.87002101222E+02  0.67089648960E+02  0.11211986592E+03  0.00000000000E+00 0. -1.
         -4    1    4    4    0  503 -0.12618567302E+03 -0.37701274218E+03  0.45568117682E+02  0.40017231937E+03  0.00000000000E+00 0.  1.
         -1    1    5    5    0  502  0.16507663415E+03  0.10532282384E+02  0.79331712698E+03  0.81037848446E+03  0.00000000000E+00 0.  1.
<mgrwt>
<rscale>  0 0.21483128E+04</rscale>
<asrwt>0</asrwt>
<pdfrwt beam="1">  1        2 0.19367457E+00 0.21483128E+04</pdfrwt>
<pdfrwt beam="2">  1       -2 0.14100540E+00 0.21483128E+04</pdfrwt>
<totfact> 0.56557558E+00</totfact>
</mgrwt>
</event>
<event>
11    1  0.2045212E-008  0.2289741E+04  0.7818608E-02  0.8481977E-01
         -1   -1    0    0    0  501 -0.00000000000E+00  0.00000000000E+00  0.84892603136E+03  0.84892603136E+03  0.00000000000E+00 0.  1.
          1   -1    0    0  501    0  0.00000000000E+00 -0.00000000000E+00 -0.15439847798E+04  0.15439847798E+04  0.00000000000E+00 0. -1.
         23    2    1    2    0    0 -0.71005364519E+02 -0.70022136124E+03  0.40374131482E+03  0.81655452814E+03  0.91665323897E+02 0.  0.
        254    2    1    2    0    0  0.71005364519E+02  0.70022136124E+03 -0.10988000633E+04  0.15763562831E+04  0.88441270658E+03 0.  0.
         24    2    4    4    0    0  0.29808598792E+03  0.23542971316E+03 -0.48049428937E+02  0.39117245840E+03  0.80154466848E+02 0.  0.
         13    1    3    3    0    0  0.11109691637E+02 -0.11445299220E+02  0.11670974266E+02  0.19764406463E+02  0.00000000000E+00 0. -1.
        -13    1    3    3    0    0 -0.82115056156E+02 -0.68877606202E+03  0.39207034055E+03  0.79679012167E+03  0.00000000000E+00 0.  1.
          4    1    5    5  502    0  0.13283395151E+03  0.15561312088E+03 -0.29628571125E+02  0.20673208336E+03  0.00000000000E+00 0. -1.
          1    1    4    4  503    0 -0.30881719065E+02 -0.11593876475E+02 -0.59060639353E+02  0.67648042580E+02  0.00000000000E+00 0. -1.
         -2    1    4    4    0  503 -0.19619890434E+03  0.47638552456E+03 -0.99168999501E+03  0.11175357821E+04  0.00000000000E+00 0.  1.
         -3    1    5    5    0  502  0.16525203641E+03  0.79816592271E+02 -0.18420857812E+02  0.18444037503E+03  0.00000000000E+00 0.  1.
<mgrwt>
<rscale>  0 0.22897414E+04</rscale>
<asrwt>0</asrwt>
<pdfrwt beam="1">  1        1 0.23753612E+00 0.22897414E+04</pdfrwt>
<pdfrwt beam="2">  1       -1 0.13060400E+00 0.22897414E+04</pdfrwt>
<totfact> 0.27654683E+00</totfact>
</mgrwt>
</event>
<event>
11    1  0.2045212E-008  0.2798520E+04  0.7818608E-02  0.8303728E-01
         -1   -1    0    0    0  501 -0.00000000000E+00  0.00000000000E+00  0.10127164504E+04  0.10127164504E+04  0.00000000000E+00 0.  1.
          1   -1    0    0  501    0  0.00000000000E+00 -0.00000000000E+00 -0.19333433384E+04  0.19333433384E+04  0.00000000000E+00 0. -1.
         23    2    1    2    0    0 -0.32535134362E+03 -0.88836423534E+03  0.44609890026E+03  0.10505118871E+04  0.97603712337E+02 0.  0.
        254    2    1    2    0    0  0.32535134362E+03  0.88836423534E+03 -0.13667257883E+04  0.18955479018E+04  0.91110809246E+03 0.  0.
         24    2    4    4    0    0  0.13088051210E+03  0.34904826607E+03 -0.11242110087E+04  0.11872533059E+04  0.82192577648E+02 0.  0.
         13    1    3    3    0    0 -0.28723589082E+02 -0.19236920133E+03  0.88610395996E+02  0.21373524854E+03  0.00000000000E+00 0. -1.
        -13    1    3    3    0    0 -0.29662775453E+03 -0.69599503401E+03  0.35748850426E+03  0.83677663854E+03  0.00000000000E+00 0.  1.
          2    1    5    5  502    0 -0.95826903862E+01  0.27008987340E+02 -0.58908440263E+02  0.65509676280E+02  0.00000000000E+00 0. -1.
          3    1    4    4  503    0  0.46013984422E+02 -0.30119849640E+02 -0.81278080426E+02  0.98135714511E+02  0.00000000000E+00 0. -1.
         -4    1    4    4    0  503  0.14845684709E+03  0.56943581892E+03 -0.16123669911E+03  0.61015888132E+03  0.00000000000E+00 0.  1.
         -1    1    5    5    0  502  0.14046320249E+03  0.32203927872E+03 -0.10653025685E+04  0.11217436297E+04  0.00000000000E+00 0.  1.
<mgrwt>
<rscale>  0 0.27985200E+04</rscale>
<asrwt>0</asrwt>
<pdfrwt beam="1">  1        1 0.29743743E+00 0.27985200E+04</pdfrwt>
<pdfrwt beam="2">  1       -1 0.15580253E+00 0.27985200E+04</pdfrwt>
<totfact> 0.90086259E-01</totfact>
</mgrwt>
</event>
<event>
12    1  0.2205861E-008  0.2675768E+04  0.7818608E-02  0.8342911E-01
         -2   -1    0    0    0  501 -0.00000000000E+00  0.00000000000E+00  0.11193896364E+04  0.11193896364E+04  0.00000000000E+00 0.  1.
          2   -1    0    0  501    0  0.00000000000E+00 -0.00000000000E+00 -0.15990258504E+04  0.15990258504E+04  0.00000000000E+00 0. -1.
         23    2    1    2    0    0  0.80240136260E+02  0.69725457506E+03 -0.11877264718E+04  0.13826241781E+04  0.91394880579E+02 0.  0.
        254    2    1    2    0    0 -0.80240136260E+02 -0.69725457506E+03  0.70809025772E+03  0.13357913087E+04  0.88901304008E+03 0.  0.
        -24    2    4    4    0    0  0.67431107066E+02  0.19873616520E+03  0.11164274778E+03  0.24645840671E+03  0.65074000547E+02 0.  0.
         24    2    4    4    0    0 -0.14767124333E+03 -0.89599074027E+03  0.59644750994E+03  0.10893329020E+04  0.79311641662E+02 0.  0.
         13    1    3    3    0    0  0.40151189598E+02  0.52201569384E+03 -0.81278364363E+03  0.96681422931E+03  0.00000000000E+00 0. -1.
        -13    1    3    3    0    0  0.40088946662E+02  0.17523888122E+03 -0.37494282812E+03  0.41580994877E+03  0.00000000000E+00 0.  1.
          2    1    6    6  502    0 -0.10170640604E+03 -0.73546876697E+03  0.51468888698E+03  0.90341748411E+03  0.00000000000E+00 0. -1.
          1    1    5    5  503    0  0.69696998391E+02  0.20246243812E+03  0.11269984165E+03  0.24197099980E+03  0.00000000000E+00 0. -1.
         -2    1    5    5    0  503 -0.22658913256E+01 -0.37262729172E+01 -0.10570938735E+01  0.44874069138E+01  0.00000000000E+00 0.  1.
         -1    1    6    6    0  502 -0.45964837288E+02 -0.16052197330E+03  0.81758622961E+02  0.18591541788E+03  0.00000000000E+00 0.  1.
<mgrwt>
<rscale>  0 0.26757675E+04</rscale>
<asrwt>0</asrwt>
<pdfrwt beam="1">  1        2 0.24600398E+00 0.26757675E+04</pdfrwt>
<pdfrwt beam="2">  1       -2 0.17221379E+00 0.26757675E+04</pdfrwt>
<totfact> 0.20180130E+00</totfact>
</mgrwt>
</event>
<event>
12    1  0.2131920E-008  0.1557500E+04  0.7818608E-02  0.8847091E-01
          2   -1    0    0  501    0  0.00000000000E+00  0.00000000000E+00  0.70125700540E+03  0.70125700540E+03  0.00000000000E+00 0. -1.
         -2   -1    0    0    0  501 -0.00000000000E+00 -0.00000000000E+00 -0.86480618530E+03  0.86480618530E+03  0.00000000000E+00 0.  1.
         23    2    1    2    0    0 -0.37397542671E+02  0.19698130644E+03  0.42172655945E+03  0.47593926953E+03  0.92003728427E+02 0.  0.
        254    2    1    2    0    0  0.37397542671E+02 -0.19698130644E+03 -0.58527573934E+03  0.10901239212E+04  0.89756462785E+03 0.  0.
        -24    2    4    4    0    0  0.99316173099E+02 -0.21524228363E+03 -0.80580000147E+03  0.84644199647E+03  0.10467792567E+03 0.  0.
         24    2    4    4    0    0 -0.61918630428E+02  0.18260977185E+02  0.22052426212E+03  0.24368192471E+03  0.81132916641E+02 0.  0.
         11    1    3    3    0    0  0.20318716674E+01  0.55051990716E+02  0.21599410305E+03  0.22290873186E+03  0.00000000000E+00 0. -1.
        -11    1    3    3    0    0 -0.39429414339E+02  0.14192931572E+03  0.20573245640E+03  0.25303053767E+03  0.00000000000E+00 0.  1.
          2    1    6    6  502    0 -0.13196362518E+02  0.23368196476E+02  0.11854072675E+02  0.29338296290E+02  0.00000000000E+00 0. -1.
          1    1    5    5  503    0 -0.70886427441E+01  0.29766170934E+01 -0.39484778394E+01  0.86428920230E+01  0.00000000000E+00 0. -1.
         -2    1    5    5    0  503  0.10640481584E+03 -0.21821890072E+03 -0.80185152363E+03  0.83779910444E+03  0.00000000000E+00 0.  1.
         -1    1    6    6    0  502 -0.48722267910E+02 -0.51072192908E+01  0.20867018945E+03  0.21434362842E+03  0.00000000000E+00 0.  1.
<mgrwt>
<rscale>  0 0.15574998E+04</rscale>
<asrwt>0</asrwt>
<pdfrwt beam="1">  1        2 0.10788569E+00 0.15574998E+04</pdfrwt>
<pdfrwt beam="2">  1       -2 0.13304711E+00 0.15574998E+04</pdfrwt>
<totfact> 0.16097906E+01</totfact>
</mgrwt>
</event>
<event>
11    1  0.2045212E-008  0.1627328E+04  0.7818608E-02  0.8803933E-01
         -2   -1    0    0    0  501 -0.00000000000E+00  0.00000000000E+00  0.28130306861E+03  0.28130306861E+03  0.00000000000E+00 0.  1.
          2   -1    0    0  501    0  0.00000000000E+00 -0.00000000000E+00 -0.23535068553E+04  0.23535068553E+04  0.00000000000E+00 0. -1.
         23    2    1    2    0    0  0.25476980566E+03 -0.16590870639E+03  0.38907308431E+02  0.32339442712E+03  0.10313498007E+03 0.  0.
        254    2    1    2    0    0 -0.25476980566E+03  0.16590870639E+03 -0.21111110952E+04  0.23114154968E+04  0.89074024840E+03 0.  0.
         24    2    4    4    0    0 -0.34360987192E+03 -0.12225818893E+03 -0.32003911307E+03  0.49131056838E+03  0.77111814036E+02 0.  0.
         13    1    3    3    0    0  0.19826271309E+03 -0.10207183328E+03 -0.13358704515E+02  0.22339475718E+03  0.00000000000E+00 0. -1.
        -13    1    3    3    0    0  0.56507092569E+02 -0.63836873109E+02  0.52266012946E+02  0.99999669941E+02  0.00000000000E+00 0.  1.
          2    1    5    5  502    0 -0.15966772795E+02  0.10658162199E+02 -0.16312726750E+02  0.25192048527E+02  0.00000000000E+00 0. -1.
          1    1    4    4  503    0  0.30293645963E+02  0.73862665373E+01 -0.95965259426E+02  0.10090387969E+03  0.00000000000E+00 0. -1.
         -2    1    4    4    0  503  0.58546420305E+02  0.28078062878E+03 -0.16951067227E+04  0.17192010488E+04  0.00000000000E+00 0.  1.
         -1    1    5    5    0  502 -0.32764309913E+03 -0.13291635113E+03 -0.30372638632E+03  0.46611851986E+03  0.00000000000E+00 0.  1.
<mgrwt>
<rscale>  0 0.16273275E+04</rscale>
<asrwt>0</asrwt>
<pdfrwt beam="1">  1        2 0.36207796E+00 0.16273275E+04</pdfrwt>
<pdfrwt beam="2">  1       -2 0.43277397E-01 0.16273275E+04</pdfrwt>
<totfact> 0.20501954E+01</totfact>
</mgrwt>
</event>
<event>
12    1  0.2045212E-008  0.2103446E+04  0.7818608E-02  0.8559727E-01
         -2   -1    0    0    0  501 -0.00000000000E+00  0.00000000000E+00  0.70171632525E+03  0.70171632525E+03  0.00000000000E+00 0.  1.
          2   -1    0    0  501    0  0.00000000000E+00 -0.00000000000E+00 -0.15763082386E+04  0.15763082386E+04  0.00000000000E+00 0. -1.
         23    2    1    2    0    0  0.55468230105E+03 -0.37309847958E+02 -0.10491193870E+04  0.11917555823E+04  0.10278813112E+03 0.  0.
        254    2    1    2    0    0 -0.55468230105E+03  0.37309847958E+02  0.17452747368E+03  0.10862689815E+04  0.91676386344E+03 0.  0.
        -24    2    4    4    0    0 -0.26221466978E+03 -0.42455272423E+03 -0.15867357961E+01  0.50718352081E+03  0.90725174839E+02 0.  0.
         24    2    4    4    0    0 -0.29246763127E+03  0.46186257219E+03  0.17611420948E+03  0.57908546072E+03  0.73955426478E+02 0.  0.
         11    1    3    3    0    0  0.27331509328E+03  0.33027272779E+02 -0.50483810255E+03  0.57502473925E+03  0.00000000000E+00 0.  1.
        -11    1    3    3    0    0  0.28136720778E+03 -0.70337120737E+02 -0.54428128449E+03  0.61673084309E+03  0.00000000000E+00 0. -1.
          2    1    6    6  502    0 -0.22175688374E+02  0.29439384922E+02 -0.64994935057E+01  0.37425685769E+02  0.00000000000E+00 0. -1.
          3    1    5    5  503    0 -0.11454607319E+02 -0.69463371976E+02 -0.16164808809E+02  0.72233434910E+02  0.00000000000E+00 0. -1.
         -4    1    5    5    0  503 -0.25076006246E+03 -0.35508935225E+03  0.14578073013E+02  0.43495008590E+03  0.00000000000E+00 0.  1.
         -1    1    6    6    0  502 -0.27029194290E+03  0.43242318727E+03  0.18261370298E+03  0.54165977495E+03  0.00000000000E+00 0.  1.
<mgrwt>
<rscale>  0 0.21034460E+04</rscale>
<asrwt>0</asrwt>
<pdfrwt beam="1">  1        2 0.24250896E+00 0.21034460E+04</pdfrwt>
<pdfrwt beam="2">  1       -2 0.10795636E+00 0.21034460E+04</pdfrwt>
<totfact> 0.72838251E+00</totfact>
</mgrwt>
</event>
<event>
12    1  0.2045212E-008  0.1924995E+04  0.7818608E-02  0.8642514E-01
         -2   -1    0    0    0  501 -0.00000000000E+00  0.00000000000E+00  0.46281340463E+03  0.46281340463E+03  0.00000000000E+00 0.  1.
          2   -1    0    0  501    0  0.00000000000E+00 -0.00000000000E+00 -0.20016744474E+04  0.20016744474E+04  0.00000000000E+00 0. -1.
         23    2    1    2    0    0  0.47939953307E+02 -0.74558457239E+03 -0.52085719242E+03  0.91532343430E+03  0.91269823948E+02 0.  0.
        254    2    1    2    0    0 -0.47939953307E+02  0.74558457239E+03 -0.10180038503E+04  0.15491644177E+04  0.89743186934E+03 0.  0.
        -24    2    4    4    0    0  0.31638568552E+03  0.19582377817E+03 -0.56400609976E+02  0.38043062646E+03  0.55673859616E+02 0.  0.
         24    2    4    4    0    0 -0.36432563883E+03  0.54976079422E+03 -0.96160324032E+03  0.11687337912E+04  0.79295529417E+02 0.  0.
         11    1    3    3    0    0 -0.17070836031E+02 -0.10060831440E+03 -0.46980199343E+02  0.11234137928E+03  0.00000000000E+00 0. -1.
        -11    1    3    3    0    0  0.65010789338E+02 -0.64497625800E+03 -0.47387699308E+03  0.80298205502E+03  0.00000000000E+00 0.  1.
          4    1    6    6  502    0 -0.19454980648E+03  0.35121711646E+03 -0.54325860566E+03  0.67552424288E+03  0.00000000000E+00 0. -1.
          1    1    5    5  503    0  0.23447317659E+03  0.12052960303E+03 -0.24981417015E+02  0.26481904566E+03  0.00000000000E+00 0. -1.
         -2    1    5    5    0  503  0.81912508930E+02  0.75294175142E+02 -0.31419192962E+02  0.11561158080E+03  0.00000000000E+00 0.  1.
         -3    1    6    6    0  502 -0.16977583235E+03  0.19854367776E+03 -0.41834463466E+03  0.49320954835E+03  0.00000000000E+00 0.  1.
<mgrwt>
<rscale>  0 0.19249953E+04</rscale>
<asrwt>0</asrwt>
<pdfrwt beam="1">  1        2 0.30794990E+00 0.19249953E+04</pdfrwt>
<pdfrwt beam="2">  1       -2 0.71202065E-01 0.19249953E+04</pdfrwt>
<totfact> 0.11158970E+01</totfact>
</mgrwt>
</event>
<event>
12    1  0.2045212E-008  0.1782978E+04  0.7818608E-02  0.8715404E-01
         -2   -1    0    0    0  501 -0.00000000000E+00  0.00000000000E+00  0.27058025672E+03  0.27058025672E+03  0.00000000000E+00 0.  1.
          2   -1    0    0  501    0  0.00000000000E+00 -0.00000000000E+00 -0.29372150272E+04  0.29372150272E+04  0.00000000000E+00 0. -1.
         23    2    1    2    0    0 -0.87099157876E+02 -0.25417878620E+03  0.94594116492E+02  0.29937787015E+03  0.92119181508E+02 0.  0.
        254    2    1    2    0    0  0.87099157876E+02  0.25417878620E+03 -0.27612288869E+04  0.29084174137E+04  0.87310581708E+03 0.  0.
        -24    2    4    4    0    0  0.48946528377E+02 -0.10234205389E+03 -0.23586066606E+04  0.23633178922E+04  0.96831923736E+02 0.  0.
         24    2    4    4    0    0  0.38152629499E+02  0.35652084009E+03 -0.40262222630E+03  0.54509952151E+03  0.80412055629E+02 0.  0.
         11    1    3    3    0    0 -0.90596514902E+02 -0.16837555790E+03  0.33809956913E+02  0.19416789178E+03  0.00000000000E+00 0.  1.
        -11    1    3    3    0    0  0.34973570259E+01 -0.85803228297E+02  0.60784159578E+02  0.10520997837E+03  0.00000000000E+00 0. -1.
          4    1    6    6  502    0  0.47250882984E+02  0.26702064122E+03 -0.34270097084E+03  0.43700872325E+03  0.00000000000E+00 0. -1.
          1    1    5    5  503    0 -0.44373061358E+01  0.14607153079E+01 -0.50913737764E+01  0.69098091063E+01  0.00000000000E+00 0. -1.
         -2    1    5    5    0  503  0.53383834513E+02 -0.10380276920E+03 -0.23535152869E+04  0.23564080831E+04  0.00000000000E+00 0.  1.
         -3    1    6    6    0  502 -0.90982534845E+01  0.89500198865E+02 -0.59921255452E+02  0.10809079826E+03  0.00000000000E+00 0.  1.
<mgrwt>
<rscale>  0 0.17829777E+04</rscale>
<asrwt>0</asrwt>
<pdfrwt beam="1">  1        2 0.45187921E+00 0.17829777E+04</pdfrwt>
<pdfrwt beam="2">  1       -2 0.41627734E-01 0.17829777E+04</pdfrwt>
<totfact> 0.98846052E+00</totfact>
</mgrwt>
</event>
<event>
12    1  0.2045212E-008  0.1555363E+04  0.7818608E-02  0.8848449E-01
          2   -1    0    0  501    0  0.00000000000E+00  0.00000000000E+00  0.22170194437E+04  0.22170194437E+04  0.00000000000E+00 0. -1.
         -2   -1    0    0    0  501 -0.00000000000E+00 -0.00000000000E+00 -0.27279365428E+03  0.27279365428E+03  0.00000000000E+00 0.  1.
         23    2    1    2    0    0 -0.11789462845E+03 -0.31353937284E+03  0.26649434063E+02  0.34792362584E+03  0.90191880705E+02 0.  0.
        254    2    1    2    0    0  0.11789462845E+03  0.31353937284E+03  0.19175763554E+04  0.21418894722E+04  0.89352411863E+03 0.  0.
        -24    2    4    4    0    0  0.21521848828E+03  0.45846777832E+03  0.18750117142E+04  0.19445127496E+04  0.94600228272E+02 0.  0.
         24    2    4    4    0    0 -0.97323859833E+02 -0.14492840548E+03  0.42564641141E+02  0.19737672262E+03  0.81667897918E+02 0.  0.
         13    1    3    3    0    0 -0.12990915183E+03 -0.24525934772E+03  0.19421128304E+02  0.27821882682E+03  0.00000000000E+00 0.  1.
        -13    1    3    3    0    0  0.12014523381E+02 -0.68280025117E+02  0.72283057596E+01  0.69704799018E+02  0.00000000000E+00 0. -1.
          4    1    6    6  502    0 -0.19248990222E+02 -0.99904324547E+02  0.31875336783E+02  0.10661817285E+03  0.00000000000E+00 0. -1.
          1    1    5    5  503    0  0.14602047750E+03  0.38250267017E+03  0.14074074716E+04  0.14657510238E+04  0.00000000000E+00 0. -1.
         -2    1    5    5    0  503  0.69198010780E+02  0.75965108146E+02  0.46760424259E+03  0.47876172575E+03  0.00000000000E+00 0.  1.
         -3    1    6    6    0  502 -0.78074869611E+02 -0.45024080933E+02  0.10689304359E+02  0.90758549770E+02  0.00000000000E+00 0.  1.
<mgrwt>
<rscale>  0 0.15553634E+04</rscale>
<asrwt>0</asrwt>
<pdfrwt beam="1">  1        2 0.34107990E+00 0.15553634E+04</pdfrwt>
<pdfrwt beam="2">  1       -2 0.41968256E-01 0.15553634E+04</pdfrwt>
<totfact> 0.26174890E+01</totfact>
</mgrwt>
</event>
<event>
11    1  0.2045212E-008  0.2377758E+04  0.7818608E-02  0.8447878E-01
         -1   -1    0    0    0  501 -0.00000000000E+00  0.00000000000E+00  0.85831273673E+03  0.85831273673E+03  0.00000000000E+00 0.  1.
          1   -1    0    0  501    0  0.00000000000E+00 -0.00000000000E+00 -0.16467584878E+04  0.16467584878E+04  0.00000000000E+00 0. -1.
         23    2    1    2    0    0 -0.31118492857E+03  0.31548707124E+03 -0.13027301998E+04  0.13790167298E+04  0.90625689259E+02 0.  0.
        254    2    1    2    0    0  0.31118492857E+03 -0.31548707124E+03  0.51428444877E+03  0.11260544947E+04  0.89841086314E+03 0.  0.
         24    2    4    4    0    0  0.35212554117E+03  0.64593834095E+02  0.31077826253E+03  0.48070573310E+03  0.79562008709E+02 0.  0.
         13    1    3    3    0    0 -0.39442519888E+02  0.56984352253E+02 -0.12396015633E+03  0.14201777753E+03  0.00000000000E+00 0.  1.
        -13    1    3    3    0    0 -0.27174240868E+03  0.25850271899E+03 -0.11787700435E+04  0.12369989522E+04  0.00000000000E+00 0. -1.
          4    1    5    5  502    0  0.15762026119E+02 -0.14064583629E+02  0.14597977358E+02  0.25677907293E+02  0.00000000000E+00 0. -1.
          3    1    4    4  503    0  0.12034330281E+02  0.10634312758E+03 -0.17514824042E+02  0.10844563131E+03  0.00000000000E+00 0. -1.
         -4    1    4    4    0  503 -0.52974942882E+02 -0.48642403292E+03  0.22102101028E+03  0.53690313033E+03  0.00000000000E+00 0.  1.
         -3    1    5    5    0  502  0.33636351505E+03  0.78658417724E+02  0.29618028517E+03  0.45502782581E+03  0.00000000000E+00 0.  1.
<mgrwt>
<rscale>  0 0.23777584E+04</rscale>
<asrwt>0</asrwt>
<pdfrwt beam="1">  1        1 0.25334746E+00 0.23777584E+04</pdfrwt>
<pdfrwt beam="2">  1       -1 0.13204811E+00 0.23777584E+04</pdfrwt>
<totfact> 0.22680733E+00</totfact>
</mgrwt>
</event>
<event>
12    1  0.3297185E-008  0.1887447E+04  0.7818608E-02  0.8661130E-01
          1   -1    0    0  501    0  0.00000000000E+00  0.00000000000E+00  0.13466938983E+04  0.13466938983E+04  0.00000000000E+00 0. -1.
         -1   -1    0    0    0  501 -0.00000000000E+00 -0.00000000000E+00 -0.66133401839E+03  0.66133401839E+03  0.00000000000E+00 0.  1.
         23    2    1    2    0    0 -0.18916111130E+03  0.56434340314E+03  0.72202705744E+03  0.94021306327E+03  0.91717664486E+02 0.  0.
        254    2    1    2    0    0  0.18916111130E+03 -0.56434340314E+03 -0.36667177541E+02  0.10678148534E+04  0.88578703793E+03 0.  0.
        -24    2    4    4    0    0 -0.20426840105E+03  0.82439351683E+02 -0.17036848941E+03  0.29514095621E+03  0.97780036172E+02 0.  0.
         24    2    4    4    0    0  0.39342951235E+03 -0.64678275482E+03  0.13370131187E+03  0.77267389720E+03  0.77680097209E+02 0.  0.
         11    1    3    3    0    0 -0.13533901066E+03  0.48155906518E+03  0.63683636671E+03  0.80980018463E+03  0.00000000000E+00 0. -1.
        -11    1    3    3    0    0 -0.53822100640E+02  0.82784337958E+02  0.85190690728E+02  0.13041287864E+03  0.00000000000E+00 0.  1.
          4    1    6    6  502    0  0.24370292736E+03 -0.37122224225E+03  0.42645352132E+02  0.44611175282E+03  0.00000000000E+00 0. -1.
          3    1    5    5  503    0 -0.18796976788E+03  0.67807876163E+02 -0.10403727718E+03  0.22528714289E+03  0.00000000000E+00 0. -1.
         -4    1    5    5    0  503 -0.16298633164E+02  0.14631475520E+02 -0.66331212232E+02  0.69853813318E+02  0.00000000000E+00 0.  1.
         -3    1    6    6    0  502  0.14972658499E+03 -0.27556051257E+03  0.91055959738E+02  0.32656214438E+03  0.00000000000E+00 0.  1.
<mgrwt>
<rscale>  0 0.18874475E+04</rscale>
<asrwt>0</asrwt>
<pdfrwt beam="1">  1        1 0.20718368E+00 0.18874475E+04</pdfrwt>
<pdfrwt beam="2">  1       -1 0.10174370E+00 0.18874475E+04</pdfrwt>
<totfact> 0.71880676E+00</totfact>
</mgrwt>
</event>
<event>
11    1  0.2045212E-008  0.1823090E+04  0.7818608E-02  0.8694116E-01
         -2   -1    0    0    0  501 -0.00000000000E+00  0.00000000000E+00  0.32280501459E+03  0.32280501459E+03  0.00000000000E+00 0.  1.
          2   -1    0    0  501    0  0.00000000000E+00 -0.00000000000E+00 -0.25740436996E+04  0.25740436996E+04  0.00000000000E+00 0. -1.
         23    2    1    2    0    0  0.15398605077E+03  0.12047758244E+03  0.18929270334E+03  0.28773524539E+03  0.93452085042E+02 0.  0.
        254    2    1    2    0    0 -0.15398605077E+03 -0.12047758244E+03 -0.24405313884E+04  0.26091134688E+04  0.90169456242E+03 0.  0.
         24    2    4    4    0    0  0.25962016463E+03  0.21427451920E+03 -0.11140232888E+04  0.11662054937E+04  0.75307144048E+02 0.  0.
         13    1    3    3    0    0 -0.16798475940E+01  0.39860147466E+02  0.22706253936E+02  0.45904544565E+02  0.00000000000E+00 0. -1.
        -13    1    3    3    0    0  0.15566589837E+03  0.80617434971E+02  0.16658644940E+03  0.24183070082E+03  0.00000000000E+00 0.  1.
          4    1    5    5  502    0  0.10134721290E+03  0.12383487883E+03 -0.44953077268E+03  0.47716270848E+03  0.00000000000E+00 0. -1.
          1    1    4    4  503    0 -0.42495695254E+03 -0.33342239558E+03 -0.12009334493E+04  0.13168143586E+04  0.00000000000E+00 0. -1.
         -2    1    4    4    0  503  0.11350737134E+02 -0.13297060545E+01 -0.12557465028E+03  0.12609361659E+03  0.00000000000E+00 0.  1.
         -3    1    5    5    0  502  0.15827295173E+03  0.90439640361E+02 -0.66449251614E+03  0.68904278518E+03  0.00000000000E+00 0.  1.
<mgrwt>
<rscale>  0 0.18230899E+04</rscale>
<asrwt>0</asrwt>
<pdfrwt beam="1">  1        2 0.39600673E+00 0.18230899E+04</pdfrwt>
<pdfrwt beam="2">  1       -2 0.49662309E-01 0.18230899E+04</pdfrwt>
<totfact> 0.11411688E+01</totfact>
</mgrwt>
</event>
<event>
12    1  0.2045212E-008  0.1529198E+04  0.7818608E-02  0.8865266E-01
         -1   -1    0    0    0  501 -0.00000000000E+00  0.00000000000E+00  0.24293683492E+03  0.24293683492E+03  0.00000000000E+00 0.  1.
          1   -1    0    0  501    0  0.00000000000E+00 -0.00000000000E+00 -0.24064333234E+04  0.24064333234E+04  0.00000000000E+00 0. -1.
         23    2    1    2    0    0  0.49056359329E+03 -0.11395381038E+03 -0.58931609471E+03  0.78076152316E+03  0.93042928810E+02 0.  0.
        254    2    1    2    0    0 -0.49056359329E+03  0.11395381038E+03 -0.15741803938E+04  0.18686086351E+04  0.87178908531E+03 0.  0.
        -24    2    4    4    0    0 -0.23082111592E+03 -0.25921610499E+03 -0.18313222670E+03  0.40299913931E+03  0.91648879924E+02 0.  0.
         24    2    4    4    0    0 -0.25974247737E+03  0.37316991536E+03 -0.13910481671E+04  0.14656094958E+04  0.79210169222E+02 0.  0.
         11    1    3    3    0    0  0.20273804532E+03 -0.50528718052E+02 -0.17638340206E+03  0.27343549676E+03  0.00000000000E+00 0.  1.
        -11    1    3    3    0    0  0.28782554797E+03 -0.63425092324E+02 -0.41293269265E+03  0.50732602640E+03  0.00000000000E+00 0. -1.
          2    1    6    6  502    0 -0.33772178983E+02  0.62882877104E+02 -0.31974565451E+03  0.32761578088E+03  0.00000000000E+00 0. -1.
          3    1    5    5  503    0 -0.32333889253E+02  0.20098816785E+00 -0.15625317257E+02  0.35911994234E+02  0.00000000000E+00 0. -1.
         -4    1    5    5    0  503 -0.19848722666E+03 -0.25941709315E+03 -0.16750690945E+03  0.36708714508E+03  0.00000000000E+00 0.  1.
         -1    1    6    6    0  502 -0.22597029839E+03  0.31028703826E+03 -0.10713025126E+04  0.11379937150E+04  0.00000000000E+00 0.  1.
<mgrwt>
<rscale>  0 0.15291976E+04</rscale>
<asrwt>0</asrwt>
<pdfrwt beam="1">  1        1 0.37022049E+00 0.15291976E+04</pdfrwt>
<pdfrwt beam="2">  1       -1 0.37374900E-01 0.15291976E+04</pdfrwt>
<totfact> 0.10481712E+01</totfact>
</mgrwt>
</event>
<event>
12    1  0.2045212E-008  0.2046263E+04  0.7818608E-02  0.8585292E-01
          2   -1    0    0  501    0  0.00000000000E+00  0.00000000000E+00  0.20018662778E+04  0.20018662778E+04  0.00000000000E+00 0. -1.
         -2   -1    0    0    0  501 -0.00000000000E+00 -0.00000000000E+00 -0.52291108427E+03  0.52291108427E+03  0.00000000000E+00 0.  1.
         23    2    1    2    0    0  0.53577790018E+03  0.39202187067E+03  0.11948059314E+04  0.13699116150E+04  0.91419439262E+02 0.  0.
        254    2    1    2    0    0 -0.53577790018E+03 -0.39202187067E+03  0.28414926210E+03  0.11548657470E+04  0.90124080304E+03 0.  0.
        -24    2    4    4    0    0 -0.33473344944E+03 -0.54438931747E+03  0.49816653974E+03  0.81530455613E+03  0.90251907326E+02 0.  0.
         24    2    4    4    0    0 -0.20104445074E+03  0.15236744680E+03 -0.21401727764E+03  0.33956119088E+03  0.76574781813E+02 0.  0.
         13    1    3    3    0    0  0.19076478960E+03  0.11326639638E+03  0.32444568178E+03  0.39304641193E+03  0.00000000000E+00 0.  1.
        -13    1    3    3    0    0  0.34501311058E+03  0.27875547429E+03  0.87036024960E+03  0.97686520309E+03  0.00000000000E+00 0. -1.
          4    1    6    6  502    0 -0.19588269808E+03  0.11759726776E+03 -0.18493307053E+03  0.29393773042E+03  0.00000000000E+00 0. -1.
          1    1    5    5  503    0 -0.17970735274E+03 -0.36714729851E+03  0.29225142117E+03  0.50249653193E+03  0.00000000000E+00 0. -1.
         -2    1    5    5    0  503 -0.15502609670E+03 -0.17724201896E+03  0.20591511857E+03  0.31280802419E+03  0.00000000000E+00 0.  1.
         -3    1    6    6    0  502 -0.51617526577E+01  0.34770179044E+02 -0.29084207103E+02  0.45623460457E+02  0.00000000000E+00 0.  1.
<mgrwt>
<rscale>  0 0.20462630E+04</rscale>
<asrwt>0</asrwt>
<pdfrwt beam="1">  1        2 0.30797942E+00 0.20462630E+04</pdfrwt>
<pdfrwt beam="2">  1       -2 0.80447860E-01 0.20462630E+04</pdfrwt>
<totfact> 0.84204556E+00</totfact>
</mgrwt>
</event>
<event>
12    1  0.2045212E-008  0.1373519E+04  0.7818608E-02  0.8973213E-01
          1   -1    0    0  501    0  0.00000000000E+00  0.00000000000E+00  0.17285549362E+04  0.17285549362E+04  0.00000000000E+00 0. -1.
         -1   -1    0    0    0  501 -0.00000000000E+00 -0.00000000000E+00 -0.27285131999E+03  0.27285131999E+03  0.00000000000E+00 0.  1.
         23    2    1    2    0    0  0.17819792108E+03 -0.30065357598E+03  0.66796638410E+03  0.75880931166E+03  0.86402600370E+02 0.  0.
        254    2    1    2    0    0 -0.17819792108E+03  0.30065357598E+03  0.78773723207E+03  0.12425969445E+04  0.89519279926E+03 0.  0.
        -24    2    4    4    0    0 -0.15737660660E+03  0.24619234636E+03  0.98006398229E+03  0.10267058525E+04  0.90672103772E+02 0.  0.
         24    2    4    4    0    0 -0.20821314480E+02  0.54461229623E+02 -0.19232675022E+03  0.21589109202E+03  0.78865912136E+02 0.  0.
         11    1    3    3    0    0  0.12917865879E+03 -0.27547905084E+03  0.54827186990E+03  0.62703897539E+03  0.00000000000E+00 0.  1.
        -11    1    3    3    0    0  0.49019262283E+02 -0.25174525145E+02  0.11969451419E+03  0.13177033626E+03  0.00000000000E+00 0. -1.
          4    1    6    6  502    0 -0.37789074243E+02  0.35953555776E+02 -0.53154288853E+02  0.74471811637E+02  0.00000000000E+00 0. -1.
          3    1    5    5  503    0 -0.93423011704E+02  0.83497720275E+02  0.31382017799E+03  0.33790950345E+03  0.00000000000E+00 0. -1.
         -4    1    5    5    0  503 -0.63953594892E+02  0.16269462608E+03  0.66624380429E+03  0.68879634902E+03  0.00000000000E+00 0.  1.
         -3    1    6    6    0  502  0.16967759763E+02  0.18507673848E+02 -0.13917246137E+03  0.14141928039E+03  0.00000000000E+00 0.  1.
<mgrwt>
<rscale>  0 0.13735188E+04</rscale>
<asrwt>0</asrwt>
<pdfrwt beam="1">  1        1 0.26593152E+00 0.13735188E+04</pdfrwt>
<pdfrwt beam="2">  1       -1 0.41977127E-01 0.13735188E+04</pdfrwt>
<totfact> 0.24819682E+01</totfact>
</mgrwt>
</event>
<event>
11    1  0.2045212E-008  0.1309332E+04  0.7818608E-02  0.9022197E-01
         -1   -1    0    0    0  501 -0.00000000000E+00  0.00000000000E+00  0.42806480087E+03  0.42806480087E+03  0.00000000000E+00 0.  1.
          1   -1    0    0  501    0  0.00000000000E+00 -0.00000000000E+00 -0.10012218608E+04  0.10012218608E+04  0.00000000000E+00 0. -1.
         23    2    1    2    0    0 -0.20520780392E+03  0.70033002234E+02 -0.42475087022E+03  0.48534624205E+03  0.90182086532E+02 0.  0.
        254    2    1    2    0    0  0.20520780392E+03 -0.70033002234E+02 -0.14840618966E+03  0.94394041957E+03  0.90663347301E+03 0.  0.
         24    2    4    4    0    0  0.48274337887E+03 -0.25125324240E+03 -0.52892997416E+02  0.55239662078E+03  0.78581141590E+02 0.  0.
         11    1    3    3    0    0 -0.19851214910E+02 -0.52984661059E+00 -0.40908854421E+01  0.20275275942E+02  0.00000000000E+00 0.  1.
        -11    1    3    3    0    0 -0.18535658901E+03  0.70562848844E+02 -0.42065998478E+03  0.46507096611E+03  0.00000000000E+00 0. -1.
          2    1    5    5  502    0 -0.21045074629E+01 -0.18342717214E+01  0.32369420884E+01  0.42744939458E+01  0.00000000000E+00 0. -1.
          3    1    4    4  503    0 -0.19207238055E+03  0.10694881632E+03 -0.14974970379E+03  0.26599778658E+03  0.00000000000E+00 0. -1.
         -4    1    4    4    0  503 -0.85463194405E+02  0.74271423849E+02  0.54236511538E+02  0.12554601221E+03  0.00000000000E+00 0.  1.
         -1    1    5    5    0  502  0.48484788633E+03 -0.24941897068E+03 -0.56129939505E+02  0.54812212683E+03  0.00000000000E+00 0.  1.
<mgrwt>
<rscale>  0 0.13093324E+04</rscale>
<asrwt>0</asrwt>
<pdfrwt beam="1">  1        1 0.15403413E+00 0.13093324E+04</pdfrwt>
<pdfrwt beam="2">  1       -1 0.65856124E-01 0.13093324E+04</pdfrwt>
<totfact> 0.34646585E+01</totfact>
</mgrwt>
</event>
<event>
11    1  0.2045212E-008  0.2423468E+04  0.7818608E-02  0.8430769E-01
          2   -1    0    0  501    0  0.00000000000E+00  0.00000000000E+00  0.94446396469E+03  0.94446396469E+03  0.00000000000E+00 0.  1.
         -2   -1    0    0    0  501 -0.00000000000E+00 -0.00000000000E+00 -0.15546380790E+04  0.15546380790E+04  0.00000000000E+00 0. -1.
         23    2    1    2    0    0 -0.41691548533E+03 -0.14045177042E+03 -0.12294176733E+04  0.13089833920E+04  0.91784984084E+02 0.  0.
        254    2    1    2    0    0  0.41691548533E+03  0.14045177042E+03  0.61924355901E+03  0.11901186517E+04  0.91617389074E+03 0.  0.
         24    2    4    4    0    0 -0.52953109964E+02  0.57396407024E+01 -0.20308280441E+03  0.22460119011E+03  0.79787804966E+02 0.  0.
         13    1    3    3    0    0 -0.35242392638E+03 -0.13847041115E+03 -0.11161246458E+04  0.11786054911E+04  0.00000000000E+00 0. -1.
        -13    1    3    3    0    0 -0.64491558946E+02 -0.19813592732E+01 -0.11329302755E+03  0.13037790094E+03  0.00000000000E+00 0.  1.
          4    1    5    5  502    0  0.41978970446E+01  0.24812158961E+02 -0.20892576781E+02  0.32707267334E+02  0.00000000000E+00 0. -1.
          3    1    4    4  503    0  0.16402647180E+03 -0.12164091952E+02  0.31202091564E+03  0.35271759296E+03  0.00000000000E+00 0. -1.
         -2    1    4    4    0  503  0.30584212350E+03  0.14687622167E+03  0.51030544777E+03  0.61279986865E+03  0.00000000000E+00 0.  1.
         -3    1    5    5    0  502 -0.57151007008E+02 -0.19072518258E+02 -0.18219022763E+03  0.19189392277E+03  0.00000000000E+00 0.  1.
<mgrwt>
<rscale>  0 0.24234683E+04</rscale>
<asrwt>0</asrwt>
<pdfrwt beam="1">  1        2 0.14530215E+00 0.24234683E+04</pdfrwt>
<pdfrwt beam="2">  1       -2 0.23917509E+00 0.24234683E+04</pdfrwt>
<totfact> 0.18414920E+00</totfact>
</mgrwt>
</event>
<event>
12    1  0.2045212E-008  0.1452572E+04  0.7818608E-02  0.8916619E-01
         -2   -1    0    0    0  501 -0.00000000000E+00  0.00000000000E+00  0.10728302803E+04  0.10728302803E+04  0.00000000000E+00 0. -1.
          2   -1    0    0  501    0  0.00000000000E+00 -0.00000000000E+00 -0.49168191056E+03  0.49168191056E+03  0.00000000000E+00 0.  1.
         23    2    1    2    0    0 -0.13366165204E+03  0.40303038756E+03  0.20445029355E+03  0.48024269746E+03  0.92380709084E+02 0.  0.
        254    2    1    2    0    0  0.13366165204E+03 -0.40303038756E+03  0.37669807621E+03  0.10842694934E+04  0.92381814401E+03 0.  0.
        -24    2    4    4    0    0  0.21931436222E+03 -0.64480413278E+03  0.43354576990E+03  0.80952889979E+03  0.59194137007E+02 0.  0.
         24    2    4    4    0    0 -0.85652710185E+02  0.24177374522E+03 -0.56847693686E+02  0.27474059363E+03  0.80372898845E+02 0.  0.
         11    1    3    3    0    0 -0.29030530598E+02  0.40331074063E+02  0.55323391793E+02  0.74364271807E+02  0.00000000000E+00 0. -1.
        -11    1    3    3    0    0 -0.10463112144E+03  0.36269931350E+03  0.14912690176E+03  0.40587842566E+03  0.00000000000E+00 0.  1.
          4    1    6    6  502    0 -0.44193233241E+02  0.19839476809E+03 -0.19798636551E+02  0.20421927401E+03  0.00000000000E+00 0. -1.
          1    1    5    5  503    0  0.18542841277E+03 -0.46539783926E+03  0.32359676596E+03  0.59640063044E+03  0.00000000000E+00 0. -1.
         -2    1    5    5    0  503  0.33885949454E+02 -0.17940629352E+03  0.10994900394E+03  0.21312826934E+03  0.00000000000E+00 0.  1.
         -3    1    6    6    0  502 -0.41459476944E+02  0.43378977135E+02 -0.37049057135E+02  0.70521319615E+02  0.00000000000E+00 0.  1.
<mgrwt>
<rscale>  0 0.14525718E+04</rscale>
<asrwt>0</asrwt>
<pdfrwt beam="1">  1        2 0.75643371E-01 0.14525718E+04</pdfrwt>
<pdfrwt beam="2">  1       -2 0.16505081E+00 0.14525718E+04</pdfrwt>
<totfact> 0.14068959E+01</totfact>
</mgrwt>
</event>
<event>
12    1  0.2045212E-008  0.1750133E+04  0.7818608E-02  0.8733277E-01
         -2   -1    0    0    0  501 -0.00000000000E+00  0.00000000000E+00  0.10371898981E+04  0.10371898981E+04  0.00000000000E+00 0.  1.
          2   -1    0    0  501    0  0.00000000000E+00 -0.00000000000E+00 -0.73828469242E+03  0.73828469242E+03  0.00000000000E+00 0. -1.
         23    2    1    2    0    0  0.45030743197E+03  0.15402109924E+03 -0.32830283015E+03  0.58520488731E+03  0.90458440994E+02 0.  0.
        254    2    1    2    0    0 -0.45030743197E+03 -0.15402109924E+03  0.62720803588E+03  0.11902697033E+04  0.89266609879E+03 0.  0.
        -24    2    4    4    0    0 -0.51615321145E+02 -0.45960339979E+03  0.15941630705E+03  0.49910059237E+03  0.98936423399E+02 0.  0.
         24    2    4    4    0    0 -0.39869211082E+03  0.30558230055E+03  0.46779172883E+03  0.69116911089E+03  0.80930196104E+02 0.  0.
         11    1    3    3    0    0  0.45345112425E+03  0.15504493798E+03 -0.32962533709E+03  0.58164397850E+03  0.00000000000E+00 0. -1.
        -11    1    3    3    0    0 -0.31436922827E+01 -0.10238387467E+01  0.13225069316E+01  0.35609088070E+01  0.00000000000E+00 0.  1.
          2    1    6    6  502    0 -0.20178575943E+03  0.18537959289E+03  0.21003000676E+03  0.34524728805E+03  0.00000000000E+00 0. -1.
          1    1    5    5  503    0 -0.58937283077E+02 -0.42243678310E+03  0.17093748375E+03  0.45950632466E+03  0.00000000000E+00 0. -1.
         -2    1    5    5    0  503  0.73219619319E+01 -0.37166616694E+02 -0.11521176703E+02  0.39594267712E+02  0.00000000000E+00 0.  1.
         -1    1    6    6    0  502 -0.19690635139E+03  0.12020270766E+03  0.25776172208E+03  0.34592182284E+03  0.00000000000E+00 0.  1.
<mgrwt>
<rscale>  0 0.17501331E+04</rscale>
<asrwt>0</asrwt>
<pdfrwt beam="1">  1        2 0.11358226E+00 0.17501331E+04</pdfrwt>
<pdfrwt beam="2">  1       -2 0.15956768E+00 0.17501331E+04</pdfrwt>
<totfact> 0.91998687E+00</totfact>
</mgrwt>
</event>
<event>
12    1  0.2045212E-008  0.1653031E+04  0.7818608E-02  0.8788616E-01
         -1   -1    0    0    0  501 -0.00000000000E+00  0.00000000000E+00  0.30465934259E+03  0.30465934259E+03  0.00000000000E+00 0.  1.
          1   -1    0    0  501    0  0.00000000000E+00 -0.00000000000E+00 -0.22422672023E+04  0.22422672023E+04  0.00000000000E+00 0. -1.
         23    2    1    2    0    0 -0.68053184950E+02  0.14934512502E+03  0.16264894036E+03  0.24832560027E+03  0.90971004144E+02 0.  0.
        254    2    1    2    0    0  0.68053184950E+02 -0.14934512502E+03 -0.21002568001E+04  0.22986009446E+04  0.91953927269E+03 0.  0.
        -24    2    4    4    0    0  0.37814736399E+02  0.26803591925E+03 -0.19427592447E+03  0.34556555545E+03  0.91647203932E+02 0.  0.
         24    2    4    4    0    0  0.30238448551E+02 -0.41738104427E+03 -0.19059808756E+04  0.19530353892E+04  0.80391749067E+02 0.  0.
         11    1    3    3    0    0 -0.59963621918E+02  0.12208407228E+03  0.17117913414E+03  0.21863772004E+03  0.00000000000E+00 0.  1.
        -11    1    3    3    0    0 -0.80895630318E+01  0.27261052741E+02 -0.85301937741E+01  0.29687880227E+02  0.00000000000E+00 0. -1.
          4    1    6    6  502    0 -0.18780899557E+02 -0.23162624006E+03 -0.95785162646E+03  0.98563846089E+03  0.00000000000E+00 0. -1.
          3    1    5    5  503    0  0.12613490066E+02  0.25769434333E+03 -0.18169088911E+03  0.31555832092E+03  0.00000000000E+00 0. -1.
         -4    1    5    5    0  503  0.25201246333E+02  0.10341575921E+02 -0.12585035360E+02  0.30007234532E+02  0.00000000000E+00 0.  1.
         -3    1    6    6    0  502  0.49019348107E+02 -0.18575480422E+03 -0.94812924912E+03  0.96739692827E+03  0.00000000000E+00 0.  1.
<mgrwt>
<rscale>  0 0.16530307E+04</rscale>
<asrwt>0</asrwt>
<pdfrwt beam="1">  1        1 0.34496418E+00 0.16530307E+04</pdfrwt>
<pdfrwt beam="2">  1       -1 0.46870668E-01 0.16530307E+04</pdfrwt>
<totfact> 0.88431942E+00</totfact>
</mgrwt>
</event>
<event>
12    1  0.2045212E-008  0.1533518E+04  0.7818608E-02  0.8862465E-01
          2   -1    0    0  501    0  0.00000000000E+00  0.00000000000E+00  0.12448232174E+04  0.12448232174E+04  0.00000000000E+00 0.  1.
         -2   -1    0    0    0  501 -0.00000000000E+00 -0.00000000000E+00 -0.47229148613E+03  0.47229148613E+03  0.00000000000E+00 0. -1.
         23    2    1    2    0    0  0.27659586205E+03 -0.33347914587E+03  0.52727270418E+03  0.68759794434E+03  0.84028666864E+02 0.  0.
        254    2    1    2    0    0 -0.27659586205E+03  0.33347914587E+03  0.24525902714E+03  0.10295167592E+04  0.90113215208E+03 0.  0.
        -24    2    4    4    0    0 -0.43414773454E+03  0.51873713184E+03  0.11562824735E+02  0.68263288909E+03  0.91002719720E+02 0.  0.
         24    2    4    4    0    0  0.15755187250E+03 -0.18525798597E+03  0.23369620240E+03  0.34688387014E+03  0.81064113246E+02 0.  0.
         13    1    3    3    0    0  0.52231736572E+01 -0.44617979333E+02  0.57498170105E+02  0.72966329140E+02  0.00000000000E+00 0. -1.
        -13    1    3    3    0    0  0.27137268839E+03 -0.28886116654E+03  0.46977453408E+03  0.61463161520E+03  0.00000000000E+00 0.  1.
          4    1    6    6  502    0  0.45967150856E+02 -0.10780050601E+03  0.80699460276E+02  0.14228960237E+03  0.00000000000E+00 0. -1.
          1    1    5    5  503    0 -0.40769153506E+03  0.44404233802E+03  0.18408557455E+02  0.60309606258E+03  0.00000000000E+00 0. -1.
         -4    1    5    5    0  503 -0.26456199483E+02  0.74694793821E+02 -0.68457327203E+01  0.79536826512E+02  0.00000000000E+00 0.  1.
         -3    1    6    6    0  502  0.11158472164E+03 -0.77457479961E+02  0.15299674212E+03  0.20459426778E+03  0.00000000000E+00 0.  1.
<mgrwt>
<rscale>  0 0.15335181E+04</rscale>
<asrwt>0</asrwt>
<pdfrwt beam="1">  1        2 0.19151126E+00 0.15335181E+04</pdfrwt>
<pdfrwt beam="2">  1       -2 0.72660229E-01 0.15335181E+04</pdfrwt>
<totfact> 0.29405770E+01</totfact>
</mgrwt>
</event>
<event>
11    1  0.2045212E-008  0.1310947E+04  0.7818608E-02  0.9020929E-01
          2   -1    0    0  501    0  0.00000000000E+00  0.00000000000E+00  0.33186343352E+03  0.33186343352E+03  0.00000000000E+00 0. -1.
         -2   -1    0    0    0  501 -0.00000000000E+00 -0.00000000000E+00 -0.12946454529E+04  0.12946454529E+04  0.00000000000E+00 0.  1.
         23    2    1    2    0    0 -0.50474238028E+02  0.95194412901E+02  0.13886857027E+03  0.19846972433E+03  0.92174436337E+02 0.  0.
        254    2    1    2    0    0  0.50474238028E+02 -0.95194412901E+02 -0.11016505896E+04  0.14280391621E+04  0.90224841470E+03 0.  0.
         24    2    4    4    0    0  0.15732196515E+03  0.29672723185E+03 -0.16370561897E+03  0.38180335146E+03  0.78594011641E+02 0.  0.
         13    1    3    3    0    0 -0.24496962472E+02  0.45960482716E+01 -0.60042463959E+01  0.25637390758E+02  0.00000000000E+00 0.  1.
        -13    1    3    3    0    0 -0.25977275556E+02  0.90598364630E+02  0.14487281667E+03  0.17283233357E+03  0.00000000000E+00 0. -1.
          2    1    5    5  502    0  0.11858517690E+03  0.16738526961E+03 -0.12925103092E+03  0.24245845347E+03  0.00000000000E+00 0. -1.
          1    1    4    4  503    0  0.67240731390E+02 -0.13983650927E+03 -0.36279780604E+03  0.39458562233E+03  0.00000000000E+00 0. -1.
         -2    1    4    4    0  503 -0.17408845851E+03 -0.25208513548E+03 -0.57514716461E+03  0.65165018828E+03  0.00000000000E+00 0.  1.
         -1    1    5    5    0  502  0.38736788247E+02  0.12934196224E+03 -0.34454588048E+02  0.13934489800E+03  0.00000000000E+00 0.  1.
<mgrwt>
<rscale>  0 0.13109470E+04</rscale>
<asrwt>0</asrwt>
<pdfrwt beam="1">  1        2 0.51055913E-01 0.13109470E+04</pdfrwt>
<pdfrwt beam="2">  1       -2 0.19917622E+00 0.13109470E+04</pdfrwt>
<totfact> 0.12925889E+01</totfact>
</mgrwt>
</event>
<event>
11    1  0.2573363E-008  0.1591523E+04  0.7818608E-02  0.8825772E-01
          3   -1    0    0  501    0  0.00000000000E+00  0.00000000000E+00  0.20482416942E+04  0.20482416942E+04  0.00000000000E+00 0. -1.
         -3   -1    0    0    0  501 -0.00000000000E+00 -0.00000000000E+00 -0.30916113589E+03  0.30916113589E+03  0.00000000000E+00 0.  1.
         23    2    1    2    0    0 -0.38892078439E+02 -0.21662821780E+03 -0.13000066325E+03  0.27155760003E+03  0.91667765209E+02 0.  0.
        254    2    1    2    0    0  0.38892078439E+02  0.21662821780E+03  0.18690812216E+04  0.20858452301E+04  0.89935828926E+03 0.  0.
         24    2    4    4    0    0 -0.99548523244E+02  0.51381999198E+03  0.78881292613E+03  0.95073619173E+03  0.88048743335E+02 0.  0.
         11    1    3    3    0    0  0.26353870009E+02 -0.28435273157E+02 -0.15072628643E+02  0.41596578683E+02  0.00000000000E+00 0. -1.
        -11    1    3    3    0    0 -0.65245948447E+02 -0.18819294464E+03 -0.11492803460E+03  0.22996102135E+03  0.00000000000E+00 0.  1.
          2    1    5    5  502    0 -0.24569666243E+02  0.31380761968E+02  0.37507141193E+02  0.54728478523E+02  0.00000000000E+00 0. -1.
          1    1    4    4  503    0  0.11105596335E+02 -0.20247147925E+02  0.16112859050E+02  0.28158577659E+02  0.00000000000E+00 0. -1.
         -2    1    4    4    0  503  0.12733500535E+03 -0.27694462625E+03  0.10641554364E+04  0.11069504607E+04  0.00000000000E+00 0.  1.
         -1    1    5    5    0  502 -0.74978857001E+02  0.48243923001E+03  0.75130578494E+03  0.89600771321E+03  0.00000000000E+00 0.  1.
<mgrwt>
<rscale>  0 0.15915235E+04</rscale>
<asrwt>0</asrwt>
<pdfrwt beam="1">  1        3 0.31511410E+00 0.15915235E+04</pdfrwt>
<pdfrwt beam="2">  1       -3 0.47563253E-01 0.15915235E+04</pdfrwt>
<totfact> 0.35420665E-01</totfact>
</mgrwt>
</event>
<event>
12    1  0.2045212E-008  0.2255056E+04  0.7818608E-02  0.8495856E-01
          1   -1    0    0  501    0  0.00000000000E+00  0.00000000000E+00  0.13204524436E+04  0.13204524436E+04  0.00000000000E+00 0. -1.
         -1   -1    0    0    0  501 -0.00000000000E+00 -0.00000000000E+00 -0.96279055256E+03  0.96279055256E+03  0.00000000000E+00 0.  1.
         23    2    1    2    0    0 -0.21153828754E+03 -0.48034078958E+03  0.95885351391E+03  0.10966789311E+04  0.88481045889E+02 0.  0.
        254    2    1    2    0    0  0.21153828754E+03  0.48034078958E+03 -0.60119162290E+03  0.11865640651E+04  0.87808154051E+03 0.  0.
        -24    2    4    4    0    0 -0.19218772655E+03  0.35693695446E+03  0.35720994572E+02  0.41818654723E+03  0.96249088993E+02 0.  0.
         24    2    4    4    0    0  0.40372601410E+03  0.12340383512E+03 -0.63691261748E+03  0.76837751782E+03  0.80765875268E+02 0.  0.
         11    1    3    3    0    0 -0.20574929326E+02 -0.10782046710E+03  0.25711001507E+03  0.27956062079E+03  0.00000000000E+00 0. -1.
        -11    1    3    3    0    0 -0.19096335822E+03 -0.37252032248E+03  0.70174349884E+03  0.81711831029E+03  0.00000000000E+00 0.  1.
          4    1    6    6  502    0  0.25036762773E+03  0.34989855947E+02 -0.37549742841E+03  0.45266605547E+03  0.00000000000E+00 0. -1.
          1    1    5    5  503    0 -0.12873818655E+03  0.25679069267E+03 -0.18442122941E+02  0.28784560517E+03  0.00000000000E+00 0. -1.
         -2    1    5    5    0  503 -0.63449540009E+02  0.10014626179E+03  0.54163117514E+02  0.13034094206E+03  0.00000000000E+00 0.  1.
         -3    1    6    6    0  502  0.15335838637E+03  0.88413979175E+02 -0.26141518907E+03  0.31571146235E+03  0.00000000000E+00 0.  1.
<mgrwt>
<rscale>  0 0.22550558E+04</rscale>
<asrwt>0</asrwt>
<pdfrwt beam="1">  1        1 0.20314653E+00 0.22550558E+04</pdfrwt>
<pdfrwt beam="2">  1       -1 0.14812162E+00 0.22550558E+04</pdfrwt>
<totfact> 0.28647848E+00</totfact>
</mgrwt>
</event>
<event>
11    1  0.2045212E-008  0.1552636E+04  0.7818608E-02  0.8850185E-01
         -2   -1    0    0    0  501 -0.00000000000E+00  0.00000000000E+00  0.15716038562E+03  0.15716038562E+03  0.00000000000E+00 0.  1.
          2   -1    0    0  501    0  0.00000000000E+00 -0.00000000000E+00 -0.38347448694E+04  0.38347448694E+04  0.00000000000E+00 0. -1.
         23    2    1    2    0    0  0.31032946085E+02 -0.49734492451E+03 -0.13444739946E+04  0.14367197733E+04  0.90765451905E+02 0.  0.
        254    2    1    2    0    0 -0.31032946085E+02  0.49734492451E+03 -0.23331104892E+04  0.25551854817E+04  0.91501544983E+03 0.  0.
         24    2    4    4    0    0 -0.50226550356E+02  0.55616916789E+03 -0.86925762386E+03  0.10360756148E+04  0.77440385299E+02 0.  0.
         13    1    3    3    0    0 -0.10812173460E+02 -0.10892182457E+03 -0.39827204985E+03  0.41303933548E+03  0.00000000000E+00 0. -1.
        -13    1    3    3    0    0  0.41845119545E+02 -0.38842309994E+03 -0.94620194471E+03  0.10236804378E+04  0.00000000000E+00 0.  1.
          2    1    5    5  502    0  0.19419972683E+02  0.10790629029E+03 -0.18686595081E+03  0.21665591706E+03  0.00000000000E+00 0. -1.
          3    1    4    4  503    0  0.10778165436E+02  0.16995506098E+03 -0.49137615503E+03  0.52004943739E+03  0.00000000000E+00 0. -1.
         -4    1    4    4    0  503  0.84154388348E+01 -0.22877930436E+03 -0.97247671029E+03  0.99906042949E+03  0.00000000000E+00 0.  1.
         -1    1    5    5    0  502 -0.69646523038E+02  0.44826287760E+03 -0.68239167304E+03  0.81941969774E+03  0.00000000000E+00 0.  1.
<mgrwt>
<rscale>  0 0.15526364E+04</rscale>
<asrwt>0</asrwt>
<pdfrwt beam="1">  1        2 0.58996070E+00 0.15526364E+04</pdfrwt>
<pdfrwt beam="2">  1       -2 0.24178523E-01 0.15526364E+04</pdfrwt>
<totfact> 0.69029004E+00</totfact>
</mgrwt>
</event>
<event>
12    1  0.2045212E-008  0.2996060E+04  0.7818608E-02  0.8244857E-01
         -2   -1    0    0    0  501 -0.00000000000E+00  0.00000000000E+00  0.15014769424E+04  0.15014769424E+04  0.00000000000E+00 0. -1.
          2   -1    0    0  501    0  0.00000000000E+00 -0.00000000000E+00 -0.14945914207E+04  0.14945914207E+04  0.00000000000E+00 0.  1.
         23    2    1    2    0    0 -0.83464774570E+03  0.52559035518E+03 -0.94539729926E+03  0.13687566703E+04  0.82684267368E+02 0.  0.
        254    2    1    2    0    0  0.83464774570E+03 -0.52559035518E+03  0.95228282098E+03  0.16273116928E+04  0.87659494270E+03 0.  0.
        -24    2    4    4    0    0  0.33698555863E+03 -0.61469289045E+03  0.84520905375E+03  0.11035849883E+04  0.11006755023E+03 0.  0.
         24    2    4    4    0    0  0.49766218706E+03  0.89102535264E+02  0.10707376723E+03  0.52372670449E+03  0.84958549551E+02 0.  0.
         13    1    3    3    0    0 -0.23095780850E+03  0.10520255858E+03 -0.22616911370E+03  0.33994345946E+03  0.00000000000E+00 0. -1.
        -13    1    3    3    0    0 -0.60368993720E+03  0.42038779661E+03 -0.71922818556E+03  0.10288132108E+04  0.00000000000E+00 0.  1.
          2    1    6    6  502    0  0.34583700127E+03  0.35510418544E+02  0.42457895083E+02  0.35023833903E+03  0.00000000000E+00 0. -1.
          3    1    5    5  503    0  0.27452151423E+03 -0.56774562760E+03  0.73461989371E+03  0.96817537031E+03  0.00000000000E+00 0. -1.
         -4    1    5    5    0  503  0.62464044409E+02 -0.46947262843E+02  0.11058916004E+03  0.13540961801E+03  0.00000000000E+00 0.  1.
         -1    1    6    6    0  502  0.15182518579E+03  0.53592116721E+02  0.64615872143E+02  0.17348836546E+03  0.00000000000E+00 0.  1.
<mgrwt>
<rscale>  0 0.29960605E+04</rscale>
<asrwt>0</asrwt>
<pdfrwt beam="1">  1        2 0.22993714E+00 0.29960605E+04</pdfrwt>
<pdfrwt beam="2">  1       -2 0.23099645E+00 0.29960605E+04</pdfrwt>
<totfact> 0.92261185E-01</totfact>
</mgrwt>
</event>
<event>
11    1  0.2045212E-008  0.2297915E+04  0.7818608E-02  0.8478744E-01
          1   -1    0    0  501    0  0.00000000000E+00  0.00000000000E+00  0.24370861509E+04  0.24370861509E+04  0.00000000000E+00 0. -1.
         -1   -1    0    0    0  501 -0.00000000000E+00 -0.00000000000E+00 -0.54167271525E+03  0.54167271525E+03  0.00000000000E+00 0.  1.
         23    2    1    2    0    0  0.63229883395E+03  0.35533380355E+03 -0.29588210508E+02  0.73147898591E+03  0.90122789999E+02 0.  0.
        254    2    1    2    0    0 -0.63229883395E+03 -0.35533380355E+03  0.19250016462E+04  0.22472798803E+04  0.90474946534E+03 0.  0.
         24    2    4    4    0    0 -0.10436250075E+03  0.28743115522E+03  0.45587318966E+03  0.55471716084E+03  0.79890943940E+02 0.  0.
         11    1    3    3    0    0  0.20870129416E+02  0.33709299645E+02  0.36885259475E+01  0.39818141695E+02  0.00000000000E+00 0. -1.
        -11    1    3    3    0    0  0.61142870453E+03  0.32162450391E+03 -0.33276736456E+02  0.69166084422E+03  0.00000000000E+00 0.  1.
          2    1    5    5  502    0 -0.11292192080E+03  0.28488036457E+03  0.44817280740E+03  0.54292453215E+03  0.00000000000E+00 0. -1.
          3    1    4    4  503    0 -0.39766293734E+03 -0.52667342835E+03  0.10729626885E+04  0.12596704501E+04  0.00000000000E+00 0. -1.
         -4    1    4    4    0  503 -0.13027339586E+03 -0.11609153042E+03  0.39616576802E+03  0.43289226934E+03  0.00000000000E+00 0.  1.
         -1    1    5    5    0  502  0.85594200505E+01  0.25507906560E+01  0.77003822630E+01  0.11792628696E+02  0.00000000000E+00 0.  1.
<mgrwt>
<rscale>  0 0.22979148E+04</rscale>
<asrwt>0</asrwt>
<pdfrwt beam="1">  1        1 0.37493633E+00 0.22979148E+04</pdfrwt>
<pdfrwt beam="2">  1       -1 0.83334265E-01 0.22979148E+04</pdfrwt>
<totfact> 0.19346916E+00</totfact>
</mgrwt>
</event>
<event>
11    1  0.2045212E-008  0.1453132E+04  0.7818608E-02  0.8916232E-01
          2   -1    0    0  501    0  0.00000000000E+00  0.00000000000E+00  0.33856470556E+03  0.33856470556E+03  0.00000000000E+00 0. -1.
         -2   -1    0    0    0  501 -0.00000000000E+00 -0.00000000000E+00 -0.15592241790E+04  0.15592241790E+04  0.00000000000E+00 0.  1.
         23    2    1    2    0    0  0.39482996350E+03  0.20022737901E+03 -0.44139295098E+03  0.63176235249E+03  0.91182396650E+02 0.  0.
        254    2    1    2    0    0 -0.39482996350E+03 -0.20022737901E+03 -0.77926652244E+03  0.12660265321E+04  0.89419526028E+03 0.  0.
         24    2    4    4    0    0 -0.18821312183E+02 -0.27011882516E+03  0.12896077817E+02  0.28258709206E+03  0.79816879647E+02 0.  0.
         11    1    3    3    0    0  0.62649013636E+02  0.55281319342E+02 -0.12674923211E+03  0.15181004914E+03  0.00000000000E+00 0.  1.
        -11    1    3    3    0    0  0.33218094987E+03  0.14494605967E+03 -0.31464371887E+03  0.47995230335E+03  0.00000000000E+00 0. -1.
          2    1    5    5  502    0 -0.29760984313E+02 -0.23687575141E+03  0.34858862820E+02  0.24126951343E+03  0.00000000000E+00 0. -1.
          3    1    4    4  503    0 -0.44461940140E+03  0.15121721523E+03 -0.58174784040E+03  0.74765206352E+03  0.00000000000E+00 0. -1.
         -4    1    4    4    0  503  0.68610750074E+02 -0.81325769075E+02 -0.21041475985E+03  0.23578737648E+03  0.00000000000E+00 0.  1.
         -1    1    5    5    0  502  0.10939672131E+02 -0.33243073754E+02 -0.21962785003E+02  0.41317578632E+02  0.00000000000E+00 0.  1.
<mgrwt>
<rscale>  0 0.14531322E+04</rscale>
<asrwt>0</asrwt>
<pdfrwt beam="1">  1        2 0.52086877E-01 0.14531322E+04</pdfrwt>
<pdfrwt beam="2">  1       -2 0.23988065E+00 0.14531322E+04</pdfrwt>
<totfact> 0.69023736E+00</totfact>
</mgrwt>
</event>
<event>
12    1  0.2045212E-008  0.1742150E+04  0.7818608E-02  0.8737683E-01
          1   -1    0    0  501    0  0.00000000000E+00  0.00000000000E+00  0.20549323089E+04  0.20549323089E+04  0.00000000000E+00 0. -1.
         -1   -1    0    0    0  501 -0.00000000000E+00 -0.00000000000E+00 -0.36924397129E+03  0.36924397129E+03  0.00000000000E+00 0.  1.
         23    2    1    2    0    0  0.11142158246E+03  0.85000154181E+02 -0.23686457034E+03  0.29439072164E+03  0.10450491403E+03 0.  0.
        254    2    1    2    0    0 -0.11142158246E+03 -0.85000154181E+02  0.19225529080E+04  0.21297855586E+04  0.90561418182E+03 0.  0.
        -24    2    4    4    0    0 -0.16788572640E+03 -0.73113664895E+02  0.19956118030E+04  0.20070490461E+04  0.11067149625E+03 0.  0.
         24    2    4    4    0    0  0.56464143939E+02 -0.11886489285E+02 -0.73058895002E+02  0.12273651249E+03  0.79982255418E+02 0.  0.
         11    1    3    3    0    0  0.11352396634E+03  0.45222127846E+02 -0.21888854313E+03  0.25068890301E+03  0.00000000000E+00 0.  1.
        -11    1    3    3    0    0 -0.21023838835E+01  0.39778026335E+02 -0.17976027211E+02  0.43701818628E+02  0.00000000000E+00 0. -1.
          2    1    6    6  502    0  0.25482305561E+02 -0.21808142104E+02 -0.82338092027E+02  0.88907279552E+02  0.00000000000E+00 0. -1.
          1    1    5    5  503    0 -0.17833014330E+03 -0.57065934321E+02  0.19176989886E+04  0.19268179914E+04  0.00000000000E+00 0. -1.
         -2    1    5    5    0  503  0.10444416910E+02 -0.16047730574E+02  0.77912814342E+02  0.80231054710E+02  0.00000000000E+00 0.  1.
         -1    1    6    6    0  502  0.30981838378E+02  0.99216528183E+01  0.92791970249E+01  0.33829232941E+02  0.00000000000E+00 0.  1.
<mgrwt>
<rscale>  0 0.17421497E+04</rscale>
<asrwt>0</asrwt>
<pdfrwt beam="1">  1        1 0.31614343E+00 0.17421497E+04</pdfrwt>
<pdfrwt beam="2">  1       -1 0.56806766E-01 0.17421497E+04</pdfrwt>
<totfact> 0.81370043E+00</totfact>
</mgrwt>
</event>
<event>
11    1  0.2045212E-008  0.1308501E+04  0.7818608E-02  0.9022851E-01
          1   -1    0    0  501    0  0.00000000000E+00  0.00000000000E+00  0.11730850792E+04  0.11730850792E+04  0.00000000000E+00 0. -1.
         -1   -1    0    0    0  501 -0.00000000000E+00 -0.00000000000E+00 -0.36488740631E+03  0.36488740631E+03  0.00000000000E+00 0.  1.
         23    2    1    2    0    0 -0.22711359069E+03  0.16864680430E+03 -0.44601971646E+00  0.29498198968E+03  0.83617268713E+02 0.  0.
        254    2    1    2    0    0  0.22711359069E+03 -0.16864680430E+03  0.80864369261E+03  0.12429904958E+04  0.90061002851E+03 0.  0.
         24    2    4    4    0    0 -0.11894993058E+02 -0.42278663709E+03  0.10570782622E+03  0.44352806085E+03  0.81565708958E+02 0.  0.
         13    1    3    3    0    0 -0.58123310986E+02  0.66406216960E+02 -0.34127296593E+02  0.94619117010E+02  0.00000000000E+00 0. -1.
        -13    1    3    3    0    0 -0.16899027970E+03  0.10224058734E+03  0.33681276876E+02  0.20036287267E+03  0.00000000000E+00 0.  1.
          4    1    5    5  502    0  0.17527021011E+01 -0.68164893719E+02 -0.12802695107E+02  0.69378913961E+02  0.00000000000E+00 0. -1.
          3    1    4    4  503    0  0.12029329221E+02  0.20747814525E+02  0.19284757355E+03  0.19433312428E+03  0.00000000000E+00 0. -1.
         -4    1    4    4    0  503  0.22697925453E+03  0.23339201826E+03  0.51008829284E+03  0.60512931070E+03  0.00000000000E+00 0.  1.
         -3    1    5    5    0  502 -0.13647695159E+02 -0.35462174337E+03  0.11851052133E+03  0.37414914689E+03  0.00000000000E+00 0.  1.
<mgrwt>
<rscale>  0 0.13085014E+04</rscale>
<asrwt>0</asrwt>
<pdfrwt beam="1">  1        1 0.18047463E+00 0.13085014E+04</pdfrwt>
<pdfrwt beam="2">  1       -1 0.56136525E-01 0.13085014E+04</pdfrwt>
<totfact> 0.35252482E+01</totfact>
</mgrwt>
</event>
<event>
12    1  0.2045212E-008  0.1568703E+04  0.7818608E-02  0.8840009E-01
          2   -1    0    0  501    0  0.00000000000E+00  0.00000000000E+00  0.13769810037E+04  0.13769810037E+04  0.00000000000E+00 0. -1.
         -2   -1    0    0    0  501 -0.00000000000E+00 -0.00000000000E+00 -0.44677992465E+03  0.44677992465E+03  0.00000000000E+00 0.  1.
         23    2    1    2    0    0  0.21858227395E+03 -0.41953273209E+03  0.63700852674E+02  0.48615459560E+03  0.92209372676E+02 0.  0.
        254    2    1    2    0    0 -0.21858227395E+03  0.41953273209E+03  0.86650022635E+03  0.13376063327E+04  0.90254204075E+03 0.  0.
        -24    2    4    4    0    0  0.77764273105E+02  0.46504669506E+03  0.90425777238E+03  0.10249457604E+04  0.10254746239E+03 0.  0.
         24    2    4    4    0    0 -0.29634654706E+03 -0.45513962966E+02 -0.37757546028E+02  0.31266057236E+03  0.80238422518E+02 0.  0.
         13    1    3    3    0    0  0.13180366075E+03 -0.23998722809E+03  0.82224333256E+02  0.28587919759E+03  0.00000000000E+00 0.  1.
        -13    1    3    3    0    0  0.86778613200E+02 -0.17954550400E+03 -0.18523480582E+02  0.20027539801E+03  0.00000000000E+00 0. -1.
          4    1    6    6  502    0 -0.15138805772E+03 -0.63392922046E+02 -0.14510298227E+02  0.16476515208E+03  0.00000000000E+00 0. -1.
          1    1    5    5  503    0 -0.19257899602E+02  0.29838287673E+02  0.50130788635E+02  0.61435218543E+02  0.00000000000E+00 0. -1.
         -2    1    5    5    0  503  0.97022172707E+02  0.43520840739E+03  0.85412698375E+03  0.96351054183E+03  0.00000000000E+00 0.  1.
         -3    1    6    6    0  502 -0.14495848934E+03  0.17878959080E+02 -0.23247247801E+02  0.14789542028E+03  0.00000000000E+00 0.  1.
<mgrwt>
<rscale>  0 0.15687032E+04</rscale>
<asrwt>0</asrwt>
<pdfrwt beam="1">  1        2 0.21184323E+00 0.15687032E+04</pdfrwt>
<pdfrwt beam="2">  1       -2 0.68735374E-01 0.15687032E+04</pdfrwt>
<totfact> 0.27736613E+01</totfact>
</mgrwt>
</event>
<event>
11    1  0.2045212E-008  0.1704808E+04  0.7818608E-02  0.8758627E-01
          2   -1    0    0  501    0  0.00000000000E+00  0.00000000000E+00  0.19882416952E+04  0.19882416952E+04  0.00000000000E+00 0. -1.
         -2   -1    0    0    0  501 -0.00000000000E+00 -0.00000000000E+00 -0.36544459157E+03  0.36544459157E+03  0.00000000000E+00 0.  1.
         23    2    1    2    0    0  0.76386818327E+02 -0.58417200703E+03  0.36865272973E+03  0.70108166996E+03  0.92297307722E+02 0.  0.
        254    2    1    2    0    0 -0.76386818327E+02  0.58417200703E+03  0.12541443739E+04  0.16526046168E+04  0.90062868546E+03 0.  0.
         24    2    4    4    0    0  0.36507939662E+03  0.37616472739E+03  0.82611962098E+03  0.98108977736E+03  0.72668116201E+02 0.  0.
         13    1    3    3    0    0  0.46701809438E+02 -0.12452895114E+03  0.55521753739E+02  0.14412211425E+03  0.00000000000E+00 0.  1.
        -13    1    3    3    0    0  0.29685008889E+02 -0.45964305588E+03  0.31313097599E+03  0.55695955571E+03  0.00000000000E+00 0. -1.
          2    1    5    5  502    0  0.75186722808E+02  0.12109087434E+03  0.24279866560E+03  0.28154437510E+03  0.00000000000E+00 0. -1.
          3    1    4    4  503    0 -0.12270658074E+03  0.10209325736E+02  0.19267622905E+03  0.22865971339E+03  0.00000000000E+00 0. -1.
         -4    1    4    4    0  503 -0.31875963421E+03  0.19779795391E+03  0.23534852385E+03  0.44285512602E+03  0.00000000000E+00 0.  1.
         -1    1    5    5    0  502  0.28989267381E+03  0.25507385305E+03  0.58332095538E+03  0.69954540226E+03  0.00000000000E+00 0.  1.
<mgrwt>
<rscale>  0 0.17048075E+04</rscale>
<asrwt>0</asrwt>
<pdfrwt beam="1">  1        2 0.30588333E+00 0.17048075E+04</pdfrwt>
<pdfrwt beam="2">  1       -2 0.56222246E-01 0.17048075E+04</pdfrwt>
<totfact> 0.19160486E+01</totfact>
</mgrwt>
</event>
<event>
12    1  0.2045212E-008  0.1835802E+04  0.7818608E-02  0.8687489E-01
          1   -1    0    0  501    0  0.00000000000E+00  0.00000000000E+00  0.89351474957E+03  0.89351474957E+03  0.00000000000E+00 0. -1.
         -1   -1    0    0    0  501 -0.00000000000E+00 -0.00000000000E+00 -0.94295239621E+03  0.94295239621E+03  0.00000000000E+00 0.  1.
         23    2    1    2    0    0  0.33079327888E+03 -0.30241456249E+03  0.50950078163E+03  0.68451729082E+03  0.89967294006E+02 0.  0.
        254    2    1    2    0    0 -0.33079327888E+03  0.30241456249E+03 -0.55893842827E+03  0.11519498550E+04  0.90205185039E+03 0.  0.
        -24    2    4    4    0    0 -0.88452355177E+02 -0.12208188630E+03  0.18659313499E+03  0.25763981028E+03  0.93986529444E+02 0.  0.
         24    2    4    4    0    0 -0.24234092370E+03  0.42449644879E+03 -0.74553156327E+03  0.89431004468E+03  0.71040733785E+02 0.  0.
         11    1    3    3    0    0  0.31619878611E+03 -0.25106440955E+03  0.44968657176E+03  0.60434511904E+03  0.00000000000E+00 0. -1.
        -11    1    3    3    0    0  0.14594492772E+02 -0.51350152945E+02  0.59814209867E+02  0.80172171785E+02  0.00000000000E+00 0.  1.
          2    1    6    6  502    0 -0.24289555007E+03  0.39025022013E+03 -0.69579826555E+03  0.83392368289E+03  0.00000000000E+00 0. -1.
          3    1    5    5  503    0 -0.80933779991E+02 -0.13336382329E+03  0.18766763677E+03  0.24403960333E+03  0.00000000000E+00 0. -1.
         -4    1    5    5    0  503 -0.75185751861E+01  0.11281936988E+02 -0.10745017728E+01  0.13600206950E+02  0.00000000000E+00 0.  1.
         -1    1    6    6    0  502  0.55462636689E+00  0.34246228660E+02 -0.49733297719E+02  0.60386361787E+02  0.00000000000E+00 0.  1.
<mgrwt>
<rscale>  0 0.18358016E+04</rscale>
<asrwt>0</asrwt>
<pdfrwt beam="1">  1        1 0.13746381E+00 0.18358016E+04</pdfrwt>
<pdfrwt beam="2">  1       -1 0.14506960E+00 0.18358016E+04</pdfrwt>
<totfact> 0.66136131E+00</totfact>
</mgrwt>
</event>
<event>
12    1  0.2045212E-008  0.1479359E+04  0.7818608E-02  0.8898296E-01
         -1   -1    0    0    0  501 -0.00000000000E+00  0.00000000000E+00  0.72599026854E+03  0.72599026854E+03  0.00000000000E+00 0.  1.
          1   -1    0    0  501    0  0.00000000000E+00 -0.00000000000E+00 -0.75362659944E+03  0.75362659944E+03  0.00000000000E+00 0. -1.
         23    2    1    2    0    0 -0.53282331928E+02  0.45400884655E+03  0.32776410491E+02  0.46725448433E+03  0.91046254215E+02 0.  0.
        254    2    1    2    0    0  0.53282331928E+02 -0.45400884655E+03 -0.60412741391E+02  0.10123623836E+04  0.90125737547E+03 0.  0.
        -24    2    4    4    0    0  0.54403193517E+02 -0.36700847050E+03  0.39044159925E+03  0.54640846537E+03  0.91992628618E+02 0.  0.
         24    2    4    4    0    0 -0.11208615886E+01 -0.87000376042E+02 -0.45085434064E+03  0.46595391826E+03  0.79202876892E+02 0.  0.
         13    1    3    3    0    0 -0.40718365865E+01  0.96528140238E+02  0.44149093278E+02  0.10622336913E+03  0.00000000000E+00 0. -1.
        -13    1    3    3    0    0 -0.49210495342E+02  0.35748070631E+03 -0.11372682787E+02  0.36103111521E+03  0.00000000000E+00 0.  1.
          4    1    6    6  502    0  0.27373264472E+02 -0.15989918786E+01 -0.11742418706E+03  0.12058313352E+03  0.00000000000E+00 0. -1.
          3    1    5    5  503    0  0.72835009198E+02 -0.18108979154E+03  0.18991204953E+03  0.27233258659E+03  0.00000000000E+00 0. -1.
         -4    1    5    5    0  503 -0.18431815681E+02 -0.18591867896E+03  0.20052954972E+03  0.27407587878E+03  0.00000000000E+00 0.  1.
         -3    1    6    6    0  502 -0.28494126060E+02 -0.85401384163E+02 -0.33343015358E+03  0.34537078474E+03  0.00000000000E+00 0.  1.
<mgrwt>
<rscale>  0 0.14793587E+04</rscale>
<asrwt>0</asrwt>
<pdfrwt beam="1">  1        1 0.11594255E+00 0.14793587E+04</pdfrwt>
<pdfrwt beam="2">  1       -1 0.11169081E+00 0.14793587E+04</pdfrwt>
<totfact> 0.17342786E+01</totfact>
</mgrwt>
</event>
<event>
11    1  0.2045212E-008  0.1533547E+04  0.7818608E-02  0.8862446E-01
         -2   -1    0    0    0  501 -0.00000000000E+00  0.00000000000E+00  0.10594451551E+04  0.10594451551E+04  0.00000000000E+00 0.  1.
          2   -1    0    0  501    0  0.00000000000E+00 -0.00000000000E+00 -0.55495232334E+03  0.55495232334E+03  0.00000000000E+00 0. -1.
         23    2    1    2    0    0 -0.21798429958E+03 -0.18199539440E+03 -0.25837687419E+03  0.39733522583E+03  0.10235816588E+03 0.  0.
        254    2    1    2    0    0  0.21798429958E+03  0.18199539440E+03  0.76286970591E+03  0.12170622526E+04  0.90478221687E+03 0.  0.
         24    2    4    4    0    0  0.55555056476E+03  0.15097099153E+03  0.42908374708E+03  0.72218820404E+03  0.77551723143E+02 0.  0.
         13    1    3    3    0    0 -0.70833198765E+02 -0.48885858802E+02 -0.14551203921E+03  0.16905893290E+03  0.00000000000E+00 0.  1.
        -13    1    3    3    0    0 -0.14715110082E+03 -0.13310953560E+03 -0.11286483498E+03  0.22827629293E+03  0.00000000000E+00 0. -1.
          2    1    5    5  502    0  0.54678778363E+02  0.18087596221E+02  0.75031606635E+02  0.94586848635E+02  0.00000000000E+00 0. -1.
          1    1    4    4  503    0 -0.86713620998E+01 -0.21722387277E+02  0.10397812043E+00  0.23389430115E+02  0.00000000000E+00 0. -1.
         -2    1    4    4    0  503 -0.32889490308E+03  0.52746790154E+02  0.33368198072E+03  0.47148461841E+03  0.00000000000E+00 0.  1.
         -1    1    5    5    0  502  0.50087178640E+03  0.13288339530E+03  0.35405214044E+03  0.62760135541E+03  0.00000000000E+00 0.  1.
<mgrwt>
<rscale>  0 0.15335469E+04</rscale>
<asrwt>0</asrwt>
<pdfrwt beam="1">  1        2 0.85377281E-01 0.15335469E+04</pdfrwt>
<pdfrwt beam="2">  1       -2 0.16299156E+00 0.15335469E+04</pdfrwt>
<totfact> 0.12558046E+01</totfact>
</mgrwt>
</event>
<event>
12    1  0.2045212E-008  0.1150474E+04  0.7818608E-02  0.9157347E-01
          2   -1    0    0  501    0  0.00000000000E+00  0.00000000000E+00  0.12833780607E+04  0.12833780607E+04  0.00000000000E+00 0.  1.
         -2   -1    0    0    0  501 -0.00000000000E+00 -0.00000000000E+00 -0.25783313565E+03  0.25783313565E+03  0.00000000000E+00 0. -1.
         23    2    1    2    0    0  0.13246878845E+03  0.56075899759E+02  0.49058054977E+02  0.17525620141E+03  0.87267158346E+02 0.  0.
        254    2    1    2    0    0 -0.13246878845E+03 -0.56075899759E+02  0.97648687010E+03  0.13659549950E+04  0.94425311986E+03 0.  0.
        -24    2    4    4    0    0  0.21526855906E+03 -0.31107280489E+03  0.80558829140E+03  0.89476982360E+03  0.92378025134E+02 0.  0.
         24    2    4    4    0    0 -0.34773734752E+03  0.25499690513E+03  0.17089857870E+03  0.47118517137E+03  0.82852018847E+02 0.  0.
         13    1    3    3    0    0  0.57154393400E+02 -0.16327394840E+02  0.37179055846E+02  0.70110560551E+02  0.00000000000E+00 0.  1.
        -13    1    3    3    0    0  0.75314395055E+02  0.72403294599E+02  0.11878999131E+02  0.10514564086E+03  0.00000000000E+00 0. -1.
          4    1    6    6  502    0 -0.34621269782E+03  0.26057440376E+03  0.16845431187E+03  0.46490763299E+03  0.00000000000E+00 0. -1.
          1    1    5    5  503    0  0.21395401246E+03 -0.30942121320E+03  0.80816993817E+03  0.89143505405E+03  0.00000000000E+00 0. -1.
         -2    1    5    5    0  503  0.13145466073E+01 -0.16515916881E+01 -0.25816467747E+01  0.33347695507E+01  0.00000000000E+00 0.  1.
         -3    1    6    6    0  502 -0.15246497000E+01 -0.55774986310E+01  0.24442668360E+01  0.62775383752E+01  0.00000000000E+00 0.  1.
<mgrwt>
<rscale>  0 0.11504736E+04</rscale>
<asrwt>0</asrwt>
<pdfrwt beam="1">  1        2 0.19744278E+00 0.11504736E+04</pdfrwt>
<pdfrwt beam="2">  1       -2 0.39666637E-01 0.11504736E+04</pdfrwt>
<totfact> 0.10053244E+02</totfact>
</mgrwt>
</event>
<event>
11    1  0.2045212E-008  0.1423584E+04  0.7818608E-02  0.8936922E-01
         -2   -1    0    0    0  501 -0.00000000000E+00  0.00000000000E+00  0.78291044287E+03  0.78291044287E+03  0.00000000000E+00 0.  1.
          2   -1    0    0  501    0  0.00000000000E+00 -0.00000000000E+00 -0.64713400509E+03  0.64713400509E+03  0.00000000000E+00 0. -1.
         23    2    1    2    0    0  0.26236102769E+03  0.14809334598E+03 -0.24898193690E+03  0.40084133288E+03  0.88976520914E+02 0.  0.
        254    2    1    2    0    0 -0.26236102769E+03 -0.14809334598E+03  0.38475837468E+03  0.10292031151E+04  0.90578976436E+03 0.  0.
         24    2    4    4    0    0 -0.20295426748E+03  0.83144784745E+02 -0.17902437518E+03  0.29423385388E+03  0.80127048754E+02 0.  0.
         11    1    3    3    0    0  0.19219519984E+03  0.90743469182E+02 -0.21951591838E+03  0.30554968575E+03  0.00000000000E+00 0. -1.
        -11    1    3    3    0    0  0.70165827845E+02  0.57349876796E+02 -0.29466018520E+02  0.95291647132E+02  0.00000000000E+00 0.  1.
          2    1    5    5  502    0 -0.18864286361E+03  0.50423748357E+02 -0.16576473325E+03  0.25613791437E+03  0.00000000000E+00 0. -1.
          1    1    4    4  503    0  0.16578962100E+03 -0.28630023716E+02  0.21498538552E+03  0.27299192786E+03  0.00000000000E+00 0. -1.
         -2    1    4    4    0  503 -0.22519638121E+03 -0.20260810701E+03  0.34879736434E+03  0.46197733332E+03  0.00000000000E+00 0.  1.
         -1    1    5    5    0  502 -0.14311403870E+02  0.32721036388E+02 -0.13259641935E+02  0.38095939511E+02  0.00000000000E+00 0.  1.
<mgrwt>
<rscale>  0 0.14235842E+04</rscale>
<asrwt>0</asrwt>
<pdfrwt beam="1">  1        2 0.99559078E-01 0.14235842E+04</pdfrwt>
<pdfrwt beam="2">  1       -2 0.12044776E+00 0.14235842E+04</pdfrwt>
<totfact> 0.23106199E+01</totfact>
</mgrwt>
</event>
<event>
11    1  0.2045212E-008  0.1198166E+04  0.7818608E-02  0.9114464E-01
         -2   -1    0    0    0  501 -0.00000000000E+00  0.00000000000E+00  0.18563639533E+03  0.18563639533E+03  0.00000000000E+00 0. -1.
          2   -1    0    0  501    0  0.00000000000E+00 -0.00000000000E+00 -0.19333510201E+04  0.19333510201E+04  0.00000000000E+00 0.  1.
         23    2    1    2    0    0 -0.22950959369E+03  0.35828477876E+02 -0.26723263034E+03  0.36543905310E+03  0.90410670765E+02 0.  0.
        254    2    1    2    0    0  0.22950959369E+03 -0.35828477876E+02 -0.14804819944E+04  0.17535483624E+04  0.91057486777E+03 0.  0.
         24    2    4    4    0    0  0.46920426018E+02 -0.36506898520E+03 -0.24680761392E+03  0.45033113499E+03  0.80045252957E+02 0.  0.
         13    1    3    3    0    0 -0.10134632611E+03  0.36115238972E+02 -0.64047272915E+02  0.12520959016E+03  0.00000000000E+00 0.  1.
        -13    1    3    3    0    0 -0.12816326758E+03 -0.28676109581E+00 -0.20318535743E+03  0.24022946294E+03  0.00000000000E+00 0. -1.
          2    1    5    5  502    0 -0.14865002724E+02 -0.18979020309E+03 -0.13593443732E+03  0.23392191164E+03  0.00000000000E+00 0. -1.
          3    1    4    4  503    0  0.46436876814E+00  0.19071870817E+03 -0.59227440232E+03  0.62222408256E+03  0.00000000000E+00 0. -1.
         -4    1    4    4    0  503  0.18212479890E+03  0.13852179916E+03 -0.64139997821E+03  0.68099314480E+03  0.00000000000E+00 0.  1.
         -1    1    5    5    0  502  0.61785428742E+02 -0.17527878211E+03 -0.11087317660E+03  0.21640922335E+03  0.00000000000E+00 0.  1.
<mgrwt>
<rscale>  0 0.11981658E+04</rscale>
<asrwt>0</asrwt>
<pdfrwt beam="1">  1        2 0.29743864E+00 0.11981658E+04</pdfrwt>
<pdfrwt beam="2">  1       -2 0.28559444E-01 0.11981658E+04</pdfrwt>
<totfact> 0.80772749E+01</totfact>
</mgrwt>
</event>
<event>
12    1  0.2348675E-008  0.1909379E+04  0.7818608E-02  0.8650202E-01
         -1   -1    0    0    0  501 -0.00000000000E+00  0.00000000000E+00  0.47418767584E+03  0.47418767584E+03  0.00000000000E+00 0.  1.
          1   -1    0    0  501    0  0.00000000000E+00 -0.00000000000E+00 -0.19220915745E+04  0.19220915745E+04  0.00000000000E+00 0. -1.
         23    2    1    2    0    0 -0.57311846550E+03  0.43931480056E+03 -0.84035796100E+03  0.11117422073E+04  0.91142544673E+02 0.  0.
        254    2    1    2    0    0  0.57311846550E+03 -0.43931480056E+03 -0.60754593763E+03  0.12845370430E+04  0.87147064148E+03 0.  0.
        -24    2    4    4    0    0  0.46941430047E+03  0.11133660757E+03 -0.55859900994E+02  0.49404138466E+03  0.90614212710E+02 0.  0.
         24    2    4    4    0    0  0.10370416503E+03 -0.55065140813E+03 -0.55168603664E+03  0.79049565832E+03  0.80959098814E+02 0.  0.
         11    1    3    3    0    0 -0.22975151449E+02  0.45027786774E+02 -0.48826780616E+02  0.70280962367E+02  0.00000000000E+00 0.  1.
        -11    1    3    3    0    0 -0.55014331406E+03  0.39428701378E+03 -0.79153118038E+03  0.10414612450E+04  0.00000000000E+00 0. -1.
          4    1    6    6  502    0  0.92448452391E+02 -0.31226679582E+03 -0.28667751326E+03  0.43386779637E+03  0.00000000000E+00 0. -1.
          3    1    5    5  503    0  0.44930279396E+03  0.12501289467E+03 -0.55996491082E+02  0.46971995009E+03  0.00000000000E+00 0. -1.
         -4    1    5    5    0  503  0.20111506506E+02 -0.13676287097E+02  0.13659008801E+00  0.24321434571E+02  0.00000000000E+00 0.  1.
         -3    1    6    6    0  502  0.11255712643E+02 -0.23838461231E+03 -0.26500852338E+03  0.35662786195E+03  0.00000000000E+00 0.  1.
<mgrwt>
<rscale>  0 0.19093791E+04</rscale>
<asrwt>0</asrwt>
<pdfrwt beam="1">  1        1 0.29570639E+00 0.19093791E+04</pdfrwt>
<pdfrwt beam="2">  1       -1 0.72951951E-01 0.19093791E+04</pdfrwt>
<totfact> 0.59603093E+00</totfact>
</mgrwt>
</event>
<event>
12    1  0.2045212E-008  0.1889829E+04  0.7818608E-02  0.8659936E-01
         -2   -1    0    0    0  501 -0.00000000000E+00  0.00000000000E+00  0.33945399001E+03  0.33945399001E+03  0.00000000000E+00 0.  1.
          2   -1    0    0  501    0  0.00000000000E+00 -0.00000000000E+00 -0.26302919353E+04  0.26302919353E+04  0.00000000000E+00 0. -1.
         23    2    1    2    0    0 -0.37391275633E+03  0.52738380023E+03 -0.14230160152E+04  0.15655102635E+04  0.88900976074E+02 0.  0.
        254    2    1    2    0    0  0.37391275633E+03 -0.52738380023E+03 -0.86782193010E+03  0.14042356618E+04  0.89488461236E+03 0.  0.
        -24    2    4    4    0    0 -0.43098879302E+02 -0.90037296376E+02 -0.77622700660E+03  0.78785509293E+03  0.90681053974E+02 0.  0.
         24    2    4    4    0    0  0.41701163563E+03 -0.43734650385E+03 -0.91594923497E+02  0.61638056887E+03  0.79779113747E+02 0.  0.
         13    1    3    3    0    0 -0.32314755733E+03  0.49660510941E+03 -0.13132819486E+04  0.14407464923E+04  0.00000000000E+00 0. -1.
        -13    1    3    3    0    0 -0.50765199003E+02  0.30778690817E+02 -0.10973406655E+03  0.12476377118E+03  0.00000000000E+00 0.  1.
          4    1    6    6  502    0  0.16404857826E+03 -0.16318747213E+03 -0.73986968298E+02  0.24293241564E+03  0.00000000000E+00 0. -1.
          1    1    5    5  503    0 -0.70388512032E+02 -0.77012134205E+02 -0.62240627058E+03  0.63109030819E+03  0.00000000000E+00 0. -1.
         -2    1    5    5    0  503  0.27289632730E+02 -0.13025162171E+02 -0.15382073602E+03  0.15676478474E+03  0.00000000000E+00 0.  1.
         -3    1    6    6    0  502  0.25296305737E+03 -0.27415903172E+03 -0.17607955200E+02  0.37344815323E+03  0.00000000000E+00 0.  1.
<mgrwt>
<rscale>  0 0.18898287E+04</rscale>
<asrwt>0</asrwt>
<pdfrwt beam="1">  1        2 0.40466029E+00 0.18898287E+04</pdfrwt>
<pdfrwt beam="2">  1       -2 0.52223691E-01 0.18898287E+04</pdfrwt>
<totfact> 0.94877694E+00</totfact>
</mgrwt>
</event>
<event>
11    1  0.2126712E-008  0.3057510E+04  0.7818608E-02  0.8227497E-01
         -1   -1    0    0    0  501 -0.00000000000E+00  0.00000000000E+00  0.14443055064E+04  0.14443055064E+04  0.00000000000E+00 0.  1.
          1   -1    0    0  501    0  0.00000000000E+00 -0.00000000000E+00 -0.16181423443E+04  0.16181423443E+04  0.00000000000E+00 0. -1.
         23    2    1    2    0    0 -0.98075840944E+03 -0.30639814816E+03  0.86729538270E+03  0.13477267703E+04  0.91647605272E+02 0.  0.
        254    2    1    2    0    0  0.98075840944E+03  0.30639814816E+03 -0.10411322206E+04  0.17147210804E+04  0.89473191513E+03 0.  0.
         24    2    4    4    0    0  0.67758886349E+03 -0.13841551105E+03 -0.91326989549E+03  0.11484239448E+04  0.80809239925E+02 0.  0.
         13    1    3    3    0    0 -0.24126573504E+03 -0.64241575383E+02  0.26181274919E+03  0.36177624376E+03  0.00000000000E+00 0.  1.
        -13    1    3    3    0    0 -0.73949267439E+03 -0.24215657278E+03  0.60548263352E+03  0.98595052650E+03  0.00000000000E+00 0. -1.
          4    1    5    5  502    0  0.20154586077E+02 -0.17478215399E+02 -0.23670962430E+02  0.35665246612E+02  0.00000000000E+00 0. -1.
          1    1    4    4  503    0  0.68883946028E+01  0.34449626932E+01 -0.23274075088E+02  0.24515307858E+02  0.00000000000E+00 0. -1.
         -2    1    4    4    0  503  0.29628115135E+03  0.44136869651E+03 -0.10458825005E+03  0.54178182782E+03  0.00000000000E+00 0.  1.
         -3    1    5    5    0  502  0.65743427741E+03 -0.12093729565E+03 -0.88959893306E+03  0.11127586981E+04  0.00000000000E+00 0.  1.
<mgrwt>
<rscale>  0 0.30575100E+04</rscale>
<asrwt>0</asrwt>
<pdfrwt beam="1">  1        1 0.24894498E+00 0.30575100E+04</pdfrwt>
<pdfrwt beam="2">  1       -1 0.22220085E+00 0.30575100E+04</pdfrwt>
<totfact> 0.48852519E-01</totfact>
</mgrwt>
</event>
<event>
11    1  0.2045212E-008  0.1756935E+04  0.7818608E-02  0.8729542E-01
         -1   -1    0    0    0  501 -0.00000000000E+00  0.00000000000E+00  0.68843730855E+03  0.68843730855E+03  0.00000000000E+00 0.  1.
          1   -1    0    0  501    0  0.00000000000E+00 -0.00000000000E+00 -0.11209516597E+04  0.11209516597E+04  0.00000000000E+00 0. -1.
         23    2    1    2    0    0  0.16255142779E+01 -0.20539242504E+03  0.47887678415E+03  0.52923367309E+03  0.92610019852E+02 0.  0.
        254    2    1    2    0    0 -0.16255142779E+01  0.20539242504E+03 -0.91139113526E+03  0.12801552951E+04  0.87520002721E+03 0.  0.
         24    2    4    4    0    0  0.24920746312E+03  0.25233675273E+03 -0.90533726322E+03  0.97561248098E+03  0.80037218978E+02 0.  0.
         11    1    3    3    0    0 -0.45297279631E+02 -0.93103180922E+02  0.21333913929E+03  0.23713631985E+03  0.00000000000E+00 0. -1.
        -11    1    3    3    0    0  0.46922793908E+02 -0.11228924412E+03  0.26553764486E+03  0.29209735324E+03  0.00000000000E+00 0.  1.
          2    1    5    5  502    0  0.46716660642E+02  0.64477388020E+02 -0.29730550165E+03  0.30778294504E+03  0.00000000000E+00 0. -1.
          3    1    4    4  503    0  0.14883560226E+02  0.18572597524E+02 -0.19160461405E+02  0.30554623628E+02  0.00000000000E+00 0. -1.
         -4    1    4    4    0  503 -0.26571653762E+03 -0.65516925212E+02  0.13106589363E+02  0.27398819051E+03  0.00000000000E+00 0.  1.
         -1    1    5    5    0  502  0.20249080247E+03  0.18785936471E+03 -0.60803176157E+03  0.66782953594E+03  0.00000000000E+00 0.  1.
<mgrwt>
<rscale>  0 0.17569348E+04</rscale>
<asrwt>0</asrwt>
<pdfrwt beam="1">  1        1 0.17245410E+00 0.17569348E+04</pdfrwt>
<pdfrwt beam="2">  1       -1 0.10591343E+00 0.17569348E+04</pdfrwt>
<totfact> 0.96627138E+00</totfact>
</mgrwt>
</event>
<event>
11    1  0.2045212E-008  0.1189790E+04  0.7818608E-02  0.9121841E-01
          2   -1    0    0  501    0  0.00000000000E+00  0.00000000000E+00  0.12265233905E+04  0.12265233905E+04  0.00000000000E+00 0. -1.
         -2   -1    0    0    0  501 -0.00000000000E+00 -0.00000000000E+00 -0.28853920501E+03  0.28853920501E+03  0.00000000000E+00 0.  1.
         23    2    1    2    0    0 -0.15392315352E+02 -0.22739926966E+03  0.13039767785E+03  0.27830346030E+03  0.92205804628E+02 0.  0.
        254    2    1    2    0    0  0.15392315352E+02  0.22739926966E+03  0.80758650766E+03  0.12367591352E+04  0.90853169456E+03 0.  0.
         24    2    4    4    0    0  0.21121516959E+03 -0.15760839782E+03 -0.27430612966E+02  0.27725240072E+03  0.81634553048E+02 0.  0.
         13    1    3    3    0    0  0.28358504168E+02 -0.73009466700E+02  0.75271376908E+02  0.10862949493E+03  0.00000000000E+00 0. -1.
        -13    1    3    3    0    0 -0.43750819520E+02 -0.15438980296E+03  0.55126300946E+02  0.16967396537E+03  0.00000000000E+00 0.  1.
          2    1    5    5  502    0  0.14308257018E+03 -0.14822969601E+03 -0.98025974966E+01  0.20625410441E+03  0.00000000000E+00 0. -1.
          3    1    4    4  503    0 -0.42113662669E+02  0.18216747900E+03  0.19219117574E+03  0.26813429289E+03  0.00000000000E+00 0. -1.
         -4    1    4    4    0  503 -0.15370919157E+03  0.20284018849E+03  0.64282594488E+03  0.69137244163E+03  0.00000000000E+00 0.  1.
         -1    1    5    5    0  502  0.68132599404E+02 -0.93787018065E+01 -0.17628015469E+02  0.70998296307E+02  0.00000000000E+00 0.  1.
<mgrwt>
<rscale>  0 0.11897900E+04</rscale>
<asrwt>0</asrwt>
<pdfrwt beam="1">  1        2 0.18869590E+00 0.11897900E+04</pdfrwt>
<pdfrwt beam="2">  1       -2 0.44390648E-01 0.11897900E+04</pdfrwt>
<totfact> 0.86743773E+01</totfact>
</mgrwt>
</event>
<event>
12    1  0.2045212E-008  0.1184065E+04  0.7818608E-02  0.9126920E-01
          2   -1    0    0  501    0  0.00000000000E+00  0.00000000000E+00  0.87616785766E+03  0.87616785766E+03  0.00000000000E+00 0. -1.
         -2   -1    0    0    0  501 -0.00000000000E+00 -0.00000000000E+00 -0.40004047030E+03  0.40004047030E+03  0.00000000000E+00 0.  1.
         23    2    1    2    0    0 -0.19591053065E+03  0.12947091459E+03  0.86026290135E+02  0.26716067707E+03  0.93971543740E+02 0.  0.
        254    2    1    2    0    0  0.19591053065E+03 -0.12947091459E+03  0.39010109722E+03  0.10090476509E+04  0.90047467592E+03 0.  0.
        -24    2    4    4    0    0 -0.15978441788E+03  0.27575220645E+03  0.31473021202E+03  0.45888838393E+03  0.99765239372E+02 0.  0.
         24    2    4    4    0    0  0.35569494853E+03 -0.40522312104E+03  0.75370885198E+02  0.55015926696E+03  0.79181907332E+02 0.  0.
         11    1    3    3    0    0 -0.54789879775E+02  0.94147807436E+01  0.56999703411E+02  0.79621198252E+02  0.00000000000E+00 0. -1.
        -11    1    3    3    0    0 -0.14112065087E+03  0.12005613385E+03  0.29026586724E+02  0.18753947881E+03  0.00000000000E+00 0.  1.
          2    1    6    6  502    0  0.86510321036E+02 -0.10315078956E+03  0.53794816872E+02  0.14497587163E+03  0.00000000000E+00 0. -1.
          3    1    5    5  503    0 -0.96361396956E+02  0.71665193342E+02  0.10672520498E+03  0.16066016351E+03  0.00000000000E+00 0. -1.
         -4    1    5    5    0  503 -0.63423020929E+02  0.20408701311E+03  0.20800500704E+03  0.29822822042E+03  0.00000000000E+00 0.  1.
         -1    1    6    6    0  502  0.26918462749E+03 -0.30207233148E+03  0.21576068326E+02  0.40518339533E+03  0.00000000000E+00 0.  1.
<mgrwt>
<rscale>  0 0.11840652E+04</rscale>
<asrwt>0</asrwt>
<pdfrwt beam="1">  1        2 0.13479505E+00 0.11840652E+04</pdfrwt>
<pdfrwt beam="2">  1       -2 0.61544688E-01 0.11840652E+04</pdfrwt>
<totfact> 0.73803318E+01</totfact>
</mgrwt>
</event>
<event>
11    1  0.2045212E-008  0.1142280E+04  0.7818608E-02  0.9164935E-01
          1   -1    0    0  501    0  0.00000000000E+00  0.00000000000E+00  0.37461796570E+03  0.37461796570E+03  0.00000000000E+00 0. -1.
         -1   -1    0    0    0  501 -0.00000000000E+00 -0.00000000000E+00 -0.87075617624E+03  0.87075617624E+03  0.00000000000E+00 0.  1.
         23    2    1    2    0    0  0.20067461002E+03 -0.93165731178E+02 -0.13371007827E+03  0.27418332245E+03  0.91367153320E+02 0.  0.
        254    2    1    2    0    0 -0.20067461002E+03  0.93165731178E+02 -0.36242813227E+03  0.97119081949E+03  0.87344565042E+03 0.  0.
         24    2    4    4    0    0 -0.37592336412E+03  0.37699104135E+03 -0.20573939557E+03  0.57639146215E+03  0.80360424392E+02 0.  0.
         11    1    3    3    0    0  0.62267837314E+02  0.14312088016E+02 -0.30332348356E+02  0.70726026214E+02  0.00000000000E+00 0.  1.
        -11    1    3    3    0    0  0.13840677270E+03 -0.10747781919E+03 -0.10337772991E+03  0.20345729623E+03  0.00000000000E+00 0. -1.
          4    1    5    5  502    0 -0.25924801556E+03  0.20892084753E+03 -0.11144315676E+03  0.35110828998E+03  0.00000000000E+00 0. -1.
          1    1    4    4  503    0  0.10684490662E+02 -0.13842693021E+03 -0.32773410628E+02  0.14265437179E+03  0.00000000000E+00 0. -1.
         -2    1    4    4    0  503  0.16456426344E+03 -0.14539837996E+03 -0.12391532608E+03  0.25214498555E+03  0.00000000000E+00 0.  1.
         -3    1    5    5    0  502 -0.11667534856E+03  0.16807019382E+03 -0.94296238804E+02  0.22528317218E+03  0.00000000000E+00 0.  1.
<mgrwt>
<rscale>  0 0.11422800E+04</rscale>
<asrwt>0</asrwt>
<pdfrwt beam="1">  1        1 0.57633534E-01 0.11422800E+04</pdfrwt>
<pdfrwt beam="2">  1       -1 0.13396249E+00 0.11422800E+04</pdfrwt>
<totfact> 0.30570130E+01</totfact>
</mgrwt>
</event>
<event>
12    1  0.2045212E-008  0.1652878E+04  0.7818608E-02  0.8788706E-01
         -2   -1    0    0    0  501 -0.00000000000E+00  0.00000000000E+00  0.26400520422E+04  0.26400520422E+04  0.00000000000E+00 0.  1.
          2   -1    0    0  501    0  0.00000000000E+00 -0.00000000000E+00 -0.25870746195E+03  0.25870746195E+03  0.00000000000E+00 0. -1.
         23    2    1    2    0    0 -0.15675187171E+03 -0.35929637711E+03  0.92346486350E+02  0.40971942962E+03  0.75346543234E+02 0.  0.
        254    2    1    2    0    0  0.15675187171E+03  0.35929637711E+03  0.22889980939E+04  0.24890400745E+04  0.89562446532E+03 0.  0.
        -24    2    4    4    0    0  0.43649417351E+03  0.22312973204E+03  0.65456810719E+03  0.82338027346E+03  0.95820806485E+02 0.  0.
         24    2    4    4    0    0 -0.27974230179E+03  0.13616664507E+03  0.16344299867E+04  0.16656598011E+04  0.79145946237E+02 0.  0.
         11    1    3    3    0    0 -0.12001104130E+03 -0.24946477704E+03  0.98266270088E+02  0.29375429334E+03  0.00000000000E+00 0. -1.
        -11    1    3    3    0    0 -0.36740830408E+02 -0.10983160007E+03 -0.59197837376E+01  0.11596513628E+03  0.00000000000E+00 0.  1.
          2    1    6    6  502    0 -0.10499599812E+03  0.51718241524E+02  0.42785314375E+03  0.44357327325E+03  0.00000000000E+00 0. -1.
          3    1    5    5  503    0  0.12677967139E+02  0.31538612733E+02  0.53281620631E+02  0.63200838926E+02  0.00000000000E+00 0. -1.
         -4    1    5    5    0  503  0.42381620637E+03  0.19159111931E+03  0.60128648656E+03  0.76017943454E+03  0.00000000000E+00 0.  1.
         -1    1    6    6    0  502 -0.17474630368E+03  0.84448403548E+02  0.12065768430E+04  0.12220865278E+04  0.00000000000E+00 0.  1.
<mgrwt>
<rscale>  0 0.16528777E+04</rscale>
<asrwt>0</asrwt>
<pdfrwt beam="1">  1        2 0.39801150E-01 0.16528777E+04</pdfrwt>
<pdfrwt beam="2">  1       -2 0.40616183E+00 0.16528777E+04</pdfrwt>
<totfact> 0.84236251E-01</totfact>
</mgrwt>
</event>
<event>
11    1  0.2045212E-008  0.2028845E+04  0.7818608E-02  0.8593252E-01
         -2   -1    0    0    0  501 -0.00000000000E+00  0.00000000000E+00  0.63414312244E+03  0.63414312244E+03  0.00000000000E+00 0.  1.
          2   -1    0    0  501    0  0.00000000000E+00 -0.00000000000E+00 -0.16227453453E+04  0.16227453453E+04  0.00000000000E+00 0. -1.
         23    2    1    2    0    0  0.80409200155E+03  0.63710426640E+02 -0.29122151024E+03  0.86240287005E+03  0.91136034806E+02 0.  0.
        254    2    1    2    0    0 -0.80409200155E+03 -0.63710426640E+02 -0.69738071260E+03  0.13944855977E+04  0.89868084346E+03 0.  0.
         24    2    4    4    0    0 -0.89561639848E+03 -0.24829305522E+03 -0.36302933770E+03  0.10010648295E+04  0.81008136998E+02 0.  0.
         11    1    3    3    0    0  0.56940117749E+02  0.13355832569E+02 -0.46063497996E+02  0.74447304320E+02  0.00000000000E+00 0. -1.
        -11    1    3    3    0    0  0.74715188380E+03  0.50354594071E+02 -0.24515801224E+03  0.78795556573E+03  0.00000000000E+00 0.  1.
          4    1    5    5  502    0 -0.17320819649E+03 -0.60494731526E+02 -0.10449564234E+03  0.21113983789E+03  0.00000000000E+00 0. -1.
          1    1    4    4  503    0  0.28647652002E+02  0.36838863240E+02 -0.70169132003E+02  0.84270379708E+02  0.00000000000E+00 0. -1.
         -2    1    4    4    0  503  0.62876744932E+02  0.14774376534E+03 -0.26418224289E+03  0.30915038850E+03  0.00000000000E+00 0.  1.
         -3    1    5    5    0  502 -0.72240820199E+03 -0.18779832369E+03 -0.25853369536E+03  0.78992499158E+03  0.00000000000E+00 0.  1.
<mgrwt>
<rscale>  0 0.20288448E+04</rscale>
<asrwt>0</asrwt>
<pdfrwt beam="1">  1        2 0.24965313E+00 0.20288448E+04</pdfrwt>
<pdfrwt beam="2">  1       -2 0.97560482E-01 0.20288448E+04</pdfrwt>
<totfact> 0.87901077E+00</totfact>
</mgrwt>
</event>
<event>
12    1  0.2045212E-008  0.1362921E+04  0.7818608E-02  0.8981104E-01
          2   -1    0    0  501    0  0.00000000000E+00  0.00000000000E+00  0.23057019911E+04  0.23057019911E+04  0.00000000000E+00 0. -1.
         -2   -1    0    0    0  501 -0.00000000000E+00 -0.00000000000E+00 -0.20140869003E+03  0.20140869003E+03  0.00000000000E+00 0.  1.
         23    2    1    2    0    0 -0.19262226983E+02  0.28408491203E+02  0.12853635051E+04  0.12909148516E+04  0.11455888481E+03 0.  0.
        254    2    1    2    0    0  0.19262226983E+02 -0.28408491203E+02  0.81892979592E+03  0.12161958295E+04  0.89850331621E+03 0.  0.
        -24    2    4    4    0    0  0.82714941404E+01  0.34613601569E+03  0.74807297964E+03  0.82618213302E+03  0.55544352310E+02 0.  0.
         24    2    4    4    0    0  0.10990732842E+02 -0.37454450690E+03  0.70856816279E+02  0.39001369646E+03  0.81765586635E+02 0.  0.
         13    1    3    3    0    0  0.22423098512E+02  0.32804733546E+02  0.16316578468E+03  0.16793456815E+03  0.00000000000E+00 0.  1.
        -13    1    3    3    0    0 -0.41685325494E+02 -0.43962423435E+01  0.11221977205E+04  0.11229802835E+04  0.00000000000E+00 0. -1.
          2    1    6    6  502    0 -0.31636106231E+02 -0.17573971837E+03  0.51102054647E+02  0.18573290452E+03  0.00000000000E+00 0. -1.
          1    1    5    5  503    0  0.25768355801E+02  0.87458375817E+02  0.20762025941E+03  0.22675790566E+03  0.00000000000E+00 0. -1.
         -2    1    5    5    0  503 -0.17496861661E+02  0.25867763988E+03  0.54045272023E+03  0.59942422736E+03  0.00000000000E+00 0.  1.
         -1    1    6    6    0  502  0.42626839074E+02 -0.19880478852E+03  0.19754761632E+02  0.20428079194E+03  0.00000000000E+00 0.  1.
<mgrwt>
<rscale>  0 0.13629210E+04</rscale>
<asrwt>0</asrwt>
<pdfrwt beam="1">  1        2 0.35472337E+00 0.13629210E+04</pdfrwt>
<pdfrwt beam="2">  1       -2 0.30985954E-01 0.13629210E+04</pdfrwt>
<totfact> 0.42489078E+01</totfact>
</mgrwt>
</event>
<event>
12    1  0.2045212E-008  0.1479857E+04  0.7818608E-02  0.8897959E-01
          2   -1    0    0  501    0  0.00000000000E+00  0.00000000000E+00  0.74496964630E+03  0.74496964630E+03  0.00000000000E+00 0.  1.
         -2   -1    0    0    0  501 -0.00000000000E+00 -0.00000000000E+00 -0.73492168638E+03  0.73492168638E+03  0.00000000000E+00 0. -1.
         23    2    1    2    0    0  0.92439770268E+02  0.37832942974E+02  0.45275908051E+03  0.47243885579E+03  0.90726207775E+02 0.  0.
        254    2    1    2    0    0 -0.92439770268E+02 -0.37832942974E+02 -0.44271112059E+03  0.10074524769E+04  0.89943922207E+03 0.  0.
        -24    2    4    4    0    0 -0.33710448946E+03 -0.12356509863E+02  0.13483823568E+03  0.37453675622E+03  0.91127996846E+02 0.  0.
         24    2    4    4    0    0  0.24466471919E+03 -0.25476433111E+02 -0.57754935627E+03  0.63291572067E+03  0.80679471261E+02 0.  0.
         13    1    3    3    0    0  0.85716583570E+02  0.64509096708E+02  0.36894089477E+03  0.38422147271E+03  0.00000000000E+00 0.  1.
        -13    1    3    3    0    0  0.67231866987E+01 -0.26676153734E+02  0.83818185739E+02  0.88217383083E+02  0.00000000000E+00 0. -1.
          4    1    6    6  502    0  0.47686056321E+02 -0.20029553834E+01 -0.49167299146E+02  0.68522953111E+02  0.00000000000E+00 0. -1.
          3    1    5    5  503    0 -0.25091004438E+02  0.44984679594E+01  0.41006705662E+02  0.48283999699E+02  0.00000000000E+00 0. -1.
         -4    1    5    5    0  503 -0.31201348502E+03 -0.16854977822E+02  0.93831530023E+02  0.32625275652E+03  0.00000000000E+00 0.  1.
         -3    1    6    6    0  502  0.19697866287E+03 -0.23473477727E+02 -0.52838205713E+03  0.56439276756E+03  0.00000000000E+00 0.  1.
<mgrwt>
<rscale>  0 0.14798572E+04</rscale>
<asrwt>0</asrwt>
<pdfrwt beam="1">  1        2 0.11461071E+00 0.14798572E+04</pdfrwt>
<pdfrwt beam="2">  1       -2 0.11306487E+00 0.14798572E+04</pdfrwt>
<totfact> 0.22497094E+01</totfact>
</mgrwt>
</event>
<event>
11    1  0.2045212E-008  0.1915129E+04  0.7818608E-02  0.8647362E-01
          1   -1    0    0  501    0  0.00000000000E+00  0.00000000000E+00  0.12940878130E+04  0.12940878130E+04  0.00000000000E+00 0. -1.
         -1   -1    0    0    0  501 -0.00000000000E+00 -0.00000000000E+00 -0.70855283314E+03  0.70855283314E+03  0.00000000000E+00 0.  1.
         23    2    1    2    0    0  0.60201413029E+03 -0.39404392856E+03  0.41341768371E+03  0.83441001972E+03  0.87374304585E+02 0.  0.
        254    2    1    2    0    0 -0.60201413029E+03  0.39404392856E+03  0.17211729620E+03  0.11682306265E+04  0.90412764709E+03 0.  0.
         24    2    4    4    0    0 -0.17808746107E+03 -0.15207297922E+03 -0.20433828161E+03  0.32012137545E+03  0.76695677136E+02 0.  0.
         11    1    3    3    0    0  0.46925213603E+03 -0.30597698121E+03  0.27831951759E+03  0.62552476695E+03  0.00000000000E+00 0. -1.
        -11    1    3    3    0    0  0.13276199427E+03 -0.88066947348E+02  0.13509816612E+03  0.20888525277E+03  0.00000000000E+00 0.  1.
          2    1    5    5  502    0 -0.27708460366E+02 -0.39883140405E+02 -0.92141710131E+01  0.49429997086E+02  0.00000000000E+00 0. -1.
          3    1    4    4  503    0 -0.22122264836E+02  0.35736290801E+02 -0.54322372313E+02  0.68683311040E+02  0.00000000000E+00 0. -1.
         -4    1    4    4    0  503 -0.40180440439E+03  0.51038061698E+03  0.43077795012E+03  0.77942593996E+03  0.00000000000E+00 0.  1.
         -1    1    5    5    0  502 -0.15037900070E+03 -0.11218983882E+03 -0.19512411060E+03  0.27069137837E+03  0.00000000000E+00 0.  1.
<mgrwt>
<rscale>  0 0.19151288E+04</rscale>
<asrwt>0</asrwt>
<pdfrwt beam="1">  1        1 0.19909043E+00 0.19151288E+04</pdfrwt>
<pdfrwt beam="2">  1       -1 0.10900813E+00 0.19151288E+04</pdfrwt>
<totfact> 0.66552724E+00</totfact>
</mgrwt>
</event>
<event>
12    1  0.2045212E-008  0.2830789E+04  0.7818608E-02  0.8293773E-01
         -1   -1    0    0    0  501 -0.00000000000E+00  0.00000000000E+00  0.25835615474E+04  0.25835615474E+04  0.00000000000E+00 0.  1.
          1   -1    0    0  501    0  0.00000000000E+00 -0.00000000000E+00 -0.77541841668E+03  0.77541841668E+03  0.00000000000E+00 0. -1.
         23    2    1    2    0    0 -0.10976628462E+04 -0.42277277816E+03  0.23520663674E+03  0.12030692625E+04  0.91939885511E+02 0.  0.
        254    2    1    2    0    0  0.10976628462E+04  0.42277277816E+03  0.15729364940E+04  0.21559107016E+04  0.88894386399E+03 0.  0.
        -24    2    4    4    0    0  0.71534096312E+03  0.34940529456E+03  0.15628589606E+04  0.17564016863E+04  0.92854722801E+02 0.  0.
         24    2    4    4    0    0  0.38232188306E+03  0.73367483595E+02  0.10077533363E+02  0.39950901528E+03  0.89180080159E+02 0.  0.
         13    1    3    3    0    0 -0.59537990522E+03 -0.20389291427E+03  0.16572094063E+03  0.65077875056E+03  0.00000000000E+00 0.  1.
        -13    1    3    3    0    0 -0.50228294096E+03 -0.21887986389E+03  0.69485696116E+02  0.55229051192E+03  0.00000000000E+00 0. -1.
          4    1    6    6  502    0  0.38019732215E+03  0.83244550699E+02  0.86025917709E+01  0.38929893857E+03  0.00000000000E+00 0. -1.
          1    1    5    5  503    0  0.58535876014E+03  0.31384551701E+03  0.12432333155E+04  0.14095293411E+04  0.00000000000E+00 0. -1.
         -2    1    5    5    0  503  0.12998220298E+03  0.35559777548E+02  0.31962564510E+03  0.34687234522E+03  0.00000000000E+00 0.  1.
         -3    1    6    6    0  502  0.21245609099E+01 -0.98770671041E+01  0.14749415925E+01  0.10210076706E+02  0.00000000000E+00 0.  1.
<mgrwt>
<rscale>  0 0.28307887E+04</rscale>
<asrwt>0</asrwt>
<pdfrwt beam="1">  1        1 0.11929514E+00 0.28307887E+04</pdfrwt>
<pdfrwt beam="2">  1       -1 0.39747100E+00 0.28307887E+04</pdfrwt>
<totfact> 0.14930595E-01</totfact>
</mgrwt>
</event>
<event>
12    1  0.2045212E-008  0.1865491E+04  0.7818608E-02  0.8672227E-01
         -1   -1    0    0    0  501 -0.00000000000E+00  0.00000000000E+00  0.39730368981E+03  0.39730368981E+03  0.00000000000E+00 0.  1.
          1   -1    0    0  501    0  0.00000000000E+00 -0.00000000000E+00 -0.21897966987E+04  0.21897966987E+04  0.00000000000E+00 0. -1.
         23    2    1    2    0    0 -0.48728714718E+02  0.29620371358E+03  0.20277661188E+03  0.37347211957E+03  0.90840201436E+02 0.  0.
        254    2    1    2    0    0  0.48728714718E+02 -0.29620371358E+03 -0.19952696208E+04  0.22136282689E+04  0.91046039229E+03 0.  0.
        -24    2    4    4    0    0 -0.34959107583E+02 -0.13364677131E+03 -0.20070671661E+04  0.20142547887E+04  0.99096650273E+02 0.  0.
         24    2    4    4    0    0  0.83687822301E+02 -0.16255694228E+03  0.11797545332E+02  0.19937348019E+03  0.78626912979E+02 0.  0.
         11    1    3    3    0    0 -0.16483082726E+02  0.20771929105E+03  0.18281976094E+03  0.27720400589E+03  0.00000000000E+00 0.  1.
        -11    1    3    3    0    0 -0.32245631992E+02  0.88484422529E+02  0.19956850937E+02  0.96268113683E+02  0.00000000000E+00 0. -1.
          4    1    6    6  502    0  0.66825256932E+02 -0.16116231415E+03 -0.63222247909E+01  0.17458200650E+03  0.00000000000E+00 0. -1.
          3    1    5    5  503    0 -0.30685188560E+02 -0.27010929835E+02 -0.11268883778E+04  0.11276296321E+04  0.00000000000E+00 0. -1.
         -4    1    5    5    0  503 -0.42739190231E+01 -0.10663584147E+03 -0.88017878831E+03  0.88662515668E+03  0.00000000000E+00 0.  1.
         -3    1    6    6    0  502  0.16862565369E+02 -0.13946281205E+01  0.18119770123E+02  0.24791473690E+02  0.00000000000E+00 0.  1.
<mgrwt>
<rscale>  0 0.18654912E+04</rscale>
<asrwt>0</asrwt>
<pdfrwt beam="1">  1        1 0.33689180E+00 0.18654912E+04</pdfrwt>
<pdfrwt beam="2">  1       -1 0.61123645E-01 0.18654912E+04</pdfrwt>
<totfact> 0.56403709E+00</totfact>
</mgrwt>
</event>
<event>
12    1  0.2045212E-008  0.1154691E+04  0.7818608E-02  0.9153467E-01
         -1   -1    0    0    0  501 -0.00000000000E+00  0.00000000000E+00  0.30704433383E+03  0.30704433383E+03  0.00000000000E+00 0.  1.
          1   -1    0    0  501    0  0.00000000000E+00 -0.00000000000E+00 -0.10856013397E+04  0.10856013397E+04  0.00000000000E+00 0. -1.
         23    2    1    2    0    0 -0.40485527005E+02  0.10479178502E+03 -0.34352483151E+03  0.37223309087E+03  0.89038014198E+02 0.  0.
        254    2    1    2    0    0  0.40485527005E+02 -0.10479178502E+03 -0.43503217434E+03  0.10204125826E+04  0.91617053543E+03 0.  0.
        -24    2    4    4    0    0 -0.49986318557E+02  0.39210288685E+03 -0.14706525198E+03  0.43341094784E+03  0.99867689724E+02 0.  0.
         24    2    4    4    0    0  0.90471845562E+02 -0.49689467187E+03 -0.28796692236E+03  0.58700163479E+03  0.80972224263E+02 0.  0.
         13    1    3    3    0    0 -0.23283472299E+02  0.73981509449E+02 -0.32130403898E+03  0.33053240278E+03  0.00000000000E+00 0. -1.
        -13    1    3    3    0    0 -0.17202054705E+02  0.30810275571E+02 -0.22220792533E+02  0.41700688096E+02  0.00000000000E+00 0.  1.
          4    1    6    6  502    0  0.61354071038E+02 -0.46146129600E+03 -0.26584708612E+03  0.53608350370E+03  0.00000000000E+00 0. -1.
          1    1    5    5  503    0  0.58003499892E+01  0.29790115259E+03 -0.11434359109E+03  0.31914447762E+03  0.00000000000E+00 0. -1.
         -2    1    5    5    0  503 -0.55786668546E+02  0.94201734265E+02 -0.32721660896E+02  0.11426647023E+03  0.00000000000E+00 0.  1.
         -1    1    6    6    0  502  0.29117774524E+02 -0.35433375873E+02 -0.22119836243E+02  0.50918131097E+02  0.00000000000E+00 0.  1.
<mgrwt>
<rscale>  0 0.11546909E+04</rscale>
<asrwt>0</asrwt>
<pdfrwt beam="1">  1        1 0.16701559E+00 0.11546909E+04</pdfrwt>
<pdfrwt beam="2">  1       -1 0.47237590E-01 0.11546909E+04</pdfrwt>
<totfact> 0.57682436E+01</totfact>
</mgrwt>
</event>
<event>
11    1  0.2045212E-008  0.1319859E+04  0.7818608E-02  0.9013963E-01
         -1   -1    0    0    0  501 -0.00000000000E+00  0.00000000000E+00  0.73072460205E+03  0.73072460205E+03  0.00000000000E+00 0.  1.
          1   -1    0    0  501    0  0.00000000000E+00 -0.00000000000E+00 -0.59599331128E+03  0.59599331128E+03  0.00000000000E+00 0. -1.
         23    2    1    2    0    0  0.71454802145E+02 -0.49715774777E+02 -0.29612931033E+03  0.31689533714E+03  0.71781886689E+02 0.  0.
        254    2    1    2    0    0 -0.71454802145E+02  0.49715774777E+02  0.43086060110E+03  0.10098225762E+04  0.90913328548E+03 0.  0.
         24    2    4    4    0    0 -0.39437376519E+03 -0.15873745836E+03  0.28497389809E+03  0.51761579035E+03  0.77380465677E+02 0.  0.
         11    1    3    3    0    0  0.49904031204E+02 -0.35690514013E+02 -0.88540880972E+02  0.10772053065E+03  0.00000000000E+00 0. -1.
        -11    1    3    3    0    0  0.21550770941E+02 -0.14025260764E+02 -0.20758842936E+03  0.20917480649E+03  0.00000000000E+00 0.  1.
          2    1    5    5  502    0 -0.20232140303E+03 -0.10251488529E+03  0.19107283508E+03  0.29656715958E+03  0.00000000000E+00 0. -1.
          3    1    4    4  503    0  0.36024322461E+03  0.15096726133E+03  0.16022536155E+03  0.42218297142E+03  0.00000000000E+00 0. -1.
         -4    1    4    4    0  503 -0.37324261566E+02  0.57485971810E+02 -0.14338658538E+02  0.70023814414E+02  0.00000000000E+00 0.  1.
         -1    1    5    5    0  502 -0.19205236216E+03 -0.56222573072E+02  0.93901063001E+02  0.22104863077E+03  0.00000000000E+00 0.  1.
<mgrwt>
<rscale>  0 0.13198590E+04</rscale>
<asrwt>0</asrwt>
<pdfrwt beam="1">  1        1 0.91691279E-01 0.13198590E+04</pdfrwt>
<pdfrwt beam="2">  1       -1 0.11241917E+00 0.13198590E+04</pdfrwt>
<totfact> 0.24599223E+01</totfact>
</mgrwt>
</event>
<event>
11    1  0.2045212E-008  0.1636212E+04  0.7818608E-02  0.8798605E-01
          2   -1    0    0  501    0  0.00000000000E+00  0.00000000000E+00  0.74933150203E+03  0.74933150203E+03  0.00000000000E+00 0. -1.
         -2   -1    0    0    0  501 -0.00000000000E+00 -0.00000000000E+00 -0.89319253828E+03  0.89319253828E+03  0.00000000000E+00 0.  1.
         23    2    1    2    0    0  0.25773099068E+03  0.20855973420E+03  0.41039013212E+03  0.53522497516E+03  0.90129280487E+02 0.  0.
        254    2    1    2    0    0 -0.25773099068E+03 -0.20855973420E+03 -0.55425116837E+03  0.11072990651E+04  0.89944117970E+03 0.  0.
         24    2    4    4    0    0 -0.22664672277E+03  0.17693319224E+03 -0.62918265817E+03  0.69713096400E+03  0.86294102719E+02 0.  0.
         13    1    3    3    0    0  0.80896558867E+01  0.16447018528E+02  0.58040927332E+00  0.18338043128E+02  0.00000000000E+00 0.  1.
        -13    1    3    3    0    0  0.24964133480E+03  0.19211271567E+03  0.40980972284E+03  0.51688693203E+03  0.00000000000E+00 0. -1.
          4    1    5    5  502    0 -0.19247308983E+02  0.13266593862E+02 -0.13119597908E+02  0.26806440738E+02  0.00000000000E+00 0. -1.
          1    1    4    4  503    0 -0.12862931491E+02 -0.19962400333E+03 -0.19327558739E+02  0.20096953062E+03  0.00000000000E+00 0. -1.
         -2    1    4    4    0  503 -0.18221336425E+02 -0.18586892312E+03  0.94259048538E+02  0.20919857053E+03  0.00000000000E+00 0.  1.
         -3    1    5    5    0  502 -0.20739941378E+03  0.16366659838E+03 -0.61606306026E+03  0.67032452326E+03  0.00000000000E+00 0.  1.
<mgrwt>
<rscale>  0 0.16362119E+04</rscale>
<asrwt>0</asrwt>
<pdfrwt beam="1">  1        2 0.11528177E+00 0.16362119E+04</pdfrwt>
<pdfrwt beam="2">  1       -2 0.13741424E+00 0.16362119E+04</pdfrwt>
<totfact> 0.13528726E+01</totfact>
</mgrwt>
</event>
<event>
12    1  0.2045212E-008  0.1660494E+04  0.7818608E-02  0.8784223E-01
          1   -1    0    0  501    0  0.00000000000E+00  0.00000000000E+00  0.45374350549E+03  0.45374350549E+03  0.00000000000E+00 0. -1.
         -1   -1    0    0    0  501 -0.00000000000E+00 -0.00000000000E+00 -0.15191622438E+04  0.15191622438E+04  0.00000000000E+00 0.  1.
         23    2    1    2    0    0  0.47292575597E+03  0.32511961936E+03 -0.42190484626E+03  0.71823115689E+03  0.92145308540E+02 0.  0.
        254    2    1    2    0    0 -0.47292575597E+03 -0.32511961936E+03 -0.64351389209E+03  0.12546745924E+04  0.91144756626E+03 0.  0.
        -24    2    4    4    0    0 -0.50090196862E+03  0.15110707624E+03 -0.54996920953E+03  0.76212215193E+03  0.68028761412E+02 0.  0.
         24    2    4    4    0    0  0.27976212651E+02 -0.47622669560E+03 -0.93544682568E+02  0.49255244051E+03  0.79263894283E+02 0.  0.
         13    1    3    3    0    0  0.37704729305E+03  0.26728484192E+03 -0.29182285066E+03  0.54659530192E+03  0.00000000000E+00 0. -1.
        -13    1    3    3    0    0  0.95878462922E+02  0.57834777441E+02 -0.13008199560E+03  0.17163585497E+03  0.00000000000E+00 0.  1.
          4    1    6    6  502    0  0.31323253622E+02 -0.94763660889E+02 -0.14124386473E+00  0.99806400558E+02  0.00000000000E+00 0. -1.
          3    1    5    5  503    0 -0.19573592808E+03  0.26441175715E+02 -0.19110626491E+03  0.27483321088E+03  0.00000000000E+00 0. -1.
         -4    1    5    5    0  503 -0.30516604054E+03  0.12466590052E+03 -0.35886294461E+03  0.48728894105E+03  0.00000000000E+00 0.  1.
         -3    1    6    6    0  502 -0.33470409718E+01 -0.38146303471E+03 -0.93403438703E+02  0.39274603995E+03  0.00000000000E+00 0.  1.
<mgrwt>
<rscale>  0 0.16604939E+04</rscale>
<asrwt>0</asrwt>
<pdfrwt beam="1">  1        1 0.69806694E-01 0.16604939E+04</pdfrwt>
<pdfrwt beam="2">  1       -1 0.23371727E+00 0.16604939E+04</pdfrwt>
<totfact> 0.43115049E+00</totfact>
</mgrwt>
</event>
<event>
11    1  0.2045212E-008  0.1674557E+04  0.7818608E-02  0.8776010E-01
          1   -1    0    0  501    0  0.00000000000E+00  0.00000000000E+00  0.18564407517E+04  0.18564407517E+04  0.00000000000E+00 0. -1.
         -1   -1    0    0    0  501 -0.00000000000E+00 -0.00000000000E+00 -0.37762310164E+03  0.37762310164E+03  0.00000000000E+00 0.  1.
         23    2    1    2    0    0  0.39063244104E+03  0.31841131795E+03  0.10635987874E+03  0.52344916675E+03  0.93312030185E+02 0.  0.
        254    2    1    2    0    0 -0.39063244104E+03 -0.31841131795E+03  0.13724577713E+04  0.17106146865E+04  0.88802184688E+03 0.  0.
         24    2    4    4    0    0 -0.35150233388E+03 -0.32347280891E+02  0.22459348001E+03  0.42601593127E+03  0.80293867303E+02 0.  0.
         11    1    3    3    0    0  0.38708514463E+03  0.30077283083E+03  0.88556659561E+02  0.49813801994E+03  0.00000000000E+00 0. -1.
        -11    1    3    3    0    0  0.35472964109E+01  0.17638487121E+02  0.17803219183E+02  0.25311146813E+02  0.00000000000E+00 0.  1.
          4    1    5    5  502    0 -0.25473541709E+03 -0.18284600637E+02  0.11789905457E+03  0.28129103507E+03  0.00000000000E+00 0. -1.
          1    1    4    4  503    0  0.17906832712E+03 -0.30652201520E+03  0.76733497732E+03  0.84547275473E+03  0.00000000000E+00 0. -1.
         -2    1    4    4    0  503 -0.21819843427E+03  0.20457978138E+02  0.38052931394E+03  0.43912600054E+03  0.00000000000E+00 0.  1.
         -3    1    5    5    0  502 -0.96766916797E+02 -0.14062680254E+02  0.10669442544E+03  0.14472489620E+03  0.00000000000E+00 0.  1.
<mgrwt>
<rscale>  0 0.16745566E+04</rscale>
<asrwt>0</asrwt>
<pdfrwt beam="1">  1        1 0.28560626E+00 0.16745566E+04</pdfrwt>
<pdfrwt beam="2">  1       -1 0.58095863E-01 0.16745566E+04</pdfrwt>
<totfact> 0.10677762E+01</totfact>
</mgrwt>
</event>
<event>
12    1  0.2045212E-008  0.1301335E+04  0.7818608E-02  0.9028507E-01
         -2   -1    0    0    0  501 -0.00000000000E+00  0.00000000000E+00  0.24312513232E+03  0.24312513232E+03  0.00000000000E+00 0.  1.
          2   -1    0    0  501    0  0.00000000000E+00 -0.00000000000E+00 -0.17413601969E+04  0.17413601969E+04  0.00000000000E+00 0. -1.
         23    2    1    2    0    0 -0.16976972291E+03 -0.23410680807E+03 -0.33995927410E+03  0.45539726431E+03  0.90479853506E+02 0.  0.
        254    2    1    2    0    0  0.16976972291E+03  0.23410680807E+03 -0.11582757905E+04  0.15290880649E+04  0.95544740673E+03 0.  0.
        -24    2    4    4    0    0 -0.92985280452E+01  0.10688437153E+03 -0.12625695364E+04  0.12713102277E+04  0.10313645979E+03 0.  0.
         24    2    4    4    0    0  0.17906825095E+03  0.12722243654E+03  0.10429374591E+03  0.25777783720E+03  0.85564251047E+02 0.  0.
         11    1    3    3    0    0 -0.12922652263E+03 -0.15545405460E+03 -0.29083115008E+03  0.35418669526E+03  0.00000000000E+00 0. -1.
        -11    1    3    3    0    0 -0.40543200276E+02 -0.78652753470E+02 -0.49128124022E+02  0.10121056905E+03  0.00000000000E+00 0.  1.
          4    1    6    6  502    0  0.17275960287E+03  0.13077686329E+03  0.11465175804E+03  0.24513974378E+03  0.00000000000E+00 0. -1.
          1    1    5    5  503    0  0.32639341628E+02  0.66682710827E+02 -0.98126471594E+03  0.98406928277E+03  0.00000000000E+00 0. -1.
         -2    1    5    5    0  503 -0.41937869673E+02  0.40201660703E+02 -0.28130482043E+03  0.28724094491E+03  0.00000000000E+00 0.  1.
         -1    1    6    6    0  502  0.63086480818E+01 -0.35544267479E+01 -0.10358012131E+02  0.12638093426E+02  0.00000000000E+00 0.  1.
<mgrwt>
<rscale>  0 0.13013354E+04</rscale>
<asrwt>0</asrwt>
<pdfrwt beam="1">  1        2 0.26790156E+00 0.13013354E+04</pdfrwt>
<pdfrwt beam="2">  1       -2 0.37403867E-01 0.13013354E+04</pdfrwt>
<totfact> 0.61440831E+01</totfact>
</mgrwt>
</event>
<event>
11    1  0.2045212E-008  0.1338725E+04  0.7818608E-02  0.8999407E-01
         -2   -1    0    0    0  501 -0.00000000000E+00  0.00000000000E+00  0.14026381881E+03  0.14026381881E+03  0.00000000000E+00 0.  1.
          2   -1    0    0  501    0  0.00000000000E+00 -0.00000000000E+00 -0.31943092715E+04  0.31943092715E+04  0.00000000000E+00 0. -1.
         23    2    1    2    0    0  0.20462864470E+03  0.25556705874E+02 -0.14921839771E+04  0.15091682981E+04  0.91923355216E+02 0.  0.
        254    2    1    2    0    0 -0.20462864470E+03 -0.25556705874E+02 -0.15618614757E+04  0.18254047922E+04  0.92204411977E+03 0.  0.
         24    2    4    4    0    0 -0.16317132970E+02 -0.44891021140E+03 -0.63205492205E+03  0.77993900877E+03  0.83814116810E+02 0.  0.
         11    1    3    3    0    0  0.17311019166E+03  0.16615839174E+02 -0.14101686165E+04  0.14208514178E+04  0.00000000000E+00 0. -1.
        -11    1    3    3    0    0  0.31518453039E+02  0.89408666992E+01 -0.82015360581E+02  0.88316880326E+02  0.00000000000E+00 0.  1.
          2    1    5    5  502    0 -0.12940446955E+02 -0.29392708016E+02 -0.19767994861E+02  0.37711537661E+02  0.00000000000E+00 0. -1.
          3    1    4    4  503    0  0.12717485991E+02  0.68524308807E+01 -0.42139315507E+02  0.44546741411E+02  0.00000000000E+00 0. -1.
         -4    1    4    4    0  503 -0.20102899772E+03  0.41650107464E+03 -0.88766723809E+03  0.10009190420E+04  0.00000000000E+00 0.  1.
         -3    1    5    5    0  502 -0.33766860149E+01 -0.41951750338E+03 -0.61228692719E+03  0.74222747110E+03  0.00000000000E+00 0.  1.
<mgrwt>
<rscale>  0 0.13387248E+04</rscale>
<asrwt>0</asrwt>
<pdfrwt beam="1">  1        2 0.49143217E+00 0.13387248E+04</pdfrwt>
<pdfrwt beam="2">  1       -2 0.21579050E-01 0.13387248E+04</pdfrwt>
<totfact> 0.24219666E+01</totfact>
</mgrwt>
</event>
<event>
12    1  0.2045212E-008  0.3136927E+04  0.7818608E-02  0.8205676E-01
         -1   -1    0    0    0  501 -0.00000000000E+00  0.00000000000E+00  0.28018830025E+04  0.28018830025E+04  0.00000000000E+00 0.  1.
          1   -1    0    0  501    0  0.00000000000E+00 -0.00000000000E+00 -0.87800873579E+03  0.87800873579E+03  0.00000000000E+00 0. -1.
         23    2    1    2    0    0  0.70065408801E+02 -0.14339517843E+04  0.95128484151E+03  0.17245811717E+04  0.90058242668E+02 0.  0.
        254    2    1    2    0    0 -0.70065408801E+02  0.14339517843E+04  0.97258942522E+03  0.19553105666E+04  0.90342810482E+03 0.  0.
        -24    2    4    4    0    0  0.33074216069E+03  0.85527062058E+03  0.27805318808E+03  0.96327152546E+03  0.98489822212E+02 0.  0.
         24    2    4    4    0    0 -0.40080756950E+03  0.57868116370E+03  0.69453623714E+03  0.99203904111E+03  0.79008084457E+02 0.  0.
         11    1    3    3    0    0  0.41285876108E+02 -0.45769252369E+03  0.25992837781E+03  0.52796754767E+03  0.00000000000E+00 0. -1.
        -11    1    3    3    0    0  0.28779532693E+02 -0.97625926059E+03  0.69135646370E+03  0.11966136241E+04  0.00000000000E+00 0.  1.
          2    1    6    6  502    0  0.26734549100E+01  0.96580671970E+01  0.49959489908E+01  0.11197550154E+02  0.00000000000E+00 0. -1.
          3    1    5    5  503    0  0.11078422593E+03  0.20203089230E+03  0.10126879109E+03  0.25168431458E+03  0.00000000000E+00 0. -1.
         -4    1    5    5    0  503  0.21995793476E+03  0.65323972828E+03  0.17678439699E+03  0.71158721088E+03  0.00000000000E+00 0.  1.
         -1    1    6    6    0  502 -0.40348102441E+03  0.56902309650E+03  0.68954028815E+03  0.98084149096E+03  0.00000000000E+00 0.  1.
<mgrwt>
<rscale>  0 0.31369270E+04</rscale>
<asrwt>0</asrwt>
<pdfrwt beam="1">  1        1 0.13507827E+00 0.31369270E+04</pdfrwt>
<pdfrwt beam="2">  1       -1 0.43105892E+00 0.31369270E+04</pdfrwt>
<totfact> 0.69731747E-02</totfact>
</mgrwt>
</event>
<event>
11    1  0.2045212E-008  0.1642145E+04  0.7818608E-02  0.8795067E-01
         -2   -1    0    0    0  501 -0.00000000000E+00  0.00000000000E+00  0.78088935369E+03  0.78088935369E+03  0.00000000000E+00 0.  1.
          2   -1    0    0  501    0  0.00000000000E+00 -0.00000000000E+00 -0.86332318245E+03  0.86332318245E+03  0.00000000000E+00 0. -1.
         23    2    1    2    0    0 -0.19672001770E+03  0.28121617422E+03 -0.41710166122E+03  0.54784089986E+03  0.91512587954E+02 0.  0.
        254    2    1    2    0    0  0.19672001770E+03 -0.28121617422E+03  0.33466783247E+03  0.10963716363E+04  0.98602581344E+03 0.  0.
         24    2    4    4    0    0 -0.30954523650E+03 -0.34118421165E+03  0.18075810845E+01  0.46693195904E+03  0.76139787944E+02 0.  0.
         13    1    3    3    0    0 -0.12534118917E+03  0.17320386996E+03 -0.32475830558E+03  0.38881608932E+03  0.00000000000E+00 0. -1.
        -13    1    3    3    0    0 -0.71378828535E+02  0.10801230427E+03 -0.92343355641E+02  0.15902481054E+03  0.00000000000E+00 0.  1.
          4    1    5    5  502    0 -0.13265515413E+03 -0.13995501892E+03  0.38098750101E+02  0.19656121693E+03  0.00000000000E+00 0. -1.
          3    1    4    4  503    0  0.33420401390E+02  0.41449528102E+02  0.70567615030E+02  0.88401215489E+02  0.00000000000E+00 0. -1.
         -4    1    4    4    0  503  0.47284485281E+03  0.18518509328E+02  0.26229263635E+03  0.54103846176E+03  0.00000000000E+00 0.  1.
         -3    1    5    5    0  502 -0.17689008237E+03 -0.20122919273E+03 -0.36291169016E+02  0.27037074212E+03  0.00000000000E+00 0.  1.
<mgrwt>
<rscale>  0 0.16421448E+04</rscale>
<asrwt>0</asrwt>
<pdfrwt beam="1">  1        2 0.13281895E+00 0.16421448E+04</pdfrwt>
<pdfrwt beam="2">  1       -2 0.12013682E+00 0.16421448E+04</pdfrwt>
<totfact> 0.15723745E+01</totfact>
</mgrwt>
</event>
<event>
12    1  0.2045212E-008  0.1117761E+04  0.7818608E-02  0.9188052E-01
         -2   -1    0    0    0  501 -0.00000000000E+00  0.00000000000E+00  0.33335590384E+03  0.33335590384E+03  0.00000000000E+00 0.  1.
          2   -1    0    0  501    0  0.00000000000E+00 -0.00000000000E+00 -0.93697804107E+03  0.93697804107E+03  0.00000000000E+00 0. -1.
         23    2    1    2    0    0 -0.13808798116E+03  0.11040151572E+03 -0.87599495100E+02  0.21721014615E+03  0.90828359206E+02 0.  0.
        254    2    1    2    0    0  0.13808798116E+03 -0.11040151572E+03 -0.51602264213E+03  0.10531237988E+04  0.90085158772E+03 0.  0.
        -24    2    4    4    0    0  0.41336659772E+03  0.21993109657E+03 -0.22799496281E+03  0.52966248086E+03  0.96535015494E+02 0.  0.
         24    2    4    4    0    0 -0.27527861656E+03 -0.33033261228E+03 -0.28802767932E+03  0.52346131789E+03  0.78446515548E+02 0.  0.
         13    1    3    3    0    0 -0.14968861880E+03  0.90239497080E+02 -0.83031368184E+02  0.19350467057E+03  0.00000000000E+00 0.  1.
        -13    1    3    3    0    0  0.11600637635E+02  0.20162018635E+02 -0.45681269161E+01  0.23705475581E+02  0.00000000000E+00 0. -1.
          4    1    6    6  502    0  0.47560561908E+01 -0.24238323322E+01 -0.93071226566E+00  0.54186030475E+01  0.00000000000E+00 0. -1.
          3    1    5    5  503    0  0.13267793476E+03  0.44434626052E+02 -0.27358316086E+02  0.14257050124E+03  0.00000000000E+00 0. -1.
         -4    1    5    5    0  503  0.28068866296E+03  0.17549647052E+03 -0.20063664673E+03  0.38709197962E+03  0.00000000000E+00 0.  1.
         -3    1    6    6    0  502 -0.28003467275E+03 -0.32790877995E+03 -0.28709696705E+03  0.51804271484E+03  0.00000000000E+00 0.  1.
<mgrwt>
<rscale>  0 0.11177605E+04</rscale>
<asrwt>0</asrwt>
<pdfrwt beam="1">  1        2 0.14415047E+00 0.11177605E+04</pdfrwt>
<pdfrwt beam="2">  1       -2 0.51285524E-01 0.11177605E+04</pdfrwt>
<totfact> 0.98668067E+01</totfact>
</mgrwt>
</event>
<event>
11    1  0.2045212E-008  0.1156433E+04  0.7818608E-02  0.9151869E-01
          2   -1    0    0  501    0  0.00000000000E+00  0.00000000000E+00  0.28577694215E+04  0.28577694215E+04  0.00000000000E+00 0. -1.
         -2   -1    0    0    0  501 -0.00000000000E+00 -0.00000000000E+00 -0.11699141282E+03  0.11699141282E+03  0.00000000000E+00 0.  1.
         23    2    1    2    0    0  0.10262291546E+03 -0.15365187590E+03  0.87429218019E+03  0.89786940707E+03  0.87420215398E+02 0.  0.
        254    2    1    2    0    0 -0.10262291546E+03  0.15365187590E+03  0.18664858285E+04  0.20768914273E+04  0.89194634981E+03 0.  0.
         24    2    4    4    0    0  0.24487894356E+03  0.36672621608E+03  0.12250537243E+04  0.13044944946E+04  0.80594320139E+02 0.  0.
         13    1    3    3    0    0 -0.69937866812E+01 -0.54777503037E+02  0.19159870067E+03  0.19939796887E+03  0.00000000000E+00 0.  1.
        -13    1    3    3    0    0  0.10961670214E+03 -0.98874372863E+02  0.68269347952E+03  0.69847143820E+03  0.00000000000E+00 0. -1.
          4    1    5    5  502    0  0.33234727357E+02  0.10482100469E+03  0.35094741777E+03  0.36777177728E+03  0.00000000000E+00 0. -1.
          1    1    4    4  503    0 -0.40515459893E+02 -0.91275043389E+02  0.13975486053E+03  0.17176745058E+03  0.00000000000E+00 0. -1.
         -2    1    4    4    0  503 -0.30698639913E+03 -0.12179929679E+03  0.50167724364E+03  0.60062948208E+03  0.00000000000E+00 0.  1.
         -3    1    5    5    0  502  0.21164421621E+03  0.26190521139E+03  0.87410630655E+03  0.93672271732E+03  0.00000000000E+00 0.  1.
<mgrwt>
<rscale>  0 0.11564333E+04</rscale>
<asrwt>0</asrwt>
<pdfrwt beam="1">  1        2 0.43965678E+00 0.11564333E+04</pdfrwt>
<pdfrwt beam="2">  1       -2 0.17998681E-01 0.11564333E+04</pdfrwt>
<totfact> 0.54954092E+01</totfact>
</mgrwt>
</event>
<event>
12    1  0.2045212E-008  0.3465983E+04  0.7818608E-02  0.8121899E-01
          2   -1    0    0  501    0  0.00000000000E+00  0.00000000000E+00  0.12613844472E+04  0.12613844472E+04  0.00000000000E+00 0. -1.
         -2   -1    0    0    0  501 -0.00000000000E+00 -0.00000000000E+00 -0.23809238697E+04  0.23809238697E+04  0.00000000000E+00 0.  1.
         23    2    1    2    0    0  0.91917818633E+03 -0.52804682321E+03  0.75833383981E+03  0.13065971399E+04  0.91672719972E+02 0.  0.
        254    2    1    2    0    0 -0.91917818633E+03  0.52804682321E+03 -0.18778732624E+04  0.23357111770E+04  0.89745012512E+03 0.  0.
        -24    2    4    4    0    0 -0.68808026431E+03  0.24450715357E+03 -0.45867755492E+03  0.86804816944E+03  0.99419951719E+02 0.  0.
         24    2    4    4    0    0 -0.23109792202E+03  0.28353966964E+03 -0.14191957075E+04  0.14676630076E+04  0.78212875286E+02 0.  0.
         13    1    3    3    0    0  0.46025818091E+03 -0.29347525462E+03  0.43698136066E+03  0.69922673557E+03  0.00000000000E+00 0.  1.
        -13    1    3    3    0    0  0.45892000542E+03 -0.23457156859E+03  0.32135247915E+03  0.60737040430E+03  0.00000000000E+00 0. -1.
          2    1    6    6  502    0 -0.19819271106E+03  0.18870057900E+03 -0.10326623807E+04  0.10683070026E+04  0.00000000000E+00 0. -1.
          3    1    5    5  503    0 -0.49472944212E+03  0.22183387488E+03 -0.34393029663E+03  0.64207128723E+03  0.00000000000E+00 0. -1.
         -2    1    5    5    0  503 -0.19335082219E+03  0.22673278690E+02 -0.11474725829E+03  0.22597688221E+03  0.00000000000E+00 0.  1.
         -1    1    6    6    0  502 -0.32905210954E+02  0.94839090639E+02 -0.38653332674E+03  0.39935600497E+03  0.00000000000E+00 0.  1.
<mgrwt>
<rscale>  0 0.34659835E+04</rscale>
<asrwt>0</asrwt>
<pdfrwt beam="1">  1        2 0.19405915E+00 0.34659835E+04</pdfrwt>
<pdfrwt beam="2">  1       -2 0.36629598E+00 0.34659835E+04</pdfrwt>
<totfact> 0.17585394E-01</totfact>
</mgrwt>
</event>
<event>
11    1  0.2045212E-008  0.1829937E+04  0.7818608E-02  0.8690539E-01
          2   -1    0    0  501    0  0.00000000000E+00  0.00000000000E+00  0.10875958915E+04  0.10875958915E+04  0.00000000000E+00 0. -1.
         -2   -1    0    0    0  501 -0.00000000000E+00 -0.00000000000E+00 -0.76974135045E+03  0.76974135045E+03  0.00000000000E+00 0.  1.
         23    2    1    2    0    0 -0.39012097844E+03 -0.13215632005E+03 -0.45233475919E+03  0.61824026210E+03  0.89188657134E+02 0.  0.
        254    2    1    2    0    0  0.39012097844E+03  0.13215632005E+03  0.77018930021E+03  0.12390969798E+04  0.87892553524E+03 0.  0.
         24    2    4    4    0    0  0.52127213167E+02  0.11483083493E+03 -0.17410736857E+03  0.22929687417E+03  0.79751574977E+02 0.  0.
         13    1    3    3    0    0 -0.31406053219E+03 -0.83346931461E+02 -0.30654243261E+03  0.44670906847E+03  0.00000000000E+00 0.  1.
        -13    1    3    3    0    0 -0.76060446251E+02 -0.48809388593E+02 -0.14579232658E+03  0.17153119363E+03  0.00000000000E+00 0. -1.
          2    1    5    5  502    0  0.17966612171E+02  0.82392164035E+02 -0.15873356954E+03  0.17974318887E+03  0.00000000000E+00 0. -1.
          3    1    4    4  503    0  0.34398637428E+03  0.28258875785E+02  0.91650357741E+03  0.97933855084E+03  0.00000000000E+00 0. -1.
         -4    1    4    4    0  503 -0.59926090077E+01 -0.10933390660E+02  0.27793091367E+02  0.30461554815E+02  0.00000000000E+00 0.  1.
         -3    1    5    5    0  502  0.34160600996E+02  0.32438670894E+02 -0.15373799024E+02  0.49553685294E+02  0.00000000000E+00 0.  1.
<mgrwt>
<rscale>  0 0.18299372E+04</rscale>
<asrwt>0</asrwt>
<pdfrwt beam="1">  1        2 0.16732245E+00 0.18299372E+04</pdfrwt>
<pdfrwt beam="2">  1       -2 0.11842175E+00 0.18299372E+04</pdfrwt>
<totfact> 0.11461979E+01</totfact>
</mgrwt>
</event>
<event>
12    1  0.2045212E-008  0.1537831E+04  0.7818608E-02  0.8859678E-01
          2   -1    0    0  501    0  0.00000000000E+00  0.00000000000E+00  0.11512334620E+04  0.11512334620E+04  0.00000000000E+00 0. -1.
         -2   -1    0    0    0  501 -0.00000000000E+00 -0.00000000000E+00 -0.51356294120E+03  0.51356294120E+03  0.00000000000E+00 0.  1.
         23    2    1    2    0    0 -0.26776149562E+03 -0.45107343964E+03  0.24917943784E+03  0.59048270793E+03  0.10684554103E+03 0.  0.
        254    2    1    2    0    0  0.26776149562E+03  0.45107343964E+03  0.38849108294E+03  0.10743136952E+04  0.85326498098E+03 0.  0.
        -24    2    4    4    0    0  0.26546275716E+03 -0.14028462734E+03  0.36512339597E+03  0.47727755645E+03  0.65791484995E+02 0.  0.
         24    2    4    4    0    0  0.22987384613E+01  0.59135806697E+03  0.23367686970E+02  0.59703613879E+03  0.78717562551E+02 0.  0.
         13    1    3    3    0    0 -0.12459609463E+03 -0.19768618343E+03  0.53322523424E+02  0.23968167519E+03  0.00000000000E+00 0.  1.
        -13    1    3    3    0    0 -0.14316540099E+03 -0.25338725621E+03  0.19585691442E+03  0.35080103274E+03  0.00000000000E+00 0. -1.
          4    1    6    6  502    0  0.20028596791E+02  0.38355286053E+02  0.36654573742E+00  0.43271318600E+02  0.00000000000E+00 0. -1.
          1    1    5    5  503    0  0.11437053731E+03 -0.35084440893E+02  0.10894243941E+03  0.16180232663E+03  0.00000000000E+00 0. -1.
         -2    1    5    5    0  503  0.15109221985E+03 -0.10520018645E+03  0.25618095655E+03  0.31547522982E+03  0.00000000000E+00 0.  1.
         -3    1    6    6    0  502 -0.17729858329E+02  0.55300278092E+03  0.23001141233E+02  0.55376482019E+03  0.00000000000E+00 0.  1.
<mgrwt>
<rscale>  0 0.15378307E+04</rscale>
<asrwt>0</asrwt>
<pdfrwt beam="1">  1        2 0.17711284E+00 0.15378307E+04</pdfrwt>
<pdfrwt beam="2">  1       -2 0.79009684E-01 0.15378307E+04</pdfrwt>
<totfact> 0.27762651E+01</totfact>
</mgrwt>
</event>
<event>
12    1  0.2045212E-008  0.1391532E+04  0.7818608E-02  0.8959971E-01
         -2   -1    0    0    0  501 -0.00000000000E+00  0.00000000000E+00  0.63645664629E+03  0.63645664629E+03  0.00000000000E+00 0. -1.
          2   -1    0    0  501    0  0.00000000000E+00 -0.00000000000E+00 -0.76060247280E+03  0.76060247280E+03  0.00000000000E+00 0.  1.
         23    2    1    2    0    0  0.11064790308E+03  0.23123185227E+03  0.26859275292E+03  0.38269617712E+03  0.92753270019E+02 0.  0.
        254    2    1    2    0    0 -0.11064790308E+03 -0.23123185227E+03 -0.39273857943E+03  0.10143629420E+04  0.89943174189E+03 0.  0.
        -24    2    4    4    0    0 -0.46030873090E+03 -0.26547480493E+03 -0.36891768286E+03  0.65324113606E+03  0.90899534237E+02 0.  0.
         24    2    4    4    0    0  0.34966082781E+03  0.34242952661E+02 -0.23820896565E+02  0.36112180591E+03  0.80039048468E+02 0.  0.
         11    1    3    3    0    0  0.98101710905E+02  0.22062598485E+03  0.20414703999E+03  0.31618947612E+03  0.00000000000E+00 0. -1.
        -11    1    3    3    0    0  0.12546192180E+02  0.10605867414E+02  0.64445712935E+02  0.66506700997E+02  0.00000000000E+00 0.  1.
          2    1    6    6  502    0  0.82133818532E+02 -0.23038527601E+02 -0.19465065373E+02  0.87496438046E+02  0.00000000000E+00 0. -1.
          1    1    5    5  503    0 -0.47573489409E+02 -0.33926001154E+02 -0.78953712352E+02  0.98223719859E+02  0.00000000000E+00 0. -1.
         -2    1    5    5    0  503 -0.41273524149E+03 -0.23154880377E+03 -0.28996397051E+03  0.55501741620E+03  0.00000000000E+00 0.  1.
         -1    1    6    6    0  502  0.26752700928E+03  0.57281480262E+02 -0.43558311919E+01  0.27362536787E+03  0.00000000000E+00 0.  1.
<mgrwt>
<rscale>  0 0.13915322E+04</rscale>
<asrwt>0</asrwt>
<pdfrwt beam="1">  1        2 0.11701576E+00 0.13915322E+04</pdfrwt>
<pdfrwt beam="2">  1       -2 0.97916407E-01 0.13915322E+04</pdfrwt>
<totfact> 0.31138865E+01</totfact>
</mgrwt>
</event>
<event>
11    1  0.2045212E-008  0.2116775E+04  0.7818608E-02  0.8553890E-01
         -2   -1    0    0    0  501 -0.00000000000E+00  0.00000000000E+00  0.26360423722E+03  0.26360423722E+03  0.00000000000E+00 0.  1.
          2   -1    0    0  501    0  0.00000000000E+00 -0.00000000000E+00 -0.42494905068E+04  0.42494905068E+04  0.00000000000E+00 0. -1.
         23    2    1    2    0    0 -0.74157633005E+03  0.42033180000E+03 -0.13368176617E+04  0.15883018446E+04  0.94905287762E+02 0.  0.
        254    2    1    2    0    0  0.74157633005E+03 -0.42033180000E+03 -0.26490686079E+04  0.29247928994E+04  0.90013040149E+03 0.  0.
         24    2    4    4    0    0  0.46000849799E+03 -0.68011782989E+03 -0.19562584891E+04  0.21230357220E+04  0.78519551181E+02 0.  0.
         11    1    3    3    0    0 -0.50552421397E+03  0.27759753862E+03 -0.98251120723E+03  0.11392731879E+04  0.00000000000E+00 0.  1.
        -11    1    3    3    0    0 -0.23605211608E+03  0.14273426137E+03 -0.35430645446E+03  0.44902865671E+03  0.00000000000E+00 0. -1.
          4    1    5    5  502    0  0.36673877396E+03 -0.48849360831E+03 -0.14066361634E+04  0.15335412058E+04  0.00000000000E+00 0. -1.
          3    1    4    4  503    0  0.20877618808E+03  0.24221213623E+03 -0.48559375626E+03  0.58142541376E+03  0.00000000000E+00 0. -1.
         -4    1    4    4    0  503  0.72791643989E+02  0.17573893659E+02 -0.20721636256E+03  0.22033176368E+03  0.00000000000E+00 0.  1.
         -3    1    5    5    0  502  0.93269724026E+02 -0.19162422158E+03 -0.54962232575E+03  0.58949451624E+03  0.00000000000E+00 0.  1.
<mgrwt>
<rscale>  0 0.21167746E+04</rscale>
<asrwt>0</asrwt>
<pdfrwt beam="1">  1        2 0.65376776E+00 0.21167746E+04</pdfrwt>
<pdfrwt beam="2">  1       -2 0.40554499E-01 0.21167746E+04</pdfrwt>
<totfact> 0.11270801E+00</totfact>
</mgrwt>
</event>
<event>
12    1  0.2045212E-008  0.1569415E+04  0.7818608E-02  0.8839561E-01
          1   -1    0    0  501    0  0.00000000000E+00  0.00000000000E+00  0.27730185298E+04  0.27730185298E+04  0.00000000000E+00 0. -1.
         -1   -1    0    0    0  501 -0.00000000000E+00 -0.00000000000E+00 -0.22205623437E+03  0.22205623437E+03  0.00000000000E+00 0.  1.
         23    2    1    2    0    0  0.34480319240E+03  0.32912626565E+03  0.53407443824E+03  0.72141818620E+03  0.89416740981E+02 0.  0.
        254    2    1    2    0    0 -0.34480319240E+03 -0.32912626565E+03  0.20168878572E+04  0.22736565779E+04  0.93512794087E+03 0.  0.
        -24    2    4    4    0    0 -0.48188935235E+03 -0.42169187992E+03  0.19834240837E+04  0.20870045430E+04  0.10758939182E+03 0.  0.
         24    2    4    4    0    0  0.13708615995E+03  0.92565614262E+02  0.33463773439E+02  0.18665203491E+03  0.79738007307E+02 0.  0.
         11    1    3    3    0    0  0.24848142765E+03  0.19786056814E+03  0.30485339737E+03  0.44025835393E+03  0.00000000000E+00 0.  1.
        -11    1    3    3    0    0  0.96321764745E+02  0.13126569751E+03  0.22922104087E+03  0.28115983227E+03  0.00000000000E+00 0. -1.
          2    1    6    6  502    0  0.67282434041E+01 -0.13815466378E+02  0.24226529286E+01  0.15556529746E+02  0.00000000000E+00 0. -1.
          1    1    5    5  503    0 -0.35721762696E+03 -0.35083833688E+03  0.14226474490E+04  0.15081835882E+04  0.00000000000E+00 0. -1.
         -2    1    5    5    0  503 -0.12467172539E+03 -0.70853543038E+02  0.56077663470E+03  0.57882095479E+03  0.00000000000E+00 0.  1.
         -1    1    6    6    0  502  0.13035791655E+03  0.10638108064E+03  0.31041120510E+02  0.17109550516E+03  0.00000000000E+00 0.  1.
<mgrwt>
<rscale>  0 0.15694152E+04</rscale>
<asrwt>0</asrwt>
<pdfrwt beam="1">  1        1 0.42661821E+00 0.15694152E+04</pdfrwt>
<pdfrwt beam="2">  1       -1 0.34162500E-01 0.15694152E+04</pdfrwt>
<totfact> 0.68160560E+00</totfact>
</mgrwt>
</event>
<event>
12    1  0.2045212E-008  0.2535906E+04  0.7818608E-02  0.8390304E-01
          2   -1    0    0  501    0  0.00000000000E+00  0.00000000000E+00  0.14495056092E+04  0.14495056092E+04  0.00000000000E+00 0. -1.
         -2   -1    0    0    0  501 -0.00000000000E+00 -0.00000000000E+00 -0.11091398957E+04  0.11091398957E+04  0.00000000000E+00 0.  1.
         23    2    1    2    0    0  0.25831417155E+03 -0.17735317242E+03 -0.92191445958E+03  0.97810988104E+03  0.92694711841E+02 0.  0.
        254    2    1    2    0    0 -0.25831417155E+03  0.17735317242E+03  0.12622801731E+04  0.15805356239E+04  0.89808755907E+03 0.  0.
        -24    2    4    4    0    0  0.26870887317E+02  0.38926279457E+03  0.11178554775E+04  0.11881793586E+04  0.99607990765E+02 0.  0.
         24    2    4    4    0    0 -0.28518505886E+03 -0.21190962215E+03  0.14442469568E+03  0.39235626528E+03  0.82757117060E+02 0.  0.
         13    1    3    3    0    0  0.20373282414E+03 -0.95803137136E+02 -0.57245798982E+03  0.61513693990E+03  0.00000000000E+00 0.  1.
        -13    1    3    3    0    0  0.54581347404E+02 -0.81550035287E+02 -0.34945646976E+03  0.36297294114E+03  0.00000000000E+00 0. -1.
          4    1    6    6  502    0 -0.32626068851E+02 -0.14506246583E+02 -0.92299071155E+01  0.36879299668E+02  0.00000000000E+00 0. -1.
          1    1    5    5  503    0 -0.22093122200E+02  0.22838786166E+03  0.54988759319E+03  0.59584015184E+03  0.00000000000E+00 0. -1.
         -2    1    5    5    0  503  0.48964009517E+02  0.16087493291E+03  0.56796788427E+03  0.59233920673E+03  0.00000000000E+00 0.  1.
         -3    1    6    6    0  502 -0.25255899001E+03 -0.19740337556E+03  0.15365460280E+03  0.35547696561E+03  0.00000000000E+00 0.  1.
<mgrwt>
<rscale>  0 0.25359058E+04</rscale>
<asrwt>0</asrwt>
<pdfrwt beam="1">  1        2 0.22300086E+00 0.25359058E+04</pdfrwt>
<pdfrwt beam="2">  1       -2 0.17063691E+00 0.25359058E+04</pdfrwt>
<totfact> 0.25434813E+00</totfact>
</mgrwt>
</event>
<event>
12    1  0.2045212E-008  0.2062679E+04  0.7818608E-02  0.8577864E-01
         -2   -1    0    0    0  501 -0.00000000000E+00  0.00000000000E+00  0.54405050194E+03  0.54405050194E+03  0.00000000000E+00 0.  1.
          2   -1    0    0  501    0  0.00000000000E+00 -0.00000000000E+00 -0.19550779169E+04  0.19550779169E+04  0.00000000000E+00 0. -1.
         23    2    1    2    0    0  0.92171230265E+02 -0.46293315089E+02  0.42326574967E+03  0.44495738431E+03  0.90523876971E+02 0.  0.
        254    2    1    2    0    0 -0.92171230265E+02  0.46293315089E+02 -0.18342931647E+04  0.20541710346E+04  0.91888444244E+03 0.  0.
        -24    2    4    4    0    0 -0.41946519557E+03  0.23162529421E+03 -0.67724411916E+03  0.83491964613E+03  0.93967501476E+02 0.  0.
         24    2    4    4    0    0  0.32729396531E+03 -0.18533197912E+03 -0.11570490455E+04  0.12192513884E+04  0.79637756620E+02 0.  0.
         13    1    3    3    0    0 -0.12453452312E+02  0.12142202921E+02  0.54688629736E+02  0.57387871442E+02  0.00000000000E+00 0. -1.
        -13    1    3    3    0    0  0.10462468258E+03 -0.58435518010E+02  0.36857711993E+03  0.38756951287E+03  0.00000000000E+00 0.  1.
          2    1    6    6  502    0  0.14652085164E+03 -0.69353584407E+02 -0.62013316293E+03  0.64097068529E+03  0.00000000000E+00 0. -1.
          1    1    5    5  503    0 -0.18816504608E+03  0.12402263008E+03 -0.39264282952E+03  0.45272076262E+03  0.00000000000E+00 0. -1.
         -2    1    5    5    0  503 -0.23130014950E+03  0.10760266413E+03 -0.28460128964E+03  0.38219888350E+03  0.00000000000E+00 0.  1.
         -1    1    6    6    0  502  0.18077311367E+03 -0.11597839472E+03 -0.53691588257E+03  0.57828070314E+03  0.00000000000E+00 0.  1.
<mgrwt>
<rscale>  0 0.20626790E+04</rscale>
<asrwt>0</asrwt>
<pdfrwt beam="1">  1        2 0.30078122E+00 0.20626790E+04</pdfrwt>
<pdfrwt beam="2">  1       -2 0.83700078E-01 0.20626790E+04</pdfrwt>
<totfact> 0.81625836E+00</totfact>
</mgrwt>
</event>
<event>
11    1  0.2045212E-008  0.1389313E+04  0.7818608E-02  0.8961591E-01
          2   -1    0    0  501    0  0.00000000000E+00  0.00000000000E+00  0.19158454488E+04  0.19158454488E+04  0.00000000000E+00 0. -1.
         -2   -1    0    0    0  501 -0.00000000000E+00 -0.00000000000E+00 -0.25187187072E+03  0.25187187072E+03  0.00000000000E+00 0.  1.
         23    2    1    2    0    0  0.10342058934E+03 -0.89580635232E+01  0.10710645989E+04  0.10801131465E+04  0.93214640026E+02 0.  0.
        254    2    1    2    0    0 -0.10342058934E+03  0.89580635232E+01  0.59290897921E+03  0.10876041730E+04  0.90585082344E+03 0.  0.
         24    2    4    4    0    0  0.29237817465E+03  0.42466412353E+02 -0.58766321151E+02  0.31187243107E+03  0.80762240978E+02 0.  0.
         13    1    3    3    0    0 -0.21699562708E+01 -0.29812894399E+02  0.16583432934E+03  0.16850680155E+03  0.00000000000E+00 0.  1.
        -13    1    3    3    0    0  0.10559054561E+03  0.20854830876E+02  0.90523026954E+03  0.91160634497E+03  0.00000000000E+00 0. -1.
          4    1    5    5  502    0  0.25075470505E+03  0.41068921074E+02 -0.19844825399E+02  0.25486936944E+03  0.00000000000E+00 0. -1.
          3    1    4    4  503    0 -0.30326149585E+03  0.16769706400E+02  0.55550135143E+03  0.63311176687E+03  0.00000000000E+00 0. -1.
         -4    1    4    4    0  503 -0.92537268152E+02 -0.50278055230E+02  0.96173948932E+02  0.14261997507E+03  0.00000000000E+00 0.  1.
         -3    1    5    5    0  502  0.41623469604E+02  0.13974912793E+01 -0.38921495752E+02  0.57003061631E+02  0.00000000000E+00 0.  1.
<mgrwt>
<rscale>  0 0.13893129E+04</rscale>
<asrwt>0</asrwt>
<pdfrwt beam="1">  1        2 0.29474544E+00 0.13893129E+04</pdfrwt>
<pdfrwt beam="2">  1       -2 0.38749520E-01 0.13893129E+04</pdfrwt>
<totfact> 0.45628794E+01</totfact>
</mgrwt>
</event>
<event>
11    1  0.2045212E-008  0.1987928E+04  0.7818608E-02  0.8612285E-01
         -2   -1    0    0    0  501 -0.00000000000E+00  0.00000000000E+00  0.36007104613E+03  0.36007104613E+03  0.00000000000E+00 0.  1.
          2   -1    0    0  501    0  0.00000000000E+00 -0.00000000000E+00 -0.27438054660E+04  0.27438054660E+04  0.00000000000E+00 0. -1.
         23    2    1    2    0    0 -0.72247725834E+03  0.30289979327E+03 -0.11303139311E+04  0.13787046128E+04  0.97443075397E+02 0.  0.
        254    2    1    2    0    0  0.72247725834E+03 -0.30289979327E+03 -0.12534204888E+04  0.17251718993E+04  0.88962547570E+03 0.  0.
         24    2    4    4    0    0  0.88231932174E+03 -0.97915575273E+02 -0.10366236643E+04  0.13670250934E+04  0.78064967723E+02 0.  0.
         13    1    3    3    0    0 -0.69046800345E+03  0.26805774791E+03 -0.10805958278E+04  0.13100718924E+04  0.00000000000E+00 0.  1.
        -13    1    3    3    0    0 -0.32009254885E+02  0.34842045363E+02 -0.49718103250E+02  0.68632720434E+02  0.00000000000E+00 0. -1.
          2    1    5    5  502    0  0.51808903678E+03 -0.23082435119E+02 -0.57650162324E+03  0.77543740588E+03  0.00000000000E+00 0. -1.
          1    1    4    4  503    0 -0.16089811985E+03 -0.12764034610E+03 -0.13619295075E+03  0.24643210577E+03  0.00000000000E+00 0. -1.
         -2    1    4    4    0  503  0.10560564479E+01 -0.77343871900E+02 -0.80603873752E+02  0.11171470019E+03  0.00000000000E+00 0.  1.
         -1    1    5    5    0  502  0.36423028496E+03 -0.74833140154E+02 -0.46012204103E+03  0.59158768749E+03  0.00000000000E+00 0.  1.
<mgrwt>
<rscale>  0 0.19879285E+04</rscale>
<asrwt>0</asrwt>
<pdfrwt beam="1">  1        2 0.42212391E+00 0.19879285E+04</pdfrwt>
<pdfrwt beam="2">  1       -2 0.55395546E-01 0.19879285E+04</pdfrwt>
<totfact> 0.71306765E+00</totfact>
</mgrwt>
</event>
<event>
12    1  0.2045212E-008  0.2448442E+04  0.7818608E-02  0.8421587E-01
          1   -1    0    0  501    0  0.00000000000E+00  0.00000000000E+00  0.18065193694E+04  0.18065193694E+04  0.00000000000E+00 0. -1.
         -1   -1    0    0    0  501 -0.00000000000E+00 -0.00000000000E+00 -0.82961567454E+03  0.82961567454E+03  0.00000000000E+00 0.  1.
         23    2    1    2    0    0  0.56342931737E+03  0.86188724869E+03  0.57965875525E+03  0.11851352714E+04  0.90769564631E+02 0.  0.
        254    2    1    2    0    0 -0.56342931737E+03 -0.86188724869E+03  0.39724493958E+03  0.14509997725E+04  0.94196314824E+03 0.  0.
        -24    2    4    4    0    0  0.76679554163E+02  0.79930936346E+02  0.26233535914E+03  0.30095207149E+03  0.97383777225E+02 0.  0.
         24    2    4    4    0    0 -0.64010887154E+03 -0.94181818504E+03  0.13490958045E+03  0.11500477010E+04  0.87454323111E+02 0.  0.
         13    1    3    3    0    0  0.35818276326E+03  0.54685762856E+03  0.31728183024E+03  0.72664703785E+03  0.00000000000E+00 0.  1.
        -13    1    3    3    0    0  0.20524655412E+03  0.31502962013E+03  0.26237692501E+03  0.45848823356E+03  0.00000000000E+00 0. -1.
          2    1    6    6  502    0 -0.35442204491E+03 -0.57511450306E+03  0.11071543311E+03  0.68456525232E+03  0.00000000000E+00 0. -1.
          1    1    5    5  503    0  0.33109912496E+02  0.68194187535E+02  0.69287556958E+02  0.10270092048E+03  0.00000000000E+00 0. -1.
         -2    1    5    5    0  503  0.43569641667E+02  0.11736748811E+02  0.19304780218E+03  0.19825115100E+03  0.00000000000E+00 0.  1.
         -1    1    6    6    0  502 -0.28568682663E+03 -0.36670368197E+03  0.24194147336E+02  0.46548244870E+03  0.00000000000E+00 0.  1.
<mgrwt>
<rscale>  0 0.24484418E+04</rscale>
<asrwt>0</asrwt>
<pdfrwt beam="1">  1        1 0.27792606E+00 0.24484418E+04</pdfrwt>
<pdfrwt beam="2">  1       -1 0.12763318E+00 0.24484418E+04</pdfrwt>
<totfact> 0.19113756E+00</totfact>
</mgrwt>
</event>
<event>
11    1  0.2045212E-008  0.1270285E+04  0.7818608E-02  0.9053467E-01
          1   -1    0    0  501    0  0.00000000000E+00  0.00000000000E+00  0.87829898667E+03  0.87829898667E+03  0.00000000000E+00 0. -1.
         -1   -1    0    0    0  501 -0.00000000000E+00 -0.00000000000E+00 -0.45930355214E+03  0.45930355214E+03  0.00000000000E+00 0.  1.
         23    2    1    2    0    0  0.21475743338E+03  0.17776629469E+03  0.25672229822E+03  0.38891882650E+03  0.87349324445E+02 0.  0.
        254    2    1    2    0    0 -0.21475743338E+03 -0.17776629469E+03  0.16227313631E+03  0.94868371231E+03  0.89215839654E+03 0.  0.
         24    2    4    4    0    0 -0.19766842809E+03  0.13812804756E+03 -0.28632707236E+03  0.38336323248E+03  0.82655977774E+02 0.  0.
         11    1    3    3    0    0  0.10577564347E+03  0.11230863959E+03  0.19187335487E+03  0.24620540527E+03  0.00000000000E+00 0.  1.
        -11    1    3    3    0    0  0.10898178991E+03  0.65457655097E+02  0.64848943353E+02  0.14271342122E+03  0.00000000000E+00 0. -1.
          4    1    5    5  502    0 -0.11236450694E+03  0.11349465279E+03 -0.14092246829E+03  0.21299286538E+03  0.00000000000E+00 0. -1.
          1    1    4    4  503    0 -0.31091919965E+02 -0.32413308595E+03  0.43854108869E+03  0.54621172759E+03  0.00000000000E+00 0. -1.
         -2    1    4    4    0  503  0.14002914683E+02  0.82387436992E+01  0.10059119982E+02  0.19108752240E+02  0.00000000000E+00 0.  1.
         -3    1    5    5    0  502 -0.85303921154E+02  0.24633394768E+02 -0.14540460407E+03  0.17037036710E+03  0.00000000000E+00 0.  1.
<mgrwt>
<rscale>  0 0.12702848E+04</rscale>
<asrwt>0</asrwt>
<pdfrwt beam="1">  1        1 0.13512292E+00 0.12702848E+04</pdfrwt>
<pdfrwt beam="2">  1       -1 0.70662085E-01 0.12702848E+04</pdfrwt>
<totfact> 0.37797091E+01</totfact>
</mgrwt>
</event>
<event>
11    1  0.2045212E-008  0.2418517E+04  0.7818608E-02  0.8432603E-01
          2   -1    0    0  501    0  0.00000000000E+00  0.00000000000E+00  0.20807034765E+04  0.20807034765E+04  0.00000000000E+00 0. -1.
         -2   -1    0    0    0  501 -0.00000000000E+00 -0.00000000000E+00 -0.70279405709E+03  0.70279405709E+03  0.00000000000E+00 0.  1.
         23    2    1    2    0    0  0.44766017582E+02  0.13488276522E+03 -0.59289682068E+03  0.61604573537E+03  0.88251636851E+02 0.  0.
        254    2    1    2    0    0 -0.44766017582E+02 -0.13488276522E+03  0.19708062401E+04  0.21674517982E+04  0.89082697812E+03 0.  0.
         24    2    4    4    0    0 -0.25583754408E+03 -0.41795319504E+03  0.13654572225E+04  0.14529026538E+04  0.79466802167E+02 0.  0.
         13    1    3    3    0    0  0.43574958006E+01  0.10829940537E+02 -0.32222346553E+01  0.12110250941E+02  0.00000000000E+00 0. -1.
        -13    1    3    3    0    0  0.40408521781E+02  0.12405282469E+03 -0.58967458602E+03  0.60393548442E+03  0.00000000000E+00 0.  1.
          4    1    5    5  502    0 -0.24938422040E+03 -0.42065340603E+03  0.13522438953E+04  0.14379517828E+04  0.00000000000E+00 0. -1.
          1    1    4    4  503    0  0.15459884445E+03  0.93851803270E+02  0.25966919217E+03  0.31644439171E+03  0.00000000000E+00 0. -1.
         -2    1    4    4    0  503  0.56472682045E+02  0.18921862655E+03  0.34567982543E+03  0.39810475275E+03  0.00000000000E+00 0.  1.
         -3    1    5    5    0  502 -0.64533236846E+01  0.27002109893E+01  0.13213327209E+02  0.14950870941E+02  0.00000000000E+00 0.  1.
<mgrwt>
<rscale>  0 0.24185169E+04</rscale>
<asrwt>0</asrwt>
<pdfrwt beam="1">  1        2 0.32010822E+00 0.24185169E+04</pdfrwt>
<pdfrwt beam="2">  1       -2 0.10812216E+00 0.24185169E+04</pdfrwt>
<totfact> 0.37043463E+00</totfact>
</mgrwt>
</event>
<event>
11    1  0.2045212E-008  0.2537002E+04  0.7818608E-02  0.8389921E-01
          1   -1    0    0  501    0  0.00000000000E+00  0.00000000000E+00  0.30216485247E+04  0.30216485247E+04  0.00000000000E+00 0. -1.
         -1   -1    0    0    0  501 -0.00000000000E+00 -0.00000000000E+00 -0.53252216177E+03  0.53252216177E+03  0.00000000000E+00 0.  1.
         23    2    1    2    0    0  0.18167086652E+03 -0.81271795476E+03  0.21040351173E+04  0.22646063219E+04  0.89236992107E+02 0.  0.
        254    2    1    2    0    0 -0.18167086652E+03  0.81271795476E+03  0.38509124565E+03  0.12895643645E+04  0.90618221407E+03 0.  0.
         24    2    4    4    0    0  0.45014814232E+02 -0.77154776476E+02  0.33194646151E+03  0.35296787030E+03  0.80116609509E+02 0.  0.
         11    1    3    3    0    0  0.37500872447E+02 -0.36969733568E+03  0.92014947897E+03  0.99234948435E+03  0.00000000000E+00 0.  1.
        -11    1    3    3    0    0  0.14416999408E+03 -0.44302061908E+03  0.11838856383E+04  0.12722568375E+04  0.00000000000E+00 0. -1.
          4    1    5    5  502    0  0.55628190638E+02 -0.68154354849E+02  0.17962057606E+03  0.20000765741E+03  0.00000000000E+00 0. -1.
          1    1    4    4  503    0 -0.18495857071E+03  0.40335054494E+03 -0.12399846542E+02  0.44390887711E+03  0.00000000000E+00 0. -1.
         -2    1    4    4    0  503 -0.41727110045E+02  0.48652218630E+03  0.65544630682E+02  0.49268761715E+03  0.00000000000E+00 0.  1.
         -3    1    5    5    0  502 -0.10613376406E+02 -0.90004216271E+01  0.15232588545E+03  0.15296021289E+03  0.00000000000E+00 0.  1.
<mgrwt>
<rscale>  0 0.25370020E+04</rscale>
<asrwt>0</asrwt>
<pdfrwt beam="1">  1        1 0.46486899E+00 0.25370020E+04</pdfrwt>
<pdfrwt beam="2">  1       -1 0.81926489E-01 0.25370020E+04</pdfrwt>
<totfact> 0.75655130E-01</totfact>
</mgrwt>
</event>
<event>
12    1  0.2045212E-008  0.1218047E+04  0.7818608E-02  0.9097205E-01
         -2   -1    0    0    0  501 -0.00000000000E+00  0.00000000000E+00  0.46117698846E+03  0.46117698846E+03  0.00000000000E+00 0.  1.
          2   -1    0    0  501    0  0.00000000000E+00 -0.00000000000E+00 -0.80426716250E+03  0.80426716250E+03  0.00000000000E+00 0. -1.
         23    2    1    2    0    0 -0.68085175844E+02 -0.25294315195E+03 -0.11478131376E+03  0.30049411051E+03  0.92228689558E+02 0.  0.
        254    2    1    2    0    0  0.68085175844E+02  0.25294315195E+03 -0.22830886028E+03  0.96495004045E+03  0.90021542732E+03 0.  0.
        -24    2    4    4    0    0  0.39308187938E+03 -0.38317381515E+02 -0.31945404542E+03  0.51208818653E+03  0.64821586108E+02 0.  0.
         24    2    4    4    0    0 -0.32499670354E+03  0.29126053347E+03  0.91145185140E+02  0.45286185392E+03  0.79503825660E+02 0.  0.
         11    1    3    3    0    0 -0.45430946561E+02 -0.39768460375E+02 -0.44096733195E+02  0.74766457884E+02  0.00000000000E+00 0. -1.
        -11    1    3    3    0    0 -0.22654229282E+02 -0.21317469158E+03 -0.70684580564E+02  0.22572765263E+03  0.00000000000E+00 0.  1.
          4    1    6    6  502    0 -0.20158258749E+03  0.20591895240E+03  0.93012823685E+02  0.30280280697E+03  0.00000000000E+00 0. -1.
          1    1    5    5  503    0  0.14524139040E+03 -0.25088543564E+02 -0.15760169898E+03  0.21578413293E+03  0.00000000000E+00 0. -1.
         -2    1    5    5    0  503  0.24784048898E+03 -0.13228837951E+02 -0.16185234644E+03  0.29630405359E+03  0.00000000000E+00 0.  1.
         -3    1    6    6    0  502 -0.12341411604E+03  0.85341581068E+02 -0.18676385451E+01  0.15005904695E+03  0.00000000000E+00 0.  1.
<mgrwt>
<rscale>  0 0.12180468E+04</rscale>
<asrwt>0</asrwt>
<pdfrwt beam="1">  1        2 0.12373341E+00 0.12180468E+04</pdfrwt>
<pdfrwt beam="2">  1       -2 0.70950306E-01 0.12180468E+04</pdfrwt>
<totfact> 0.60866533E+01</totfact>
</mgrwt>
</event>
<event>
12    1  0.2045212E-008  0.1635620E+04  0.7818608E-02  0.8798959E-01
         -1   -1    0    0    0  501 -0.00000000000E+00  0.00000000000E+00  0.13439947257E+04  0.13439947257E+04  0.00000000000E+00 0. -1.
          1   -1    0    0  501    0  0.00000000000E+00 -0.00000000000E+00 -0.49763063706E+03  0.49763063706E+03  0.00000000000E+00 0.  1.
         23    2    1    2    0    0  0.22442734587E+03 -0.14352880590E+03  0.89162275089E+03  0.93495244870E+03  0.90425658601E+02 0.  0.
        254    2    1    2    0    0 -0.22442734587E+03  0.14352880590E+03 -0.45258662230E+02  0.90667291407E+03  0.86547055115E+03 0.  0.
        -24    2    4    4    0    0 -0.23716424548E+03 -0.17089624419E+03  0.30048552797E+03  0.43263570635E+03  0.10690975765E+03 0.  0.
         24    2    4    4    0    0  0.12736899610E+02  0.31442505009E+03 -0.34574419020E+03  0.47403720772E+03  0.78402095072E+02 0.  0.
         11    1    3    3    0    0  0.90296146666E+02 -0.53042388970E+02  0.50666401945E+03  0.51737347993E+03  0.00000000000E+00 0. -1.
        -11    1    3    3    0    0  0.13413119920E+03 -0.90486416932E+02  0.38495873144E+03  0.41757896877E+03  0.00000000000E+00 0.  1.
          2    1    6    6  502    0  0.27902202278E+02  0.18888470837E+03 -0.25422470067E+03  0.31794050446E+03  0.00000000000E+00 0. -1.
          3    1    5    5  503    0 -0.17676203120E+03 -0.10025452325E+03  0.13864354329E+03  0.24600369348E+03  0.00000000000E+00 0. -1.
         -4    1    5    5    0  503 -0.60402214275E+02 -0.70641720944E+02  0.16184198468E+03  0.18663201288E+03  0.00000000000E+00 0.  1.
         -1    1    6    6    0  502 -0.15165302668E+02  0.12554034172E+03 -0.91519489530E+02  0.15609670326E+03  0.00000000000E+00 0.  1.
<mgrwt>
<rscale>  0 0.16356197E+04</rscale>
<asrwt>0</asrwt>
<pdfrwt beam="1">  1        1 0.76558560E-01 0.16356197E+04</pdfrwt>
<pdfrwt beam="2">  1       -1 0.20676842E+00 0.16356197E+04</pdfrwt>
<totfact> 0.57714214E+00</totfact>
</mgrwt>
</event>
<event>
11    1  0.2045212E-008  0.1351091E+04  0.7818608E-02  0.8990003E-01
         -1   -1    0    0    0  501 -0.00000000000E+00  0.00000000000E+00  0.39902089999E+03  0.39902089999E+03  0.00000000000E+00 0.  1.
          1   -1    0    0  501    0  0.00000000000E+00 -0.00000000000E+00 -0.11437037281E+04  0.11437037281E+04  0.00000000000E+00 0. -1.
         23    2    1    2    0    0 -0.49728482132E+02  0.30049650970E+03 -0.44476445596E+03  0.54652569241E+03  0.90021313599E+02 0.  0.
        254    2    1    2    0    0  0.49728482132E+02 -0.30049650970E+03 -0.29991837215E+03  0.99619893567E+03  0.89982788087E+03 0.  0.
         24    2    4    4    0    0  0.38201602138E+03 -0.45200276367E+02 -0.13126193136E+03  0.41421269886E+03  0.79769415833E+02 0.  0.
         11    1    3    3    0    0 -0.68458813225E+02  0.14286656643E+03 -0.20766036181E+03  0.26119014296E+03  0.00000000000E+00 0. -1.
        -11    1    3    3    0    0  0.18730331093E+02  0.15762994328E+03 -0.23710409415E+03  0.28533554946E+03  0.00000000000E+00 0.  1.
          2    1    5    5  502    0  0.18872932862E+03 -0.54182589655E+02 -0.40491475869E+02  0.20048459323E+03  0.00000000000E+00 0. -1.
          1    1    4    4  503    0 -0.31858045132E+03 -0.22762376504E+03 -0.27028256726E+03  0.47577173996E+03  0.00000000000E+00 0. -1.
         -2    1    4    4    0  503 -0.13707087920E+02 -0.27672468298E+02  0.10162612647E+03  0.10621449685E+03  0.00000000000E+00 0.  1.
         -1    1    5    5    0  502  0.19328669275E+03  0.89823132877E+01 -0.90770455489E+02  0.21372810563E+03  0.00000000000E+00 0.  1.
<mgrwt>
<rscale>  0 0.13510910E+04</rscale>
<asrwt>0</asrwt>
<pdfrwt beam="1">  1        1 0.17595442E+00 0.13510910E+04</pdfrwt>
<pdfrwt beam="2">  1       -1 0.61387831E-01 0.13510910E+04</pdfrwt>
<totfact> 0.30973128E+01</totfact>
</mgrwt>
</event>
<event>
12    1  0.2045212E-008  0.2346895E+04  0.7818608E-02  0.8459657E-01
          1   -1    0    0  501    0  0.00000000000E+00  0.00000000000E+00  0.17725077391E+04  0.17725077391E+04  0.00000000000E+00 0. -1.
         -1   -1    0    0    0  501 -0.00000000000E+00 -0.00000000000E+00 -0.77685381420E+03  0.77685381420E+03  0.00000000000E+00 0.  1.
         23    2    1    2    0    0 -0.37670704451E+03  0.81492508656E+03  0.70568361412E+03  0.11455030112E+04  0.90425059317E+02 0.  0.
        254    2    1    2    0    0  0.37670704451E+03 -0.81492508656E+03  0.28997031075E+03  0.14038585421E+04  0.10395792086E+04 0.  0.
        -24    2    4    4    0    0  0.63558610244E+03 -0.46161502093E+03 -0.12203859627E+03  0.79742844802E+03  0.62774115424E+02 0.  0.
         24    2    4    4    0    0 -0.25887905793E+03 -0.35331006564E+03  0.41200890703E+03  0.60643009404E+03  0.78484077230E+02 0.  0.
         11    1    3    3    0    0 -0.33899982217E+02  0.15042067899E+03  0.13388971433E+03  0.20421078587E+03  0.00000000000E+00 0.  1.
        -11    1    3    3    0    0 -0.34280706230E+03  0.66450440757E+03  0.57179389979E+03  0.94129222534E+03  0.00000000000E+00 0. -1.
          2    1    6    6  502    0 -0.14845558761E+03 -0.20287541592E+03  0.18261414026E+03  0.31071758898E+03  0.00000000000E+00 0. -1.
          3    1    5    5  503    0  0.11658466859E+03 -0.11545331426E+03 -0.30730214901E+02  0.16693052098E+03  0.00000000000E+00 0. -1.
         -4    1    5    5    0  503  0.51900143385E+03 -0.34616170666E+03 -0.91308381373E+02  0.63049792704E+03  0.00000000000E+00 0.  1.
         -1    1    6    6    0  502 -0.11042347032E+03 -0.15043464972E+03  0.22939476677E+03  0.29571250507E+03  0.00000000000E+00 0.  1.
<mgrwt>
<rscale>  0 0.23468953E+04</rscale>
<asrwt>0</asrwt>
<pdfrwt beam="1">  1        1 0.27269350E+00 0.23468953E+04</pdfrwt>
<pdfrwt beam="2">  1       -1 0.11951597E+00 0.23468953E+04</pdfrwt>
<totfact> 0.23938593E+00</totfact>
</mgrwt>
</event>
<event>
11    1  0.2045212E-008  0.1892489E+04  0.7818608E-02  0.8658604E-01
         -1   -1    0    0    0  501 -0.00000000000E+00  0.00000000000E+00  0.34280771205E+03  0.34280771205E+03  0.00000000000E+00 0.  1.
          1   -1    0    0  501    0  0.00000000000E+00 -0.00000000000E+00 -0.26118966142E+04  0.26118966142E+04  0.00000000000E+00 0. -1.
         23    2    1    2    0    0  0.70798783110E+03 -0.13616029144E+03 -0.94358096330E+03  0.11909635622E+04  0.90899825379E+02 0.  0.
        254    2    1    2    0    0 -0.70798783110E+03  0.13616029144E+03 -0.13255079389E+04  0.17637407641E+04  0.91324903113E+03 0.  0.
         24    2    4    4    0    0  0.16259416009E+03 -0.14801263050E+02 -0.56160892904E+03  0.59015366423E+03  0.78872174744E+02 0.  0.
         11    1    3    3    0    0  0.26464783878E+03 -0.18165306014E+02 -0.29786140321E+03  0.39886071809E+03  0.00000000000E+00 0. -1.
        -11    1    3    3    0    0  0.44333999232E+03 -0.11799498543E+03 -0.64571956009E+03  0.79210284412E+03  0.00000000000E+00 0.  1.
          4    1    5    5  502    0  0.84374719421E+02  0.25301107452E+02 -0.35212017953E+03  0.36297088058E+03  0.00000000000E+00 0. -1.
          3    1    4    4  503    0 -0.44870849116E+03  0.22607102477E+02 -0.36242061209E+03  0.57723400038E+03  0.00000000000E+00 0. -1.
         -4    1    4    4    0  503 -0.42187350002E+03  0.12835445201E+03 -0.40147839775E+03  0.59635309946E+03  0.00000000000E+00 0.  1.
         -3    1    5    5    0  502  0.78219440667E+02 -0.40102370502E+02 -0.20948874950E+03  0.22718278365E+03  0.00000000000E+00 0.  1.
<mgrwt>
<rscale>  0 0.18924886E+04</rscale>
<asrwt>0</asrwt>
<pdfrwt beam="1">  1        1 0.40183026E+00 0.18924886E+04</pdfrwt>
<pdfrwt beam="2">  1       -1 0.52739647E-01 0.18924886E+04</pdfrwt>
<totfact> 0.38442748E+00</totfact>
</mgrwt>
</event>
<event>
11    1  0.2045212E-008  0.1872969E+04  0.7818608E-02  0.8668430E-01
         -2   -1    0    0    0  501 -0.00000000000E+00  0.00000000000E+00  0.10676994436E+04  0.10676994436E+04  0.00000000000E+00 0.  1.
          2   -1    0    0  501    0  0.00000000000E+00 -0.00000000000E+00 -0.82139479316E+03  0.82139479316E+03  0.00000000000E+00 0. -1.
         23    2    1    2    0    0  0.30011623760E+02  0.70662306603E+03 -0.39415639232E+02  0.71431589742E+03  0.92069287421E+02 0.  0.
        254    2    1    2    0    0 -0.30011623760E+02 -0.70662306603E+03  0.28572028971E+03  0.11747783394E+04  0.89344905153E+03 0.  0.
         24    2    4    4    0    0  0.12462652374E+03 -0.87062573275E+03  0.20446399966E+03  0.90644241725E+03  0.79444267876E+02 0.  0.
         11    1    3    3    0    0 -0.20675826286E+02  0.67080280629E+02  0.98345529958E+01  0.70879985006E+02  0.00000000000E+00 0. -1.
        -11    1    3    3    0    0  0.50687450046E+02  0.63954278540E+03 -0.49250192227E+02  0.64343591242E+03  0.00000000000E+00 0.  1.
          2    1    5    5  502    0  0.23978228817E+02 -0.12945575756E+03  0.24943369706E+01  0.13168132115E+03  0.00000000000E+00 0. -1.
          3    1    4    4  503    0 -0.54830751959E+00 -0.13638410926E+02  0.21892729803E+02  0.25799195955E+02  0.00000000000E+00 0. -1.
         -4    1    4    4    0  503 -0.15408983998E+03  0.17764107764E+03  0.59363560242E+02  0.24253672616E+03  0.00000000000E+00 0.  1.
         -1    1    5    5    0  502  0.10064829492E+03 -0.74116997518E+03  0.20196966269E+03  0.77476109610E+03  0.00000000000E+00 0.  1.
<mgrwt>
<rscale>  0 0.18729685E+04</rscale>
<asrwt>0</asrwt>
<pdfrwt beam="1">  1        2 0.12636843E+00 0.18729685E+04</pdfrwt>
<pdfrwt beam="2">  1       -2 0.16426145E+00 0.18729685E+04</pdfrwt>
<totfact> 0.73115908E+00</totfact>
</mgrwt>
</event>
<event>
11    1  0.2045212E-008  0.2252275E+04  0.7818608E-02  0.8496980E-01
          2   -1    0    0  501    0  0.00000000000E+00  0.00000000000E+00  0.35174445473E+04  0.35174445473E+04  0.00000000000E+00 0.  1.
         -2   -1    0    0    0  501 -0.00000000000E+00 -0.00000000000E+00 -0.36054185114E+03  0.36054185114E+03  0.00000000000E+00 0. -1.
         23    2    1    2    0    0 -0.41057857942E+03  0.74338467609E+03  0.20475244240E+04  0.22185628799E+04  0.92029554277E+02 0.  0.
        254    2    1    2    0    0  0.41057857942E+03 -0.74338467609E+03  0.11093782722E+04  0.16594235186E+04  0.89541650452E+03 0.  0.
         24    2    4    4    0    0  0.44565912252E+03 -0.26086879457E+03  0.99462976681E+02  0.53188115572E+03  0.79624736231E+02 0.  0.
         13    1    3    3    0    0 -0.11163675668E+03  0.17457619407E+03  0.40786982512E+03  0.45749033566E+03  0.00000000000E+00 0. -1.
        -13    1    3    3    0    0 -0.29894182273E+03  0.56880848201E+03  0.16396545989E+04  0.17610725443E+04  0.00000000000E+00 0.  1.
          4    1    5    5  502    0  0.19163811907E+03 -0.12048753733E+03  0.83276642560E+02  0.24119994720E+03  0.00000000000E+00 0. -1.
          1    1    4    4  503    0 -0.74117899449E+01 -0.82654315053E+02  0.31069850356E+03  0.32159015927E+03  0.00000000000E+00 0. -1.
         -2    1    4    4    0  503 -0.27668753157E+02 -0.39986156646E+03  0.69921679199E+03  0.80595220357E+03  0.00000000000E+00 0.  1.
         -3    1    5    5    0  502  0.25402100345E+03 -0.14038125724E+03  0.16186334120E+02  0.29068120853E+03  0.00000000000E+00 0.  1.
<mgrwt>
<rscale>  0 0.22522753E+04</rscale>
<asrwt>0</asrwt>
<pdfrwt beam="1">  1        2 0.54114529E+00 0.22522753E+04</pdfrwt>
<pdfrwt beam="2">  1       -2 0.55467979E-01 0.22522753E+04</pdfrwt>
<totfact> 0.22042537E+00</totfact>
</mgrwt>
</event>
<event>
11    1  0.2045212E-008  0.1814428E+04  0.7818608E-02  0.8698664E-01
         -2   -1    0    0    0  501 -0.00000000000E+00  0.00000000000E+00  0.29505890032E+04  0.29505890032E+04  0.00000000000E+00 0. -1.
          2   -1    0    0  501    0  0.00000000000E+00 -0.00000000000E+00 -0.27893995111E+03  0.27893995111E+03  0.00000000000E+00 0.  1.
         23    2    1    2    0    0 -0.96149054496E+02  0.24323546061E+02 -0.18998765579E+03  0.23312490179E+03  0.91736769660E+02 0.  0.
        254    2    1    2    0    0  0.96149054496E+02 -0.24323546061E+02  0.28616367079E+04  0.29964040525E+04  0.88297017079E+03 0.  0.
         24    2    4    4    0    0 -0.25458097254E+03 -0.19984833449E+03  0.54093927231E+03  0.63577758776E+03  0.82746700165E+02 0.  0.
         11    1    3    3    0    0 -0.91299027915E+02 -0.76130494901E+01 -0.17496468415E+03  0.19749964993E+03  0.00000000000E+00 0.  1.
        -11    1    3    3    0    0 -0.48500265810E+01  0.31936595551E+02 -0.15022971633E+02  0.35625251857E+02  0.00000000000E+00 0. -1.
          2    1    5    5  502    0 -0.21564986323E+03 -0.15246874940E+03  0.37334079965E+03  0.45731273297E+03  0.00000000000E+00 0. -1.
          1    1    4    4  503    0  0.31030979174E+03  0.20820846302E+03  0.18724212414E+04  0.19093465469E+04  0.00000000000E+00 0. -1.
         -2    1    4    4    0  503  0.40420235300E+02 -0.32683674592E+02  0.44827619412E+03  0.45127991781E+03  0.00000000000E+00 0.  1.
         -1    1    5    5    0  502 -0.38931109312E+02 -0.47379585087E+02  0.16759847266E+03  0.17846485479E+03  0.00000000000E+00 0.  1.
<mgrwt>
<rscale>  0 0.18144279E+04</rscale>
<asrwt>0</asrwt>
<pdfrwt beam="1">  1        2 0.42913841E-01 0.18144279E+04</pdfrwt>
<pdfrwt beam="2">  1       -2 0.45393675E+00 0.18144279E+04</pdfrwt>
<totfact> 0.36822750E-01</totfact>
</mgrwt>
</event>
<event>
12    1  0.2045212E-008  0.2643245E+04  0.7818608E-02  0.8353659E-01
         -2   -1    0    0    0  501 -0.00000000000E+00  0.00000000000E+00  0.79312887067E+03  0.79312887067E+03  0.00000000000E+00 0.  1.
          2   -1    0    0  501    0  0.00000000000E+00 -0.00000000000E+00 -0.22022718656E+04  0.22022718656E+04  0.00000000000E+00 0. -1.
         23    2    1    2    0    0 -0.41472673209E+03 -0.10049665416E+04 -0.15835210939E+03  0.11024533158E+04  0.91498147638E+02 0.  0.
        254    2    1    2    0    0  0.41472673209E+03  0.10049665416E+04 -0.12507908855E+04  0.18929474204E+04  0.91477652206E+03 0.  0.
        -24    2    4    4    0    0 -0.17454507609E+03 -0.45149713684E+02 -0.69450269307E+02  0.20418480799E+03  0.66057669310E+02 0.  0.
         24    2    4    4    0    0  0.58927180818E+03  0.10501162552E+04 -0.11813406162E+04  0.16887626124E+04  0.79800352579E+02 0.  0.
         13    1    3    3    0    0 -0.35960544487E+03 -0.92968119788E+03 -0.13208698746E+03  0.10055198546E+04  0.00000000000E+00 0.  1.
        -13    1    3    3    0    0 -0.55121287214E+02 -0.75285343668E+02 -0.26265121937E+02  0.96933461228E+02  0.00000000000E+00 0. -1.
          4    1    6    6  502    0  0.34623660567E+03  0.63529401192E+03 -0.65599386738E+03  0.97663003370E+03  0.00000000000E+00 0. -1.
          3    1    5    5  503    0 -0.12335522173E+03 -0.54783744011E+02 -0.28555138997E+02  0.13796073825E+03  0.00000000000E+00 0. -1.
         -4    1    5    5    0  503 -0.51189854361E+02  0.96340303276E+01 -0.40895130310E+02  0.66224069740E+02  0.00000000000E+00 0.  1.
         -3    1    6    6    0  502  0.24303520251E+03  0.41482224332E+03 -0.52534674881E+03  0.71213257873E+03  0.00000000000E+00 0.  1.
<mgrwt>
<rscale>  0 0.26432445E+04</rscale>
<asrwt>0</asrwt>
<pdfrwt beam="1">  1        2 0.33881105E+00 0.26432445E+04</pdfrwt>
<pdfrwt beam="2">  1       -2 0.12201983E+00 0.26432445E+04</pdfrwt>
<totfact> 0.23112876E+00</totfact>
</mgrwt>
</event>
<event>
12    1  0.2045212E-008  0.3379982E+04  0.7818608E-02  0.8142837E-01
         -2   -1    0    0    0  501 -0.00000000000E+00  0.00000000000E+00  0.17253745275E+04  0.17253745275E+04  0.00000000000E+00 0.  1.
          2   -1    0    0  501    0  0.00000000000E+00 -0.00000000000E+00 -0.16553331012E+04  0.16553331012E+04  0.00000000000E+00 0. -1.
         23    2    1    2    0    0 -0.10251405266E+03  0.92057537340E+03  0.12991591804E+04  0.15981200583E+04  0.90581432087E+02 0.  0.
        254    2    1    2    0    0  0.10251405266E+03 -0.92057537340E+03 -0.12291177541E+04  0.17825875704E+04  0.89939971294E+03 0.  0.
        -24    2    4    4    0    0  0.33855765092E+03 -0.95437743464E+03 -0.84012864792E+03  0.13193223973E+04  0.96632665781E+02 0.  0.
         24    2    4    4    0    0 -0.23604359827E+03  0.33802061236E+02 -0.38898910617E+03  0.46326517315E+03  0.80267903352E+02 0.  0.
         13    1    3    3    0    0 -0.75559233195E+02  0.30249272683E+03  0.41877035481E+03  0.52209161799E+03  0.00000000000E+00 0. -1.
        -13    1    3    3    0    0 -0.26954819461E+02  0.61808264657E+03  0.88038882555E+03  0.10760284403E+04  0.00000000000E+00 0.  1.
          2    1    6    6  502    0 -0.16304428539E+03 -0.13952047283E+02 -0.23662163996E+03  0.28769410685E+03  0.00000000000E+00 0. -1.
          1    1    5    5  503    0  0.33995557477E+03 -0.92384005476E+03 -0.82838909694E+03  0.12865763621E+04  0.00000000000E+00 0. -1.
         -2    1    5    5    0  503 -0.13979238430E+01 -0.30537379882E+02 -0.11739550982E+02  0.32746035155E+02  0.00000000000E+00 0.  1.
         -1    1    6    6    0  502 -0.72999312879E+02  0.47754108519E+02 -0.15236746621E+03  0.17557106630E+03  0.00000000000E+00 0.  1.
<mgrwt>
<rscale>  0 0.33799820E+04</rscale>
<asrwt>0</asrwt>
<pdfrwt beam="1">  1        2 0.25466663E+00 0.33799820E+04</pdfrwt>
<pdfrwt beam="2">  1       -2 0.26544223E+00 0.33799820E+04</pdfrwt>
<totfact> 0.44534847E-01</totfact>
</mgrwt>
</event>
<event>
12    1  0.2045212E-008  0.2978533E+04  0.7818608E-02  0.8249888E-01
         -1   -1    0    0    0  501 -0.00000000000E+00  0.00000000000E+00  0.18253662585E+04  0.18253662585E+04  0.00000000000E+00 0.  1.
          1   -1    0    0  501    0  0.00000000000E+00 -0.00000000000E+00 -0.12150515975E+04  0.12150515975E+04  0.00000000000E+00 0. -1.
         23    2    1    2    0    0  0.89268399894E+03 -0.84106763193E+03  0.85739037368E+03  0.14993580172E+04  0.93148953460E+02 0.  0.
        254    2    1    2    0    0 -0.89268399894E+03  0.84106763193E+03 -0.24707571268E+03  0.15410598388E+04  0.89974415010E+03 0.  0.
        -24    2    4    4    0    0 -0.17844410521E+03  0.61292615085E+03  0.18684860485E+03  0.67139860091E+03  0.91339559266E+02 0.  0.
         24    2    4    4    0    0 -0.71423989373E+03  0.22814148108E+03 -0.43392431753E+03  0.86966123793E+03  0.76375350929E+02 0.  0.
         13    1    3    3    0    0  0.66048877244E+03 -0.59273691115E+03  0.57556562495E+03  0.10577609621E+04  0.00000000000E+00 0.  1.
        -13    1    3    3    0    0  0.23219522651E+03 -0.24833072078E+03  0.28182474873E+03  0.44159705513E+03  0.00000000000E+00 0. -1.
          2    1    6    6  502    0 -0.52185899669E+03  0.13049426022E+03 -0.30933284710E+03  0.62052588557E+03  0.00000000000E+00 0. -1.
          3    1    5    5  503    0 -0.17023620617E+03  0.52473443531E+03  0.13204173158E+03  0.56724034798E+03  0.00000000000E+00 0. -1.
         -4    1    5    5    0  503 -0.82078990422E+01  0.88191715537E+02  0.54806873272E+02  0.10415825293E+03  0.00000000000E+00 0.  1.
         -1    1    6    6    0  502 -0.19238089705E+03  0.97647220868E+02 -0.12459147044E+03  0.24913535236E+03  0.00000000000E+00 0.  1.
<mgrwt>
<rscale>  0 0.29785327E+04</rscale>
<asrwt>0</asrwt>
<pdfrwt beam="1">  1        1 0.18693101E+00 0.29785327E+04</pdfrwt>
<pdfrwt beam="2">  1       -1 0.28082558E+00 0.29785327E+04</pdfrwt>
<totfact> 0.39048449E-01</totfact>
</mgrwt>
</event>
<event>
12    1  0.2045212E-008  0.1766525E+04  0.7818608E-02  0.8724306E-01
          1   -1    0    0  501    0  0.00000000000E+00  0.00000000000E+00  0.15555309502E+04  0.15555309502E+04  0.00000000000E+00 0. -1.
         -1   -1    0    0    0  501 -0.00000000000E+00 -0.00000000000E+00 -0.50153488147E+03  0.50153488147E+03  0.00000000000E+00 0.  1.
         23    2    1    2    0    0  0.59026794609E+03 -0.13959235406E+03  0.67036494885E+03  0.90843633734E+03  0.89247637809E+02 0.  0.
        254    2    1    2    0    0 -0.59026794609E+03  0.13959235406E+03  0.38363111986E+03  0.11486294943E+04  0.89681358462E+03 0.  0.
        -24    2    4    4    0    0  0.10073517654E+03  0.33742667700E+03  0.16093811922E+03  0.39200905949E+03  0.61365188477E+02 0.  0.
         24    2    4    4    0    0 -0.69100312263E+03 -0.19783432295E+03  0.22269300064E+03  0.75662043482E+03  0.79111156102E+02 0.  0.
         11    1    3    3    0    0  0.20831298803E+03 -0.54739417813E+02  0.30288029214E+03  0.37165464643E+03  0.00000000000E+00 0. -1.
        -11    1    3    3    0    0  0.38195495807E+03 -0.84852936246E+02  0.36748465670E+03  0.53678169091E+03  0.00000000000E+00 0.  1.
          2    1    6    6  502    0 -0.38453851552E+02 -0.13019878476E+02  0.33158634479E+02  0.52418612870E+02  0.00000000000E+00 0. -1.
          1    1    5    5  503    0  0.23976448425E+01  0.53843123039E+02  0.60027303032E+01  0.54229727738E+02  0.00000000000E+00 0. -1.
         -2    1    5    5    0  503  0.98337531697E+02  0.28358355397E+03  0.15493538891E+03  0.33777933175E+03  0.00000000000E+00 0.  1.
         -1    1    6    6    0  502 -0.65254927108E+03 -0.18481444447E+03  0.18953436617E+03  0.70420182195E+03  0.00000000000E+00 0.  1.
<mgrwt>
<rscale>  0 0.17665254E+04</rscale>
<asrwt>0</asrwt>
<pdfrwt beam="1">  1        1 0.23931245E+00 0.17665254E+04</pdfrwt>
<pdfrwt beam="2">  1       -1 0.77159213E-01 0.17665254E+04</pdfrwt>
<totfact> 0.95430502E+00</totfact>
</mgrwt>
</event>
<event>
11    1  0.2045212E-008  0.1994284E+04  0.7818608E-02  0.8609298E-01
         -1   -1    0    0    0  501 -0.00000000000E+00  0.00000000000E+00  0.53646170321E+03  0.53646170321E+03  0.00000000000E+00 0.  1.
          1   -1    0    0  501    0  0.00000000000E+00 -0.00000000000E+00 -0.18534261707E+04  0.18534261707E+04  0.00000000000E+00 0. -1.
         23    2    1    2    0    0 -0.25413822298E+03  0.28164199080E+03 -0.13627425052E+04  0.14175009446E+04  0.91287157340E+02 0.  0.
        254    2    1    2    0    0  0.25413822298E+03 -0.28164199080E+03  0.45778037763E+02  0.97238692927E+03  0.89416568046E+03 0.  0.
         24    2    4    4    0    0  0.14047016154E+03 -0.26636791470E+03  0.41203362732E+03  0.51631721660E+03  0.78281708282E+02 0.  0.
         11    1    3    3    0    0 -0.19360199758E+03  0.18186738158E+03 -0.80543930722E+03  0.84810963653E+03  0.00000000000E+00 0. -1.
        -11    1    3    3    0    0 -0.60536225398E+02  0.99774609219E+02 -0.55730319798E+03  0.56939130807E+03  0.00000000000E+00 0.  1.
          4    1    5    5  502    0  0.14578234870E+03 -0.22362590737E+03  0.36896173467E+03  0.45540509581E+03  0.00000000000E+00 0. -1.
          3    1    4    4  503    0  0.12872873939E+03 -0.11257337107E+03 -0.26012645208E+03  0.31130310518E+03  0.00000000000E+00 0. -1.
         -4    1    4    4    0  503 -0.15060677944E+02  0.97299294970E+02 -0.10612913748E+03  0.14476660749E+03  0.00000000000E+00 0.  1.
         -3    1    5    5    0  502 -0.53121871595E+01 -0.42742007325E+02  0.43071892659E+02  0.60912120796E+02  0.00000000000E+00 0.  1.
<mgrwt>
<rscale>  0 0.19942840E+04</rscale>
<asrwt>0</asrwt>
<pdfrwt beam="1">  1        1 0.28514249E+00 0.19942840E+04</pdfrwt>
<pdfrwt beam="2">  1       -1 0.82532568E-01 0.19942840E+04</pdfrwt>
<totfact> 0.50741066E+00</totfact>
</mgrwt>
</event>
<event>
12    1  0.2045212E-008  0.1662254E+04  0.7818608E-02  0.8783190E-01
          1   -1    0    0  501    0  0.00000000000E+00  0.00000000000E+00  0.10530973189E+04  0.10530973189E+04  0.00000000000E+00 0. -1.
         -1   -1    0    0    0  501 -0.00000000000E+00 -0.00000000000E+00 -0.65594360354E+03  0.65594360354E+03  0.00000000000E+00 0.  1.
         23    2    1    2    0    0  0.34090018909E+03  0.22221904395E+03  0.57175892401E+03  0.70749231641E+03  0.89682039340E+02 0.  0.
        254    2    1    2    0    0 -0.34090018909E+03 -0.22221904395E+03 -0.17460520863E+03  0.10015486060E+04  0.89834202228E+03 0.  0.
        -24    2    4    4    0    0 -0.31099118061E+03 -0.41161438276E+03  0.21283321936E+03  0.56063073309E+03  0.53543674845E+02 0.  0.
         24    2    4    4    0    0 -0.29909008479E+02  0.18939533881E+03 -0.38743842798E+03  0.44091787296E+03  0.86803756057E+02 0.  0.
         13    1    3    3    0    0  0.28776382693E+03  0.17166974550E+03  0.51647478364E+03  0.61564983858E+03  0.00000000000E+00 0. -1.
        -13    1    3    3    0    0  0.53136362155E+02  0.50549298452E+02  0.55284140369E+02  0.91842477827E+02  0.00000000000E+00 0.  1.
          2    1    6    6  502    0  0.20104847923E+02  0.10053848844E+03 -0.14203952499E+03  0.17517824987E+03  0.00000000000E+00 0. -1.
          1    1    5    5  503    0 -0.78597797249E+02 -0.84268020867E+02  0.27523897618E+02  0.11847479906E+03  0.00000000000E+00 0. -1.
         -2    1    5    5    0  503 -0.23239338336E+03 -0.32734636189E+03  0.18530932174E+03  0.44215593403E+03  0.00000000000E+00 0.  1.
         -1    1    6    6    0  502 -0.50013856402E+02  0.88856850371E+02 -0.24539890300E+03  0.26573962309E+03  0.00000000000E+00 0.  1.
<mgrwt>
<rscale>  0 0.16622544E+04</rscale>
<asrwt>0</asrwt>
<pdfrwt beam="1">  1        1 0.16201497E+00 0.16622544E+04</pdfrwt>
<pdfrwt beam="2">  1       -1 0.10091440E+00 0.16622544E+04</pdfrwt>
<totfact> 0.12266237E+01</totfact>
</mgrwt>
</event>
<event>
12    1  0.2045212E-008  0.2700979E+04  0.7818608E-02  0.8334687E-01
          2   -1    0    0  501    0  0.00000000000E+00  0.00000000000E+00  0.20458164098E+04  0.20458164098E+04  0.00000000000E+00 0. -1.
         -2   -1    0    0    0  501 -0.00000000000E+00 -0.00000000000E+00 -0.89148844213E+03  0.89148844213E+03  0.00000000000E+00 0.  1.
         23    2    1    2    0    0 -0.11084979005E+04  0.30606242920E+03  0.14536483548E+03  0.11621640400E+04  0.83979250318E+02 0.  0.
        254    2    1    2    0    0  0.11084979005E+04 -0.30606242920E+03  0.10089631322E+04  0.17751408119E+04  0.90037575160E+03 0.  0.
        -24    2    4    4    0    0  0.21775002924E+03 -0.34886558673E+02  0.77497852201E+03  0.81168881153E+03  0.98055443349E+02 0.  0.
         24    2    4    4    0    0  0.89074787126E+03 -0.27117587053E+03  0.23398461014E+03  0.96345200038E+03  0.80764078325E+02 0.  0.
         11    1    3    3    0    0 -0.37442959976E+03  0.65473449186E+02  0.32915158142E+02  0.38153336075E+03  0.00000000000E+00 0. -1.
        -11    1    3    3    0    0 -0.73406830073E+03  0.24058898001E+03  0.11244967734E+03  0.78063067925E+03  0.00000000000E+00 0.  1.
          2    1    6    6  502    0  0.20653461097E+02 -0.82505823354E+01  0.19402669466E+02  0.29514422688E+02  0.00000000000E+00 0. -1.
          1    1    5    5  503    0 -0.10004021711E+02 -0.42412494609E+01  0.49679926318E+02  0.50854338324E+02  0.00000000000E+00 0. -1.
         -2    1    5    5    0  503  0.22775405095E+03 -0.30645309212E+02  0.72529859569E+03  0.76083447320E+03  0.00000000000E+00 0.  1.
         -1    1    6    6    0  502  0.87009441016E+03 -0.26292528819E+03  0.21458194068E+03  0.93393757769E+03  0.00000000000E+00 0.  1.
<mgrwt>
<rscale>  0 0.27009788E+04</rscale>
<asrwt>0</asrwt>
<pdfrwt beam="1">  1        2 0.31474099E+00 0.27009788E+04</pdfrwt>
<pdfrwt beam="2">  1       -2 0.13715207E+00 0.27009788E+04</pdfrwt>
<totfact> 0.20935838E+00</totfact>
</mgrwt>
</event>
<event>
12    1  0.2045212E-008  0.1593197E+04  0.7818608E-02  0.8824738E-01
         -2   -1    0    0    0  501 -0.00000000000E+00  0.00000000000E+00  0.75257059806E+03  0.75257059806E+03  0.00000000000E+00 0.  1.
          2   -1    0    0  501    0  0.00000000000E+00 -0.00000000000E+00 -0.84320206726E+03  0.84320206726E+03  0.00000000000E+00 0. -1.
         23    2    1    2    0    0 -0.14269792114E+03  0.14185943958E+03  0.47011591611E+03  0.51898354268E+03  0.88589760711E+02 0.  0.
        254    2    1    2    0    0  0.14269792114E+03 -0.14185943958E+03 -0.56074738531E+03  0.10767891226E+04  0.89696732784E+03 0.  0.
        -24    2    4    4    0    0  0.26002753814E+03 -0.25317154731E+03 -0.73640142581E+03  0.82389592117E+03  0.69334522617E+02 0.  0.
         24    2    4    4    0    0 -0.11732961700E+03  0.11131210773E+03  0.17565404050E+03  0.25289320147E+03  0.83330696949E+02 0.  0.
         11    1    3    3    0    0  0.53639319195E+00  0.14394181941E+01  0.82760881179E+02  0.82775135735E+02  0.00000000000E+00 0. -1.
        -11    1    3    3    0    0 -0.14323431433E+03  0.14042002138E+03  0.38735503493E+03  0.43620840695E+03  0.00000000000E+00 0.  1.
          2    1    6    6  502    0 -0.11956333992E+03  0.70492887054E+02  0.15124786901E+03  0.20528165349E+03  0.00000000000E+00 0. -1.
          1    1    5    5  503    0  0.11713263550E+03 -0.70682273167E+02 -0.24605611790E+03  0.28153090629E+03  0.00000000000E+00 0. -1.
         -2    1    5    5    0  503  0.14289490264E+03 -0.18248927415E+03 -0.49034530791E+03  0.54236501488E+03  0.00000000000E+00 0.  1.
         -1    1    6    6    0  502  0.22337229175E+01  0.40819220680E+02  0.24406171485E+02  0.47611547985E+02  0.00000000000E+00 0.  1.
<mgrwt>
<rscale>  0 0.15931969E+04</rscale>
<asrwt>0</asrwt>
<pdfrwt beam="1">  1        2 0.12972339E+00 0.15931969E+04</pdfrwt>
<pdfrwt beam="2">  1       -2 0.11578009E+00 0.15931969E+04</pdfrwt>
<totfact> 0.17856157E+01</totfact>
</mgrwt>
</event>
<event>
12    1  0.2045212E-008  0.1104219E+04  0.7818608E-02  0.9201090E-01
         -1   -1    0    0    0  501 -0.00000000000E+00  0.00000000000E+00  0.13297588925E+04  0.13297588925E+04  0.00000000000E+00 0.  1.
          1   -1    0    0  501    0  0.00000000000E+00 -0.00000000000E+00 -0.22923306140E+03  0.22923306140E+03  0.00000000000E+00 0. -1.
         23    2    1    2    0    0  0.13163449319E+02 -0.12688816715E+03  0.61758626921E+02  0.16896141989E+03  0.91977986779E+02 0.  0.
        254    2    1    2    0    0 -0.13163449319E+02  0.12688816715E+03  0.10387672042E+04  0.13900305340E+04  0.91480801135E+03 0.  0.
        -24    2    4    4    0    0 -0.28808273500E+03  0.28540845508E+03  0.96843311653E+03  0.10551653548E+04  0.10517402873E+03 0.  0.
         24    2    4    4    0    0  0.27491928568E+03 -0.15852028793E+03  0.70334087641E+02  0.33486517921E+03  0.80489185858E+02 0.  0.
         11    1    3    3    0    0  0.35561612686E+02 -0.34003339716E+02  0.54069726326E+02  0.73105339844E+02  0.00000000000E+00 0.  1.
        -11    1    3    3    0    0 -0.22398163367E+02 -0.92884827434E+02  0.76889005946E+01  0.95856080048E+02  0.00000000000E+00 0. -1.
          4    1    6    6  502    0  0.88987393978E+02 -0.11620599066E+02  0.96671865025E+01  0.90262113339E+02  0.00000000000E+00 0. -1.
          1    1    5    5  503    0 -0.19351719621E+02  0.24041879833E+02  0.17414649142E+03  0.17686011849E+03  0.00000000000E+00 0. -1.
         -2    1    5    5    0  503 -0.26873101537E+03  0.26136657525E+03  0.79428662511E+03  0.87830523630E+03  0.00000000000E+00 0.  1.
         -3    1    6    6    0  502  0.18593189170E+03 -0.14689968887E+03  0.60666901139E+02  0.24460306587E+03  0.00000000000E+00 0.  1.
<mgrwt>
<rscale>  0 0.11042186E+04</rscale>
<asrwt>0</asrwt>
<pdfrwt beam="1">  1        1 0.35266626E-01 0.11042186E+04</pdfrwt>
<pdfrwt beam="2">  1       -1 0.20457829E+00 0.11042186E+04</pdfrwt>
<totfact> 0.17381423E+01</totfact>
</mgrwt>
</event>
<event>
11    1  0.2045212E-008  0.1511337E+04  0.7818608E-02  0.8876949E-01
         -2   -1    0    0    0  501 -0.00000000000E+00  0.00000000000E+00  0.60170483319E+03  0.60170483319E+03  0.00000000000E+00 0. -1.
          2   -1    0    0  501    0  0.00000000000E+00 -0.00000000000E+00 -0.94902861706E+03  0.94902861706E+03  0.00000000000E+00 0.  1.
         23    2    1    2    0    0 -0.69416925197E+02  0.47778403352E+03 -0.19721175702E+03  0.52930989599E+03  0.90444439862E+02 0.  0.
        254    2    1    2    0    0  0.69416925197E+02 -0.47778403352E+03 -0.15011202685E+03  0.10214235543E+04  0.88751121931E+03 0.  0.
         24    2    4    4    0    0  0.94672895061E+02 -0.63714275415E+03 -0.30545832581E+03  0.71733985342E+03  0.79736003546E+02 0.  0.
         13    1    3    3    0    0 -0.34187950107E+02  0.15751474040E+03 -0.22370937065E+02  0.16272728167E+03  0.00000000000E+00 0. -1.
        -13    1    3    3    0    0 -0.35228975090E+02  0.32026929312E+03 -0.17484081995E+03  0.36658261432E+03  0.00000000000E+00 0.  1.
          2    1    5    5  502    0  0.23664001434E+02 -0.35211600831E+02 -0.27345693867E+02  0.50474040556E+02  0.00000000000E+00 0. -1.
          1    1    4    4  503    0  0.40338809360E+01  0.68990762570E+02 -0.44923009064E+02  0.82426174598E+02  0.00000000000E+00 0. -1.
         -2    1    4    4    0  503 -0.29289850800E+02  0.90367958067E+02  0.20026930802E+03  0.22165752625E+03  0.00000000000E+00 0.  1.
         -1    1    5    5    0  502  0.71008893627E+02 -0.60193115332E+03 -0.27811263195E+03  0.66686581286E+03  0.00000000000E+00 0.  1.
<mgrwt>
<rscale>  0 0.15113373E+04</rscale>
<asrwt>0</asrwt>
<pdfrwt beam="1">  1        2 0.14600440E+00 0.15113373E+04</pdfrwt>
<pdfrwt beam="2">  1       -2 0.92569975E-01 0.15113373E+04</pdfrwt>
<totfact> 0.25994096E+01</totfact>
</mgrwt>
</event>
<event>
11    1  0.2045212E-008  0.2150678E+04  0.7818608E-02  0.8539242E-01
         -2   -1    0    0    0  501 -0.00000000000E+00  0.00000000000E+00  0.54389634316E+03  0.54389634316E+03  0.00000000000E+00 0.  1.
          2   -1    0    0  501    0  0.00000000000E+00 -0.00000000000E+00 -0.21260554981E+04  0.21260554981E+04  0.00000000000E+00 0. -1.
         23    2    1    2    0    0  0.60559931088E+03  0.59501181942E+03 -0.95560634077E+03  0.12815444059E+04  0.91558698028E+02 0.  0.
        254    2    1    2    0    0 -0.60559931088E+03 -0.59501181942E+03 -0.62655281416E+03  0.13884074354E+04  0.90239524989E+03 0.  0.
         24    2    4    4    0    0 -0.12101656859E+03  0.15200930022E+03 -0.39847666073E+03  0.45047265042E+03  0.79938241182E+02 0.  0.
         13    1    3    3    0    0  0.53433016826E+01 -0.18578939253E+01 -0.11176242890E+01  0.57664310244E+01  0.00000000000E+00 0.  1.
        -13    1    3    3    0    0  0.60025600919E+03  0.59686971335E+03 -0.95448871648E+03  0.12757779749E+04  0.00000000000E+00 0. -1.
          4    1    5    5  502    0 -0.97234679748E+02  0.15031769467E+03 -0.30183584732E+03  0.35093428303E+03  0.00000000000E+00 0. -1.
          3    1    4    4  503    0 -0.28401415167E+03 -0.54602424266E+03 -0.89402921216E+02  0.62193198522E+03  0.00000000000E+00 0. -1.
         -4    1    4    4    0  503 -0.20056859062E+03 -0.20099687698E+03 -0.13867323222E+03  0.31600279972E+03  0.00000000000E+00 0.  1.
         -3    1    5    5    0  502 -0.23781888847E+02  0.16916055416E+01 -0.96640813402E+02  0.99538367384E+02  0.00000000000E+00 0.  1.
<mgrwt>
<rscale>  0 0.21506779E+04</rscale>
<asrwt>0</asrwt>
<pdfrwt beam="1">  1        2 0.32708546E+00 0.21506779E+04</pdfrwt>
<pdfrwt beam="2">  1       -2 0.83676361E-01 0.21506779E+04</pdfrwt>
<totfact> 0.65107411E+00</totfact>
</mgrwt>
</event>
<event>
12    1  0.2045212E-008  0.1925931E+04  0.7818608E-02  0.8642056E-01
          1   -1    0    0  501    0  0.00000000000E+00  0.00000000000E+00  0.30729307763E+04  0.30729307763E+04  0.00000000000E+00 0. -1.
         -1   -1    0    0    0  501 -0.00000000000E+00 -0.00000000000E+00 -0.30176474255E+03  0.30176474255E+03  0.00000000000E+00 0.  1.
         23    2    1    2    0    0 -0.32884844788E+03 -0.99189398648E+02  0.22866177304E+04  0.23143631757E+04  0.98368823367E+02 0.  0.
        254    2    1    2    0    0  0.32884844788E+03  0.99189398648E+02  0.48454830328E+03  0.10603323431E+04  0.87837223383E+03 0.  0.
        -24    2    4    4    0    0  0.59717408174E+03  0.44715497439E+02  0.48806649219E+03  0.77475201069E+03  0.58441574729E+02 0.  0.
         24    2    4    4    0    0 -0.26832563386E+03  0.54473901208E+02 -0.35181889088E+01  0.28558033242E+03  0.81103001878E+02 0.  0.
         13    1    3    3    0    0 -0.17660286249E+03 -0.79553889551E+02  0.15395993109E+04  0.15517356187E+04  0.00000000000E+00 0. -1.
        -13    1    3    3    0    0 -0.15224558539E+03 -0.19635509097E+02  0.74701841954E+03  0.76262755695E+03  0.00000000000E+00 0.  1.
          2    1    6    6  502    0 -0.94661341385E+02  0.53574891090E+02  0.19140358936E+02  0.11044180299E+03  0.00000000000E+00 0. -1.
          3    1    5    5  503    0  0.57091832014E+03  0.42994175262E+02  0.44874692441E+03  0.72744073955E+03  0.00000000000E+00 0. -1.
         -2    1    5    5    0  503  0.26255761596E+02  0.17213221774E+01  0.39319567777E+02  0.47311271144E+02  0.00000000000E+00 0.  1.
         -1    1    6    6    0  502 -0.17366429248E+03  0.89901011868E+00 -0.22658547845E+02  0.17513852943E+03  0.00000000000E+00 0.  1.
<mgrwt>
<rscale>  0 0.19259306E+04</rscale>
<asrwt>0</asrwt>
<pdfrwt beam="1">  1        1 0.47275856E+00 0.19259306E+04</pdfrwt>
<pdfrwt beam="2">  1       -1 0.46425347E-01 0.19259306E+04</pdfrwt>
<totfact> 0.22848165E+00</totfact>
</mgrwt>
</event>
<event>
12    1  0.2045212E-008  0.1543789E+04  0.7818608E-02  0.8855845E-01
          2   -1    0    0  501    0  0.00000000000E+00  0.00000000000E+00  0.32196780827E+04  0.32196780827E+04  0.00000000000E+00 0.  1.
         -2   -1    0    0    0  501 -0.00000000000E+00 -0.00000000000E+00 -0.18505614455E+03  0.18505614455E+03  0.00000000000E+00 0. -1.
         23    2    1    2    0    0  0.27932945782E+03 -0.63003912439E+02  0.19220661956E+04  0.19454396226E+04  0.91664745758E+02 0.  0.
        254    2    1    2    0    0 -0.27932945782E+03  0.63003912439E+02  0.11125557425E+04  0.14592946047E+04  0.89987000399E+03 0.  0.
        -24    2    4    4    0    0  0.28993697977E+03 -0.14037904648E+03  0.47221498746E+03  0.57519900228E+03  0.64009131567E+02 0.  0.
         24    2    4    4    0    0 -0.56926643759E+03  0.20338295892E+03  0.64034075505E+03  0.88409560240E+03  0.78484690616E+02 0.  0.
         11    1    3    3    0    0  0.13215569914E+03 -0.46505677492E+02  0.12136216222E+04  0.12216813613E+04  0.00000000000E+00 0. -1.
        -11    1    3    3    0    0  0.14717375868E+03 -0.16498234946E+02  0.70844457347E+03  0.72375826121E+03  0.00000000000E+00 0.  1.
          4    1    6    6  502    0 -0.20559843235E+03  0.65055187536E+02  0.28313850747E+03  0.35590772291E+03  0.00000000000E+00 0. -1.
          1    1    5    5  503    0  0.32449741458E+02 -0.13039302132E+02  0.22543766521E+02  0.41608058471E+02  0.00000000000E+00 0. -1.
         -2    1    5    5    0  503  0.25748723831E+03 -0.12733974435E+03  0.44967122093E+03  0.53359094381E+03  0.00000000000E+00 0.  1.
         -3    1    6    6    0  502 -0.36366800524E+03  0.13832777138E+03  0.35720224758E+03  0.52818787949E+03  0.00000000000E+00 0.  1.
<mgrwt>
<rscale>  0 0.15437891E+04</rscale>
<asrwt>0</asrwt>
<pdfrwt beam="1">  1        2 0.49533505E+00 0.15437891E+04</pdfrwt>
<pdfrwt beam="2">  1       -2 0.28470179E-01 0.15437891E+04</pdfrwt>
<totfact> 0.13830159E+01</totfact>
</mgrwt>
</event>
<event>
12    1  0.2045212E-008  0.2239076E+04  0.7818608E-02  0.8502337E-01
          2   -1    0    0  501    0  0.00000000000E+00  0.00000000000E+00  0.12590103012E+04  0.12590103012E+04  0.00000000000E+00 0. -1.
         -2   -1    0    0    0  501 -0.00000000000E+00 -0.00000000000E+00 -0.99551675335E+03  0.99551675335E+03  0.00000000000E+00 0.  1.
         23    2    1    2    0    0  0.23333830594E+03  0.86876782366E+03  0.38069280074E+03  0.98100473926E+03  0.90768901472E+02 0.  0.
        254    2    1    2    0    0 -0.23333830594E+03 -0.86876782366E+03 -0.11719925285E+03  0.12735223153E+04  0.89382276002E+03 0.  0.
        -24    2    4    4    0    0 -0.18760567524E+03 -0.10436321098E+04 -0.14030764702E+03  0.10751158586E+04  0.10873823476E+03 0.  0.
         24    2    4    4    0    0 -0.45732630706E+02  0.17486428612E+03  0.23108394171E+02  0.19840645671E+03  0.78499249104E+02 0.  0.
         11    1    3    3    0    0  0.77473395757E+02  0.22474695002E+03  0.61683516220E+02  0.24559758705E+03  0.00000000000E+00 0.  1.
        -11    1    3    3    0    0  0.15586491019E+03  0.64402087364E+03  0.31900928452E+03  0.73540715221E+03  0.00000000000E+00 0. -1.
          4    1    6    6  502    0  0.67903045787E+01 -0.13433780263E+00 -0.10622723024E+02  0.12608272180E+02  0.00000000000E+00 0. -1.
          3    1    5    5  503    0 -0.74898302527E+02 -0.18513545896E+03 -0.37012092209E+02  0.20311274912E+03  0.00000000000E+00 0. -1.
         -2    1    5    5    0  503 -0.11270737271E+03 -0.85849665082E+03 -0.10329555481E+03  0.87200310950E+03  0.00000000000E+00 0.  1.
         -3    1    6    6    0  502 -0.52522935285E+02  0.17499862393E+03  0.33731117195E+02  0.18579818453E+03  0.00000000000E+00 0.  1.
<mgrwt>
<rscale>  0 0.22390765E+04</rscale>
<asrwt>0</asrwt>
<pdfrwt beam="1">  1        2 0.19369389E+00 0.22390765E+04</pdfrwt>
<pdfrwt beam="2">  1       -2 0.15315642E+00 0.22390765E+04</pdfrwt>
<totfact> 0.45130364E+00</totfact>
</mgrwt>
</event>
<event>
12    1  0.2045212E-008  0.2747491E+04  0.7818608E-02  0.8319758E-01
          2   -1    0    0  501    0  0.00000000000E+00  0.00000000000E+00  0.31176554671E+04  0.31176554671E+04  0.00000000000E+00 0. -1.
         -2   -1    0    0    0  501 -0.00000000000E+00 -0.00000000000E+00 -0.60531941485E+03  0.60531941485E+03  0.00000000000E+00 0.  1.
         23    2    1    2    0    0 -0.46555324443E+03 -0.11271775059E+04  0.97424930386E+03  0.15635799946E+04  0.91387855513E+02 0.  0.
        254    2    1    2    0    0  0.46555324443E+03  0.11271775059E+04  0.15380867484E+04  0.21593948874E+04  0.90000360039E+03 0.  0.
        -24    2    4    4    0    0 -0.59358790883E+02  0.41210779120E+03  0.56087177704E+02  0.43049948850E+03  0.93956056062E+02 0.  0.
         24    2    4    4    0    0  0.52491203531E+03  0.71506971474E+03  0.14819995707E+04  0.17288953989E+04  0.76806451254E+02 0.  0.
         13    1    3    3    0    0 -0.45332795350E+03 -0.10622982054E+04  0.90008678517E+03  0.14642881996E+04  0.00000000000E+00 0.  1.
        -13    1    3    3    0    0 -0.12225290932E+02 -0.64879300511E+02  0.74162518691E+02  0.99291794987E+02  0.00000000000E+00 0. -1.
          4    1    6    6  502    0  0.13702043085E+03  0.20986068287E+03  0.35884587221E+03  0.43770591119E+03  0.00000000000E+00 0. -1.
          3    1    5    5  503    0 -0.35298331305E+02  0.16442711975E+03 -0.22192123557E+02  0.16963118890E+03  0.00000000000E+00 0. -1.
         -4    1    5    5    0  503 -0.24060459577E+02  0.24768067145E+03  0.78279301261E+02  0.26086829959E+03  0.00000000000E+00 0.  1.
         -3    1    6    6    0  502  0.38789160446E+03  0.50520903187E+03  0.11231536985E+04  0.12911894877E+04  0.00000000000E+00 0.  1.
<mgrwt>
<rscale>  0 0.27474915E+04</rscale>
<asrwt>0</asrwt>
<pdfrwt beam="1">  1        2 0.47963929E+00 0.27474915E+04</pdfrwt>
<pdfrwt beam="2">  1       -2 0.93126065E-01 0.27474915E+04</pdfrwt>
<totfact> 0.12505937E+00</totfact>
</mgrwt>
</event>
<event>
12    1  0.2045212E-008  0.2499593E+04  0.7818608E-02  0.8403130E-01
          1   -1    0    0  501    0  0.00000000000E+00  0.00000000000E+00  0.66476692510E+03  0.66476692510E+03  0.00000000000E+00 0. -1.
         -1   -1    0    0    0  501 -0.00000000000E+00 -0.00000000000E+00 -0.23496828421E+04  0.23496828421E+04  0.00000000000E+00 0.  1.
         23    2    1    2    0    0 -0.45428586837E+03 -0.96839432807E+03 -0.94189477994E+03  0.14283019830E+04  0.93367839013E+02 0.  0.
        254    2    1    2    0    0  0.45428586837E+03  0.96839432807E+03 -0.74302113705E+03  0.15861477842E+04  0.90532930931E+03 0.  0.
        -24    2    4    4    0    0  0.60000726397E+03  0.72234497084E+03 -0.19576646379E+03  0.96391387648E+03  0.94944611349E+02 0.  0.
         24    2    4    4    0    0 -0.14572139559E+03  0.24604935723E+03 -0.54725467327E+03  0.62223390769E+03  0.76891788535E+02 0.  0.
         11    1    3    3    0    0 -0.75544503070E+02 -0.10983086877E+03 -0.89457256004E+02  0.16053782212E+03  0.00000000000E+00 0.  1.
        -11    1    3    3    0    0 -0.37874136530E+03 -0.85856345930E+03 -0.85243752393E+03  0.12677641609E+04  0.00000000000E+00 0. -1.
          2    1    6    6  502    0 -0.53045469860E+02  0.10862144251E+03 -0.15629144672E+03  0.19758404785E+03  0.00000000000E+00 0. -1.
          3    1    5    5  503    0  0.35096026859E+02  0.86125142148E+02 -0.19160775521E+02  0.94954760438E+02  0.00000000000E+00 0. -1.
         -4    1    5    5    0  503  0.56491123711E+03  0.63621982869E+03 -0.17660568827E+03  0.86895911605E+03  0.00000000000E+00 0.  1.
         -1    1    6    6    0  502 -0.92675925734E+02  0.13742791471E+03 -0.39096322655E+03  0.42464985985E+03  0.00000000000E+00 0.  1.
<mgrwt>
<rscale>  0 0.24995931E+04</rscale>
<asrwt>0</asrwt>
<pdfrwt beam="1">  1        1 0.10227184E+00 0.24995931E+04</pdfrwt>
<pdfrwt beam="2">  1       -1 0.36148966E+00 0.24995931E+04</pdfrwt>
<totfact> 0.34103016E-01</totfact>
</mgrwt>
</event>
<event>
11    1  0.2045212E-008  0.3297193E+04  0.7818608E-02  0.8163610E-01
         -1   -1    0    0    0  501 -0.00000000000E+00  0.00000000000E+00  0.10017155493E+04  0.10017155493E+04  0.00000000000E+00 0.  1.
          1   -1    0    0  501    0  0.00000000000E+00 -0.00000000000E+00 -0.27132155171E+04  0.27132155171E+04  0.00000000000E+00 0. -1.
         23    2    1    2    0    0 -0.12479194638E+04 -0.50761661640E+03  0.12829573055E+02  0.13511950872E+04  0.10288803806E+03 0.  0.
        254    2    1    2    0    0  0.12479194638E+04  0.50761661640E+03 -0.17243295409E+04  0.23637359791E+04  0.89384439130E+03 0.  0.
         24    2    4    4    0    0  0.52521338880E+03  0.53986761466E+03 -0.47418849002E+03  0.89332300463E+03  0.76584080495E+02 0.  0.
         13    1    3    3    0    0 -0.64258266001E+03 -0.23344156482E+03 -0.37949275694E+02  0.68472446039E+03  0.00000000000E+00 0. -1.
        -13    1    3    3    0    0 -0.60533680383E+03 -0.27417505158E+03  0.50778848749E+02  0.66647062686E+03  0.00000000000E+00 0.  1.
          4    1    5    5  502    0  0.31964706329E+01 -0.22088086628E+01 -0.55442963911E+01  0.67701907424E+01  0.00000000000E+00 0. -1.
          3    1    4    4  503    0  0.45479944277E+03 -0.15245145297E+03 -0.74242497611E+03  0.88389978154E+03  0.00000000000E+00 0. -1.
         -4    1    4    4    0  503  0.26790663227E+03  0.12020045471E+03 -0.50771607475E+03  0.58651319293E+03  0.00000000000E+00 0.  1.
         -3    1    5    5    0  502  0.52201691817E+03  0.54207642332E+03 -0.46864419363E+03  0.88655281388E+03  0.00000000000E+00 0.  1.
<mgrwt>
<rscale>  0 0.32971928E+04</rscale>
<asrwt>0</asrwt>
<pdfrwt beam="1">  1        1 0.41741777E+00 0.32971928E+04</pdfrwt>
<pdfrwt beam="2">  1       -1 0.15411009E+00 0.32971928E+04</pdfrwt>
<totfact> 0.25826837E-01</totfact>
</mgrwt>
</event>
<event>
12    1  0.2045212E-008  0.1348908E+04  0.7818608E-02  0.8991655E-01
         -1   -1    0    0    0  501 -0.00000000000E+00  0.00000000000E+00  0.12233277266E+04  0.12233277266E+04  0.00000000000E+00 0.  1.
          1   -1    0    0  501    0  0.00000000000E+00 -0.00000000000E+00 -0.37184517654E+03  0.37184517654E+03  0.00000000000E+00 0. -1.
         23    2    1    2    0    0 -0.35760704083E+03  0.40629423272E+02  0.29851544728E+03  0.47696462067E+03  0.94075668616E+02 0.  0.
        254    2    1    2    0    0  0.35760704083E+03 -0.40629423272E+02  0.55296710274E+03  0.11182082824E+04  0.90281980509E+03 0.  0.
        -24    2    4    4    0    0 -0.12850280968E+03  0.13560487334E+02  0.59955260365E+03  0.62055276500E+03  0.94475132649E+02 0.  0.
         24    2    4    4    0    0  0.48610985051E+03 -0.54189910606E+02 -0.46585500910E+02  0.49765551742E+03  0.79066250356E+02 0.  0.
         11    1    3    3    0    0 -0.23156171119E+03  0.59763087331E+02  0.23189474384E+03  0.33311803451E+03  0.00000000000E+00 0.  1.
        -11    1    3    3    0    0 -0.12604532964E+03 -0.19133664060E+02  0.66620703439E+02  0.14384658616E+03  0.00000000000E+00 0. -1.
          4    1    6    6  502    0  0.73255428128E+02 -0.33906812990E+02  0.61345182380E+01  0.80954691226E+02  0.00000000000E+00 0. -1.
          3    1    5    5  503    0 -0.52925373213E+02  0.52255236937E+02  0.24947882813E+03  0.26032938867E+03  0.00000000000E+00 0. -1.
         -4    1    5    5    0  503 -0.75577436471E+02 -0.38694749602E+02  0.35007377552E+03  0.36022337633E+03  0.00000000000E+00 0.  1.
         -3    1    6    6    0  502  0.41285442238E+03 -0.20283097616E+02 -0.52720019148E+02  0.41670082619E+03  0.00000000000E+00 0.  1.
<mgrwt>
<rscale>  0 0.13489085E+04</rscale>
<asrwt>0</asrwt>
<pdfrwt beam="1">  1        1 0.57206951E-01 0.13489085E+04</pdfrwt>
<pdfrwt beam="2">  1       -1 0.18820426E+00 0.13489085E+04</pdfrwt>
<totfact> 0.11772041E+01</totfact>
</mgrwt>
</event>
<event>
12    1  0.2045212E-008  0.1071753E+04  0.7818608E-02  0.9233169E-01
          2   -1    0    0  501    0  0.00000000000E+00  0.00000000000E+00  0.66843653789E+03  0.66843653789E+03  0.00000000000E+00 0. -1.
         -2   -1    0    0    0  501 -0.00000000000E+00 -0.00000000000E+00 -0.42960504231E+03  0.42960504231E+03  0.00000000000E+00 0.  1.
         23    2    1    2    0    0  0.87966935390E+02  0.10027236385E+03 -0.45437220143E+02  0.16743515019E+03  0.90428202859E+02 0.  0.
        254    2    1    2    0    0 -0.87966935390E+02 -0.10027236385E+03  0.28426871572E+03  0.93060643001E+03  0.87602904984E+03 0.  0.
        -24    2    4    4    0    0  0.80454660918E+02  0.84609244508E+02  0.54161146349E+03  0.56289676656E+03  0.99388710116E+02 0.  0.
         24    2    4    4    0    0 -0.16842159631E+03 -0.18488160836E+03 -0.25734274777E+03  0.36770966345E+03  0.80237544530E+02 0.  0.
         11    1    3    3    0    0  0.35320971599E+02 -0.11506995106E+02 -0.53088694844E+01  0.37525538854E+02  0.00000000000E+00 0. -1.
        -11    1    3    3    0    0  0.52645963791E+02  0.11177935896E+03 -0.40128350658E+02  0.12990961134E+03  0.00000000000E+00 0.  1.
          4    1    6    6  502    0 -0.13533436987E+03 -0.11155439212E+03 -0.21278157548E+03  0.27574584845E+03  0.00000000000E+00 0. -1.
          3    1    5    5  503    0  0.82968041947E+02  0.44917053562E+02  0.48258880628E+03  0.49172471326E+03  0.00000000000E+00 0. -1.
         -4    1    5    5    0  503 -0.25133810291E+01  0.39692190946E+02  0.59022657206E+02  0.71172053293E+02  0.00000000000E+00 0.  1.
         -3    1    6    6    0  502 -0.33087226436E+02 -0.73327216238E+02 -0.44561172287E+02  0.91963815004E+02  0.00000000000E+00 0.  1.
<mgrwt>
<rscale>  0 0.10717532E+04</rscale>
<asrwt>0</asrwt>
<pdfrwt beam="1">  1        2 0.10283639E+00 0.10717532E+04</pdfrwt>
<pdfrwt beam="2">  1       -2 0.66093084E-01 0.10717532E+04</pdfrwt>
<totfact> 0.91004276E+01</totfact>
</mgrwt>
</event>
<event>
11    1  0.2045212E-008  0.1674501E+04  0.7818608E-02  0.8776042E-01
         -2   -1    0    0    0  501 -0.00000000000E+00  0.00000000000E+00  0.90564122901E+03  0.90564122901E+03  0.00000000000E+00 0. -1.
          2   -1    0    0  501    0  0.00000000000E+00 -0.00000000000E+00 -0.77402446762E+03  0.77402446762E+03  0.00000000000E+00 0.  1.
         23    2    1    2    0    0  0.12327336556E+03 -0.43049754595E+03  0.43267194381E+03  0.62953734969E+03  0.92670405013E+02 0.  0.
        254    2    1    2    0    0 -0.12327336556E+03  0.43049754595E+03 -0.30105518242E+03  0.10501283469E+04  0.90089447909E+03 0.  0.
         24    2    4    4    0    0  0.12076936460E+03  0.43642780086E+03 -0.50949392357E+03  0.68630181551E+03  0.79822672430E+02 0.  0.
         11    1    3    3    0    0  0.13668169460E+03 -0.41080896128E+03  0.41635467523E+03  0.60066388595E+03  0.00000000000E+00 0. -1.
        -11    1    3    3    0    0 -0.13408329039E+02 -0.19688584669E+02  0.16317268584E+02  0.28873463733E+02  0.00000000000E+00 0.  1.
          4    1    5    5  502    0  0.11413013527E+03  0.38872365218E+03 -0.41343187028E+03  0.57884166825E+03  0.00000000000E+00 0. -1.
          3    1    4    4  503    0 -0.21383979211E+03 -0.38566123579E+02  0.86221289010E+02  0.23377107019E+03  0.00000000000E+00 0. -1.
         -4    1    4    4    0  503 -0.30202938041E+02  0.32635868669E+02  0.12221745214E+03  0.13005546124E+03  0.00000000000E+00 0.  1.
         -3    1    5    5    0  502  0.66392293278E+01  0.47704148678E+02 -0.96062053288E+02  0.10746014726E+03  0.00000000000E+00 0.  1.
<mgrwt>
<rscale>  0 0.16745011E+04</rscale>
<asrwt>0</asrwt>
<pdfrwt beam="1">  1        2 0.11908069E+00 0.16745011E+04</pdfrwt>
<pdfrwt beam="2">  1       -2 0.13932942E+00 0.16745011E+04</pdfrwt>
<totfact> 0.12473443E+01</totfact>
</mgrwt>
</event>
<event>
12    1  0.2045212E-008  0.3430816E+04  0.7818608E-02  0.8130384E-01
         -1   -1    0    0    0  501 -0.00000000000E+00  0.00000000000E+00  0.28666184969E+04  0.28666184969E+04  0.00000000000E+00 0.  1.
          1   -1    0    0  501    0  0.00000000000E+00 -0.00000000000E+00 -0.10265142871E+04  0.10265142871E+04  0.00000000000E+00 0. -1.
         23    2    1    2    0    0  0.13646830265E+04  0.58467822285E+03  0.19165945841E+03  0.14997688423E+04  0.91459527817E+02 0.  0.
        254    2    1    2    0    0 -0.13646830265E+04 -0.58467822285E+03  0.16484447514E+04  0.23933639417E+04  0.89811606808E+03 0.  0.
        -24    2    4    4    0    0 -0.12231309227E+04 -0.63328750092E+03  0.95218309833E+03  0.16769053445E+04  0.90865662512E+02 0.  0.
         24    2    4    4    0    0 -0.14155210382E+03  0.48609278070E+02  0.69626165309E+03  0.71645859723E+03  0.78312016794E+02 0.  0.
         13    1    3    3    0    0  0.95852778595E+03  0.37807983870E+03  0.10289054450E+03  0.10355222571E+04  0.00000000000E+00 0.  1.
        -13    1    3    3    0    0  0.40615524059E+03  0.20659838415E+03  0.88768913908E+02  0.46424658519E+03  0.00000000000E+00 0. -1.
          2    1    6    6  502    0 -0.48964434983E+02 -0.16254563288E+02  0.29928584544E+03  0.30370008891E+03  0.00000000000E+00 0. -1.
          3    1    5    5  503    0 -0.46715142220E+03 -0.19629194812E+03  0.32941075293E+03  0.60437771659E+03  0.00000000000E+00 0. -1.
         -4    1    5    5    0  503 -0.75597950052E+03 -0.43699555280E+03  0.62277234540E+03  0.10725276279E+04  0.00000000000E+00 0.  1.
         -1    1    6    6    0  502 -0.92587668835E+02  0.64863841358E+02  0.39697580764E+03  0.41275850832E+03  0.00000000000E+00 0.  1.
<mgrwt>
<rscale>  0 0.34308161E+04</rscale>
<asrwt>0</asrwt>
<pdfrwt beam="1">  1        1 0.15792528E+00 0.34308161E+04</pdfrwt>
<pdfrwt beam="2">  1       -1 0.44101823E+00 0.34308161E+04</pdfrwt>
<totfact> 0.44148156E-02</totfact>
</mgrwt>
</event>
<event>
11    1  0.2045212E-008  0.2400608E+04  0.7818608E-02  0.8439276E-01
         -2   -1    0    0    0  501 -0.00000000000E+00  0.00000000000E+00  0.65962960663E+03  0.65962960663E+03  0.00000000000E+00 0.  1.
          2   -1    0    0  501    0  0.00000000000E+00 -0.00000000000E+00 -0.21841494235E+04  0.21841494235E+04  0.00000000000E+00 0. -1.
         23    2    1    2    0    0  0.26782107709E+03 -0.32336122832E+03  0.45718194343E+03  0.62744748658E+03  0.91566400555E+02 0.  0.
        254    2    1    2    0    0 -0.26782107709E+03  0.32336122832E+03 -0.19817017603E+04  0.22163315435E+04  0.89927361287E+03 0.  0.
         24    2    4    4    0    0 -0.20974214714E+03  0.54570101151E+03 -0.93970358668E+03  0.11096870057E+04  0.81123717436E+02 0.  0.
         11    1    3    3    0    0  0.82049001536E+02 -0.79225992108E+02  0.71417067324E+02  0.13457040530E+03  0.00000000000E+00 0. -1.
        -11    1    3    3    0    0  0.18577207555E+03 -0.24413523621E+03  0.38576487610E+03  0.49287708128E+03  0.00000000000E+00 0.  1.
          4    1    5    5  502    0  0.65878534601E+00  0.12689194342E+02 -0.48621919939E+02  0.50254758479E+02  0.00000000000E+00 0. -1.
          3    1    4    4  503    0  0.84363511352E+02 -0.12850103881E+02 -0.51379598923E+03  0.52083456660E+03  0.00000000000E+00 0. -1.
         -4    1    4    4    0  503 -0.14244244130E+03 -0.20948967931E+03 -0.52820218438E+03  0.58580997124E+03  0.00000000000E+00 0.  1.
         -3    1    5    5    0  502 -0.21040093249E+03  0.53301181717E+03 -0.89108166674E+03  0.10594322472E+04  0.00000000000E+00 0.  1.
<mgrwt>
<rscale>  0 0.24006079E+04</rscale>
<asrwt>0</asrwt>
<pdfrwt beam="1">  1        2 0.33602299E+00 0.24006079E+04</pdfrwt>
<pdfrwt beam="2">  1       -2 0.10148148E+00 0.24006079E+04</pdfrwt>
<totfact> 0.37797604E+00</totfact>
</mgrwt>
</event>
<event>
12    1  0.2045212E-008  0.1429593E+04  0.7818608E-02  0.8932672E-01
          1   -1    0    0  501    0  0.00000000000E+00  0.00000000000E+00  0.18105463714E+04  0.18105463714E+04  0.00000000000E+00 0. -1.
         -1   -1    0    0    0  501 -0.00000000000E+00 -0.00000000000E+00 -0.28219864029E+03  0.28219864029E+03  0.00000000000E+00 0.  1.
         23    2    1    2    0    0  0.32509828982E+03 -0.50607919655E+02  0.49601060782E+03  0.60226777819E+03  0.91923304991E+02 0.  0.
        254    2    1    2    0    0 -0.32509828982E+03  0.50607919655E+02  0.10323371233E+04  0.14904772335E+04  0.10235000673E+04 0.  0.
        -24    2    4    4    0    0  0.48218553026E+02 -0.42730410999E+03  0.58818377314E+03  0.73464074755E+03  0.93931068908E+02 0.  0.
         24    2    4    4    0    0 -0.37331684285E+03  0.47791202965E+03  0.44415335012E+03  0.75583648591E+03  0.79064668252E+02 0.  0.
         11    1    3    3    0    0  0.16484779822E+03  0.17643637467E+02  0.27145077636E+03  0.31807486306E+03  0.00000000000E+00 0. -1.
        -11    1    3    3    0    0  0.16025049160E+03 -0.68251557123E+02  0.22455983146E+03  0.28419291514E+03  0.00000000000E+00 0.  1.
          2    1    6    6  502    0 -0.27663580823E+03  0.30848058979E+03  0.27192236083E+03  0.49561014416E+03  0.00000000000E+00 0. -1.
          1    1    5    5  503    0  0.46888107782E+02 -0.21631658210E+03  0.36981334133E+03  0.43099102748E+03  0.00000000000E+00 0. -1.
         -2    1    5    5    0  503  0.13304452433E+01 -0.21098752789E+03  0.21837043181E+03  0.30364972007E+03  0.00000000000E+00 0.  1.
         -1    1    6    6    0  502 -0.96681034616E+02  0.16943143986E+03  0.17223098929E+03  0.26022634175E+03  0.00000000000E+00 0.  1.
<mgrwt>
<rscale>  0 0.14295926E+04</rscale>
<asrwt>0</asrwt>
<pdfrwt beam="1">  1        1 0.27854559E+00 0.14295926E+04</pdfrwt>
<pdfrwt beam="2">  1       -1 0.43415176E-01 0.14295926E+04</pdfrwt>
<totfact> 0.20418062E+01</totfact>
</mgrwt>
</event>
<event>
12    1  0.2045212E-008  0.1449913E+04  0.7818608E-02  0.8918461E-01
         -4   -1    0    0    0  501 -0.00000000000E+00  0.00000000000E+00  0.30325160405E+03  0.30325160405E+03  0.00000000000E+00 0.  1.
          4   -1    0    0  501    0  0.00000000000E+00 -0.00000000000E+00 -0.17330885347E+04  0.17330885347E+04  0.00000000000E+00 0. -1.
         23    2    1    2    0    0 -0.41131056844E+02 -0.20430428383E+01 -0.10608904744E+04  0.10658390761E+04  0.93959564012E+02 0.  0.
        254    2    1    2    0    0  0.41131056844E+02  0.20430428383E+01 -0.36894645628E+03  0.97050106264E+03  0.89669107675E+03 0.  0.
        -24    2    4    4    0    0  0.16284988773E+03 -0.41538619328E+03 -0.13297761331E+03  0.46890410702E+03  0.55877011689E+02 0.  0.
         24    2    4    4    0    0 -0.12171883089E+03  0.41742923612E+03 -0.23596884297E+03  0.50159695562E+03  0.82798370015E+02 0.  0.
         11    1    3    3    0    0 -0.29003671007E+02 -0.16809537308E+02 -0.11577845657E+03  0.12053391424E+03  0.00000000000E+00 0.  1.
        -11    1    3    3    0    0 -0.12127385837E+02  0.14766494470E+02 -0.94511201783E+03  0.94530516189E+03  0.00000000000E+00 0. -1.
          2    1    6    6  502    0 -0.11783024500E+03  0.27034468731E+03 -0.14518761049E+03  0.32870907933E+03  0.00000000000E+00 0. -1.
          1    1    5    5  503    0  0.12032471564E+03 -0.23156966139E+03 -0.75157385870E+02  0.27157168100E+03  0.00000000000E+00 0. -1.
         -4    1    5    5    0  503  0.42525172093E+02 -0.18381653189E+03 -0.57820227441E+02  0.19733242602E+03  0.00000000000E+00 0.  1.
         -3    1    6    6    0  502 -0.38885858882E+01  0.14708454881E+03 -0.90781232479E+02  0.17288787629E+03  0.00000000000E+00 0.  1.
<mgrwt>
<rscale>  0 0.14499129E+04</rscale>
<asrwt>0</asrwt>
<pdfrwt beam="1">  1        4 0.26662901E+00 0.14499129E+04</pdfrwt>
<pdfrwt beam="2">  1       -4 0.46654092E-01 0.14499129E+04</pdfrwt>
<totfact> 0.43198789E-01</totfact>
</mgrwt>
</event>
<event>
12    1  0.2045212E-008  0.2105298E+04  0.7818608E-02  0.8558913E-01
         -2   -1    0    0    0  501 -0.00000000000E+00  0.00000000000E+00  0.16153971653E+04  0.16153971653E+04  0.00000000000E+00 0.  1.
          2   -1    0    0  501    0  0.00000000000E+00 -0.00000000000E+00 -0.68594239961E+03  0.68594239961E+03  0.00000000000E+00 0. -1.
         23    2    1    2    0    0  0.42963447072E+03 -0.20745828271E+03  0.11623162448E+04  0.12598687788E+04  0.93089039205E+02 0.  0.
        254    2    1    2    0    0 -0.42963447072E+03  0.20745828271E+03 -0.23286147909E+03  0.10414707862E+04  0.89599788645E+03 0.  0.
        -24    2    4    4    0    0 -0.34803824358E+03  0.15514087631E+02  0.29971638661E+03  0.46378382829E+03  0.62403694367E+02 0.  0.
         24    2    4    4    0    0 -0.81596227138E+02  0.19194419508E+03 -0.53257786570E+03  0.57768695789E+03  0.81132730606E+02 0.  0.
         13    1    3    3    0    0  0.40406521940E+03 -0.21472846483E+03  0.11203648771E+04  0.12102043104E+04  0.00000000000E+00 0.  1.
        -13    1    3    3    0    0  0.25569251319E+02  0.72701821122E+01  0.41951367704E+02  0.49664468317E+02  0.00000000000E+00 0. -1.
          4    1    6    6  502    0 -0.48590708767E+02  0.16486838088E+03 -0.48068542200E+03  0.51049105272E+03  0.00000000000E+00 0. -1.
          3    1    5    5  503    0 -0.81377291579E+02 -0.10594594339E+02  0.10135226865E+03  0.13041008923E+03  0.00000000000E+00 0. -1.
         -4    1    5    5    0  503 -0.26666095201E+03  0.26108681971E+02  0.19836411796E+03  0.33337373906E+03  0.00000000000E+00 0.  1.
         -3    1    6    6    0  502 -0.33005518371E+02  0.27075814200E+02 -0.51892443705E+02  0.67195905167E+02  0.00000000000E+00 0.  1.
<mgrwt>
<rscale>  0 0.21052975E+04</rscale>
<asrwt>0</asrwt>
<pdfrwt beam="1">  1        2 0.10552960E+00 0.21052975E+04</pdfrwt>
<pdfrwt beam="2">  1       -2 0.24852264E+00 0.21052975E+04</pdfrwt>
<totfact> 0.25405268E+00</totfact>
</mgrwt>
</event>
<event>
12    1  0.2045212E-008  0.1307960E+04  0.7818608E-02  0.9023277E-01
          2   -1    0    0  501    0  0.00000000000E+00  0.00000000000E+00  0.11652896972E+04  0.11652896972E+04  0.00000000000E+00 0. -1.
         -2   -1    0    0    0  501 -0.00000000000E+00 -0.00000000000E+00 -0.36702437454E+03  0.36702437454E+03  0.00000000000E+00 0.  1.
         23    2    1    2    0    0 -0.28679437220E+02 -0.18665117102E+03 -0.11318571889E+03  0.23820034790E+03  0.90924303790E+02 0.  0.
        254    2    1    2    0    0  0.28679437220E+02  0.18665117102E+03  0.91145104151E+03  0.12941137238E+04  0.89906960759E+03 0.  0.
        -24    2    4    4    0    0  0.34224263654E+03  0.39088627905E+03  0.60644021023E+03  0.80477588183E+03  0.99861834392E+02 0.  0.
         24    2    4    4    0    0 -0.31356319932E+03 -0.20423510803E+03  0.30501083127E+03  0.48933784197E+03  0.79912809180E+02 0.  0.
         13    1    3    3    0    0 -0.61218086369E+02 -0.13488757326E+03 -0.74054470298E+02  0.16560910630E+03  0.00000000000E+00 0.  1.
        -13    1    3    3    0    0  0.32538649148E+02 -0.51763597754E+02 -0.39131248589E+02  0.72591241600E+02  0.00000000000E+00 0. -1.
          2    1    6    6  502    0 -0.33601443049E+02 -0.50346008003E+02  0.28853846912E+02  0.67054619366E+02  0.00000000000E+00 0. -1.
          3    1    5    5  503    0  0.55658394179E+02  0.64174965779E+02  0.16342543960E+03  0.18418511717E+03  0.00000000000E+00 0. -1.
         -4    1    5    5    0  503  0.28658424236E+03  0.32671131327E+03  0.44301477063E+03  0.62059076466E+03  0.00000000000E+00 0.  1.
         -1    1    6    6    0  502 -0.27996175627E+03 -0.15388910003E+03  0.27615698436E+03  0.42228322260E+03  0.00000000000E+00 0.  1.
<mgrwt>
<rscale>  0 0.13079598E+04</rscale>
<asrwt>0</asrwt>
<pdfrwt beam="1">  1        2 0.17927534E+00 0.13079598E+04</pdfrwt>
<pdfrwt beam="2">  1       -2 0.56465289E-01 0.13079598E+04</pdfrwt>
<totfact> 0.57293274E+01</totfact>
</mgrwt>
</event>
<event>
12    1  0.2045212E-008  0.2198495E+04  0.7818608E-02  0.8519055E-01
         -2   -1    0    0    0  501 -0.00000000000E+00  0.00000000000E+00  0.34875698469E+03  0.34875698469E+03  0.00000000000E+00 0.  1.
          2   -1    0    0  501    0  0.00000000000E+00 -0.00000000000E+00 -0.34647204413E+04  0.34647204413E+04  0.00000000000E+00 0. -1.
         23    2    1    2    0    0 -0.60496092096E+03  0.61568724337E+03 -0.17861396676E+04  0.19858446508E+04  0.90750027546E+02 0.  0.
        254    2    1    2    0    0  0.60496092096E+03 -0.61568724337E+03 -0.13298237890E+04  0.18276327752E+04  0.90926440243E+03 0.  0.
        -24    2    4    4    0    0  0.50202704664E+03 -0.83614772119E+03 -0.11672049990E+04  0.15242517791E+04  0.99004085882E+02 0.  0.
         24    2    4    4    0    0  0.10293387431E+03  0.22046047782E+03 -0.16261878999E+03  0.30338099611E+03  0.79980955109E+02 0.  0.
         13    1    3    3    0    0 -0.56507282170E+03  0.55813857539E+03 -0.16852972061E+04  0.18630761220E+04  0.00000000000E+00 0. -1.
        -13    1    3    3    0    0 -0.39888099256E+02  0.57548667983E+02 -0.10084246148E+03  0.12276852889E+03  0.00000000000E+00 0.  1.
          2    1    6    6  502    0  0.47895563358E+02  0.81144372764E+02 -0.10947130905E+03  0.14443808959E+03  0.00000000000E+00 0. -1.
          1    1    5    5  503    0  0.24183338134E+03 -0.47604704150E+03 -0.58752501519E+03  0.79390793769E+03  0.00000000000E+00 0. -1.
         -2    1    5    5    0  503  0.26019366530E+03 -0.36010067969E+03 -0.57967998386E+03  0.73034384139E+03  0.00000000000E+00 0.  1.
         -1    1    6    6    0  502  0.55038310954E+02  0.13931610505E+03 -0.53147480939E+02  0.15894290651E+03  0.00000000000E+00 0.  1.
<mgrwt>
<rscale>  0 0.21984954E+04</rscale>
<asrwt>0</asrwt>
<pdfrwt beam="1">  1        2 0.53303388E+00 0.21984954E+04</pdfrwt>
<pdfrwt beam="2">  1       -2 0.53654924E-01 0.21984954E+04</pdfrwt>
<totfact> 0.25828552E+00</totfact>
</mgrwt>
</event>
<event>
12    1  0.2045212E-008  0.3049360E+04  0.7818608E-02  0.8229775E-01
          2   -1    0    0  501    0  0.00000000000E+00  0.00000000000E+00  0.19823216492E+04  0.19823216492E+04  0.00000000000E+00 0. -1.
         -2   -1    0    0    0  501 -0.00000000000E+00 -0.00000000000E+00 -0.11726905053E+04  0.11726905053E+04  0.00000000000E+00 0.  1.
         23    2    1    2    0    0 -0.51050417734E+03 -0.44312145703E+03 -0.88666509606E+03  0.11186396876E+04  0.90601419913E+02 0.  0.
        254    2    1    2    0    0  0.51050417734E+03  0.44312145703E+03  0.16962962400E+04  0.20363724669E+04  0.90134385748E+03 0.  0.
        -24    2    4    4    0    0  0.45757563781E+03  0.70570122675E+03  0.12395409378E+04  0.15008122504E+04  0.92660610156E+02 0.  0.
         24    2    4    4    0    0  0.52928539522E+02 -0.26257976972E+03  0.45675530213E+03  0.53556021647E+03  0.80310482988E+02 0.  0.
         13    1    3    3    0    0 -0.55286827558E+02 -0.69454618468E+02 -0.77508778671E+02  0.11784815696E+03  0.00000000000E+00 0. -1.
        -13    1    3    3    0    0 -0.45521734978E+03 -0.37366683856E+03 -0.80915631739E+03  0.10007915306E+04  0.00000000000E+00 0.  1.
          4    1    6    6  502    0  0.39879147850E+02 -0.14907279602E+03  0.18596362907E+03  0.24165164242E+03  0.00000000000E+00 0. -1.
          3    1    5    5  503    0  0.21208681292E+03  0.36302849967E+03  0.69347586921E+03  0.81097428379E+03  0.00000000000E+00 0. -1.
         -4    1    5    5    0  503  0.24548882489E+03  0.34267272708E+03  0.54606506864E+03  0.68983796664E+03  0.00000000000E+00 0.  1.
         -3    1    6    6    0  502  0.13049391672E+02 -0.11350697370E+03  0.27079167306E+03  0.29390857405E+03  0.00000000000E+00 0.  1.
<mgrwt>
<rscale>  0 0.30493604E+04</rscale>
<asrwt>0</asrwt>
<pdfrwt beam="1">  1        2 0.30497256E+00 0.30493604E+04</pdfrwt>
<pdfrwt beam="2">  1       -2 0.18041392E+00 0.30493604E+04</pdfrwt>
<totfact> 0.10496807E+00</totfact>
</mgrwt>
</event>
<event>
12    1  0.2045212E-008  0.3707432E+04  0.7818608E-02  0.8066317E-01
          1   -1    0    0  501    0  0.00000000000E+00  0.00000000000E+00  0.35221830967E+04  0.35221830967E+04  0.00000000000E+00 0. -1.
         -1   -1    0    0    0  501 -0.00000000000E+00 -0.00000000000E+00 -0.97560604161E+03  0.97560604161E+03  0.00000000000E+00 0.  1.
         23    2    1    2    0    0  0.18109094771E+03 -0.40185912134E+03  0.32464838813E+04  0.32771633258E+04  0.76532267660E+02 0.  0.
        254    2    1    2    0    0 -0.18109094771E+03  0.40185912134E+03 -0.69990682616E+03  0.12206258125E+04  0.89764866407E+03 0.  0.
        -24    2    4    4    0    0 -0.22865810902E+03 -0.13394099284E+03 -0.60603638077E+03  0.66841972808E+03  0.96333367501E+02 0.  0.
         24    2    4    4    0    0  0.47567161309E+02  0.53580011418E+03 -0.93870445393E+02  0.55220608443E+03  0.82313437335E+02 0.  0.
         13    1    3    3    0    0  0.39960890401E+02 -0.11154189824E+03  0.65236654309E+03  0.66303889355E+03  0.00000000000E+00 0.  1.
        -13    1    3    3    0    0  0.14113005731E+03 -0.29031722311E+03  0.25941173382E+04  0.26141244323E+04  0.00000000000E+00 0. -1.
          4    1    6    6  502    0  0.48782705082E+01  0.25004412442E+02  0.13009254465E+02  0.28605224461E+02  0.00000000000E+00 0. -1.
          1    1    5    5  503    0  0.27779750311E+01 -0.25835365374E+02 -0.68942033649E+02  0.73676232619E+02  0.00000000000E+00 0. -1.
         -2    1    5    5    0  503 -0.23143608405E+03 -0.10810562746E+03 -0.53709434712E+03  0.59474349547E+03  0.00000000000E+00 0.  1.
         -3    1    6    6    0  502  0.42688890801E+02  0.51079570174E+03 -0.10687969986E+03  0.52360085996E+03  0.00000000000E+00 0.  1.
<mgrwt>
<rscale>  0 0.37074321E+04</rscale>
<asrwt>0</asrwt>
<pdfrwt beam="1">  1        1 0.54187432E+00 0.37074321E+04</pdfrwt>
<pdfrwt beam="2">  1       -1 0.15009324E+00 0.37074321E+04</pdfrwt>
<totfact> 0.66920831E-02</totfact>
</mgrwt>
</event>
<event>
12    1  0.2045212E-008  0.3173858E+04  0.7818608E-02  0.8195756E-01
         -2   -1    0    0    0  501 -0.00000000000E+00  0.00000000000E+00  0.12237614118E+04  0.12237614118E+04  0.00000000000E+00 0.  1.
          2   -1    0    0  501    0  0.00000000000E+00 -0.00000000000E+00 -0.20578710821E+04  0.20578710821E+04  0.00000000000E+00 0. -1.
         23    2    1    2    0    0 -0.65898588442E+03 -0.11460801324E+04 -0.10262835116E+04  0.16761966746E+04  0.92819071947E+02 0.  0.
        254    2    1    2    0    0  0.65898588442E+03  0.11460801324E+04  0.19217384132E+03  0.16054358194E+04  0.89035460304E+03 0.  0.
        -24    2    4    4    0    0 -0.12814518601E+03  0.22835995799E+03  0.28354990703E+03  0.39030812559E+03  0.58055353038E+02 0.  0.
         24    2    4    4    0    0  0.78713107044E+03  0.91772017436E+03 -0.91376065708E+02  0.12151276938E+04  0.80000539375E+02 0.  0.
         13    1    3    3    0    0 -0.42874891101E+03 -0.68837979717E+03 -0.67294056699E+03  0.10538222718E+04  0.00000000000E+00 0.  1.
        -13    1    3    3    0    0 -0.23023697341E+03 -0.45770033518E+03 -0.35334294460E+03  0.62237440279E+03  0.00000000000E+00 0. -1.
          2    1    6    6  502    0  0.16535698672E+03  0.24401723104E+03 -0.30284278939E+02  0.29631820675E+03  0.00000000000E+00 0. -1.
          1    1    5    5  503    0  0.49704594409E+01  0.22664036245E+02  0.24103399488E+02  0.33456507182E+02  0.00000000000E+00 0. -1.
         -2    1    5    5    0  503 -0.13311564545E+03  0.20569592175E+03  0.25944650754E+03  0.35685161841E+03  0.00000000000E+00 0.  1.
         -1    1    6    6    0  502  0.62177408371E+03  0.67370294332E+03 -0.61091786770E+02  0.91880948702E+03  0.00000000000E+00 0.  1.
<mgrwt>
<rscale>  0 0.31738577E+04</rscale>
<asrwt>0</asrwt>
<pdfrwt beam="1">  1        2 0.31659555E+00 0.31738577E+04</pdfrwt>
<pdfrwt beam="2">  1       -2 0.18827099E+00 0.31738577E+04</pdfrwt>
<totfact> 0.83345902E-01</totfact>
</mgrwt>
</event>
<event>
12    1  0.2045212E-008  0.1789708E+04  0.7818608E-02  0.8711792E-01
          2   -1    0    0  501    0  0.00000000000E+00  0.00000000000E+00  0.81149308225E+03  0.81149308225E+03  0.00000000000E+00 0.  1.
         -2   -1    0    0    0  501 -0.00000000000E+00 -0.00000000000E+00 -0.98677844674E+03  0.98677844674E+03  0.00000000000E+00 0. -1.
         23    2    1    2    0    0  0.42422483787E+03  0.48423410489E+03 -0.22681784850E+03  0.68838627374E+03  0.89330532722E+02 0.  0.
        254    2    1    2    0    0 -0.42422483787E+03 -0.48423410489E+03  0.51532484006E+02  0.11098852552E+04  0.90262965911E+03 0.  0.
        -24    2    4    4    0    0 -0.33230026076E+03 -0.52610955141E+03 -0.32623924169E+03  0.71084740259E+03  0.10796880831E+03 0.  0.
         24    2    4    4    0    0 -0.91924577114E+02  0.41875446521E+02  0.37777172570E+03  0.39903785265E+03  0.79473581868E+02 0.  0.
         11    1    3    3    0    0  0.41808749705E+03  0.46831717714E+03 -0.23385850583E+03  0.66993129076E+03  0.00000000000E+00 0. -1.
        -11    1    3    3    0    0  0.61373408252E+01  0.15916927744E+02  0.70406573282E+01  0.18454982981E+02  0.00000000000E+00 0.  1.
          2    1    6    6  502    0 -0.37037804633E+02 -0.22275720679E+02  0.15084120870E+03  0.15691104788E+03  0.00000000000E+00 0. -1.
          3    1    5    5  503    0 -0.81026412680E+01 -0.18843855044E+02 -0.38452709916E+02  0.43581585198E+02  0.00000000000E+00 0. -1.
         -4    1    5    5    0  503 -0.32419761949E+03 -0.50726569636E+03 -0.28778653178E+03  0.66726581739E+03  0.00000000000E+00 0.  1.
         -1    1    6    6    0  502 -0.54886772481E+02  0.64151167200E+02  0.22693051700E+03  0.24212680478E+03  0.00000000000E+00 0.  1.
<mgrwt>
<rscale>  0 0.17897082E+04</rscale>
<asrwt>0</asrwt>
<pdfrwt beam="1">  1        2 0.12484509E+00 0.17897082E+04</pdfrwt>
<pdfrwt beam="2">  1       -2 0.15181207E+00 0.17897082E+04</pdfrwt>
<totfact> 0.92630184E+00</totfact>
</mgrwt>
</event>
<event>
12    1  0.2045212E-008  0.1158241E+04  0.7818608E-02  0.9150214E-01
          4   -1    0    0  501    0  0.00000000000E+00  0.00000000000E+00  0.22131441724E+03  0.22131441724E+03  0.00000000000E+00 0. -1.
         -4   -1    0    0    0  501 -0.00000000000E+00 -0.00000000000E+00 -0.15154028189E+04  0.15154028189E+04  0.00000000000E+00 0.  1.
         23    2    1    2    0    0 -0.23104983536E+02 -0.20706057572E+03 -0.26813926056E+03  0.35132619794E+03  0.90130527705E+02 0.  0.
        254    2    1    2    0    0  0.23104983536E+02  0.20706057572E+03 -0.10259491411E+04  0.13853910382E+04  0.90737465597E+03 0.  0.
        -24    2    4    4    0    0  0.48719543013E+02 -0.32920570310E+03 -0.20523298139E+03  0.40139221108E+03  0.90802762296E+02 0.  0.
         24    2    4    4    0    0 -0.25614559477E+02  0.53626627882E+03 -0.82071615972E+03  0.98399882712E+03  0.80256149254E+02 0.  0.
         13    1    3    3    0    0 -0.33808005681E+02 -0.39567610357E+02 -0.10539278509E+03  0.11754240165E+03  0.00000000000E+00 0.  1.
        -13    1    3    3    0    0  0.10703022145E+02 -0.16749296536E+03 -0.16274647548E+03  0.23378379629E+03  0.00000000000E+00 0. -1.
          4    1    6    6  502    0 -0.19112005008E+02  0.44331743076E+03 -0.61704659429E+03  0.76002770520E+03  0.00000000000E+00 0. -1.
          3    1    5    5  503    0 -0.54628627469E+01 -0.71653854372E+02 -0.76035477348E+01  0.72262934163E+02  0.00000000000E+00 0. -1.
         -4    1    5    5    0  503  0.54182405760E+02 -0.25755184873E+03 -0.19762943365E+03  0.32912927691E+03  0.00000000000E+00 0.  1.
         -3    1    6    6    0  502 -0.65025544696E+01  0.92948848056E+02 -0.20366956543E+03  0.22397112192E+03  0.00000000000E+00 0.  1.
<mgrwt>
<rscale>  0 0.11582409E+04</rscale>
<asrwt>0</asrwt>
<pdfrwt beam="1">  1        4 0.34048373E-01 0.11582409E+04</pdfrwt>
<pdfrwt beam="2">  1       -4 0.23313889E+00 0.11582409E+04</pdfrwt>
<totfact> 0.13419959E+00</totfact>
</mgrwt>
</event>
<event>
12    1  0.2045212E-008  0.2436827E+04  0.7818608E-02  0.8425843E-01
          3   -1    0    0  501    0  0.00000000000E+00  0.00000000000E+00  0.16060257677E+04  0.16060257677E+04  0.00000000000E+00 0. -1.
         -3   -1    0    0    0  501 -0.00000000000E+00 -0.00000000000E+00 -0.92435082573E+03  0.92435082573E+03  0.00000000000E+00 0.  1.
         23    2    1    2    0    0 -0.89427627582E+02 -0.52915353647E+03  0.12265572679E+04  0.13418075235E+04  0.89464703065E+02 0.  0.
        254    2    1    2    0    0  0.89427627582E+02  0.52915353647E+03 -0.54488232587E+03  0.11885690699E+04  0.90983455595E+03 0.  0.
        -24    2    4    4    0    0 -0.28343241536E+03  0.48988150243E+03 -0.56508812428E+03  0.80485876490E+03  0.90306271795E+02 0.  0.
         24    2    4    4    0    0  0.37286004294E+03  0.39272034036E+02  0.20205798406E+02  0.38371030503E+03  0.79110173900E+02 0.  0.
         11    1    3    3    0    0 -0.81946121456E+02 -0.53020864944E+03  0.12089323586E+04  0.13226314024E+04  0.00000000000E+00 0. -1.
        -11    1    3    3    0    0 -0.74815061259E+01  0.10551129722E+01  0.17624909248E+02  0.19176121174E+02  0.00000000000E+00 0.  1.
          4    1    6    6  502    0  0.50278957608E+02  0.24861154158E+02  0.23442012479E+02  0.60791270042E+02  0.00000000000E+00 0. -1.
          3    1    5    5  503    0 -0.13608427128E+03  0.21957140133E+03 -0.32062560867E+03  0.41174180029E+03  0.00000000000E+00 0. -1.
         -2    1    5    5    0  503 -0.14734814408E+03  0.27031010111E+03 -0.24446251561E+03  0.39311696461E+03  0.00000000000E+00 0.  1.
         -3    1    6    6    0  502  0.32258108534E+03  0.14410879878E+02 -0.32362140725E+01  0.32291903499E+03  0.00000000000E+00 0.  1.
<mgrwt>
<rscale>  0 0.24368268E+04</rscale>
<asrwt>0</asrwt>
<pdfrwt beam="1">  1        3 0.24708089E+00 0.24368268E+04</pdfrwt>
<pdfrwt beam="2">  1       -3 0.14220782E+00 0.24368268E+04</pdfrwt>
<totfact> 0.66391776E-02</totfact>
</mgrwt>
</event>
<event>
12    1  0.2045212E-008  0.3859136E+04  0.7818608E-02  0.8033582E-01
         -2   -1    0    0    0  501 -0.00000000000E+00  0.00000000000E+00  0.22068374367E+04  0.22068374367E+04  0.00000000000E+00 0.  1.
          2   -1    0    0  501    0  0.00000000000E+00 -0.00000000000E+00 -0.16871345973E+04  0.16871345973E+04  0.00000000000E+00 0. -1.
         23    2    1    2    0    0 -0.17610680842E+03  0.10557638244E+04  0.17346946086E+04  0.20403301361E+04  0.90171049314E+02 0.  0.
        254    2    1    2    0    0  0.17610680842E+03 -0.10557638244E+04 -0.12149917692E+04  0.18536418979E+04  0.90229287122E+03 0.  0.
        -24    2    4    4    0    0  0.18974849040E+03 -0.88867797483E+03 -0.36539585175E+03  0.98406798664E+03  0.95512519060E+02 0.  0.
         24    2    4    4    0    0 -0.13641681980E+02 -0.16708584957E+03 -0.84959591747E+03  0.86957391125E+03  0.79004984219E+02 0.  0.
         11    1    3    3    0    0 -0.18369200471E+03  0.92081870890E+03  0.15120517737E+04  0.17798737072E+04  0.00000000000E+00 0.  1.
        -11    1    3    3    0    0  0.75851962886E+01  0.13494511550E+03  0.22264283495E+03  0.26045642890E+03  0.00000000000E+00 0. -1.
          4    1    6    6  502    0  0.32773872690E+02 -0.60825371218E+02 -0.29455390665E+03  0.30254893231E+03  0.00000000000E+00 0. -1.
          3    1    5    5  503    0  0.14807440008E+03 -0.81273004212E+03 -0.34375334623E+03  0.89477511833E+03  0.00000000000E+00 0. -1.
         -4    1    5    5    0  503  0.41674090325E+02 -0.75947932706E+02 -0.21642505513E+02  0.89292868313E+02  0.00000000000E+00 0.  1.
         -3    1    6    6    0  502 -0.46415554670E+02 -0.10626047835E+03 -0.55504201081E+03  0.56702497894E+03  0.00000000000E+00 0.  1.
<mgrwt>
<rscale>  0 0.38591355E+04</rscale>
<asrwt>0</asrwt>
<pdfrwt beam="1">  1        2 0.25955917E+00 0.38591355E+04</pdfrwt>
<pdfrwt beam="2">  1       -2 0.33951345E+00 0.38591355E+04</pdfrwt>
<totfact> 0.14401884E-01</totfact>
</mgrwt>
</event>
<event>
11    1  0.2045212E-008  0.1331237E+04  0.7818608E-02  0.9005154E-01
          2   -1    0    0  501    0  0.00000000000E+00  0.00000000000E+00  0.23091330547E+04  0.23091330547E+04  0.00000000000E+00 0. -1.
         -2   -1    0    0    0  501 -0.00000000000E+00 -0.00000000000E+00 -0.19186779471E+03  0.19186779471E+03  0.00000000000E+00 0.  1.
         23    2    1    2    0    0  0.25727217517E+03 -0.42644451722E+02  0.13491242526E+03  0.30900263340E+03  0.96300278176E+02 0.  0.
        254    2    1    2    0    0 -0.25727217517E+03  0.42644451722E+02  0.19823528347E+04  0.21919982160E+04  0.89840185677E+03 0.  0.
         24    2    4    4    0    0 -0.37756336237E+02  0.91896500000E+02 -0.38854740446E+02  0.13459485390E+03  0.82070556243E+02 0.  0.
         13    1    3    3    0    0  0.11676547637E+03  0.65176504161E+01  0.15103899178E+02  0.11791854820E+03  0.00000000000E+00 0.  1.
        -13    1    3    3    0    0  0.14050669880E+03 -0.49162102138E+02  0.11980852608E+03  0.19108408520E+03  0.00000000000E+00 0. -1.
          2    1    5    5  502    0 -0.23078074026E+02  0.75434422268E+02 -0.63684598119E+02  0.10138381331E+03  0.00000000000E+00 0. -1.
          3    1    4    4  503    0 -0.18304882953E+03 -0.61681734356E+02  0.20071016743E+04  0.20163751241E+04  0.00000000000E+00 0. -1.
         -4    1    4    4    0  503 -0.36467009406E+02  0.12429686077E+02  0.14105900887E+02  0.41028237969E+02  0.00000000000E+00 0.  1.
         -1    1    5    5    0  502 -0.14678262212E+02  0.16462077732E+02  0.24829857673E+02  0.33211040587E+02  0.00000000000E+00 0.  1.
<mgrwt>
<rscale>  0 0.13312374E+04</rscale>
<asrwt>0</asrwt>
<pdfrwt beam="1">  1        2 0.35525122E+00 0.13312374E+04</pdfrwt>
<pdfrwt beam="2">  1       -2 0.29518124E-01 0.13312374E+04</pdfrwt>
<totfact> 0.46433783E+01</totfact>
</mgrwt>
</event>
<event>
11    1  0.2045212E-008  0.1929828E+04  0.7818608E-02  0.8640150E-01
         -1   -1    0    0    0  501 -0.00000000000E+00  0.00000000000E+00  0.43024419131E+03  0.43024419131E+03  0.00000000000E+00 0.  1.
          1   -1    0    0  501    0  0.00000000000E+00 -0.00000000000E+00 -0.21640236373E+04  0.21640236373E+04  0.00000000000E+00 0. -1.
         23    2    1    2    0    0  0.64098336746E+03 -0.38343542189E+03 -0.51940456371E+03  0.91461437096E+03  0.94106039374E+02 0.  0.
        254    2    1    2    0    0 -0.64098336746E+03  0.38343542189E+03 -0.12143748823E+04  0.16796534577E+04  0.88805798405E+03 0.  0.
         24    2    4    4    0    0 -0.22461111650E+03 -0.98114757214E+02  0.46913509982E+02  0.26221375159E+03  0.80489222034E+02 0.  0.
         11    1    3    3    0    0  0.28829088077E+03 -0.20828140130E+03 -0.20342991144E+03  0.40972735194E+03  0.00000000000E+00 0.  1.
        -11    1    3    3    0    0  0.35269248669E+03 -0.17515402059E+03 -0.31597465226E+03  0.50488701901E+03  0.00000000000E+00 0. -1.
          4    1    5    5  502    0 -0.73450605754E+02 -0.51721209634E+02  0.52399291968E+02  0.10399885004E+03  0.00000000000E+00 0. -1.
          1    1    4    4  503    0 -0.52332050360E+02  0.13122969841E+03 -0.29216293135E+03  0.32452897512E+03  0.00000000000E+00 0. -1.
         -2    1    4    4    0  503 -0.36404020059E+03  0.35032048070E+03 -0.96912546096E+03  0.10929107310E+04  0.00000000000E+00 0.  1.
         -3    1    5    5    0  502 -0.15116051075E+03 -0.46393547580E+02 -0.54857819865E+01  0.15821490155E+03  0.00000000000E+00 0.  1.
<mgrwt>
<rscale>  0 0.19298276E+04</rscale>
<asrwt>0</asrwt>
<pdfrwt beam="1">  1        1 0.33292672E+00 0.19298276E+04</pdfrwt>
<pdfrwt beam="2">  1       -1 0.66191414E-01 0.19298276E+04</pdfrwt>
<totfact> 0.49765407E+00</totfact>
</mgrwt>
</event>
<event>
12    1  0.2045212E-008  0.1340421E+04  0.7818608E-02  0.8998111E-01
          2   -1    0    0  501    0  0.00000000000E+00  0.00000000000E+00  0.15407727382E+04  0.15407727382E+04  0.00000000000E+00 0. -1.
         -2   -1    0    0    0  501 -0.00000000000E+00 -0.00000000000E+00 -0.29153031553E+03  0.29153031553E+03  0.00000000000E+00 0.  1.
         23    2    1    2    0    0 -0.89217791929E+02 -0.68795079284E+02  0.81897552056E+03  0.83129599693E+03  0.87404541683E+02 0.  0.
        254    2    1    2    0    0  0.89217791929E+02  0.68795079284E+02  0.43026690212E+03  0.10010070568E+04  0.89676805439E+03 0.  0.
        -24    2    4    4    0    0  0.13489146483E+03  0.42786823667E+03  0.27910115174E+02  0.45377933697E+03  0.62207530875E+02 0.  0.
         24    2    4    4    0    0 -0.45673672898E+02 -0.35907315739E+03  0.40235678695E+03  0.54722771983E+03  0.80917097071E+02 0.  0.
         13    1    3    3    0    0 -0.10538149439E+03 -0.55443382263E+02  0.62942729489E+03  0.64059187284E+03  0.00000000000E+00 0. -1.
        -13    1    3    3    0    0  0.16163702461E+02 -0.13351697021E+02  0.18954822567E+03  0.19070412409E+03  0.00000000000E+00 0.  1.
          4    1    6    6  502    0 -0.59044824025E+02 -0.34062805045E+03  0.35987497269E+03  0.49902280105E+03  0.00000000000E+00 0. -1.
          3    1    5    5  503    0  0.83731026991E+02  0.23049615434E+03  0.44394175840E+02  0.24921919046E+03  0.00000000000E+00 0. -1.
         -4    1    5    5    0  503  0.51160437836E+02  0.19737208233E+03 -0.16484060666E+02  0.20456014651E+03  0.00000000000E+00 0.  1.
         -3    1    6    6    0  502  0.13371151127E+02 -0.18445106940E+02  0.42481814261E+02  0.48204918789E+02  0.00000000000E+00 0.  1.
<mgrwt>
<rscale>  0 0.13404208E+04</rscale>
<asrwt>0</asrwt>
<pdfrwt beam="1">  1        2 0.23704196E+00 0.13404208E+04</pdfrwt>
<pdfrwt beam="2">  1       -2 0.44850819E-01 0.13404208E+04</pdfrwt>
<totfact> 0.55460301E+01</totfact>
</mgrwt>
</event>
<event>
12    1  0.2045212E-008  0.1273574E+04  0.7818608E-02  0.9050788E-01
          2   -1    0    0  501    0  0.00000000000E+00  0.00000000000E+00  0.21011170491E+04  0.21011170491E+04  0.00000000000E+00 0. -1.
         -2   -1    0    0    0  501 -0.00000000000E+00 -0.00000000000E+00 -0.19299138466E+03  0.19299138466E+03  0.00000000000E+00 0.  1.
         23    2    1    2    0    0 -0.63059517329E+02 -0.17996181425E+03  0.93551445868E+03  0.95920764161E+03  0.92353884691E+02 0.  0.
        254    2    1    2    0    0  0.63059517329E+02  0.17996181425E+03  0.97261120581E+03  0.13349007922E+04  0.89421742883E+03 0.  0.
        -24    2    4    4    0    0  0.27867704316E+03  0.24549553554E+03  0.10232536939E+04  0.10907650012E+04  0.69218591144E+02 0.  0.
         24    2    4    4    0    0 -0.21561752584E+03 -0.65533721286E+02 -0.50642488063E+02  0.24413579104E+03  0.79069822302E+02 0.  0.
         13    1    3    3    0    0  0.14355659536E+02 -0.35881744689E+02  0.88879144000E+02  0.96917938489E+02  0.00000000000E+00 0.  1.
        -13    1    3    3    0    0 -0.77415176865E+02 -0.14408006956E+03  0.84663531468E+03  0.86228970312E+03  0.00000000000E+00 0. -1.
          2    1    6    6  502    0 -0.93883824272E+02  0.63986662530E+01 -0.47750351862E+00  0.94102834173E+02  0.00000000000E+00 0. -1.
          1    1    5    5  503    0  0.10779876661E+03  0.58500992277E+02  0.38573616158E+03  0.40476576749E+03  0.00000000000E+00 0. -1.
         -2    1    5    5    0  503  0.17087827656E+03  0.18699454326E+03  0.63751753229E+03  0.68599923366E+03  0.00000000000E+00 0.  1.
         -1    1    6    6    0  502 -0.12173370156E+03 -0.71932387539E+02 -0.50164984545E+02  0.15003295687E+03  0.00000000000E+00 0.  1.
<mgrwt>
<rscale>  0 0.12735737E+04</rscale>
<asrwt>0</asrwt>
<pdfrwt beam="1">  1        2 0.32324876E+00 0.12735737E+04</pdfrwt>
<pdfrwt beam="2">  1       -2 0.29690984E-01 0.12735737E+04</pdfrwt>
<totfact> 0.60329416E+01</totfact>
</mgrwt>
</event>
<event>
12    1  0.2045212E-008  0.2524481E+04  0.7818608E-02  0.8394316E-01
         -1   -1    0    0    0  501 -0.00000000000E+00  0.00000000000E+00  0.97035627285E+03  0.97035627285E+03  0.00000000000E+00 0.  1.
          1   -1    0    0  501    0  0.00000000000E+00 -0.00000000000E+00 -0.16419235179E+04  0.16419235179E+04  0.00000000000E+00 0. -1.
         23    2    1    2    0    0  0.77692923520E+03  0.32100521559E+02 -0.11017962418E+04  0.13516275868E+04  0.91064235176E+02 0.  0.
        254    2    1    2    0    0 -0.77692923520E+03 -0.32100521559E+02  0.43022899677E+03  0.12606522039E+04  0.89414624621E+03 0.  0.
        -24    2    4    4    0    0 -0.16063445879E+03 -0.41470601092E+03  0.16111650973E+03  0.48285694149E+03  0.96993769870E+02 0.  0.
         24    2    4    4    0    0 -0.61629477641E+03  0.38260548936E+03  0.26911248704E+03  0.77779526244E+03  0.79609846600E+02 0.  0.
         11    1    3    3    0    0  0.48838836156E+03 -0.12528089162E+02 -0.63777333337E+03  0.80338967474E+03  0.00000000000E+00 0.  1.
        -11    1    3    3    0    0  0.28854087365E+03  0.44628610722E+02 -0.46402290843E+03  0.54823791205E+03  0.00000000000E+00 0. -1.
          2    1    6    6  502    0 -0.54293504505E+03  0.36418900582E+03  0.24847778783E+03  0.69939495720E+03  0.00000000000E+00 0. -1.
          1    1    5    5  503    0 -0.15820153836E+03 -0.31505483990E+03  0.10216641207E+03  0.36704938992E+03  0.00000000000E+00 0. -1.
         -2    1    5    5    0  503 -0.24329204350E+01 -0.99651171018E+02  0.58950097659E+02  0.11580755157E+03  0.00000000000E+00 0.  1.
         -1    1    6    6    0  502 -0.73359731357E+02  0.18416483536E+02  0.20634699210E+02  0.78400305242E+02  0.00000000000E+00 0.  1.
<mgrwt>
<rscale>  0 0.25244808E+04</rscale>
<asrwt>0</asrwt>
<pdfrwt beam="1">  1        1 0.25260362E+00 0.25244808E+04</pdfrwt>
<pdfrwt beam="2">  1       -1 0.14928558E+00 0.25244808E+04</pdfrwt>
<totfact> 0.16362938E+00</totfact>
</mgrwt>
</event>
<event>
11    1  0.2045212E-008  0.1399833E+04  0.7818608E-02  0.8953939E-01
          1   -1    0    0  501    0  0.00000000000E+00  0.00000000000E+00  0.38914909872E+04  0.38914909872E+04  0.00000000000E+00 0. -1.
         -1   -1    0    0    0  501 -0.00000000000E+00 -0.00000000000E+00 -0.12588579087E+03  0.12588579087E+03  0.00000000000E+00 0.  1.
         23    2    1    2    0    0  0.18327385803E+03 -0.39956863457E+03  0.18103492900E+04  0.18652193512E+04  0.91838311228E+02 0.  0.
        254    2    1    2    0    0 -0.18327385803E+03  0.39956863457E+03  0.19552559063E+04  0.21521574269E+04  0.78454542896E+03 0.  0.
         24    2    4    4    0    0 -0.96616587518E+02  0.40411123114E+03  0.14109258510E+04  0.14729217249E+04  0.78396420616E+02 0.  0.
         11    1    3    3    0    0  0.11367730255E+02 -0.38113520928E+02  0.82086781824E+02  0.91214612420E+02  0.00000000000E+00 0.  1.
        -11    1    3    3    0    0  0.17190612777E+03 -0.36145511365E+03  0.17282625082E+04  0.17740047388E+04  0.00000000000E+00 0. -1.
          4    1    5    5  502    0  0.98699007140E+01  0.47057798741E+02  0.21441177649E+03  0.21973679997E+03  0.00000000000E+00 0. -1.
          3    1    4    4  503    0 -0.10383546842E+03  0.17600922426E+03  0.18028547346E+03  0.27251404270E+03  0.00000000000E+00 0. -1.
         -4    1    4    4    0  503  0.17178197908E+02 -0.18055182083E+03  0.36404458187E+03  0.40672165922E+03  0.00000000000E+00 0.  1.
         -3    1    5    5    0  502 -0.10648648823E+03  0.35705343240E+03  0.11965140745E+04  0.12531849250E+04  0.00000000000E+00 0.  1.
<mgrwt>
<rscale>  0 0.13998334E+04</rscale>
<asrwt>0</asrwt>
<pdfrwt beam="1">  1        1 0.59869083E+00 0.13998334E+04</pdfrwt>
<pdfrwt beam="2">  1       -1 0.19367048E-01 0.13998334E+04</pdfrwt>
<totfact> 0.25631950E+00</totfact>
</mgrwt>
</event>
<event>
12    1  0.2045212E-008  0.1510455E+04  0.7818608E-02  0.8877530E-01
         -2   -1    0    0    0  501 -0.00000000000E+00  0.00000000000E+00  0.80351094161E+03  0.80351094161E+03  0.00000000000E+00 0.  1.
          2   -1    0    0  501    0  0.00000000000E+00 -0.00000000000E+00 -0.70984571607E+03  0.70984571607E+03  0.00000000000E+00 0. -1.
         23    2    1    2    0    0 -0.30246550610E+02  0.21486049464E+03  0.45003858669E+03  0.51151948710E+03  0.10971586117E+03 0.  0.
        254    2    1    2    0    0  0.30246550610E+02 -0.21486049464E+03 -0.35637336114E+03  0.10018371706E+04  0.91082152909E+03 0.  0.
        -24    2    4    4    0    0  0.99577425399E+02  0.29788517777E+02  0.27832320737E+03  0.31346755036E+03  0.99975386637E+02 0.  0.
         24    2    4    4    0    0 -0.69330874789E+02 -0.24464901241E+03 -0.63469656850E+03  0.68836962022E+03  0.79706276379E+02 0.  0.
         11    1    3    3    0    0  0.11677971577E+02  0.10476934013E+03  0.11324363538E+03  0.15471622606E+03  0.00000000000E+00 0.  1.
        -11    1    3    3    0    0 -0.41924522187E+02  0.11009115450E+03  0.33679495131E+03  0.35680326103E+03  0.00000000000E+00 0. -1.
          2    1    6    6  502    0 -0.40525370672E+02 -0.31328358540E+02 -0.12068680688E+03  0.13110712060E+03  0.00000000000E+00 0. -1.
          3    1    5    5  503    0  0.10453716133E+02  0.28493492918E+02  0.12020987558E+02  0.32644501245E+02  0.00000000000E+00 0. -1.
         -4    1    5    5    0  503  0.89123709265E+02  0.12950248586E+01  0.26630221981E+03  0.28082304912E+03  0.00000000000E+00 0.  1.
         -1    1    6    6    0  502 -0.28805504117E+02 -0.21332065387E+03 -0.51400976162E+03  0.55726249962E+03  0.00000000000E+00 0.  1.
<mgrwt>
<rscale>  0 0.15104553E+04</rscale>
<asrwt>0</asrwt>
<pdfrwt beam="1">  1        2 0.10920703E+00 0.15104553E+04</pdfrwt>
<pdfrwt beam="2">  1       -2 0.12361707E+00 0.15104553E+04</pdfrwt>
<totfact> 0.19156850E+01</totfact>
</mgrwt>
</event>
<event>
11    1  0.2045212E-008  0.2117686E+04  0.7818608E-02  0.8553492E-01
          2   -1    0    0  501    0  0.00000000000E+00  0.00000000000E+00  0.20925977246E+04  0.20925977246E+04  0.00000000000E+00 0. -1.
         -2   -1    0    0    0  501 -0.00000000000E+00 -0.00000000000E+00 -0.53576869983E+03  0.53576869983E+03  0.00000000000E+00 0.  1.
         23    2    1    2    0    0 -0.85637224980E+03 -0.47647983189E+02  0.81267731774E+03  0.11850859730E+04  0.91326777127E+02 0.  0.
        254    2    1    2    0    0  0.85637224980E+03  0.47647983189E+02  0.74415170705E+03  0.14432804514E+04  0.89087200973E+03 0.  0.
         24    2    4    4    0    0  0.25116636513E+03  0.43474716986E+03  0.27535931354E+03  0.57817091794E+03  0.79807356317E+02 0.  0.
         11    1    3    3    0    0 -0.23869439224E+02  0.87410395025E+01  0.42725040071E+02  0.49715037459E+02  0.00000000000E+00 0.  1.
        -11    1    3    3    0    0 -0.83250281058E+03 -0.56389022692E+02  0.76995227767E+03  0.11353709356E+04  0.00000000000E+00 0. -1.
          4    1    5    5  502    0  0.12451325014E+03  0.14202079014E+03  0.89339748757E+02  0.20893789747E+03  0.00000000000E+00 0. -1.
          1    1    4    4  503    0  0.99443681089E+02 -0.18290264807E+02  0.67346422024E+02  0.12148711888E+03  0.00000000000E+00 0. -1.
         -2    1    4    4    0  503  0.50576220358E+03 -0.36880892187E+03  0.40144597148E+03  0.74362241456E+03  0.00000000000E+00 0.  1.
         -3    1    5    5    0  502  0.12665311499E+03  0.29272637972E+03  0.18601956479E+03  0.36923302047E+03  0.00000000000E+00 0.  1.
<mgrwt>
<rscale>  0 0.21176859E+04</rscale>
<asrwt>0</asrwt>
<pdfrwt beam="1">  1        2 0.32193811E+00 0.21176859E+04</pdfrwt>
<pdfrwt beam="2">  1       -2 0.82425955E-01 0.21176859E+04</pdfrwt>
<totfact> 0.70527663E+00</totfact>
</mgrwt>
</event>
<event>
12    1  0.2045212E-008  0.1923206E+04  0.7818608E-02  0.8643391E-01
          2   -1    0    0  501    0  0.00000000000E+00  0.00000000000E+00  0.70389048526E+03  0.70389048526E+03  0.00000000000E+00 0.  1.
         -2   -1    0    0    0  501 -0.00000000000E+00 -0.00000000000E+00 -0.13136713088E+04  0.13136713088E+04  0.00000000000E+00 0. -1.
         23    2    1    2    0    0  0.72301787861E+00  0.10923216009E+03 -0.10180514400E+04  0.10279024861E+04  0.90678547124E+02 0.  0.
        254    2    1    2    0    0 -0.72301787861E+00 -0.10923216009E+03  0.40827061646E+03  0.98965930796E+03  0.89487902088E+03 0.  0.
        -24    2    4    4    0    0  0.13679293298E+03 -0.16808338179E+03 -0.23375277162E+03  0.32464839338E+03  0.61578334974E+02 0.  0.
         24    2    4    4    0    0 -0.13751595086E+03  0.58851221704E+02  0.64202338808E+03  0.66501091458E+03  0.87586429529E+02 0.  0.
         13    1    3    3    0    0 -0.10083757633E+02  0.11946756518E+03 -0.97514412893E+03  0.98248677013E+03  0.00000000000E+00 0. -1.
        -13    1    3    3    0    0  0.10806775512E+02 -0.10235405090E+02 -0.42907311058E+02  0.45415715965E+02  0.00000000000E+00 0.  1.
          2    1    6    6  502    0 -0.99582361643E+02  0.20623682774E+02  0.25950355921E+03  0.27871864000E+03  0.00000000000E+00 0. -1.
          1    1    5    5  503    0  0.12286677077E+03 -0.15264990219E+03 -0.23215465771E+03  0.30379931056E+03  0.00000000000E+00 0. -1.
         -2    1    5    5    0  503  0.13926162210E+02 -0.15433479599E+02 -0.15981139047E+01  0.20849082821E+02  0.00000000000E+00 0.  1.
         -1    1    6    6    0  502 -0.37933589212E+02  0.38227538929E+02  0.38251982887E+03  0.38629227458E+03  0.00000000000E+00 0.  1.
<mgrwt>
<rscale>  0 0.19232064E+04</rscale>
<asrwt>0</asrwt>
<pdfrwt beam="1">  1        2 0.10829084E+00 0.19232064E+04</pdfrwt>
<pdfrwt beam="2">  1       -2 0.20210328E+00 0.19232064E+04</pdfrwt>
<totfact> 0.48971716E+00</totfact>
</mgrwt>
</event>
<event>
11    1  0.2045212E-008  0.1627616E+04  0.7818608E-02  0.8803760E-01
         -2   -1    0    0    0  501 -0.00000000000E+00  0.00000000000E+00  0.16759978759E+04  0.16759978759E+04  0.00000000000E+00 0.  1.
          2   -1    0    0  501    0  0.00000000000E+00 -0.00000000000E+00 -0.39515748384E+03  0.39515748384E+03  0.00000000000E+00 0. -1.
         23    2    1    2    0    0  0.18542846355E+02  0.46288300516E+03  0.85234649889E+03  0.97429566981E+03  0.90293878157E+02 0.  0.
        254    2    1    2    0    0 -0.18542846355E+02 -0.46288300516E+03  0.42849389321E+03  0.10968596900E+04  0.89715642411E+03 0.  0.
         24    2    4    4    0    0 -0.32957724530E+03 -0.50520155584E+03  0.41465143834E+03  0.73684642363E+03  0.84599432976E+02 0.  0.
         13    1    3    3    0    0  0.40916127991E+02  0.36593531017E+03  0.72031565081E+03  0.80897306356E+03  0.00000000000E+00 0.  1.
        -13    1    3    3    0    0 -0.22373281636E+02  0.96947694991E+02  0.13203084808E+03  0.16532260626E+03  0.00000000000E+00 0. -1.
          4    1    5    5  502    0 -0.33002621184E+03 -0.48261276270E+03  0.40910596075E+03  0.71358255748E+03  0.00000000000E+00 0. -1.
          1    1    4    4  503    0  0.16238016006E+03  0.10653952224E+03 -0.17772182712E+02  0.19502265679E+03  0.00000000000E+00 0. -1.
         -2    1    4    4    0  503  0.14865423889E+03 -0.64220971570E+02  0.31614637581E+02  0.16499060954E+03  0.00000000000E+00 0.  1.
         -3    1    5    5    0  502  0.44896654164E+00 -0.22588793140E+02  0.55454775888E+01  0.23263866149E+02  0.00000000000E+00 0.  1.
<mgrwt>
<rscale>  0 0.16276156E+04</rscale>
<asrwt>0</asrwt>
<pdfrwt beam="1">  1        2 0.60793460E-01 0.16276156E+04</pdfrwt>
<pdfrwt beam="2">  1       -2 0.25784582E+00 0.16276156E+04</pdfrwt>
<totfact> 0.44394110E+00</totfact>
</mgrwt>
</event>
<event>
12    1  0.2045212E-008  0.1429873E+04  0.7818608E-02  0.8932474E-01
          1   -1    0    0  501    0  0.00000000000E+00  0.00000000000E+00  0.72942585051E+03  0.72942585051E+03  0.00000000000E+00 0. -1.
         -1   -1    0    0    0  501 -0.00000000000E+00 -0.00000000000E+00 -0.70073509704E+03  0.70073509704E+03  0.00000000000E+00 0.  1.
         23    2    1    2    0    0 -0.25064446728E+03 -0.34132793238E+03  0.82210083945E-01  0.43365772652E+03  0.93443087580E+02 0.  0.
        254    2    1    2    0    0  0.25064446728E+03  0.34132793238E+03  0.28608543394E+02  0.99650322103E+03  0.90159459535E+03 0.  0.
        -24    2    4    4    0    0  0.47834304893E+02 -0.29996669039E+03  0.21453071864E+02  0.31910066193E+03  0.95377471568E+02 0.  0.
         24    2    4    4    0    0  0.20281016238E+03  0.64129462277E+03  0.71554715306E+01  0.67740255910E+03  0.80201441030E+02 0.  0.
         11    1    3    3    0    0 -0.19296511469E+03 -0.22391092754E+03 -0.36469122634E+02  0.29782819857E+03  0.00000000000E+00 0.  1.
        -11    1    3    3    0    0 -0.57679352589E+02 -0.11741700483E+03  0.36551332718E+02  0.13582952795E+03  0.00000000000E+00 0. -1.
          2    1    6    6  502    0  0.18246875300E+03  0.46146689386E+03  0.11714589429E+02  0.49637059900E+03  0.00000000000E+00 0. -1.
          3    1    5    5  503    0 -0.91950864349E+01 -0.17344106277E+03 -0.18533600387E+02  0.17467067931E+03  0.00000000000E+00 0. -1.
         -4    1    5    5    0  503  0.57029391328E+02 -0.12652562762E+03  0.39986672251E+02  0.14442998262E+03  0.00000000000E+00 0.  1.
         -1    1    6    6    0  502  0.20341409388E+02  0.17982772891E+03 -0.45591178989E+01  0.18103196010E+03  0.00000000000E+00 0.  1.
<mgrwt>
<rscale>  0 0.14298731E+04</rscale>
<asrwt>0</asrwt>
<pdfrwt beam="1">  1        1 0.11221936E+00 0.14298731E+04</pdfrwt>
<pdfrwt beam="2">  1       -1 0.10780540E+00 0.14298731E+04</pdfrwt>
<totfact> 0.19920443E+01</totfact>
</mgrwt>
</event>
<event>
12    1  0.2045212E-008  0.2908060E+04  0.7818608E-02  0.8270483E-01
         -2   -1    0    0    0  501 -0.00000000000E+00  0.00000000000E+00  0.78383037996E+03  0.78383037996E+03  0.00000000000E+00 0.  1.
          2   -1    0    0  501    0  0.00000000000E+00 -0.00000000000E+00 -0.26972716142E+04  0.26972716142E+04  0.00000000000E+00 0. -1.
         23    2    1    2    0    0  0.58189556626E+03 -0.10163575391E+03  0.53719241335E+03  0.80361755866E+03  0.91067091341E+02 0.  0.
        254    2    1    2    0    0 -0.58189556626E+03  0.10163575391E+03 -0.24506336476E+04  0.26774844355E+04  0.90243301753E+03 0.  0.
        -24    2    4    4    0    0  0.24234605948E+02 -0.29726420153E+03 -0.41470970959E+03  0.51463418834E+03  0.62537052530E+02 0.  0.
         24    2    4    4    0    0 -0.60613017221E+03  0.39889995544E+03 -0.20359239380E+04  0.21628502472E+04  0.80124591859E+02 0.  0.
         13    1    3    3    0    0  0.39960664618E+03 -0.11085384728E+03  0.38744133407E+03  0.56752518400E+03  0.00000000000E+00 0.  1.
        -13    1    3    3    0    0  0.18228892007E+03  0.92180933654E+01  0.14975107928E+03  0.23609237466E+03  0.00000000000E+00 0. -1.
          2    1    6    6  502    0 -0.56907079611E+03  0.35137973366E+03 -0.18349760567E+04  0.19530607816E+04  0.00000000000E+00 0. -1.
          1    1    5    5  503    0  0.35878972994E+02 -0.92040091754E+02 -0.12251633437E+03  0.15738148360E+03  0.00000000000E+00 0. -1.
         -2    1    5    5    0  503 -0.11644367046E+02 -0.20522410977E+03 -0.29219337523E+03  0.35725270474E+03  0.00000000000E+00 0.  1.
         -1    1    6    6    0  502 -0.37059376099E+02  0.47520221779E+02 -0.20094788138E+03  0.20978946558E+03  0.00000000000E+00 0.  1.
<mgrwt>
<rscale>  0 0.29080601E+04</rscale>
<asrwt>0</asrwt>
<pdfrwt beam="1">  1        2 0.41496486E+00 0.29080601E+04</pdfrwt>
<pdfrwt beam="2">  1       -2 0.12058929E+00 0.29080601E+04</pdfrwt>
<totfact> 0.12055276E+00</totfact>
</mgrwt>
</event>
<event>
12    1  0.2045212E-008  0.1013109E+04  0.7818608E-02  0.9294283E-01
         -1   -1    0    0    0  501 -0.00000000000E+00  0.00000000000E+00  0.26662573192E+03  0.26662573192E+03  0.00000000000E+00 0.  1.
          1   -1    0    0  501    0  0.00000000000E+00 -0.00000000000E+00 -0.96238860743E+03  0.96238860743E+03  0.00000000000E+00 0. -1.
         23    2    1    2    0    0 -0.37343656280E+02  0.14806422439E+02 -0.10473027681E+02  0.97381717534E+02  0.88089362532E+02 0.  0.
        254    2    1    2    0    0  0.37343656280E+02 -0.14806422439E+02 -0.68528984782E+03  0.11316326218E+04  0.89964239363E+03 0.  0.
        -24    2    4    4    0    0 -0.37579124399E+03  0.14284260365E+03 -0.49419715908E+03  0.64403416802E+03  0.94478087693E+02 0.  0.
         24    2    4    4    0    0  0.41313490027E+03 -0.15764902609E+03 -0.19109268874E+03  0.48759845380E+03  0.75512748617E+02 0.  0.
         13    1    3    3    0    0  0.25075635938E+02  0.17009121939E+02 -0.16728191355E+02  0.34611127298E+02  0.00000000000E+00 0. -1.
        -13    1    3    3    0    0 -0.62419292217E+02 -0.22026994992E+01  0.62551636740E+01  0.62770590236E+02  0.00000000000E+00 0.  1.
          4    1    6    6  502    0  0.24210953035E+01 -0.68247472454E+01  0.42977807086E+01  0.84207954762E+01  0.00000000000E+00 0. -1.
          1    1    5    5  503    0 -0.11119286098E+02 -0.86675674293E+01 -0.41841955320E+01  0.14706214357E+02  0.00000000000E+00 0. -1.
         -2    1    5    5    0  503 -0.36467195790E+03  0.15151017108E+03 -0.49001296355E+03  0.62932795366E+03  0.00000000000E+00 0.  1.
         -3    1    6    6    0  502  0.41071380497E+03 -0.15082427884E+03 -0.19539046945E+03  0.47917765832E+03  0.00000000000E+00 0.  1.
<mgrwt>
<rscale>  0 0.10131092E+04</rscale>
<asrwt>0</asrwt>
<pdfrwt beam="1">  1        1 0.14805978E+00 0.10131092E+04</pdfrwt>
<pdfrwt beam="2">  1       -1 0.41019344E-01 0.10131092E+04</pdfrwt>
<totfact> 0.94315880E+01</totfact>
</mgrwt>
</event>
<event>
11    1  0.2045212E-008  0.1408556E+04  0.7818608E-02  0.8947648E-01
         -2   -1    0    0    0  501 -0.00000000000E+00  0.00000000000E+00  0.32489397117E+03  0.32489397117E+03  0.00000000000E+00 0.  1.
          2   -1    0    0  501    0  0.00000000000E+00 -0.00000000000E+00 -0.15266754524E+04  0.15266754524E+04  0.00000000000E+00 0. -1.
         23    2    1    2    0    0  0.24911692888E+03  0.14330101610E+03 -0.75018465339E+03  0.80871688988E+03  0.93013807179E+02 0.  0.
        254    2    1    2    0    0 -0.24911692888E+03 -0.14330101610E+03 -0.45159682785E+03  0.10428525337E+04  0.89499010423E+03 0.  0.
         24    2    4    4    0    0  0.11147067604E+03 -0.74030705485E+02  0.21910653047E+03  0.26911328295E+03  0.80672364523E+02 0.  0.
         11    1    3    3    0    0  0.19008819194E+03  0.15015495626E+03 -0.61845117640E+03  0.66420018759E+03  0.00000000000E+00 0. -1.
        -11    1    3    3    0    0  0.59028736944E+02 -0.68539401640E+01 -0.13173347699E+03  0.14451670229E+03  0.00000000000E+00 0.  1.
          4    1    5    5  502    0 -0.12049597345E+02 -0.91298856287E+01  0.11594404396E+02  0.19051976828E+02  0.00000000000E+00 0. -1.
          1    1    4    4  503    0 -0.69084726390E+01  0.12905242712E+02 -0.50334304820E+01  0.15479266975E+02  0.00000000000E+00 0. -1.
         -2    1    4    4    0  503 -0.35367913228E+03 -0.82175553326E+02 -0.66566992784E+03  0.75825998378E+03  0.00000000000E+00 0.  1.
         -3    1    5    5    0  502  0.12352027339E+03 -0.64900819856E+02  0.20751212607E+03  0.25006130613E+03  0.00000000000E+00 0.  1.
<mgrwt>
<rscale>  0 0.14085562E+04</rscale>
<asrwt>0</asrwt>
<pdfrwt beam="1">  1        2 0.23487314E+00 0.14085562E+04</pdfrwt>
<pdfrwt beam="2">  1       -2 0.49983688E-01 0.14085562E+04</pdfrwt>
<totfact> 0.45153547E+01</totfact>
</mgrwt>
</event>
<event>
11    1  0.2045212E-008  0.2406463E+04  0.7818608E-02  0.8437088E-01
          2   -1    0    0  501    0  0.00000000000E+00  0.00000000000E+00  0.23091291132E+04  0.23091291132E+04  0.00000000000E+00 0.  1.
         -2   -1    0    0    0  501 -0.00000000000E+00 -0.00000000000E+00 -0.62697483140E+03  0.62697483140E+03  0.00000000000E+00 0. -1.
         23    2    1    2    0    0  0.63034822006E+03  0.16148080082E+03  0.17269058063E+04  0.18477481829E+04  0.92491925622E+02 0.  0.
        254    2    1    2    0    0 -0.63034822006E+03 -0.16148080082E+03 -0.44751524474E+02  0.10883557616E+04  0.87126381618E+03 0.  0.
         24    2    4    4    0    0 -0.30112191201E+03  0.32220508779E+03 -0.16089897034E+03  0.47689584869E+03  0.83968132948E+02 0.  0.
         11    1    3    3    0    0  0.36385529896E+03  0.10752934898E+03  0.11256102645E+04  0.11878348820E+04  0.00000000000E+00 0.  1.
        -11    1    3    3    0    0  0.26649292110E+03  0.53951451837E+02  0.60129554179E+03  0.65991330092E+03  0.00000000000E+00 0. -1.
          4    1    5    5  502    0 -0.29221863453E+03  0.27626375087E+03 -0.14378441094E+03  0.42706831683E+03  0.00000000000E+00 0. -1.
          1    1    4    4  503    0 -0.28539750044E+03 -0.32959401378E+03  0.52740747326E+02  0.43916458601E+03  0.00000000000E+00 0. -1.
         -2    1    4    4    0  503 -0.43828807606E+02 -0.15409187482E+03  0.63406698540E+02  0.17229532693E+03  0.00000000000E+00 0.  1.
         -3    1    5    5    0  502 -0.89032774842E+01  0.45941336920E+02 -0.17114559402E+02  0.49827531862E+02  0.00000000000E+00 0.  1.
<mgrwt>
<rscale>  0 0.24064628E+04</rscale>
<asrwt>0</asrwt>
<pdfrwt beam="1">  1        2 0.35525063E+00 0.24064628E+04</pdfrwt>
<pdfrwt beam="2">  1       -2 0.96457668E-01 0.24064628E+04</pdfrwt>
<totfact> 0.36204128E+00</totfact>
</mgrwt>
</event>
<event>
12    1  0.2045212E-008  0.1184884E+04  0.7818608E-02  0.9126191E-01
          2   -1    0    0  501    0  0.00000000000E+00  0.00000000000E+00  0.28865135311E+03  0.28865135311E+03  0.00000000000E+00 0.  1.
         -2   -1    0    0    0  501 -0.00000000000E+00 -0.00000000000E+00 -0.12159572206E+04  0.12159572206E+04  0.00000000000E+00 0. -1.
         23    2    1    2    0    0 -0.49016395322E+02  0.21726923727E+03 -0.24213273313E+03  0.34141776173E+03  0.91264993824E+02 0.  0.
        254    2    1    2    0    0  0.49016395322E+02 -0.21726923727E+03 -0.68517313435E+03  0.11631908120E+04  0.91320431042E+03 0.  0.
        -24    2    4    4    0    0 -0.13910561611E+03 -0.28703017846E+03 -0.83570947634E+03  0.90008059678E+03  0.99990279880E+02 0.  0.
         24    2    4    4    0    0  0.18812201143E+03  0.69760941197E+02  0.15053634199E+03  0.26311021520E+03  0.79431196529E+02 0.  0.
         11    1    3    3    0    0 -0.47875636035E+02  0.14276552657E+03 -0.21422202797E+03  0.26184947846E+03  0.00000000000E+00 0.  1.
        -11    1    3    3    0    0 -0.11407592869E+01  0.74503710694E+02 -0.27910705154E+02  0.79568283261E+02  0.00000000000E+00 0. -1.
          2    1    6    6  502    0  0.85415016866E+01  0.26420939385E+02  0.37048639882E+02  0.46299298117E+02  0.00000000000E+00 0. -1.
          3    1    5    5  503    0  0.14071629964E+02 -0.45395508147E+02 -0.13978786470E+03  0.14764623275E+03  0.00000000000E+00 0. -1.
         -4    1    5    5    0  503 -0.15317724607E+03 -0.24163467032E+03 -0.69592161164E+03  0.75243436402E+03  0.00000000000E+00 0.  1.
         -1    1    6    6    0  502  0.17958050974E+03  0.43340001811E+02  0.11348770211E+03  0.21681091708E+03  0.00000000000E+00 0.  1.
<mgrwt>
<rscale>  0 0.11848843E+04</rscale>
<asrwt>0</asrwt>
<pdfrwt beam="1">  1        2 0.44407901E-01 0.11848843E+04</pdfrwt>
<pdfrwt beam="2">  1       -2 0.18707034E+00 0.11848843E+04</pdfrwt>
<totfact> 0.18347268E+01</totfact>
</mgrwt>
</event>
<event>
11    1  0.2045212E-008  0.1543162E+04  0.7818608E-02  0.8856247E-01
         -2   -1    0    0    0  501 -0.00000000000E+00  0.00000000000E+00  0.76038874792E+03  0.76038874792E+03  0.00000000000E+00 0.  1.
          2   -1    0    0  501    0  0.00000000000E+00 -0.00000000000E+00 -0.78293791645E+03  0.78293791645E+03  0.00000000000E+00 0. -1.
         23    2    1    2    0    0  0.19650687447E+02  0.44225852641E+03  0.28133207355E+03  0.53257352002E+03  0.92239172401E+02 0.  0.
        254    2    1    2    0    0 -0.19650687447E+02 -0.44225852641E+03 -0.30388124208E+03  0.10107531443E+04  0.85632899976E+03 0.  0.
         24    2    4    4    0    0 -0.36167905026E+03 -0.25797223522E+03 -0.26793946021E+03  0.52473968330E+03  0.78732276452E+02 0.  0.
         11    1    3    3    0    0 -0.75912517239E+01  0.33235689938E+02  0.53910214761E+02  0.63785182009E+02  0.00000000000E+00 0. -1.
        -11    1    3    3    0    0  0.27241939171E+02  0.40902283647E+03  0.22742185879E+03  0.46878833801E+03  0.00000000000E+00 0.  1.
          2    1    5    5  502    0 -0.20955829591E+03 -0.15030468481E+03 -0.20007957662E+03  0.32640161556E+03  0.00000000000E+00 0. -1.
          1    1    4    4  503    0  0.32974031054E+03 -0.11959502619E+03 -0.12751958424E+03  0.37321962308E+03  0.00000000000E+00 0. -1.
         -2    1    4    4    0  503  0.12288052267E+02 -0.64691264995E+02  0.91577802371E+02  0.11279383796E+03  0.00000000000E+00 0.  1.
         -1    1    5    5    0  502 -0.15212075434E+03 -0.10766755042E+03 -0.67859883589E+02  0.19833806774E+03  0.00000000000E+00 0.  1.
<mgrwt>
<rscale>  0 0.15431619E+04</rscale>
<asrwt>0</asrwt>
<pdfrwt beam="1">  1        2 0.12045199E+00 0.15431619E+04</pdfrwt>
<pdfrwt beam="2">  1       -2 0.11698288E+00 0.15431619E+04</pdfrwt>
<totfact> 0.19303432E+01</totfact>
</mgrwt>
</event>
<event>
12    1  0.2045212E-008  0.1709107E+04  0.7818608E-02  0.8756187E-01
          1   -1    0    0  501    0  0.00000000000E+00  0.00000000000E+00  0.10970720401E+04  0.10970720401E+04  0.00000000000E+00 0. -1.
         -1   -1    0    0    0  501 -0.00000000000E+00 -0.00000000000E+00 -0.66564632953E+03  0.66564632953E+03  0.00000000000E+00 0.  1.
         23    2    1    2    0    0 -0.57681539307E+03  0.21566244719E+03  0.15832059955E+03  0.64267201572E+03  0.93464531986E+02 0.  0.
        254    2    1    2    0    0  0.57681539307E+03 -0.21566244719E+03  0.27310511104E+03  0.11200463539E+04  0.89481346910E+03 0.  0.
        -24    2    4    4    0    0  0.44320314566E+03 -0.51063514692E+03  0.36529001246E+03  0.77413894560E+03  0.93150589357E+02 0.  0.
         24    2    4    4    0    0  0.13361224741E+03  0.29497269973E+03 -0.92184901421E+02  0.34590740833E+03  0.79326873426E+02 0.  0.
         13    1    3    3    0    0 -0.25859871546E+03  0.12503577116E+03  0.34125245851E+02  0.28926073379E+03  0.00000000000E+00 0. -1.
        -13    1    3    3    0    0 -0.31821667761E+03  0.90626676030E+02  0.12419535370E+03  0.35341128193E+03  0.00000000000E+00 0.  1.
          2    1    6    6  502    0  0.36007605346E+02  0.30313355347E+02  0.54992158126E+01  0.47388696223E+02  0.00000000000E+00 0. -1.
          3    1    5    5  503    0  0.18051213622E+03 -0.26381377558E+03  0.20428235205E+03  0.37935948501E+03  0.00000000000E+00 0. -1.
         -4    1    5    5    0  503  0.26269100944E+03 -0.24682137134E+03  0.16100766041E+03  0.39477946059E+03  0.00000000000E+00 0.  1.
         -1    1    6    6    0  502  0.97604642062E+02  0.26465934438E+03 -0.97684117234E+02  0.29851871211E+03  0.00000000000E+00 0.  1.
<mgrwt>
<rscale>  0 0.17091073E+04</rscale>
<asrwt>0</asrwt>
<pdfrwt beam="1">  1        1 0.16878031E+00 0.17091073E+04</pdfrwt>
<pdfrwt beam="2">  1       -1 0.10240713E+00 0.17091073E+04</pdfrwt>
<totfact> 0.10935271E+01</totfact>
</mgrwt>
</event>
<event>
12    1  0.2045212E-008  0.2807264E+04  0.7818608E-02  0.8301017E-01
         -2   -1    0    0    0  501 -0.00000000000E+00  0.00000000000E+00  0.10607350992E+04  0.10607350992E+04  0.00000000000E+00 0.  1.
          2   -1    0    0  501    0  0.00000000000E+00 -0.00000000000E+00 -0.18573754805E+04  0.18573754805E+04  0.00000000000E+00 0. -1.
         23    2    1    2    0    0 -0.26941197908E+02 -0.12197153769E+04 -0.49336895028E+02  0.12240288374E+04  0.85912960310E+02 0.  0.
        254    2    1    2    0    0  0.26941197908E+02  0.12197153769E+04 -0.74730348625E+03  0.16940817422E+04  0.90720395720E+03 0.  0.
        -24    2    4    4    0    0 -0.87597575903E+02 -0.95502354762E+02  0.44278052988E+02  0.15259455489E+03  0.67309116302E+02 0.  0.
         24    2    4    4    0    0  0.11453877381E+03  0.13152177317E+04 -0.79158153924E+03  0.15414871873E+04  0.81637019996E+02 0.  0.
         11    1    3    3    0    0  0.17257928835E+02 -0.17550453494E+03 -0.28757766164E+02  0.17868040465E+03  0.00000000000E+00 0. -1.
        -11    1    3    3    0    0 -0.44199126743E+02 -0.10442108420E+04 -0.20579128865E+02  0.10453484328E+04  0.00000000000E+00 0.  1.
          2    1    6    6  502    0  0.34145760532E+02  0.83897565353E+03 -0.51000559697E+03  0.98242139081E+03  0.00000000000E+00 0. -1.
          1    1    5    5  503    0 -0.62175172424E+02 -0.87491053226E+02  0.80738537859E+01  0.10763653458E+03  0.00000000000E+00 0. -1.
         -2    1    5    5    0  503 -0.25422403479E+02 -0.80113015363E+01  0.36204199202E+02  0.44958020317E+02  0.00000000000E+00 0.  1.
         -1    1    6    6    0  502  0.80393013279E+02  0.47624207815E+03 -0.28157594227E+03  0.55906579653E+03  0.00000000000E+00 0.  1.
<mgrwt>
<rscale>  0 0.28072644E+04</rscale>
<asrwt>0</asrwt>
<pdfrwt beam="1">  1        2 0.28575007E+00 0.28072644E+04</pdfrwt>
<pdfrwt beam="2">  1       -2 0.16319002E+00 0.28072644E+04</pdfrwt>
<totfact> 0.16644000E+00</totfact>
</mgrwt>
</event>
<event>
11    1  0.2045212E-008  0.1848529E+04  0.7818608E-02  0.8680910E-01
         -1   -1    0    0    0  501 -0.00000000000E+00  0.00000000000E+00  0.20395220989E+04  0.20395220989E+04  0.00000000000E+00 0.  1.
          1   -1    0    0  501    0  0.00000000000E+00 -0.00000000000E+00 -0.41885541574E+03  0.41885541574E+03  0.00000000000E+00 0. -1.
         23    2    1    2    0    0 -0.53053247448E+03 -0.26092523976E+03  0.11206649163E+04  0.12703910442E+04  0.91961205178E+02 0.  0.
        254    2    1    2    0    0  0.53053247448E+03  0.26092523976E+03  0.50000176681E+03  0.11879864704E+04  0.90097913399E+03 0.  0.
         24    2    4    4    0    0  0.21457365449E+03 -0.42020560242E+02 -0.22803787743E+03  0.32588962426E+03  0.79969950456E+02 0.  0.
         11    1    3    3    0    0 -0.30148559074E+03 -0.10404478287E+03  0.55008973839E+03  0.63585973182E+03  0.00000000000E+00 0.  1.
        -11    1    3    3    0    0 -0.22904688374E+03 -0.15688045689E+03  0.57057517793E+03  0.63453131237E+03  0.00000000000E+00 0. -1.
          4    1    5    5  502    0  0.34772073164E+02 -0.39513354096E+02 -0.44228373707E+02  0.68749918289E+02  0.00000000000E+00 0. -1.
          1    1    4    4  503    0  0.65464183985E+02  0.48529173614E+02  0.49472938790E+02  0.95332112895E+02  0.00000000000E+00 0. -1.
         -2    1    4    4    0  503  0.25049463601E+03  0.25441662639E+03  0.67856670544E+03  0.76676473327E+03  0.00000000000E+00 0.  1.
         -3    1    5    5    0  502  0.17980158132E+03 -0.25072061465E+01 -0.18380950372E+03  0.25713970597E+03  0.00000000000E+00 0.  1.
<mgrwt>
<rscale>  0 0.18485290E+04</rscale>
<asrwt>0</asrwt>
<pdfrwt beam="1">  1        1 0.64439296E-01 0.18485290E+04</pdfrwt>
<pdfrwt beam="2">  1       -1 0.31377263E+00 0.18485290E+04</pdfrwt>
<totfact> 0.14264163E+00</totfact>
</mgrwt>
</event>
<event>
11    1  0.2045212E-008  0.1253896E+04  0.7818608E-02  0.9066947E-01
          2   -1    0    0  501    0  0.00000000000E+00  0.00000000000E+00  0.14726042439E+04  0.14726042439E+04  0.00000000000E+00 0. -1.
         -2   -1    0    0    0  501 -0.00000000000E+00 -0.00000000000E+00 -0.26691758625E+03  0.26691758625E+03  0.00000000000E+00 0.  1.
         23    2    1    2    0    0 -0.17912269141E+03  0.11775287462E+03  0.72215103051E+01  0.23407243482E+03  0.93739407252E+02 0.  0.
        254    2    1    2    0    0  0.17912269141E+03 -0.11775287462E+03  0.11984651473E+04  0.15054493953E+04  0.88549900872E+03 0.  0.
         24    2    4    4    0    0  0.25466322818E+03  0.12185549637E+03  0.52094769999E+02  0.29651426195E+03  0.74193804991E+02 0.  0.
         13    1    3    3    0    0 -0.38416093852E+02  0.54069904183E+02 -0.33556434351E+02  0.74332934098E+02  0.00000000000E+00 0.  1.
        -13    1    3    3    0    0 -0.14070659756E+03  0.63682970432E+02  0.40777944657E+02  0.15973950072E+03  0.00000000000E+00 0. -1.
          4    1    5    5  502    0  0.51753024034E+02  0.40660400568E+02 -0.15749896449E+02  0.67673502268E+02  0.00000000000E+00 0. -1.
          3    1    4    4  503    0  0.44607588652E+02  0.24356033080E+00  0.16351842075E+02  0.47510830620E+02  0.00000000000E+00 0. -1.
         -4    1    4    4    0  503 -0.12014812542E+03 -0.23985193132E+03  0.11300185352E+04  0.11614243027E+04  0.00000000000E+00 0.  1.
         -3    1    5    5    0  502  0.20291020414E+03  0.81195095801E+02  0.67844666449E+02  0.22884075968E+03  0.00000000000E+00 0.  1.
<mgrwt>
<rscale>  0 0.12538963E+04</rscale>
<asrwt>0</asrwt>
<pdfrwt beam="1">  1        2 0.22655450E+00 0.12538963E+04</pdfrwt>
<pdfrwt beam="2">  1       -2 0.41064245E-01 0.12538963E+04</pdfrwt>
<totfact> 0.72618776E+01</totfact>
</mgrwt>
</event>
<event>
11    1  0.2045212E-008  0.2259744E+04  0.7818608E-02  0.8493965E-01
         -2   -1    0    0    0  501 -0.00000000000E+00  0.00000000000E+00  0.67616629988E+03  0.67616629988E+03  0.00000000000E+00 0.  1.
          2   -1    0    0  501    0  0.00000000000E+00 -0.00000000000E+00 -0.18880121835E+04  0.18880121835E+04  0.00000000000E+00 0. -1.
         23    2    1    2    0    0 -0.12231015540E+03 -0.82913836143E+03 -0.12025405035E+02  0.84314770789E+03  0.91231850007E+02 0.  0.
        254    2    1    2    0    0  0.12231015540E+03  0.82913836143E+03 -0.11998204786E+04  0.17210307755E+04  0.90550955423E+03 0.  0.
         24    2    4    4    0    0 -0.23000747523E+03  0.57479967946E+03 -0.10931402552E+04  0.12588449375E+04  0.80229974560E+02 0.  0.
         11    1    3    3    0    0 -0.10915089830E+03 -0.81568647318E+03 -0.18732127663E+02  0.82317023375E+03  0.00000000000E+00 0. -1.
        -11    1    3    3    0    0 -0.13159257092E+02 -0.13451888248E+02  0.67067226281E+01  0.19977474142E+02  0.00000000000E+00 0.  1.
          2    1    5    5  502    0 -0.66647803130E+02  0.17547396185E+03 -0.26075703184E+03  0.32129001012E+03  0.00000000000E+00 0. -1.
          1    1    4    4  503    0  0.18603036954E+03  0.69501136842E+02 -0.23316827711E+02  0.19995344676E+03  0.00000000000E+00 0. -1.
         -2    1    4    4    0  503  0.16628726108E+03  0.18483754513E+03 -0.83363395633E+02  0.26223239124E+03  0.00000000000E+00 0.  1.
         -1    1    5    5    0  502 -0.16335967210E+03  0.39932571761E+03 -0.83238322340E+03  0.93755492735E+03  0.00000000000E+00 0.  1.
<mgrwt>
<rscale>  0 0.22597435E+04</rscale>
<asrwt>0</asrwt>
<pdfrwt beam="1">  1        2 0.29046341E+00 0.22597435E+04</pdfrwt>
<pdfrwt beam="2">  1       -2 0.10402559E+00 0.22597435E+04</pdfrwt>
<totfact> 0.52722050E+00</totfact>
</mgrwt>
</event>
<event>
12    1  0.2045212E-008  0.1189774E+04  0.7818608E-02  0.9121855E-01
          2   -1    0    0  501    0  0.00000000000E+00  0.00000000000E+00  0.90717904329E+03  0.90717904329E+03  0.00000000000E+00 0. -1.
         -2   -1    0    0    0  501 -0.00000000000E+00 -0.00000000000E+00 -0.39009974491E+03  0.39009974491E+03  0.00000000000E+00 0.  1.
         23    2    1    2    0    0  0.30469657654E+02  0.22515540613E+03  0.31197199079E+02  0.24664422297E+03  0.90756545465E+02 0.  0.
        254    2    1    2    0    0 -0.30469657654E+02 -0.22515540613E+03  0.48588209930E+03  0.10506345652E+04  0.90339815048E+03 0.  0.
        -24    2    4    4    0    0 -0.68853102085E+02 -0.18986830559E+03  0.74278092077E+03  0.77695042819E+03  0.10553553177E+03 0.  0.
         24    2    4    4    0    0  0.38383444431E+02 -0.35287100538E+02 -0.25689882146E+03  0.27368413705E+03  0.78660880561E+02 0.  0.
         11    1    3    3    0    0  0.16509683378E+02  0.13384946859E+03 -0.26906730819E+02  0.13752171483E+03  0.00000000000E+00 0.  1.
        -11    1    3    3    0    0  0.13959974275E+02  0.91305937544E+02  0.58103929897E+02  0.10912250814E+03  0.00000000000E+00 0. -1.
          4    1    6    6  502    0  0.33367768549E+02  0.15850378802E+02 -0.62421178329E+02  0.72533068253E+02  0.00000000000E+00 0. -1.
          1    1    5    5  503    0 -0.94944202581E+01 -0.57030138046E+01  0.19232152621E+01  0.11241313955E+02  0.00000000000E+00 0. -1.
         -2    1    5    5    0  503 -0.59358681827E+02 -0.18416529179E+03  0.74085770551E+03  0.76570911423E+03  0.00000000000E+00 0.  1.
         -3    1    6    6    0  502  0.50156758827E+01 -0.51137479340E+02 -0.19447764314E+03  0.20115106879E+03  0.00000000000E+00 0.  1.
<mgrwt>
<rscale>  0 0.11897736E+04</rscale>
<asrwt>0</asrwt>
<pdfrwt beam="1">  1        2 0.13956601E+00 0.11897736E+04</pdfrwt>
<pdfrwt beam="2">  1       -2 0.60015346E-01 0.11897736E+04</pdfrwt>
<totfact> 0.74125341E+01</totfact>
</mgrwt>
</event>
<event>
12    1  0.2045212E-008  0.2634731E+04  0.7818608E-02  0.8356499E-01
         -2   -1    0    0    0  501 -0.00000000000E+00  0.00000000000E+00  0.89264363171E+03  0.89264363171E+03  0.00000000000E+00 0. -1.
          2   -1    0    0  501    0  0.00000000000E+00 -0.00000000000E+00 -0.19441707135E+04  0.19441707135E+04  0.00000000000E+00 0.  1.
         23    2    1    2    0    0 -0.71822120381E+03  0.54667244057E+03  0.32290825129E+03  0.96312640148E+03  0.93006836249E+02 0.  0.
        254    2    1    2    0    0  0.71822120381E+03 -0.54667244057E+03 -0.13744353331E+04  0.18736879437E+04  0.89829926570E+03 0.  0.
        -24    2    4    4    0    0 -0.12295947575E+02 -0.43394131982E+02  0.10127049285E+03  0.15007522854E+03  0.10115641593E+03 0.  0.
         24    2    4    4    0    0  0.73051715139E+03 -0.50327830859E+03 -0.14757058259E+04  0.17236127152E+04  0.78668563565E+02 0.  0.
         11    1    3    3    0    0 -0.22743680579E+03  0.17370260099E+03  0.57030258537E+02  0.29180908932E+03  0.00000000000E+00 0. -1.
        -11    1    3    3    0    0 -0.49078439802E+03  0.37296983958E+03  0.26587799275E+03  0.67131731216E+03  0.00000000000E+00 0.  1.
          4    1    6    6  502    0  0.51023903845E+03 -0.33844198989E+03 -0.10834953326E+04  0.12445276183E+04  0.00000000000E+00 0. -1.
          1    1    5    5  503    0  0.34338662126E+02 -0.36316815037E+02  0.15739725524E+02  0.52400321856E+02  0.00000000000E+00 0. -1.
         -2    1    5    5    0  503 -0.46634609701E+02 -0.70773169452E+01  0.85530767324E+02  0.97674906686E+02  0.00000000000E+00 0.  1.
         -3    1    6    6    0  502  0.22027811294E+03 -0.16483631870E+03 -0.39221049328E+03  0.47908509687E+03  0.00000000000E+00 0.  1.
<mgrwt>
<rscale>  0 0.26347308E+04</rscale>
<asrwt>0</asrwt>
<pdfrwt beam="1">  1        2 0.29910318E+00 0.26347308E+04</pdfrwt>
<pdfrwt beam="2">  1       -2 0.13732979E+00 0.26347308E+04</pdfrwt>
<totfact> 0.23900113E+00</totfact>
</mgrwt>
</event>
<event>
12    1  0.2045212E-008  0.1351779E+04  0.7818608E-02  0.8989483E-01
          2   -1    0    0  501    0  0.00000000000E+00  0.00000000000E+00  0.16371768687E+04  0.16371768687E+04  0.00000000000E+00 0. -1.
         -2   -1    0    0    0  501 -0.00000000000E+00 -0.00000000000E+00 -0.27903302974E+03  0.27903302974E+03  0.00000000000E+00 0.  1.
         23    2    1    2    0    0 -0.10962425464E+03  0.13306417827E+03 -0.85911116382E+02  0.21358159036E+03  0.92264961284E+02 0.  0.
        254    2    1    2    0    0  0.10962425464E+03 -0.13306417827E+03  0.14440549554E+04  0.17026283081E+04  0.88539532904E+03 0.  0.
        -24    2    4    4    0    0  0.18436074498E+03 -0.14918263126E+03  0.15387331469E+04  0.15595306160E+04  0.90508027745E+02 0.  0.
         24    2    4    4    0    0 -0.74736490340E+02  0.16118452997E+02 -0.94678191555E+02  0.14309769209E+03  0.75283743323E+02 0.  0.
         11    1    3    3    0    0 -0.52973942602E+02  0.50383265323E+02 -0.86625871243E+02  0.11335234267E+03  0.00000000000E+00 0.  1.
        -11    1    3    3    0    0 -0.56650312041E+02  0.82680912943E+02  0.71475486123E+00  0.10022924770E+03  0.00000000000E+00 0. -1.
          2    1    6    6  502    0 -0.69226924021E+02  0.36334643166E+02 -0.93820809993E+02  0.12212664611E+03  0.00000000000E+00 0. -1.
          1    1    5    5  503    0  0.18645607451E+03 -0.11803557034E+03  0.14033619063E+04  0.14206065267E+04  0.00000000000E+00 0. -1.
         -2    1    5    5    0  503 -0.20953295308E+01 -0.31147060924E+02  0.13537124064E+03  0.13892408935E+03  0.00000000000E+00 0.  1.
         -3    1    6    6    0  502 -0.55095663184E+01 -0.20216190169E+02 -0.85738156198E+00  0.20971045971E+02  0.00000000000E+00 0.  1.
<mgrwt>
<rscale>  0 0.13517787E+04</rscale>
<asrwt>0</asrwt>
<pdfrwt beam="1">  1        2 0.25187336E+00 0.13517787E+04</pdfrwt>
<pdfrwt beam="2">  1       -2 0.42928159E-01 0.13517787E+04</pdfrwt>
<totfact> 0.53403335E+01</totfact>
</mgrwt>
</event>
<event>
12    1  0.2045212E-008  0.1594335E+04  0.7818608E-02  0.8824036E-01
          2   -1    0    0  501    0  0.00000000000E+00  0.00000000000E+00  0.10837489306E+04  0.10837489306E+04  0.00000000000E+00 0.  1.
         -2   -1    0    0    0  501 -0.00000000000E+00 -0.00000000000E+00 -0.58636860079E+03  0.58636860079E+03  0.00000000000E+00 0. -1.
         23    2    1    2    0    0 -0.25544696876E+03  0.30029400760E+03 -0.21236457670E+03  0.45698048528E+03  0.91119732452E+02 0.  0.
        254    2    1    2    0    0  0.25544696876E+03 -0.30029400760E+03  0.70974490654E+03  0.12131370461E+04  0.90140668709E+03 0.  0.
        -24    2    4    4    0    0 -0.16567732117E+03  0.11181373896E+03 -0.80162401369E+02  0.22460021759E+03  0.63780562718E+02 0.  0.
         24    2    4    4    0    0  0.42112428992E+03 -0.41210774656E+03  0.78990730791E+03  0.98853682856E+03  0.77929737517E+02 0.  0.
         11    1    3    3    0    0 -0.77781225504E+02  0.85284057634E+02 -0.17523758597E+02  0.11674918262E+03  0.00000000000E+00 0. -1.
        -11    1    3    3    0    0 -0.17766574325E+03  0.21500994997E+03 -0.19484081810E+03  0.34023130266E+03  0.00000000000E+00 0.  1.
          4    1    6    6  502    0  0.12606467358E+03 -0.93946609354E+02  0.25747114859E+03  0.30167807293E+03  0.00000000000E+00 0. -1.
          1    1    5    5  503    0 -0.80905179348E+02  0.17304166314E+02 -0.35263264401E+02  0.89936533364E+02  0.00000000000E+00 0. -1.
         -2    1    5    5    0  503 -0.84772141818E+02  0.94509572642E+02 -0.44899136968E+02  0.13466368423E+03  0.00000000000E+00 0.  1.
         -3    1    6    6    0  502  0.29505961635E+03 -0.31816113721E+03  0.53243615932E+03  0.68685875562E+03  0.00000000000E+00 0.  1.
<mgrwt>
<rscale>  0 0.15943354E+04</rscale>
<asrwt>0</asrwt>
<pdfrwt beam="1">  1        2 0.16673060E+00 0.15943354E+04</pdfrwt>
<pdfrwt beam="2">  1       -2 0.90210554E-01 0.15943354E+04</pdfrwt>
<totfact> 0.22488927E+01</totfact>
</mgrwt>
</event>
<event>
12    1  0.2045212E-008  0.2240210E+04  0.7818608E-02  0.8501876E-01
         -1   -1    0    0    0  501 -0.00000000000E+00  0.00000000000E+00  0.84614509470E+03  0.84614509470E+03  0.00000000000E+00 0.  1.
          1   -1    0    0  501    0  0.00000000000E+00 -0.00000000000E+00 -0.14827666104E+04  0.14827666104E+04  0.00000000000E+00 0. -1.
         23    2    1    2    0    0 -0.73329368452E+03 -0.64720178693E+03 -0.14178386285E+03  0.99202298290E+03  0.86122900986E+02 0.  0.
        254    2    1    2    0    0  0.73329368452E+03  0.64720178693E+03 -0.49483765285E+03  0.13368887222E+04  0.76538707338E+03 0.  0.
        -24    2    4    4    0    0  0.85074537837E+03  0.66306483308E+03 -0.36166909385E+03  0.11421051482E+04  0.10088094147E+03 0.  0.
         24    2    4    4    0    0 -0.11745169384E+03 -0.15863046155E+02 -0.13316855900E+03  0.19478357402E+03  0.78487189927E+02 0.  0.
         13    1    3    3    0    0 -0.55415285817E+03 -0.46335790904E+03 -0.13737646671E+03  0.73529465910E+03  0.00000000000E+00 0.  1.
        -13    1    3    3    0    0 -0.17914082635E+03 -0.18384387788E+03 -0.44073961383E+01  0.25672832380E+03  0.00000000000E+00 0. -1.
          2    1    6    6  502    0 -0.86707234850E+01  0.19834399990E+01 -0.64064729254E+02  0.64679247170E+02  0.00000000000E+00 0. -1.
          1    1    5    5  503    0  0.39105159166E+02  0.55554833125E+02 -0.81829545786E+01  0.68428895231E+02  0.00000000000E+00 0. -1.
         -2    1    5    5    0  503  0.81164021920E+03  0.60750999996E+03 -0.35348613927E+03  0.10736762529E+04  0.00000000000E+00 0.  1.
         -1    1    6    6    0  502 -0.10878097036E+03 -0.17846486154E+02 -0.69103829747E+02  0.13010432685E+03  0.00000000000E+00 0.  1.
<mgrwt>
<rscale>  0 0.22402104E+04</rscale>
<asrwt>0</asrwt>
<pdfrwt beam="1">  1        1 0.22811794E+00 0.22402104E+04</pdfrwt>
<pdfrwt beam="2">  1       -1 0.13017617E+00 0.22402104E+04</pdfrwt>
<totfact> 0.30878706E+00</totfact>
</mgrwt>
</event>
<event>
12    1  0.2045212E-008  0.1722728E+04  0.7818608E-02  0.8748507E-01
         -2   -1    0    0    0  501 -0.00000000000E+00  0.00000000000E+00  0.38477567528E+03  0.38477567528E+03  0.00000000000E+00 0.  1.
          2   -1    0    0  501    0  0.00000000000E+00 -0.00000000000E+00 -0.19282606655E+04  0.19282606655E+04  0.00000000000E+00 0. -1.
         23    2    1    2    0    0  0.57789746494E+03 -0.15266157231E+03 -0.36216504398E+03  0.70486647247E+03  0.91663456641E+02 0.  0.
        254    2    1    2    0    0 -0.57789746494E+03  0.15266157231E+03 -0.11813199462E+04  0.16081698683E+04  0.91291975242E+03 0.  0.
        -24    2    4    4    0    0 -0.38071411379E+03  0.11026225576E+03 -0.41216002777E+00  0.40689134416E+03  0.91974967211E+02 0.  0.
         24    2    4    4    0    0 -0.19718335115E+03  0.42399316549E+02 -0.11809077862E+04  0.12012785242E+04  0.88588470273E+02 0.  0.
         11    1    3    3    0    0  0.25134439945E+03 -0.26426881225E+02 -0.17939424963E+03  0.30992690104E+03  0.00000000000E+00 0. -1.
        -11    1    3    3    0    0  0.32655306549E+03 -0.12623469108E+03 -0.18277079435E+03  0.39493957143E+03  0.00000000000E+00 0.  1.
          4    1    6    6  502    0 -0.15104716986E+03  0.60122175989E+02 -0.74225474314E+03  0.75985000315E+03  0.00000000000E+00 0. -1.
          3    1    5    5  503    0 -0.34394125636E+03  0.11148316027E+03 -0.25346574307E+02  0.36244521197E+03  0.00000000000E+00 0. -1.
         -4    1    5    5    0  503 -0.36772857429E+02 -0.12209045100E+01  0.24934414279E+02  0.44446132192E+02  0.00000000000E+00 0.  1.
         -3    1    6    6    0  502 -0.46136181293E+02 -0.17722859440E+02 -0.43865304307E+03  0.44142852101E+03  0.00000000000E+00 0.  1.
<mgrwt>
<rscale>  0 0.17227278E+04</rscale>
<asrwt>0</asrwt>
<pdfrwt beam="1">  1        2 0.29665550E+00 0.17227278E+04</pdfrwt>
<pdfrwt beam="2">  1       -2 0.59196256E-01 0.17227278E+04</pdfrwt>
<totfact> 0.18538436E+01</totfact>
</mgrwt>
</event>
<event>
11    1  0.2045212E-008  0.1101947E+04  0.7818608E-02  0.9203296E-01
         -1   -1    0    0    0  501 -0.00000000000E+00  0.00000000000E+00  0.23312661880E+03  0.23312661880E+03  0.00000000000E+00 0.  1.
          1   -1    0    0  501    0  0.00000000000E+00 -0.00000000000E+00 -0.13021755866E+04  0.13021755866E+04  0.00000000000E+00 0. -1.
         23    2    1    2    0    0 -0.67357325390E+02  0.72637017646E+02 -0.37050267420E+03  0.39378944253E+03  0.89357416276E+02 0.  0.
        254    2    1    2    0    0  0.67357325390E+02 -0.72637017646E+02 -0.69854629358E+03  0.11415127628E+04  0.89736910902E+03 0.  0.
         24    2    4    4    0    0 -0.86667504921E+02  0.36625473231E+03 -0.22988718676E+03  0.44853950551E+03  0.81766643661E+02 0.  0.
         11    1    3    3    0    0 -0.24902013254E+02  0.53236559974E+02 -0.78415832980E+02  0.97996349136E+02  0.00000000000E+00 0.  1.
        -11    1    3    3    0    0 -0.42455312136E+02  0.19400457671E+02 -0.29208684122E+03  0.29579309340E+03  0.00000000000E+00 0. -1.
          4    1    5    5  502    0 -0.46459029471E+02  0.67026266903E+02 -0.32316454698E+02  0.87722945223E+02  0.00000000000E+00 0. -1.
          1    1    4    4  503    0  0.14563345837E+03 -0.35803426579E+03 -0.47386978201E+03  0.61151468501E+03  0.00000000000E+00 0. -1.
         -2    1    4    4    0  503  0.83913719374E+01 -0.80857484165E+02  0.52106751899E+01  0.81458572320E+02  0.00000000000E+00 0.  1.
         -3    1    5    5    0  502 -0.40208475450E+02  0.29922846541E+03 -0.19757073206E+03  0.36081656029E+03  0.00000000000E+00 0.  1.
<mgrwt>
<rscale>  0 0.11019470E+04</rscale>
<asrwt>0</asrwt>
<pdfrwt beam="1">  1        1 0.20033471E+00 0.11019470E+04</pdfrwt>
<pdfrwt beam="2">  1       -1 0.35865634E-01 0.11019470E+04</pdfrwt>
<totfact> 0.66645680E+01</totfact>
</mgrwt>
</event>
<event>
12    1  0.2045212E-008  0.3288468E+04  0.7818608E-02  0.8165836E-01
          1   -1    0    0  501    0  0.00000000000E+00  0.00000000000E+00  0.21513123049E+04  0.21513123049E+04  0.00000000000E+00 0. -1.
         -1   -1    0    0    0  501 -0.00000000000E+00 -0.00000000000E+00 -0.12566772817E+04  0.12566772817E+04  0.00000000000E+00 0.  1.
         23    2    1    2    0    0 -0.70848894225E+03  0.11661509693E+04  0.11068293008E+04  0.17594559009E+04  0.93537700374E+02 0.  0.
        254    2    1    2    0    0  0.70848894225E+03 -0.11661509693E+04 -0.21219427769E+03  0.16485336857E+04  0.90042891836E+03 0.  0.
        -24    2    4    4    0    0  0.10575970357E+03 -0.13337132868E+03 -0.38955460557E+03  0.43710208168E+03  0.10164847700E+03 0.  0.
         24    2    4    4    0    0  0.60272923868E+03 -0.10327796406E+04  0.17736032788E+03  0.12114316040E+04  0.78698946283E+02 0.  0.
         11    1    3    3    0    0 -0.69130381873E+03  0.11031401155E+04  0.10430018066E+04  0.16681342430E+04  0.00000000000E+00 0. -1.
        -11    1    3    3    0    0 -0.17185123519E+02  0.63010853786E+02  0.63827494265E+02  0.91321657833E+02  0.00000000000E+00 0.  1.
          2    1    6    6  502    0  0.27946801984E+03 -0.54794298732E+03  0.72569401616E+02  0.61936274470E+03  0.00000000000E+00 0. -1.
          3    1    5    5  503    0  0.69302018686E+02 -0.11869751107E+03 -0.36676173390E+03  0.39167082912E+03  0.00000000000E+00 0. -1.
         -4    1    5    5    0  503  0.36457684887E+02 -0.14673817607E+02 -0.22792871668E+02  0.45431252562E+02  0.00000000000E+00 0.  1.
         -3    1    6    6    0  502  0.32326121884E+03 -0.48483665329E+03  0.10479092627E+03  0.59206885935E+03  0.00000000000E+00 0.  1.
<mgrwt>
<rscale>  0 0.32884679E+04</rscale>
<asrwt>0</asrwt>
<pdfrwt beam="1">  1        1 0.33097112E+00 0.32884679E+04</pdfrwt>
<pdfrwt beam="2">  1       -1 0.19333497E+00 0.32884679E+04</pdfrwt>
<totfact> 0.32697429E-01</totfact>
</mgrwt>
</event>
<event>
12    1  0.2045212E-008  0.2441796E+04  0.7818608E-02  0.8424019E-01
          1   -1    0    0  501    0  0.00000000000E+00  0.00000000000E+00  0.11280919317E+04  0.11280919317E+04  0.00000000000E+00 0. -1.
         -1   -1    0    0    0  501 -0.00000000000E+00 -0.00000000000E+00 -0.13213389893E+04  0.13213389893E+04  0.00000000000E+00 0.  1.
         23    2    1    2    0    0  0.43198566742E+02  0.80474470420E+03  0.59358615202E+03  0.10048247586E+04  0.88589618385E+02 0.  0.
        254    2    1    2    0    0 -0.43198566742E+02 -0.80474470420E+03 -0.78683320967E+03  0.14446061625E+04  0.90459953002E+03 0.  0.
        -24    2    4    4    0    0  0.19553153337E+03 -0.53018012094E+03 -0.89142010853E+03  0.10574500367E+04  0.65170767739E+02 0.  0.
         24    2    4    4    0    0 -0.23873010011E+03 -0.27456458326E+03  0.10458689887E+03  0.38715612580E+03  0.81078204547E+02 0.  0.
         13    1    3    3    0    0  0.68540223056E+01  0.19337717782E+01  0.54732915419E+01  0.89818714842E+01  0.00000000000E+00 0.  1.
        -13    1    3    3    0    0  0.36344544436E+02  0.80281093242E+03  0.58811286048E+03  0.99584288710E+03  0.00000000000E+00 0. -1.
          2    1    6    6  502    0 -0.22174817954E+03 -0.26494629328E+03  0.11611635053E+03  0.36448840902E+03  0.00000000000E+00 0. -1.
          3    1    5    5  503    0  0.16782328580E+03 -0.42965326340E+03 -0.76802754723E+03  0.89589781522E+03  0.00000000000E+00 0. -1.
         -4    1    5    5    0  503  0.27708247567E+02 -0.10052685754E+03 -0.12339256130E+03  0.16155222145E+03  0.00000000000E+00 0.  1.
         -1    1    6    6    0  502 -0.16981920573E+02 -0.96182899764E+01 -0.11529451660E+02  0.22667716779E+02  0.00000000000E+00 0.  1.
<mgrwt>
<rscale>  0 0.24417959E+04</rscale>
<asrwt>0</asrwt>
<pdfrwt beam="1">  1        1 0.17355261E+00 0.24417959E+04</pdfrwt>
<pdfrwt beam="2">  1       -1 0.20328292E+00 0.24417959E+04</pdfrwt>
<totfact> 0.15407597E+00</totfact>
</mgrwt>
</event>
<event>
11    1  0.2045212E-008  0.1464400E+04  0.7818608E-02  0.8908478E-01
         -2   -1    0    0    0  501 -0.00000000000E+00  0.00000000000E+00  0.20607868946E+03  0.20607868946E+03  0.00000000000E+00 0.  1.
          2   -1    0    0  501    0  0.00000000000E+00 -0.00000000000E+00 -0.26015144023E+04  0.26015144023E+04  0.00000000000E+00 0. -1.
         23    2    1    2    0    0  0.79141803921E+02  0.19559913263E+03 -0.14667746521E+04  0.14860077328E+04  0.11076396610E+03 0.  0.
        254    2    1    2    0    0 -0.79141803921E+02 -0.19559913263E+03 -0.92866106073E+03  0.13215853589E+04  0.91632638803E+03 0.  0.
         24    2    4    4    0    0 -0.48710279446E+02 -0.39016351380E+03 -0.42040186669E+02  0.40329665550E+03  0.79249960341E+02 0.  0.
         13    1    3    3    0    0  0.82198156867E+02  0.19601389122E+03 -0.11658437440E+04  0.11850610187E+04  0.00000000000E+00 0. -1.
        -13    1    3    3    0    0 -0.30563529466E+01 -0.41475858818E+00 -0.30093090805E+03  0.30094671412E+03  0.00000000000E+00 0.  1.
          4    1    5    5  502    0 -0.23481932958E+02 -0.31137752546E+03 -0.41094508880E+01  0.31228873198E+03  0.00000000000E+00 0. -1.
          1    1    4    4  503    0  0.36803491143E+02  0.15536554620E+03 -0.54447513353E+03  0.56740296170E+03  0.00000000000E+00 0. -1.
         -2    1    4    4    0  503 -0.67235015618E+02  0.39198834971E+02 -0.34214574053E+03  0.35088574173E+03  0.00000000000E+00 0.  1.
         -3    1    5    5    0  502 -0.25228346488E+02 -0.78785988346E+02 -0.37930735781E+02  0.91007923518E+02  0.00000000000E+00 0.  1.
<mgrwt>
<rscale>  0 0.14643998E+04</rscale>
<asrwt>0</asrwt>
<pdfrwt beam="1">  1        2 0.40023299E+00 0.14643998E+04</pdfrwt>
<pdfrwt beam="2">  1       -2 0.31704413E-01 0.14643998E+04</pdfrwt>
<totfact> 0.27304185E+01</totfact>
</mgrwt>
</event>
<event>
11    1  0.2045212E-008  0.2021040E+04  0.7818608E-02  0.8596847E-01
         -2   -1    0    0    0  501 -0.00000000000E+00  0.00000000000E+00  0.44396491823E+03  0.44396491823E+03  0.00000000000E+00 0.  1.
          2   -1    0    0  501    0  0.00000000000E+00 -0.00000000000E+00 -0.23000705696E+04  0.23000705696E+04  0.00000000000E+00 0. -1.
         23    2    1    2    0    0 -0.77486296902E+03  0.11194287032E+03 -0.48833806636E+03  0.92706848272E+03  0.89655326713E+02 0.  0.
        254    2    1    2    0    0  0.77486296902E+03 -0.11194287032E+03 -0.13677675850E+04  0.18169670051E+04  0.90423288156E+03 0.  0.
         24    2    4    4    0    0  0.26275328558E+03  0.59280929770E+02 -0.27021316490E+03  0.39012425470E+03  0.81414138223E+02 0.  0.
         11    1    3    3    0    0 -0.23403564133E+03  0.29700555808E+02 -0.19659995620E+03  0.30709338515E+03  0.00000000000E+00 0.  1.
        -11    1    3    3    0    0 -0.54082732769E+03  0.82242314512E+02 -0.29173811017E+03  0.61997509757E+03  0.00000000000E+00 0. -1.
          2    1    5    5  502    0  0.15630016540E+03  0.63781384554E+02 -0.20353557651E+03  0.26443248216E+03  0.00000000000E+00 0. -1.
          3    1    4    4  503    0  0.45703851040E+03 -0.43695936317E+03 -0.67730476360E+03  0.92658481957E+03  0.00000000000E+00 0. -1.
         -4    1    4    4    0  503  0.55071173043E+02  0.26573556308E+03 -0.42024965646E+03  0.50025793081E+03  0.00000000000E+00 0.  1.
         -1    1    5    5    0  502  0.10645312018E+03 -0.45004547836E+01 -0.66677588397E+02  0.12569177254E+03  0.00000000000E+00 0.  1.
<mgrwt>
<rscale>  0 0.20210400E+04</rscale>
<asrwt>0</asrwt>
<pdfrwt beam="1">  1        2 0.35385701E+00 0.20210400E+04</pdfrwt>
<pdfrwt beam="2">  1       -2 0.68302296E-01 0.20210400E+04</pdfrwt>
<totfact> 0.82466308E+00</totfact>
</mgrwt>
</event>
<event>
11    1  0.2045212E-008  0.1293117E+04  0.7818608E-02  0.9035041E-01
          1   -1    0    0  501    0  0.00000000000E+00  0.00000000000E+00  0.19812228461E+04  0.19812228461E+04  0.00000000000E+00 0. -1.
         -1   -1    0    0    0  501 -0.00000000000E+00 -0.00000000000E+00 -0.21100003435E+03  0.21100003435E+03  0.00000000000E+00 0.  1.
         23    2    1    2    0    0 -0.61666933151E+02  0.29357011740E+03  0.18241514420E+03  0.36440731697E+03  0.97627779608E+02 0.  0.
        254    2    1    2    0    0  0.61666933151E+02 -0.29357011740E+03  0.15878076676E+04  0.18278155635E+04  0.85427766005E+03 0.  0.
         24    2    4    4    0    0 -0.23912854690E+03 -0.13065844727E+02  0.96270385922E+03  0.99550411858E+03  0.82924974049E+02 0.  0.
         11    1    3    3    0    0 -0.46594941116E+01 -0.63061857553E+01 -0.15749256670E+01  0.79974530328E+01  0.00000000000E+00 0. -1.
        -11    1    3    3    0    0 -0.57007439039E+02  0.29987630316E+03  0.18399006987E+03  0.35640986394E+03  0.00000000000E+00 0.  1.
          2    1    5    5  502    0 -0.48940011851E+02 -0.13320136494E+02  0.10050556403E+03  0.11257850237E+03  0.00000000000E+00 0. -1.
          3    1    4    4  503    0  0.43364305978E+01  0.80671887826E+02  0.71626887951E+02  0.10796837126E+03  0.00000000000E+00 0. -1.
         -2    1    4    4    0  503  0.29645904945E+03 -0.36117616050E+03  0.55347692039E+03  0.72434307363E+03  0.00000000000E+00 0.  1.
         -1    1    5    5    0  502 -0.19018853505E+03  0.25429176767E+00  0.86219829519E+03  0.88292561621E+03  0.00000000000E+00 0.  1.
<mgrwt>
<rscale>  0 0.12931173E+04</rscale>
<asrwt>0</asrwt>
<pdfrwt beam="1">  1        1 0.30480350E+00 0.12931173E+04</pdfrwt>
<pdfrwt beam="2">  1       -1 0.32461545E-01 0.12931173E+04</pdfrwt>
<totfact> 0.26810603E+01</totfact>
</mgrwt>
</event>
<event>
12    1  0.2045212E-008  0.1194990E+04  0.7818608E-02  0.9117253E-01
          2   -1    0    0  501    0  0.00000000000E+00  0.00000000000E+00  0.86625909686E+03  0.86625909686E+03  0.00000000000E+00 0. -1.
         -2   -1    0    0    0  501 -0.00000000000E+00 -0.00000000000E+00 -0.41211695636E+03  0.41211695636E+03  0.00000000000E+00 0.  1.
         23    2    1    2    0    0  0.12155697807E+03  0.15132534460E+03 -0.11436738117E+03  0.24325259542E+03  0.91741312747E+02 0.  0.
        254    2    1    2    0    0 -0.12155697807E+03 -0.15132534460E+03  0.56850952168E+03  0.10351234578E+04  0.84297214533E+03 0.  0.
        -24    2    4    4    0    0 -0.20926226713E+03 -0.31112831814E+03  0.69507179737E+03  0.79613049632E+03  0.10053574923E+03 0.  0.
         24    2    4    4    0    0  0.87705289053E+02  0.15980297354E+03 -0.12656227569E+03  0.23899296148E+03  0.88715375952E+02 0.  0.
         13    1    3    3    0    0  0.13529744434E+03  0.14805633527E+03 -0.10709809522E+03  0.22736771728E+03  0.00000000000E+00 0.  1.
        -13    1    3    3    0    0 -0.13740466270E+02  0.32690093310E+01 -0.72692859542E+01  0.15884878143E+02  0.00000000000E+00 0. -1.
          2    1    6    6  502    0  0.78036435070E+02  0.98894262944E+02 -0.12475495006E+03  0.17729511558E+03  0.00000000000E+00 0. -1.
          3    1    5    5  503    0 -0.18970284904E+03 -0.20279667106E+03  0.51418152645E+03  0.58437685004E+03  0.00000000000E+00 0. -1.
         -4    1    5    5    0  503 -0.19559418090E+02 -0.10833164709E+03  0.18089027092E+03  0.21175364628E+03  0.00000000000E+00 0.  1.
         -1    1    6    6    0  502  0.96688539825E+01  0.60908710594E+02 -0.18073256290E+01  0.61697845907E+02  0.00000000000E+00 0.  1.
<mgrwt>
<rscale>  0 0.11949896E+04</rscale>
<asrwt>0</asrwt>
<pdfrwt beam="1">  1        2 0.13327063E+00 0.11949896E+04</pdfrwt>
<pdfrwt beam="2">  1       -2 0.63402609E-01 0.11949896E+04</pdfrwt>
<totfact> 0.70314976E+01</totfact>
</mgrwt>
</event>
<event>
11    1  0.2045212E-008  0.1486842E+04  0.7818608E-02  0.8893250E-01
          2   -1    0    0  501    0  0.00000000000E+00  0.00000000000E+00  0.38746450789E+04  0.38746450789E+04  0.00000000000E+00 0. -1.
         -2   -1    0    0    0  501 -0.00000000000E+00 -0.00000000000E+00 -0.14263884957E+03  0.14263884957E+03  0.00000000000E+00 0.  1.
         23    2    1    2    0    0 -0.34055896052E+03  0.31419399770E+03  0.97132982699E+03  0.10803996254E+04  0.95307103599E+02 0.  0.
        254    2    1    2    0    0  0.34055896052E+03 -0.31419399770E+03  0.27606764024E+04  0.29368843031E+04  0.88840133800E+03 0.  0.
         24    2    4    4    0    0  0.40383416321E+03  0.88068056942E+02  0.21635867824E+04  0.22041391075E+04  0.79268064513E+02 0.  0.
         13    1    3    3    0    0 -0.32482694966E+03  0.26328766765E+03  0.83029841047E+03  0.92963885116E+03  0.00000000000E+00 0.  1.
        -13    1    3    3    0    0 -0.15732010859E+02  0.50906330051E+02  0.14103141652E+03  0.15076077424E+03  0.00000000000E+00 0. -1.
          2    1    5    5  502    0  0.25487304765E+03  0.88180598920E+02  0.14983347726E+04  0.15224136032E+04  0.00000000000E+00 0. -1.
          1    1    4    4  503    0 -0.61653261952E+02 -0.28867789272E+03  0.33147981077E+03  0.44386362253E+03  0.00000000000E+00 0. -1.
         -2    1    4    4    0  503 -0.16219407463E+01 -0.11358416192E+03  0.26560980920E+03  0.28888157310E+03  0.00000000000E+00 0.  1.
         -1    1    5    5    0  502  0.14896111556E+03 -0.11254197872E+00  0.66525200982E+03  0.68172550428E+03  0.00000000000E+00 0.  1.
<mgrwt>
<rscale>  0 0.14868422E+04</rscale>
<asrwt>0</asrwt>
<pdfrwt beam="1">  1        2 0.59609916E+00 0.14868422E+04</pdfrwt>
<pdfrwt beam="2">  1       -2 0.21944441E-01 0.14868422E+04</pdfrwt>
<totfact> 0.77121223E+00</totfact>
</mgrwt>
</event>
<event>
11    1  0.2045212E-008  0.1887671E+04  0.7818608E-02  0.8661018E-01
         -2   -1    0    0    0  501 -0.00000000000E+00  0.00000000000E+00  0.98233729097E+03  0.98233729097E+03  0.00000000000E+00 0.  1.
          2   -1    0    0  501    0  0.00000000000E+00 -0.00000000000E+00 -0.90684269078E+03  0.90684269078E+03  0.00000000000E+00 0. -1.
         23    2    1    2    0    0 -0.35095815237E+01 -0.67300728870E+03 -0.24139119764E+03  0.72089423282E+03  0.92019871822E+02 0.  0.
        254    2    1    2    0    0  0.35095815237E+01  0.67300728870E+03  0.31688579784E+03  0.11682857489E+04  0.90084618803E+03 0.  0.
         24    2    4    4    0    0  0.49658110328E+02  0.54325819724E+03 -0.93934037336E+00  0.55124035356E+03  0.79181110380E+02 0.  0.
         11    1    3    3    0    0  0.71858500855E+01 -0.39609355923E+02 -0.38514873916E+02  0.55712952093E+02  0.00000000000E+00 0.  1.
        -11    1    3    3    0    0 -0.10695431609E+02 -0.63339793277E+03 -0.20287632372E+03  0.66518128072E+03  0.00000000000E+00 0. -1.
          2    1    5    5  502    0 -0.92857472544E+01  0.32494965055E+03 -0.34380440731E+01  0.32510047777E+03  0.00000000000E+00 0. -1.
          3    1    4    4  503    0  0.15371252229E+03  0.24290467925E+03  0.24023061835E+03  0.37462110553E+03  0.00000000000E+00 0. -1.
         -4    1    4    4    0  503 -0.19986105109E+03 -0.11315558780E+03  0.77594519859E+02  0.24242428984E+03  0.00000000000E+00 0.  1.
         -1    1    5    5    0  502  0.58943857582E+02  0.21830854669E+03  0.24987036997E+01  0.22613987579E+03  0.00000000000E+00 0.  1.
<mgrwt>
<rscale>  0 0.18876709E+04</rscale>
<asrwt>0</asrwt>
<pdfrwt beam="1">  1        2 0.13951426E+00 0.18876709E+04</pdfrwt>
<pdfrwt beam="2">  1       -2 0.15112881E+00 0.18876709E+04</pdfrwt>
<totfact> 0.79861987E+00</totfact>
</mgrwt>
</event>
<event>
11    1  0.2045212E-008  0.1846496E+04  0.7818608E-02  0.8681957E-01
          1   -1    0    0  501    0  0.00000000000E+00  0.00000000000E+00  0.90169485757E+03  0.90169485757E+03  0.00000000000E+00 0. -1.
         -1   -1    0    0    0  501 -0.00000000000E+00 -0.00000000000E+00 -0.94531669342E+03  0.94531669342E+03  0.00000000000E+00 0.  1.
         23    2    1    2    0    0  0.38244377116E+03 -0.48601089451E+03 -0.35322421147E+03  0.71826840519E+03  0.93125349029E+02 0.  0.
        254    2    1    2    0    0 -0.38244377116E+03  0.48601089451E+03  0.30960237562E+03  0.11287431458E+04  0.89204127176E+03 0.  0.
         24    2    4    4    0    0 -0.27095184784E+03 -0.68958070372E+02 -0.20039140862E+03  0.35307193884E+03  0.79579884592E+02 0.  0.
         11    1    3    3    0    0  0.30404785303E+03 -0.43684494529E+03 -0.31217562274E+03  0.61703502542E+03  0.00000000000E+00 0.  1.
        -11    1    3    3    0    0  0.78395918129E+02 -0.49165949221E+02 -0.41048588740E+02  0.10123337977E+03  0.00000000000E+00 0. -1.
          2    1    5    5  502    0 -0.20492220556E+03 -0.57008501301E+02 -0.18992745268E+03  0.28515875724E+03  0.00000000000E+00 0. -1.
          3    1    4    4  503    0 -0.14046097162E+03  0.45608890317E+03  0.45265066621E+03  0.65775299145E+03  0.00000000000E+00 0. -1.
         -4    1    4    4    0  503  0.28969048299E+02  0.98880061716E+02  0.57343118022E+02  0.11791821551E+03  0.00000000000E+00 0.  1.
         -1    1    5    5    0  502 -0.66029642283E+02 -0.11949569071E+02 -0.10463955940E+02  0.67913181599E+02  0.00000000000E+00 0.  1.
<mgrwt>
<rscale>  0 0.18464964E+04</rscale>
<asrwt>0</asrwt>
<pdfrwt beam="1">  1        1 0.13872229E+00 0.18464964E+04</pdfrwt>
<pdfrwt beam="2">  1       -1 0.14543334E+00 0.18464964E+04</pdfrwt>
<totfact> 0.64627740E+00</totfact>
</mgrwt>
</event>
<event>
12    1  0.2045212E-008  0.1177500E+04  0.7818608E-02  0.9132782E-01
          2   -1    0    0  501    0  0.00000000000E+00  0.00000000000E+00  0.74122908568E+03  0.74122908568E+03  0.00000000000E+00 0. -1.
         -2   -1    0    0    0  501 -0.00000000000E+00 -0.00000000000E+00 -0.46763775534E+03  0.46763775534E+03  0.00000000000E+00 0.  1.
         23    2    1    2    0    0 -0.12660710792E+03  0.13519559223E+03  0.15417455068E+03  0.25755297838E+03  0.90865486620E+02 0.  0.
        254    2    1    2    0    0  0.12660710792E+03 -0.13519559223E+03  0.11941677965E+03  0.95131386265E+03  0.92543529761E+03 0.  0.
        -24    2    4    4    0    0 -0.99820684728E+02 -0.36668601625E+03  0.36649668346E+03  0.53590036904E+03  0.91905293301E+02 0.  0.
         24    2    4    4    0    0  0.22642779265E+03  0.23149042402E+03 -0.24707990381E+03  0.41541349360E+03  0.81624322996E+02 0.  0.
         13    1    3    3    0    0 -0.12168090455E+03  0.12068801413E+03  0.16569525189E+03  0.23838363154E+03  0.00000000000E+00 0. -1.
        -13    1    3    3    0    0 -0.49262033637E+01  0.14507578100E+02 -0.11520701205E+02  0.19169346837E+02  0.00000000000E+00 0.  1.
          2    1    6    6  502    0  0.22401088513E+01  0.56368020673E+01 -0.29006189627E+02  0.29633606968E+02  0.00000000000E+00 0. -1.
          1    1    5    5  503    0 -0.29505539224E+02 -0.22031177862E+02  0.54148720025E+02  0.65483078144E+02  0.00000000000E+00 0. -1.
         -4    1    5    5    0  503 -0.70315145504E+02 -0.34465483839E+03  0.31234796344E+03  0.47041729090E+03  0.00000000000E+00 0.  1.
         -1    1    6    6    0  502  0.22418768380E+03  0.22585362195E+03 -0.21807371418E+03  0.38577988664E+03  0.00000000000E+00 0.  1.
<mgrwt>
<rscale>  0 0.11775002E+04</rscale>
<asrwt>0</asrwt>
<pdfrwt beam="1">  1        2 0.11403524E+00 0.11775002E+04</pdfrwt>
<pdfrwt beam="2">  1       -2 0.71944270E-01 0.11775002E+04</pdfrwt>
<totfact> 0.65898432E+01</totfact>
</mgrwt>
</event>
<event>
11    1  0.2045212E-008  0.1142993E+04  0.7818608E-02  0.9164272E-01
         -1   -1    0    0    0  501 -0.00000000000E+00  0.00000000000E+00  0.91524067778E+03  0.91524067778E+03  0.00000000000E+00 0.  1.
          1   -1    0    0  501    0  0.00000000000E+00 -0.00000000000E+00 -0.35685522652E+03  0.35685522652E+03  0.00000000000E+00 0. -1.
         23    2    1    2    0    0 -0.29049090610E+03  0.42821688443E+02  0.11270244259E+02  0.30754939183E+03  0.90779658961E+02 0.  0.
        254    2    1    2    0    0  0.29049090610E+03 -0.42821688443E+02  0.54711520700E+03  0.96454651248E+03  0.73810315097E+03 0.  0.
         24    2    4    4    0    0  0.24895280580E+03 -0.25082384299E+03  0.59658204752E+03  0.69805951176E+03  0.80540938671E+02 0.  0.
         11    1    3    3    0    0 -0.24295446349E+03  0.58328925745E+02 -0.16411045806E+02  0.25039660008E+03  0.00000000000E+00 0. -1.
        -11    1    3    3    0    0 -0.47536442606E+02 -0.15507237302E+02  0.27681290065E+02  0.57152791744E+02  0.00000000000E+00 0.  1.
          2    1    5    5  502    0  0.55023045374E+01  0.58894773155E+01  0.81820135409E+01  0.11485061770E+02  0.00000000000E+00 0. -1.
          3    1    4    4  503    0  0.25419112706E+02  0.54563570410E+02 -0.88790978905E+02  0.10727139619E+03  0.00000000000E+00 0. -1.
         -4    1    4    4    0  503  0.16118987594E+02  0.15343858414E+03  0.39324138387E+02  0.15921560452E+03  0.00000000000E+00 0.  1.
         -3    1    5    5    0  502  0.24345050126E+03 -0.25671332031E+03  0.58840003398E+03  0.68657444999E+03  0.00000000000E+00 0.  1.
<mgrwt>
<rscale>  0 0.11429933E+04</rscale>
<asrwt>0</asrwt>
<pdfrwt beam="1">  1        1 0.54900804E-01 0.11429933E+04</pdfrwt>
<pdfrwt beam="2">  1       -1 0.14080626E+00 0.11429933E+04</pdfrwt>
<totfact> 0.28645086E+01</totfact>
</mgrwt>
</event>
<event>
11    1  0.2045212E-008  0.1411405E+04  0.7818608E-02  0.8945604E-01
         -2   -1    0    0    0  501 -0.00000000000E+00  0.00000000000E+00  0.52381274814E+03  0.52381274814E+03  0.00000000000E+00 0.  1.
          2   -1    0    0  501    0  0.00000000000E+00 -0.00000000000E+00 -0.95075159204E+03  0.95075159204E+03  0.00000000000E+00 0. -1.
         23    2    1    2    0    0 -0.22717756831E+03  0.26662288592E+03 -0.35204759299E+03  0.50584690019E+03  0.96156995891E+02 0.  0.
        254    2    1    2    0    0  0.22717756831E+03 -0.26662288592E+03 -0.74891250911E+02  0.96871743999E+03  0.90005964704E+03 0.  0.
         24    2    4    4    0    0 -0.32551167502E+03 -0.37619631134E+02 -0.10151913472E+03  0.35227487535E+03  0.80114704450E+02 0.  0.
         13    1    3    3    0    0 -0.11221122186E+03  0.78685151624E+02 -0.92220601123E+02  0.16518883336E+03  0.00000000000E+00 0.  1.
        -13    1    3    3    0    0 -0.11496634646E+03  0.18793773430E+03 -0.25982699186E+03  0.34065806683E+03  0.00000000000E+00 0. -1.
          4    1    5    5  502    0 -0.32303817052E+03 -0.24772858173E+02 -0.94821309759E+02  0.33757730211E+03  0.00000000000E+00 0. -1.
          3    1    4    4  503    0  0.45923490948E+03 -0.14195907012E+03  0.60096200639E+02  0.48441782895E+03  0.00000000000E+00 0. -1.
         -4    1    4    4    0  503  0.93454333854E+02 -0.87044184669E+02 -0.33468316828E+02  0.13202473568E+03  0.00000000000E+00 0.  1.
         -3    1    5    5    0  502 -0.24735045013E+01 -0.12846772962E+02 -0.66978249631E+01  0.14697573245E+02  0.00000000000E+00 0.  1.
<mgrwt>
<rscale>  0 0.14114047E+04</rscale>
<asrwt>0</asrwt>
<pdfrwt beam="1">  1        2 0.14626948E+00 0.14114047E+04</pdfrwt>
<pdfrwt beam="2">  1       -2 0.80586577E-01 0.14114047E+04</pdfrwt>
<totfact> 0.35871210E+01</totfact>
</mgrwt>
</event>
<event>
11    1  0.2045212E-008  0.1381634E+04  0.7818608E-02  0.8967221E-01
          1   -1    0    0  501    0  0.00000000000E+00  0.00000000000E+00  0.17360269358E+04  0.17360269358E+04  0.00000000000E+00 0. -1.
         -1   -1    0    0    0  501 -0.00000000000E+00 -0.00000000000E+00 -0.27489664017E+03  0.27489664017E+03  0.00000000000E+00 0.  1.
         23    2    1    2    0    0 -0.13939048585E+03  0.19829874314E+02 -0.10447207425E+03  0.20004340386E+03  0.96332848338E+02 0.  0.
        254    2    1    2    0    0  0.13939048585E+03 -0.19829874314E+02  0.15656023699E+04  0.18108801721E+04  0.89908469328E+03 0.  0.
         24    2    4    4    0    0  0.45393150889E+03  0.72158401144E+02  0.47452509872E+03  0.66563716418E+03  0.81474630488E+02 0.  0.
         13    1    3    3    0    0 -0.39075146228E+02  0.52161494612E+02 -0.41575679203E+02  0.77306051989E+02  0.00000000000E+00 0. -1.
        -13    1    3    3    0    0 -0.10031533962E+03 -0.32331620298E+02 -0.62896395047E+02  0.12273735187E+03  0.00000000000E+00 0.  1.
          4    1    5    5  502    0  0.77288832720E+02  0.35609787886E+02  0.11989703094E+03  0.14702693183E+03  0.00000000000E+00 0. -1.
          1    1    4    4  503    0 -0.42091328296E+02 -0.59055068720E+02  0.26687057873E+03  0.27654852531E+03  0.00000000000E+00 0. -1.
         -2    1    4    4    0  503 -0.27244969474E+03 -0.32933206738E+02  0.82420669245E+03  0.86869448263E+03  0.00000000000E+00 0.  1.
         -3    1    5    5    0  502  0.37664267617E+03  0.36548613258E+02  0.35462806778E+03  0.51861023235E+03  0.00000000000E+00 0.  1.
<mgrwt>
<rscale>  0 0.13816338E+04</rscale>
<asrwt>0</asrwt>
<pdfrwt beam="1">  1        1 0.26708106E+00 0.13816338E+04</pdfrwt>
<pdfrwt beam="2">  1       -1 0.42291792E-01 0.13816338E+04</pdfrwt>
<totfact> 0.24178861E+01</totfact>
</mgrwt>
</event>
<event>
11    1  0.2045212E-008  0.1044953E+04  0.7818608E-02  0.9260570E-01
          2   -1    0    0  501    0  0.00000000000E+00  0.00000000000E+00  0.80835415860E+03  0.80835415860E+03  0.00000000000E+00 0. -1.
         -2   -1    0    0    0  501 -0.00000000000E+00 -0.00000000000E+00 -0.33770060132E+03  0.33770060132E+03  0.00000000000E+00 0.  1.
         23    2    1    2    0    0 -0.51826884721E+02  0.52285613781E+02 -0.12376609207E+01  0.12068688352E+03  0.95624163581E+02 0.  0.
        254    2    1    2    0    0  0.51826884721E+02 -0.52285613781E+02  0.47189121820E+03  0.10253678764E+04  0.90734676323E+03 0.  0.
         24    2    4    4    0    0 -0.15800712055E+03  0.21874314773E+03  0.26081849593E+02  0.28304856969E+03  0.81372078125E+02 0.  0.
         13    1    3    3    0    0 -0.39434489890E+02  0.64819555255E+02  0.32564139978E+02  0.82565591797E+02  0.00000000000E+00 0. -1.
        -13    1    3    3    0    0 -0.12392394831E+02 -0.12533941474E+02 -0.33801800899E+02  0.38121291722E+02  0.00000000000E+00 0.  1.
          4    1    5    5  502    0 -0.11057366189E+03  0.11413966259E+03  0.48236394558E+02  0.16607572682E+03  0.00000000000E+00 0. -1.
          3    1    4    4  503    0  0.29281382462E+03 -0.24561883386E+03  0.50788347386E+03  0.63562109031E+03  0.00000000000E+00 0. -1.
         -4    1    4    4    0  503 -0.82979819343E+02 -0.25409927650E+02 -0.62074105248E+02  0.10669821640E+03  0.00000000000E+00 0.  1.
         -3    1    5    5    0  502 -0.47433458659E+02  0.10460348515E+03 -0.22154544964E+02  0.11697284286E+03  0.00000000000E+00 0.  1.
<mgrwt>
<rscale>  0 0.10449530E+04</rscale>
<asrwt>0</asrwt>
<pdfrwt beam="1">  1        2 0.12436218E+00 0.10449530E+04</pdfrwt>
<pdfrwt beam="2">  1       -2 0.51953939E-01 0.10449530E+04</pdfrwt>
<totfact> 0.11836921E+02</totfact>
</mgrwt>
</event>
<event>
11    1  0.2045212E-008  0.2489401E+04  0.7818608E-02  0.8406771E-01
          1   -1    0    0  501    0  0.00000000000E+00  0.00000000000E+00  0.86947998082E+03  0.86947998082E+03  0.00000000000E+00 0. -1.
         -1   -1    0    0    0  501 -0.00000000000E+00 -0.00000000000E+00 -0.17818463786E+04  0.17818463786E+04  0.00000000000E+00 0.  1.
         23    2    1    2    0    0 -0.63761947830E+03 -0.37980818667E+02 -0.13294790714E+04  0.14776977613E+04  0.89860618677E+02 0.  0.
        254    2    1    2    0    0  0.63761947830E+03  0.37980818667E+02  0.41711267356E+03  0.11736285982E+04  0.89186319707E+03 0.  0.
         24    2    4    4    0    0 -0.18998017747E+02 -0.30275732011E+03  0.23160134916E+02  0.31473882919E+03  0.80630138242E+02 0.  0.
         11    1    3    3    0    0 -0.28635637364E+03 -0.48819451990E+02 -0.52996823791E+03  0.60435887088E+03  0.00000000000E+00 0. -1.
        -11    1    3    3    0    0 -0.35126310466E+03  0.10838633322E+02 -0.79951083346E+03  0.87333889040E+03  0.00000000000E+00 0.  1.
          2    1    5    5  502    0 -0.29290000460E+02 -0.88135262477E+02  0.35711253535E+02  0.99503880567E+02  0.00000000000E+00 0. -1.
          1    1    4    4  503    0  0.23279341710E+03  0.79380025021E+02  0.42945223747E+02  0.24967630176E+03  0.00000000000E+00 0. -1.
         -2    1    4    4    0  503  0.42382407895E+03  0.26135811376E+03  0.35100731490E+03  0.60921346721E+03  0.00000000000E+00 0.  1.
         -1    1    5    5    0  502  0.10291982714E+02 -0.21462205763E+03 -0.12551118619E+02  0.21523494862E+03  0.00000000000E+00 0.  1.
<mgrwt>
<rscale>  0 0.24894013E+04</rscale>
<asrwt>0</asrwt>
<pdfrwt beam="1">  1        1 0.13376615E+00 0.24894013E+04</pdfrwt>
<pdfrwt beam="2">  1       -1 0.27413021E+00 0.24894013E+04</pdfrwt>
<totfact> 0.83314947E-01</totfact>
</mgrwt>
</event>
<event>
12    1  0.2045212E-008  0.2211437E+04  0.7818608E-02  0.8513683E-01
          2   -1    0    0  501    0  0.00000000000E+00  0.00000000000E+00  0.14953948831E+04  0.14953948831E+04  0.00000000000E+00 0.  1.
         -2   -1    0    0    0  501 -0.00000000000E+00 -0.00000000000E+00 -0.81758531455E+03  0.81758531455E+03  0.00000000000E+00 0. -1.
         23    2    1    2    0    0  0.79709697434E+03  0.40335835733E+02  0.76345320775E+03  0.11082804995E+04  0.91838439187E+02 0.  0.
        254    2    1    2    0    0 -0.79709697434E+03 -0.40335835733E+02 -0.85643639182E+02  0.12046996982E+04  0.89831840891E+03 0.  0.
        -24    2    4    4    0    0 -0.36675313223E+03 -0.35612695137E+03 -0.33139633396E+03  0.61177207162E+03  0.55742909543E+02 0.  0.
         24    2    4    4    0    0 -0.43034384211E+03  0.31579111563E+03  0.24575269477E+03  0.59292762659E+03  0.79050188072E+02 0.  0.
         13    1    3    3    0    0  0.62829710990E+03  0.68074818667E+02  0.61393888621E+03  0.88108591820E+03  0.00000000000E+00 0.  1.
        -13    1    3    3    0    0  0.16879986444E+03 -0.27738982934E+02  0.14951432154E+03  0.22719458126E+03  0.00000000000E+00 0. -1.
          4    1    6    6  502    0 -0.40249010858E+03  0.29896313344E+03  0.24975813086E+03  0.56013959563E+03  0.00000000000E+00 0. -1.
          3    1    5    5  503    0 -0.13261523741E+03 -0.13849305600E+03 -0.93682917570E+02  0.21340950494E+03  0.00000000000E+00 0. -1.
         -4    1    5    5    0  503 -0.23413789482E+03 -0.21763389537E+03 -0.23771341639E+03  0.39836256668E+03  0.00000000000E+00 0.  1.
         -3    1    6    6    0  502 -0.27853733534E+02  0.16827982193E+02 -0.40054360855E+01  0.32788030968E+02  0.00000000000E+00 0.  1.
<mgrwt>
<rscale>  0 0.22114365E+04</rscale>
<asrwt>0</asrwt>
<pdfrwt beam="1">  1        2 0.23006075E+00 0.22114365E+04</pdfrwt>
<pdfrwt beam="2">  1       -2 0.12578236E+00 0.22114365E+04</pdfrwt>
<totfact> 0.55054072E+00</totfact>
</mgrwt>
</event>
<event>
11    1  0.2045212E-008  0.2762113E+04  0.7818608E-02  0.8315128E-01
         -2   -1    0    0    0  501 -0.00000000000E+00  0.00000000000E+00  0.52290649433E+03  0.52290649433E+03  0.00000000000E+00 0.  1.
          2   -1    0    0  501    0  0.00000000000E+00 -0.00000000000E+00 -0.36475301602E+04  0.36475301602E+04  0.00000000000E+00 0. -1.
         23    2    1    2    0    0 -0.96198680089E+03 -0.60406893522E+03 -0.67683326506E+03  0.13254058418E+04  0.90991720424E+02 0.  0.
        254    2    1    2    0    0  0.96198680089E+03  0.60406893522E+03 -0.24477904008E+04  0.28450308127E+04  0.90122394305E+03 0.  0.
         24    2    4    4    0    0  0.21946592316E+03  0.64812245856E+03 -0.10952253194E+04  0.12937716664E+04  0.78093609291E+02 0.  0.
         13    1    3    3    0    0 -0.90339999388E+03 -0.53930964426E+03 -0.62953516249E+03  0.12260917430E+04  0.00000000000E+00 0.  1.
        -13    1    3    3    0    0 -0.58586807010E+02 -0.64759290961E+02 -0.47298102578E+02  0.99314098843E+02  0.00000000000E+00 0. -1.
          4    1    5    5  502    0  0.15369119146E+03  0.54532639688E+03 -0.90965178709E+03  0.10716661025E+04  0.00000000000E+00 0. -1.
          3    1    4    4  503    0  0.63161456973E+03 -0.89971863460E+02 -0.11001387051E+04  0.12717456787E+04  0.00000000000E+00 0. -1.
         -4    1    4    4    0  503  0.11090630800E+03  0.45918340122E+02 -0.25242637635E+03  0.27951346764E+03  0.00000000000E+00 0.  1.
         -3    1    5    5    0  502  0.65774731705E+02  0.10279606168E+03 -0.18557353231E+03  0.22210556391E+03  0.00000000000E+00 0.  1.
<mgrwt>
<rscale>  0 0.27621131E+04</rscale>
<asrwt>0</asrwt>
<pdfrwt beam="1">  1        2 0.56115849E+00 0.27621131E+04</pdfrwt>
<pdfrwt beam="2">  1       -2 0.80447152E-01 0.27621131E+04</pdfrwt>
<totfact> 0.76010252E-01</totfact>
</mgrwt>
</event>
<event>
12    1  0.2045212E-008  0.1701705E+04  0.7818608E-02  0.8760392E-01
         -1   -1    0    0    0  501 -0.00000000000E+00  0.00000000000E+00  0.19504242389E+03  0.19504242389E+03  0.00000000000E+00 0.  1.
          1   -1    0    0  501    0  0.00000000000E+00 -0.00000000000E+00 -0.37117581989E+04  0.37117581989E+04  0.00000000000E+00 0. -1.
         23    2    1    2    0    0 -0.40070445338E+03  0.21600487318E+03 -0.22124412272E+04  0.22604606094E+04  0.86970216708E+02 0.  0.
        254    2    1    2    0    0  0.40070445338E+03 -0.21600487318E+03 -0.13042745478E+04  0.16463400134E+04  0.89558985001E+03 0.  0.
        -24    2    4    4    0    0  0.23623687941E+03 -0.39836261151E+03 -0.20173661960E+03  0.51397754033E+03  0.94734443788E+02 0.  0.
         24    2    4    4    0    0  0.16446757397E+03  0.18235773832E+03 -0.11025379282E+04  0.11323624731E+04  0.79692908354E+02 0.  0.
         13    1    3    3    0    0 -0.40164387128E+03  0.20775960917E+03 -0.21223958633E+04  0.21700336530E+04  0.00000000000E+00 0. -1.
        -13    1    3    3    0    0  0.93941789960E+00  0.82452640131E+01 -0.90045363913E+02  0.90426956417E+02  0.00000000000E+00 0.  1.
          4    1    6    6  502    0  0.13338581507E+03  0.11608644761E+03 -0.89483029138E+03  0.91213435926E+03  0.00000000000E+00 0. -1.
          3    1    5    5  503    0  0.22535518291E+03 -0.38177916772E+03 -0.16654188184E+03  0.47357838821E+03  0.00000000000E+00 0. -1.
         -4    1    5    5    0  503  0.10881696501E+02 -0.16583443782E+02 -0.35194737758E+02  0.40399152123E+02  0.00000000000E+00 0.  1.
         -1    1    6    6    0  502  0.31081758895E+02  0.66271290710E+02 -0.20770763684E+03  0.22022811381E+03  0.00000000000E+00 0.  1.
<mgrwt>
<rscale>  0 0.17017054E+04</rscale>
<asrwt>0</asrwt>
<pdfrwt beam="1">  1        1 0.57103977E+00 0.17017054E+04</pdfrwt>
<pdfrwt beam="2">  1       -1 0.30006524E-01 0.17017054E+04</pdfrwt>
<totfact> 0.16543633E+00</totfact>
</mgrwt>
</event>
<event>
12    1  0.2045212E-008  0.1800298E+04  0.7818608E-02  0.8706141E-01
          2   -1    0    0  501    0  0.00000000000E+00  0.00000000000E+00  0.12947472466E+04  0.12947472466E+04  0.00000000000E+00 0. -1.
         -2   -1    0    0    0  501 -0.00000000000E+00 -0.00000000000E+00 -0.62581166944E+03  0.62581166944E+03  0.00000000000E+00 0.  1.
         23    2    1    2    0    0  0.14505421534E+03 -0.15719623065E+03 -0.41681045028E+03  0.47723930330E+03  0.90967141523E+02 0.  0.
        254    2    1    2    0    0 -0.14505421534E+03  0.15719623065E+03  0.10857460274E+04  0.14433196127E+04  0.92659359380E+03 0.  0.
        -24    2    4    4    0    0  0.28105559931E+03  0.71280126831E+02  0.39375024592E+02  0.30739457608E+03  0.94169668456E+02 0.  0.
         24    2    4    4    0    0 -0.42610981464E+03  0.85916103823E+02  0.10463710028E+04  0.11359250366E+04  0.80512497641E+02 0.  0.
         11    1    3    3    0    0 -0.40666501380E+01  0.16214486882E+01  0.22591164308E+01  0.49264943155E+01  0.00000000000E+00 0. -1.
        -11    1    3    3    0    0  0.14912086547E+03 -0.15881767934E+03 -0.41906956671E+03  0.47231280899E+03  0.00000000000E+00 0.  1.
          4    1    6    6  502    0 -0.26119373106E+03  0.86184014787E+02  0.70666235689E+03  0.75830174482E+03  0.00000000000E+00 0. -1.
          1    1    5    5  503    0  0.84383622722E+02  0.13031427731E+02 -0.30553079132E+02  0.90685746052E+02  0.00000000000E+00 0. -1.
         -2    1    5    5    0  503  0.19667197659E+03  0.58248699100E+02  0.69928103724E+02  0.21670883003E+03  0.00000000000E+00 0.  1.
         -3    1    6    6    0  502 -0.16491608359E+03 -0.26791096369E+00  0.33970864591E+03  0.37762329180E+03  0.00000000000E+00 0.  1.
<mgrwt>
<rscale>  0 0.18002977E+04</rscale>
<asrwt>0</asrwt>
<pdfrwt beam="1">  1        2 0.19919188E+00 0.18002977E+04</pdfrwt>
<pdfrwt beam="2">  1       -2 0.96278719E-01 0.18002977E+04</pdfrwt>
<totfact> 0.14198800E+01</totfact>
</mgrwt>
</event>
<event>
11    1  0.2045212E-008  0.1358914E+04  0.7818608E-02  0.8984107E-01
          2   -1    0    0  501    0  0.00000000000E+00  0.00000000000E+00  0.58610580589E+03  0.58610580589E+03  0.00000000000E+00 0.  1.
         -2   -1    0    0    0  501 -0.00000000000E+00 -0.00000000000E+00 -0.78767679195E+03  0.78767679195E+03  0.00000000000E+00 0. -1.
         23    2    1    2    0    0 -0.27786301035E+02 -0.23515283862E+03 -0.36162025631E+03  0.44312169292E+03  0.97563768490E+02 0.  0.
        254    2    1    2    0    0  0.27786301035E+02  0.23515283862E+03  0.16004927026E+03  0.93066090492E+03  0.88568900581E+03 0.  0.
         24    2    4    4    0    0  0.38909673138E+03 -0.95520941256E+02  0.74472944783E+02  0.41575156481E+03  0.82356709205E+02 0.  0.
         11    1    3    3    0    0  0.73567027023E+01 -0.14894289368E+02  0.18053504133E+01  0.16709883918E+02  0.00000000000E+00 0.  1.
        -11    1    3    3    0    0 -0.35143003737E+02 -0.22025854925E+03 -0.36342560672E+03  0.42641180900E+03  0.00000000000E+00 0. -1.
          4    1    5    5  502    0  0.17757348028E+03 -0.55906392809E+02 -0.52981217665E+01  0.18624160585E+03  0.00000000000E+00 0. -1.
          3    1    4    4  503    0 -0.30046257595E+01 -0.85880037255E+01 -0.86507189236E+01  0.12554541881E+02  0.00000000000E+00 0. -1.
         -4    1    4    4    0  503 -0.35830580458E+03  0.33926178360E+03  0.94227044397E+02  0.50235479823E+03  0.00000000000E+00 0.  1.
         -1    1    5    5    0  502  0.21152325110E+03 -0.39614548447E+02  0.79771066549E+02  0.22950995896E+03  0.00000000000E+00 0.  1.
<mgrwt>
<rscale>  0 0.13589142E+04</rscale>
<asrwt>0</asrwt>
<pdfrwt beam="1">  1        2 0.90170125E-01 0.13589142E+04</pdfrwt>
<pdfrwt beam="2">  1       -2 0.12118104E+00 0.13589142E+04</pdfrwt>
<totfact> 0.25802563E+01</totfact>
</mgrwt>
</event>
<event>
11    1  0.2045212E-008  0.2573062E+04  0.7818608E-02  0.8377409E-01
          2   -1    0    0  501    0  0.00000000000E+00  0.00000000000E+00  0.19736897387E+04  0.19736897387E+04  0.00000000000E+00 0. -1.
         -2   -1    0    0    0  501 -0.00000000000E+00 -0.00000000000E+00 -0.83861326335E+03  0.83861326335E+03  0.00000000000E+00 0.  1.
         23    2    1    2    0    0 -0.31376825324E+03  0.10788754164E+04  0.47683122513E+03  0.12242218643E+04  0.94490608084E+02 0.  0.
        254    2    1    2    0    0  0.31376825324E+03 -0.10788754164E+04  0.65824525019E+03  0.15880811377E+04  0.90900616598E+03 0.  0.
         24    2    4    4    0    0  0.60321986621E+03 -0.53816471839E+03  0.34263735342E+03  0.88164155953E+03  0.79975073789E+02 0.  0.
         11    1    3    3    0    0 -0.31139320604E+03  0.10700661685E+04  0.46118342200E+03  0.12061084041E+04  0.00000000000E+00 0.  1.
        -11    1    3    3    0    0 -0.23750471964E+01  0.88092478312E+01  0.15647803128E+02  0.18113460168E+02  0.00000000000E+00 0. -1.
          4    1    5    5  502    0  0.53774403293E+03 -0.46411710520E+03  0.27420703503E+03  0.76142158517E+03  0.00000000000E+00 0. -1.
          3    1    4    4  503    0 -0.29617580572E+03 -0.49962072881E+03  0.32234042800E+03  0.66426224646E+03  0.00000000000E+00 0. -1.
         -4    1    4    4    0  503  0.67241927469E+01 -0.41089969164E+02 -0.67325312356E+01  0.42177331718E+02  0.00000000000E+00 0.  1.
         -1    1    5    5    0  502  0.65475833275E+02 -0.74047613183E+02  0.68430318387E+02  0.12021997436E+03  0.00000000000E+00 0.  1.
<mgrwt>
<rscale>  0 0.25730623E+04</rscale>
<asrwt>0</asrwt>
<pdfrwt beam="1">  1        2 0.30364457E+00 0.25730623E+04</pdfrwt>
<pdfrwt beam="2">  1       -2 0.12901743E+00 0.25730623E+04</pdfrwt>
<totfact> 0.27123063E+00</totfact>
</mgrwt>
</event>
<event>
12    1  0.2045212E-008  0.1201355E+04  0.7818608E-02  0.9111671E-01
          2   -1    0    0  501    0  0.00000000000E+00  0.00000000000E+00  0.19010709977E+04  0.19010709977E+04  0.00000000000E+00 0. -1.
         -2   -1    0    0    0  501 -0.00000000000E+00 -0.00000000000E+00 -0.18979480800E+03  0.18979480800E+03  0.00000000000E+00 0.  1.
         23    2    1    2    0    0  0.21258332400E+03  0.98812958558E+02  0.20179874432E+03  0.32221354382E+03  0.90239482431E+02 0.  0.
        254    2    1    2    0    0 -0.21258332400E+03 -0.98812958558E+02  0.15094774454E+04  0.17686522619E+04  0.89143311300E+03 0.  0.
        -24    2    4    4    0    0 -0.34660223063E+01 -0.44110000201E+03  0.11148261027E+04  0.12003022792E+04  0.57507365635E+02 0.  0.
         24    2    4    4    0    0 -0.20911730170E+03  0.34228704345E+03  0.39465134273E+03  0.56834998274E+03  0.79884632899E+02 0.  0.
         11    1    3    3    0    0  0.95046865802E+02  0.64113859514E+02  0.44905976484E+02  0.12313017666E+03  0.00000000000E+00 0.  1.
        -11    1    3    3    0    0  0.11753645820E+03  0.34699099045E+02  0.15689276783E+03  0.19908336716E+03  0.00000000000E+00 0. -1.
          4    1    6    6  502    0 -0.58941359833E+02  0.55079915156E+02  0.48378844389E+02  0.94065899969E+02  0.00000000000E+00 0. -1.
          1    1    5    5  503    0 -0.21296803649E+02 -0.20621501636E+03  0.57853151487E+03  0.61455422911E+03  0.00000000000E+00 0. -1.
         -2    1    5    5    0  503  0.17830781342E+02 -0.23488498565E+03  0.53629458782E+03  0.58574805008E+03  0.00000000000E+00 0.  1.
         -3    1    6    6    0  502 -0.15017594186E+03  0.28720712829E+03  0.34627249834E+03  0.47428408277E+03  0.00000000000E+00 0.  1.
<mgrwt>
<rscale>  0 0.12013549E+04</rscale>
<asrwt>0</asrwt>
<pdfrwt beam="1">  1        2 0.29247245E+00 0.12013549E+04</pdfrwt>
<pdfrwt beam="2">  1       -2 0.29199203E-01 0.12013549E+04</pdfrwt>
<totfact> 0.80751139E+01</totfact>
</mgrwt>
</event>
<event>
11    1  0.2045212E-008  0.2528742E+04  0.7818608E-02  0.8392817E-01
          1   -1    0    0  501    0  0.00000000000E+00  0.00000000000E+00  0.18220639420E+04  0.18220639420E+04  0.00000000000E+00 0. -1.
         -1   -1    0    0    0  501 -0.00000000000E+00 -0.00000000000E+00 -0.87737559335E+03  0.87737559335E+03  0.00000000000E+00 0.  1.
         23    2    1    2    0    0  0.66357428721E+03  0.54693330523E+03 -0.33695883548E+03  0.92849848211E+03  0.95400730872E+02 0.  0.
        254    2    1    2    0    0 -0.66357428721E+03 -0.54693330523E+03  0.12816471841E+04  0.17709410532E+04  0.86841570371E+03 0.  0.
         24    2    4    4    0    0 -0.23261723508E+03 -0.56633585471E+03  0.72157540440E+03  0.94957269542E+03  0.78550373989E+02 0.  0.
         11    1    3    3    0    0  0.51617305797E+03  0.47370394650E+03 -0.27509176740E+03  0.75266561978E+03  0.00000000000E+00 0.  1.
        -11    1    3    3    0    0  0.14740122924E+03  0.73229358722E+02 -0.61867068076E+02  0.17583286233E+03  0.00000000000E+00 0. -1.
          2    1    5    5  502    0 -0.48001417118E+02 -0.16955327808E+03  0.25405097254E+03  0.30918335466E+03  0.00000000000E+00 0. -1.
          3    1    4    4  503    0 -0.55138666635E+02 -0.14680875925E+03  0.28983612262E+03  0.32954220113E+03  0.00000000000E+00 0. -1.
         -4    1    4    4    0  503 -0.37581838549E+03  0.16621130874E+03  0.27023565711E+03  0.49182615669E+03  0.00000000000E+00 0.  1.
         -1    1    5    5    0  502 -0.18461581797E+03 -0.39678257664E+03  0.46752443186E+03  0.64038934075E+03  0.00000000000E+00 0.  1.
<mgrwt>
<rscale>  0 0.25287423E+04</rscale>
<asrwt>0</asrwt>
<pdfrwt beam="1">  1        1 0.28031753E+00 0.25287423E+04</pdfrwt>
<pdfrwt beam="2">  1       -1 0.13498086E+00 0.25287423E+04</pdfrwt>
<totfact> 0.16070947E+00</totfact>
</mgrwt>
</event>
<event>
11    1  0.2045212E-008  0.1954966E+04  0.7818608E-02  0.8627970E-01
          2   -1    0    0  501    0  0.00000000000E+00  0.00000000000E+00  0.12266564252E+04  0.12266564252E+04  0.00000000000E+00 0. -1.
         -2   -1    0    0    0  501 -0.00000000000E+00 -0.00000000000E+00 -0.77892442775E+03  0.77892442775E+03  0.00000000000E+00 0.  1.
         23    2    1    2    0    0 -0.24182514766E+03 -0.43132518399E+03 -0.42329733992E+03  0.65747569632E+03  0.92589615404E+02 0.  0.
        254    2    1    2    0    0  0.24182514766E+03  0.43132518399E+03  0.87102933739E+03  0.13481051566E+04  0.90231623635E+03 0.  0.
         24    2    4    4    0    0  0.29707182832E+03  0.54480041014E+03  0.25637353713E+03  0.67598443335E+03  0.78539197334E+02 0.  0.
         11    1    3    3    0    0 -0.28122515696E+02 -0.91242744845E+02 -0.12437424911E+03  0.15679626340E+03  0.00000000000E+00 0.  1.
        -11    1    3    3    0    0 -0.21370263196E+03 -0.34008243915E+03 -0.29892309081E+03  0.50067943292E+03  0.00000000000E+00 0. -1.
          2    1    5    5  502    0  0.43720457946E+02  0.14839220185E+03  0.72981373010E+02  0.17104971447E+03  0.00000000000E+00 0. -1.
          3    1    4    4  503    0  0.74029619686E+02 -0.44325106320E+01  0.70633319660E+02  0.10241629552E+03  0.00000000000E+00 0. -1.
         -4    1    4    4    0  503 -0.12927630035E+03 -0.10904271551E+03  0.54402248059E+03  0.56970442778E+03  0.00000000000E+00 0.  1.
         -1    1    5    5    0  502  0.25335137037E+03  0.39640820828E+03  0.18339216412E+03  0.50493471888E+03  0.00000000000E+00 0.  1.
<mgrwt>
<rscale>  0 0.19549656E+04</rscale>
<asrwt>0</asrwt>
<pdfrwt beam="1">  1        2 0.18871637E+00 0.19549656E+04</pdfrwt>
<pdfrwt beam="2">  1       -2 0.11983453E+00 0.19549656E+04</pdfrwt>
<totfact> 0.90736614E+00</totfact>
</mgrwt>
</event>
<event>
11    1  0.2045212E-008  0.2114305E+04  0.7818608E-02  0.8554968E-01
          1   -1    0    0  501    0  0.00000000000E+00  0.00000000000E+00  0.10350978910E+04  0.10350978910E+04  0.00000000000E+00 0. -1.
         -1   -1    0    0    0  501 -0.00000000000E+00 -0.00000000000E+00 -0.10796774548E+04  0.10796774548E+04  0.00000000000E+00 0.  1.
         23    2    1    2    0    0 -0.30411097036E+02  0.39206969045E+02  0.84195834559E+03  0.84827213603E+03  0.90607614499E+02 0.  0.
        254    2    1    2    0    0  0.30411097036E+02 -0.39206969045E+02 -0.88653790940E+03  0.12665032098E+04  0.90311621308E+03 0.  0.
         24    2    4    4    0    0 -0.23051910052E+03 -0.33519462383E+03 -0.55804878460E+03  0.69513789377E+03  0.79396182584E+02 0.  0.
         11    1    3    3    0    0 -0.36007410916E+02  0.47908494053E+02  0.83115878432E+03  0.83331667582E+03  0.00000000000E+00 0. -1.
        -11    1    3    3    0    0  0.55963138791E+01 -0.87015250076E+01  0.10799561277E+02  0.14955460216E+02  0.00000000000E+00 0.  1.
          2    1    5    5  502    0 -0.19908689748E+03 -0.30776548595E+03 -0.53168044910E+03  0.64578579037E+03  0.00000000000E+00 0. -1.
          1    1    4    4  503    0  0.16767149357E+03  0.28068509853E+03 -0.34512752662E+03  0.47540599904E+03  0.00000000000E+00 0. -1.
         -2    1    4    4    0  503  0.93258703988E+02  0.15302556248E+02  0.16638401826E+02  0.95959316966E+02  0.00000000000E+00 0.  1.
         -3    1    5    5    0  502 -0.31432203037E+02 -0.27429137875E+02 -0.26368335503E+02  0.49352103395E+02  0.00000000000E+00 0.  1.
<mgrwt>
<rscale>  0 0.21143054E+04</rscale>
<asrwt>0</asrwt>
<pdfrwt beam="1">  1        1 0.15924583E+00 0.21143054E+04</pdfrwt>
<pdfrwt beam="2">  1       -1 0.16610422E+00 0.21143054E+04</pdfrwt>
<totfact> 0.34322664E+00</totfact>
</mgrwt>
</event>
<event>
11    1  0.2045212E-008  0.1210227E+04  0.7818608E-02  0.9103952E-01
          1   -1    0    0  501    0  0.00000000000E+00  0.00000000000E+00  0.57177238809E+03  0.57177238809E+03  0.00000000000E+00 0. -1.
         -1   -1    0    0    0  501 -0.00000000000E+00 -0.00000000000E+00 -0.64039840132E+03  0.64039840132E+03  0.00000000000E+00 0.  1.
         23    2    1    2    0    0  0.16988842046E+03  0.60559257389E+01  0.16472995884E+03  0.25373605871E+03  0.91363441857E+02 0.  0.
        254    2    1    2    0    0 -0.16988842046E+03 -0.60559257389E+01 -0.23335597208E+03  0.95843473070E+03  0.91391650257E+03 0.  0.
         24    2    4    4    0    0  0.28575798417E+03 -0.18248286987E+03 -0.28668663034E+03  0.45090336175E+03  0.78530212696E+02 0.  0.
         11    1    3    3    0    0  0.13732680393E+03 -0.14716073186E+02  0.77578495414E+02  0.15840971195E+03  0.00000000000E+00 0. -1.
        -11    1    3    3    0    0  0.32561616530E+02  0.20771998924E+02  0.87151463428E+02  0.95326346767E+02  0.00000000000E+00 0.  1.
          2    1    5    5  502    0  0.27188737669E+03 -0.18861829268E+03 -0.28269590636E+03  0.43522015280E+03  0.00000000000E+00 0. -1.
          3    1    4    4  503    0 -0.46391974008E+03  0.17670247049E+03  0.52026131503E+02  0.49915128636E+03  0.00000000000E+00 0. -1.
         -4    1    4    4    0  503  0.82733354457E+01 -0.27552635795E+00  0.13045267659E+01  0.83800825923E+01  0.00000000000E+00 0.  1.
         -1    1    5    5    0  502  0.13870607482E+02  0.61354228073E+01 -0.39907239885E+01  0.15683208947E+02  0.00000000000E+00 0.  1.
<mgrwt>
<rscale>  0 0.12102266E+04</rscale>
<asrwt>0</asrwt>
<pdfrwt beam="1">  1        1 0.87964983E-01 0.12102266E+04</pdfrwt>
<pdfrwt beam="2">  1       -1 0.98522831E-01 0.12102266E+04</pdfrwt>
<totfact> 0.35817428E+01</totfact>
</mgrwt>
</event>
<event>
11    1  0.2045212E-008  0.1136293E+04  0.7818608E-02  0.9170523E-01
          1   -1    0    0  501    0  0.00000000000E+00  0.00000000000E+00  0.18998140157E+04  0.18998140157E+04  0.00000000000E+00 0. -1.
         -1   -1    0    0    0  501 -0.00000000000E+00 -0.00000000000E+00 -0.16990633129E+03  0.16990633129E+03  0.00000000000E+00 0.  1.
         23    2    1    2    0    0 -0.17738876749E+03  0.10696754586E+02  0.22975312603E+03  0.30490332789E+03  0.92727261628E+02 0.  0.
        254    2    1    2    0    0  0.17738876749E+03 -0.10696754586E+02  0.15001545583E+04  0.17648170191E+04  0.91243312986E+03 0.  0.
         24    2    4    4    0    0  0.33941214533E+02 -0.42979720982E+03  0.90585983535E+03  0.10065202862E+04  0.81384259558E+02 0.  0.
         11    1    3    3    0    0 -0.26419873555E+02  0.12071750966E+02 -0.10968525911E+01  0.29067851239E+02  0.00000000000E+00 0.  1.
        -11    1    3    3    0    0 -0.15096889393E+03 -0.13749963805E+01  0.23084997862E+03  0.27583547665E+03  0.00000000000E+00 0. -1.
          4    1    5    5  502    0  0.94160094922E+01 -0.34204941705E+03  0.77379430128E+03  0.84607569734E+03  0.00000000000E+00 0. -1.
          1    1    4    4  503    0  0.29228927631E+02  0.31368066214E+03  0.41439528872E+03  0.52055099973E+03  0.00000000000E+00 0. -1.
         -2    1    4    4    0  503  0.11421862532E+03  0.10541979310E+03  0.17989943427E+03  0.23774573308E+03  0.00000000000E+00 0.  1.
         -3    1    5    5    0  502  0.24525205041E+02 -0.87747792772E+02  0.13206553407E+03  0.16044458891E+03  0.00000000000E+00 0.  1.
<mgrwt>
<rscale>  0 0.11362930E+04</rscale>
<asrwt>0</asrwt>
<pdfrwt beam="1">  1        1 0.29227907E+00 0.11362930E+04</pdfrwt>
<pdfrwt beam="2">  1       -1 0.26139437E-01 0.11362930E+04</pdfrwt>
<totfact> 0.45019659E+01</totfact>
</mgrwt>
</event>
<event>
11    1  0.2045212E-008  0.2148647E+04  0.7818608E-02  0.8540111E-01
          1   -1    0    0  501    0  0.00000000000E+00  0.00000000000E+00  0.33007843072E+04  0.33007843072E+04  0.00000000000E+00 0. -1.
         -1   -1    0    0    0  501 -0.00000000000E+00 -0.00000000000E+00 -0.34966578226E+03  0.34966578226E+03  0.00000000000E+00 0.  1.
         23    2    1    2    0    0 -0.57499410849E+03 -0.42643731049E+03  0.20850092309E+04  0.22063951555E+04  0.91918902720E+02 0.  0.
        254    2    1    2    0    0  0.57499410849E+03  0.42643731049E+03  0.86610929406E+03  0.14440549340E+04  0.90701837828E+03 0.  0.
         24    2    4    4    0    0 -0.33836317241E+02 -0.19915963652E+03  0.49684530024E+01  0.21705394794E+03  0.79235557706E+02 0.  0.
         11    1    3    3    0    0 -0.21631170969E+03 -0.10705240706E+03  0.67830459998E+03  0.71996396018E+03  0.00000000000E+00 0.  1.
        -11    1    3    3    0    0 -0.35868239879E+03 -0.31938490343E+03  0.14067046309E+04  0.14864311953E+04  0.00000000000E+00 0. -1.
          2    1    5    5  502    0 -0.34573623367E+02 -0.20075873212E+03  0.17439552976E+02  0.20445914498E+03  0.00000000000E+00 0. -1.
          3    1    4    4  503    0  0.47474746144E+03  0.46450835014E+03  0.66745428859E+03  0.94162008626E+03  0.00000000000E+00 0. -1.
         -4    1    4    4    0  503  0.13408296429E+03  0.16108859687E+03  0.19368655247E+03  0.28538089979E+03  0.00000000000E+00 0.  1.
         -1    1    5    5    0  502  0.73730612523E+00  0.15990955995E+01 -0.12471099974E+02  0.12594802961E+02  0.00000000000E+00 0.  1.
<mgrwt>
<rscale>  0 0.21486473E+04</rscale>
<asrwt>0</asrwt>
<pdfrwt beam="1">  1        1 0.50781295E+00 0.21486473E+04</pdfrwt>
<pdfrwt beam="2">  1       -1 0.53794738E-01 0.21486473E+04</pdfrwt>
<totfact> 0.11416551E+00</totfact>
</mgrwt>
</event>
<event>
12    1  0.2045212E-008  0.1191805E+04  0.7818608E-02  0.9120060E-01
          2   -1    0    0  501    0  0.00000000000E+00  0.00000000000E+00  0.75437307394E+03  0.75437307394E+03  0.00000000000E+00 0. -1.
         -2   -1    0    0    0  501 -0.00000000000E+00 -0.00000000000E+00 -0.47072171280E+03  0.47072171280E+03  0.00000000000E+00 0.  1.
         23    2    1    2    0    0  0.24175170501E+03 -0.42846565589E+02  0.50363408970E+02  0.26684132143E+03  0.91586586376E+02 0.  0.
        254    2    1    2    0    0 -0.24175170501E+03  0.42846565589E+02  0.23328795216E+03  0.95825346531E+03  0.89640767517E+03 0.  0.
        -24    2    4    4    0    0 -0.40200864474E+03  0.74775165898E+01 -0.22191860070E+03  0.46813022924E+03  0.90725864526E+02 0.  0.
         24    2    4    4    0    0  0.16025693973E+03  0.35369049000E+02  0.45520655286E+03  0.49012323606E+03  0.77939235316E+02 0.  0.
         13    1    3    3    0    0  0.86600271960E+02  0.89841887541E+01 -0.19080508216E+02  0.89131299468E+02  0.00000000000E+00 0. -1.
        -13    1    3    3    0    0  0.15515143305E+03 -0.51830754344E+02  0.69443917186E+02  0.17771002196E+03  0.00000000000E+00 0.  1.
          2    1    6    6  502    0  0.99926110675E+02  0.10083596629E+02  0.36582579801E+03  0.37936186024E+03  0.00000000000E+00 0. -1.
          1    1    5    5  503    0 -0.17800966052E+03  0.11210070312E+02 -0.14936810036E+03  0.23264551214E+03  0.00000000000E+00 0. -1.
         -2    1    5    5    0  503 -0.22399898422E+03 -0.37325537217E+01 -0.72550500344E+02  0.23548471710E+03  0.00000000000E+00 0.  1.
         -1    1    6    6    0  502  0.60330829060E+02  0.25285452371E+02  0.89380754856E+02  0.11076137583E+03  0.00000000000E+00 0.  1.
<mgrwt>
<rscale>  0 0.11918050E+04</rscale>
<asrwt>0</asrwt>
<pdfrwt beam="1">  1        2 0.11605740E+00 0.11918050E+04</pdfrwt>
<pdfrwt beam="2">  1       -2 0.72418725E-01 0.11918050E+04</pdfrwt>
<totfact> 0.63427516E+01</totfact>
</mgrwt>
</event>
<event>
11    1  0.2045212E-008  0.1712268E+04  0.7818608E-02  0.8754398E-01
          2   -1    0    0  501    0  0.00000000000E+00  0.00000000000E+00  0.15875568042E+04  0.15875568042E+04  0.00000000000E+00 0.  1.
         -2   -1    0    0    0  501 -0.00000000000E+00 -0.00000000000E+00 -0.46169422767E+03  0.46169422767E+03  0.00000000000E+00 0. -1.
         23    2    1    2    0    0  0.21878525152E+03 -0.27895572830E+03 -0.18216871387E+03  0.41724264794E+03  0.12338031573E+03 0.  0.
        254    2    1    2    0    0 -0.21878525152E+03  0.27895572830E+03  0.13080312904E+04  0.16320083839E+04  0.90929765418E+03 0.  0.
         24    2    4    4    0    0 -0.16962364676E+03 -0.24581468769E+03  0.12342006110E+03  0.33467632224E+03  0.87055654404E+02 0.  0.
         13    1    3    3    0    0  0.21392514686E+03 -0.27354093157E+03 -0.19805604431E+03  0.39976844096E+03  0.00000000000E+00 0. -1.
        -13    1    3    3    0    0  0.48601046607E+01 -0.54147967314E+01  0.15887330438E+02  0.17474206975E+02  0.00000000000E+00 0.  1.
          2    1    5    5  502    0 -0.26148436047E+02 -0.53155774600E+02 -0.97228892109E+01  0.60031755393E+02  0.00000000000E+00 0. -1.
          3    1    4    4  503    0 -0.14872074187E+02  0.30946422370E+03  0.73586438520E+03  0.79842700214E+03  0.00000000000E+00 0. -1.
         -4    1    4    4    0  503 -0.34289530575E+02  0.21530619229E+03  0.44874684407E+03  0.49890505952E+03  0.00000000000E+00 0.  1.
         -1    1    5    5    0  502 -0.14347521071E+03 -0.19265891309E+03  0.13314295031E+03  0.27464456685E+03  0.00000000000E+00 0.  1.
<mgrwt>
<rscale>  0 0.17122685E+04</rscale>
<asrwt>0</asrwt>
<pdfrwt beam="1">  1        2 0.24423951E+00 0.17122685E+04</pdfrwt>
<pdfrwt beam="2">  1       -2 0.71029882E-01 0.17122685E+04</pdfrwt>
<totfact> 0.19394014E+01</totfact>
</mgrwt>
</event>
<event>
12    1  0.2045212E-008  0.1913922E+04  0.7818608E-02  0.8647957E-01
          2   -1    0    0  501    0  0.00000000000E+00  0.00000000000E+00  0.20078712981E+04  0.20078712981E+04  0.00000000000E+00 0. -1.
         -2   -1    0    0    0  501 -0.00000000000E+00 -0.00000000000E+00 -0.45609230520E+03  0.45609230520E+03  0.00000000000E+00 0.  1.
         23    2    1    2    0    0  0.16436055396E+03  0.53759675348E+03 -0.18717892987E+02  0.57040751794E+03  0.94814112619E+02 0.  0.
        254    2    1    2    0    0 -0.16436055396E+03 -0.53759675348E+03  0.15704968859E+04  0.18935560854E+04  0.89614146136E+03 0.  0.
        -24    2    4    4    0    0 -0.48792941797E+03 -0.10098362371E+03  0.71904263609E+03  0.88015627767E+03  0.96850149309E+02 0.  0.
         24    2    4    4    0    0  0.32356886401E+03 -0.43661312977E+03  0.85145424980E+03  0.10133998077E+04  0.81712886902E+02 0.  0.
         11    1    3    3    0    0  0.15732923838E+03  0.41971503308E+03  0.11972988266E+02  0.44839329912E+03  0.00000000000E+00 0. -1.
        -11    1    3    3    0    0  0.70313155831E+01  0.11788172040E+03 -0.30690881253E+02  0.12201421882E+03  0.00000000000E+00 0.  1.
          2    1    6    6  502    0 -0.30373170121E+01  0.10076953422E+01  0.28515146813E+01  0.42862431700E+01  0.00000000000E+00 0. -1.
          1    1    5    5  503    0 -0.19806056894E+03 -0.59649720056E+02  0.37603841223E+03  0.42917474942E+03  0.00000000000E+00 0. -1.
         -2    1    5    5    0  503 -0.28986884903E+03 -0.41333903656E+02  0.34300422387E+03  0.45098152825E+03  0.00000000000E+00 0.  1.
         -1    1    6    6    0  502  0.32660618102E+03 -0.43762082511E+03  0.84860273512E+03  0.10091135645E+04  0.00000000000E+00 0.  1.
<mgrwt>
<rscale>  0 0.19139223E+04</rscale>
<asrwt>0</asrwt>
<pdfrwt beam="1">  1        2 0.30890327E+00 0.19139223E+04</pdfrwt>
<pdfrwt beam="2">  1       -2 0.70168048E-01 0.19139223E+04</pdfrwt>
<totfact> 0.11441511E+01</totfact>
</mgrwt>
</event>
<event>
11    1  0.2045212E-008  0.3845305E+04  0.7818608E-02  0.8036502E-01
          1   -1    0    0  501    0  0.00000000000E+00  0.00000000000E+00  0.14398709981E+04  0.14398709981E+04  0.00000000000E+00 0. -1.
         -1   -1    0    0    0  501 -0.00000000000E+00 -0.00000000000E+00 -0.25673085297E+04  0.25673085297E+04  0.00000000000E+00 0.  1.
         23    2    1    2    0    0  0.16470940889E+04 -0.29087092809E+03 -0.12774855308E+04  0.21065970718E+04  0.90868625403E+02 0.  0.
        254    2    1    2    0    0 -0.16470940889E+04  0.29087092809E+03  0.15004799920E+03  0.19005824560E+04  0.89004181681E+03 0.  0.
         24    2    4    4    0    0 -0.14827299314E+04 -0.22339266476E+02  0.76867978401E+00  0.14850458618E+04  0.79834382353E+02 0.  0.
         11    1    3    3    0    0  0.33935319522E+03 -0.72398048789E+02 -0.30967481951E+03  0.46508124281E+03  0.00000000000E+00 0. -1.
        -11    1    3    3    0    0  0.13077408937E+04 -0.21847287930E+03 -0.96781071128E+03  0.16415158290E+04  0.00000000000E+00 0.  1.
          4    1    5    5  502    0 -0.43549222102E+03 -0.31820489351E+02 -0.25959926509E+02  0.43742420589E+03  0.00000000000E+00 0. -1.
          3    1    4    4  503    0 -0.17046325153E+03  0.15794309378E+03  0.91671528012E+02  0.24981475145E+03  0.00000000000E+00 0. -1.
         -4    1    4    4    0  503  0.60990940315E+01  0.15526710079E+03  0.57607791401E+02  0.16572184275E+03  0.00000000000E+00 0.  1.
         -3    1    5    5    0  502 -0.10472377104E+04  0.94812228742E+01  0.26728606293E+02  0.10476216560E+04  0.00000000000E+00 0.  1.
<mgrwt>
<rscale>  0 0.38453052E+04</rscale>
<asrwt>0</asrwt>
<pdfrwt beam="1">  1        1 0.22151862E+00 0.38453052E+04</pdfrwt>
<pdfrwt beam="2">  1       -1 0.39497054E+00 0.38453052E+04</pdfrwt>
<totfact> 0.44179260E-02</totfact>
</mgrwt>
</event>
<event>
12    1  0.2045212E-008  0.3295757E+04  0.7818608E-02  0.8163976E-01
         -1   -1    0    0    0  501 -0.00000000000E+00  0.00000000000E+00  0.12519152016E+04  0.12519152016E+04  0.00000000000E+00 0.  1.
          1   -1    0    0  501    0  0.00000000000E+00 -0.00000000000E+00 -0.21690791092E+04  0.21690791092E+04  0.00000000000E+00 0. -1.
         23    2    1    2    0    0  0.73015483337E+03  0.87522838750E+03  0.62721562083E+03  0.13042529712E+04  0.92333996599E+02 0.  0.
        254    2    1    2    0    0 -0.73015483337E+03 -0.87522838750E+03 -0.15443795285E+04  0.21167413396E+04  0.89237601922E+03 0.  0.
        -24    2    4    4    0    0 -0.70458722290E+03 -0.92977251451E+03 -0.16139560806E+04  0.19935663169E+04  0.92370701108E+02 0.  0.
         24    2    4    4    0    0 -0.25567610472E+02  0.54544127012E+02  0.69576552077E+02  0.12317502269E+03  0.81868340152E+02 0.  0.
         11    1    3    3    0    0  0.48350723585E+03  0.58706026347E+03  0.36847943719E+03  0.84510123399E+03  0.00000000000E+00 0.  1.
        -11    1    3    3    0    0  0.24664759753E+03  0.28816812404E+03  0.25873618364E+03  0.45915173723E+03  0.00000000000E+00 0. -1.
          2    1    6    6  502    0 -0.32894028746E+02  0.70108071196E+02  0.72075406414E+02  0.10579235787E+03  0.00000000000E+00 0. -1.
          3    1    5    5  503    0 -0.37409372833E+03 -0.50371562621E+03 -0.78985931173E+03  0.10087384607E+04  0.00000000000E+00 0. -1.
         -4    1    5    5    0  503 -0.33049349457E+03 -0.42605688830E+03 -0.82409676883E+03  0.98482785623E+03  0.00000000000E+00 0.  1.
         -1    1    6    6    0  502  0.73264182742E+01 -0.15563944184E+02 -0.24988543374E+01  0.17382664821E+02  0.00000000000E+00 0.  1.
<mgrwt>
<rscale>  0 0.32957567E+04</rscale>
<asrwt>0</asrwt>
<pdfrwt beam="1">  1        1 0.33370447E+00 0.32957567E+04</pdfrwt>
<pdfrwt beam="2">  1       -1 0.19260234E+00 0.32957567E+04</pdfrwt>
<totfact> 0.32156427E-01</totfact>
</mgrwt>
</event>
<event>
12    1  0.2045212E-008  0.2748275E+04  0.7818608E-02  0.8319509E-01
         -2   -1    0    0    0  501 -0.00000000000E+00  0.00000000000E+00  0.10300648023E+04  0.10300648023E+04  0.00000000000E+00 0. -1.
          2   -1    0    0  501    0  0.00000000000E+00 -0.00000000000E+00 -0.18331408629E+04  0.18331408629E+04  0.00000000000E+00 0.  1.
         23    2    1    2    0    0  0.90991377680E+03  0.67815081278E+03 -0.83467293111E+03  0.14117474286E+04  0.92305438927E+02 0.  0.
        254    2    1    2    0    0 -0.90991377680E+03 -0.67815081278E+03  0.31596870511E+02  0.14514582367E+04  0.90437881696E+03 0.  0.
        -24    2    4    4    0    0 -0.33877586582E+03 -0.78735308899E+03 -0.38020235051E+02  0.86069937076E+03  0.68292712182E+02 0.  0.
         24    2    4    4    0    0 -0.57113791098E+03  0.10920227621E+03  0.69617105562E+02  0.59075886594E+03  0.77626321636E+02 0.  0.
         11    1    3    3    0    0  0.41446598636E+03  0.30608869188E+03 -0.32229471097E+03  0.60773861311E+03  0.00000000000E+00 0. -1.
        -11    1    3    3    0    0  0.49544779044E+03  0.37206212090E+03 -0.51237822014E+03  0.80400881546E+03  0.00000000000E+00 0.  1.
          4    1    6    6  502    0 -0.15214452054E+03 -0.47377746925E+01  0.11072427973E+02  0.15262044523E+03  0.00000000000E+00 0. -1.
          3    1    5    5  503    0 -0.20678000900E+03 -0.39543540289E+03 -0.14088539567E+02  0.44645897564E+03  0.00000000000E+00 0. -1.
         -4    1    5    5    0  503 -0.13199585681E+03 -0.39191768610E+03 -0.23931695484E+02  0.41424039511E+03  0.00000000000E+00 0.  1.
         -3    1    6    6    0  502 -0.41899339044E+03  0.11394005090E+03  0.58544677589E+02  0.43813842072E+03  0.00000000000E+00 0.  1.
<mgrwt>
<rscale>  0 0.27482750E+04</rscale>
<asrwt>0</asrwt>
<pdfrwt beam="1">  1        2 0.28202167E+00 0.27482750E+04</pdfrwt>
<pdfrwt beam="2">  1       -2 0.15847151E+00 0.27482750E+04</pdfrwt>
<totfact> 0.18689744E+00</totfact>
</mgrwt>
</event>
<event>
11    1  0.2045212E-008  0.1241817E+04  0.7818608E-02  0.9077022E-01
         -2   -1    0    0    0  501 -0.00000000000E+00  0.00000000000E+00  0.30503679941E+03  0.30503679941E+03  0.00000000000E+00 0.  1.
          2   -1    0    0  501    0  0.00000000000E+00 -0.00000000000E+00 -0.12638711644E+04  0.12638711644E+04  0.00000000000E+00 0. -1.
         23    2    1    2    0    0 -0.17111997343E+03 -0.21164253217E+03 -0.12137768732E+03  0.31182820818E+03  0.91813298104E+02 0.  0.
        254    2    1    2    0    0  0.17111997343E+03  0.21164253217E+03 -0.83745667771E+03  0.12570797557E+04  0.89712943233E+03 0.  0.
         24    2    4    4    0    0 -0.10417252671E+03 -0.10524144085E+02 -0.64571795341E+03  0.65887136888E+03  0.78721867631E+02 0.  0.
         11    1    3    3    0    0 -0.48335065204E+02 -0.74530987021E+02 -0.87487690917E+02  0.12468056230E+03  0.00000000000E+00 0. -1.
        -11    1    3    3    0    0 -0.12278490822E+03 -0.13711154515E+03 -0.33889996402E+02  0.18714764587E+03  0.00000000000E+00 0.  1.
          2    1    5    5  502    0 -0.29020685779E+02  0.16056909651E+01 -0.46493212112E+02  0.54830623004E+02  0.00000000000E+00 0. -1.
          1    1    4    4  503    0 -0.10272135226E+03  0.11648320439E+03  0.12376421530E+02  0.15579855238E+03  0.00000000000E+00 0. -1.
         -2    1    4    4    0  503  0.37801385239E+03  0.10568347187E+03 -0.20411514583E+03  0.44240983441E+03  0.00000000000E+00 0.  1.
         -1    1    5    5    0  502 -0.75151840929E+02 -0.12129835050E+02 -0.59922474130E+03  0.60404074588E+03  0.00000000000E+00 0.  1.
<mgrwt>
<rscale>  0 0.12418168E+04</rscale>
<asrwt>0</asrwt>
<pdfrwt beam="1">  1        2 0.19444171E+00 0.12418168E+04</pdfrwt>
<pdfrwt beam="2">  1       -2 0.46928740E-01 0.12418168E+04</pdfrwt>
<totfact> 0.73490389E+01</totfact>
</mgrwt>
</event>
<event>
12    1  0.2094207E-008  0.2594432E+04  0.7818608E-02  0.8370095E-01
         -2   -1    0    0    0  501 -0.00000000000E+00  0.00000000000E+00  0.10814702928E+04  0.10814702928E+04  0.00000000000E+00 0.  1.
          2   -1    0    0  501    0  0.00000000000E+00 -0.00000000000E+00 -0.15560017400E+04  0.15560017400E+04  0.00000000000E+00 0. -1.
         23    2    1    2    0    0  0.35349081009E+03  0.74270646773E+03 -0.10095062209E+04  0.13055435612E+04  0.93661785871E+02 0.  0.
        254    2    1    2    0    0 -0.35349081009E+03 -0.74270646773E+03  0.53497477364E+03  0.13319284716E+04  0.90070350010E+03 0.  0.
        -24    2    4    4    0    0  0.88326959170E+02  0.15669268655E+03  0.25904619493E+02  0.20506117511E+03  0.94998876273E+02 0.  0.
         24    2    4    4    0    0 -0.44181776926E+03 -0.89939915428E+03  0.50907015415E+03  0.11268672965E+04  0.80967290794E+02 0.  0.
         11    1    3    3    0    0  0.16099632793E+03  0.41413467694E+03 -0.59606185363E+03  0.74344944791E+03  0.00000000000E+00 0. -1.
        -11    1    3    3    0    0  0.19249448215E+03  0.32857179079E+03 -0.41344436726E+03  0.56209411328E+03  0.00000000000E+00 0.  1.
          4    1    6    6  502    0 -0.39101246215E+03 -0.72560335540E+03  0.41626830226E+03  0.92340146978E+03  0.00000000000E+00 0. -1.
          1    1    5    5  503    0  0.81873276089E+02  0.15375297721E+03 -0.40885629635E+01  0.17424100460E+03  0.00000000000E+00 0. -1.
         -2    1    5    5    0  503  0.64536830810E+01  0.29397093394E+01  0.29993182456E+02  0.30820170508E+02  0.00000000000E+00 0.  1.
         -3    1    6    6    0  502 -0.50805307106E+02 -0.17379579888E+03  0.92801851885E+02  0.20346582675E+03  0.00000000000E+00 0.  1.
<mgrwt>
<rscale>  0 0.25944322E+04</rscale>
<asrwt>0</asrwt>
<pdfrwt beam="1">  1        2 0.23938488E+00 0.25944322E+04</pdfrwt>
<pdfrwt beam="2">  1       -2 0.16638004E+00 0.25944322E+04</pdfrwt>
<totfact> 0.23638946E+00</totfact>
</mgrwt>
</event>
<event>
11    1  0.2045212E-008  0.1695974E+04  0.7818608E-02  0.8763664E-01
          2   -1    0    0  501    0  0.00000000000E+00  0.00000000000E+00  0.86807745976E+03  0.86807745976E+03  0.00000000000E+00 0. -1.
         -2   -1    0    0    0  501 -0.00000000000E+00 -0.00000000000E+00 -0.82836155781E+03  0.82836155781E+03  0.00000000000E+00 0.  1.
         23    2    1    2    0    0  0.54618251113E+03 -0.16584838219E+03 -0.18464764940E+03  0.60695306176E+03  0.92066516285E+02 0.  0.
        254    2    1    2    0    0 -0.54618251113E+03  0.16584838219E+03  0.22436355135E+03  0.10894859558E+04  0.90045523119E+03 0.  0.
         24    2    4    4    0    0 -0.53694696326E+03  0.41562641640E+03  0.36073764020E+03  0.77304135354E+03  0.80024557905E+02 0.  0.
         11    1    3    3    0    0  0.58578926994E+02  0.43047077057E+01 -0.72724422422E+00  0.58741383031E+02  0.00000000000E+00 0. -1.
        -11    1    3    3    0    0  0.48760358413E+03 -0.17015308990E+03 -0.18392040517E+03  0.54821167873E+03  0.00000000000E+00 0.  1.
          4    1    5    5  502    0 -0.44795724669E+03  0.32806048680E+03  0.32419504947E+03  0.64295552564E+03  0.00000000000E+00 0. -1.
          1    1    4    4  503    0 -0.34793453611E+02 -0.34612888519E+02  0.15925077314E+02  0.51596943255E+02  0.00000000000E+00 0. -1.
         -2    1    4    4    0  503  0.25557905744E+02 -0.21516514569E+03 -0.15229916617E+03  0.26484765900E+03  0.00000000000E+00 0.  1.
         -1    1    5    5    0  502 -0.88989716570E+02  0.87565929602E+02  0.36542590734E+02  0.13008582790E+03  0.00000000000E+00 0.  1.
<mgrwt>
<rscale>  0 0.16959741E+04</rscale>
<asrwt>0</asrwt>
<pdfrwt beam="1">  1        2 0.13355038E+00 0.16959741E+04</pdfrwt>
<pdfrwt beam="2">  1       -2 0.12744024E+00 0.16959741E+04</pdfrwt>
<totfact> 0.13402585E+01</totfact>
</mgrwt>
</event>
<event>
12    1  0.2045212E-008  0.1342167E+04  0.7818608E-02  0.8996779E-01
         -1   -1    0    0    0  501 -0.00000000000E+00  0.00000000000E+00  0.47408290098E+03  0.47408290098E+03  0.00000000000E+00 0.  1.
          1   -1    0    0  501    0  0.00000000000E+00 -0.00000000000E+00 -0.94994538752E+03  0.94994538752E+03  0.00000000000E+00 0. -1.
         23    2    1    2    0    0 -0.13602210136E+02  0.20859232592E+03  0.19303952371E+03  0.29854720170E+03  0.90390239362E+02 0.  0.
        254    2    1    2    0    0  0.13602210136E+02 -0.20859232592E+03 -0.66890201025E+03  0.11254810868E+04  0.88067133420E+03 0.  0.
        -24    2    4    4    0    0 -0.16223462248E+03  0.24189246777E+03 -0.11168998769E+02  0.30581494326E+03  0.92552656841E+02 0.  0.
         24    2    4    4    0    0  0.17583683262E+03 -0.45048479370E+03 -0.65773301148E+03  0.81966614355E+03  0.73380729315E+02 0.  0.
         13    1    3    3    0    0  0.16034858579E+02  0.47401610816E+02  0.68610619215E+01  0.50508450464E+02  0.00000000000E+00 0. -1.
        -13    1    3    3    0    0 -0.29637068716E+02  0.16119071511E+03  0.18617846179E+03  0.24803875123E+03  0.00000000000E+00 0.  1.
          4    1    6    6  502    0  0.17442920977E+03 -0.44870603725E+03 -0.65968865803E+03  0.81667115941E+03  0.00000000000E+00 0. -1.
          3    1    5    5  503    0 -0.10644671096E+03  0.17708243034E+03  0.33541124776E+02  0.20931817040E+03  0.00000000000E+00 0. -1.
         -4    1    5    5    0  503 -0.55787911521E+02  0.64810037436E+02 -0.44710123545E+02  0.96496772857E+02  0.00000000000E+00 0.  1.
         -3    1    6    6    0  502  0.14076228483E+01 -0.17787564471E+01  0.19556465462E+01  0.29949841393E+01  0.00000000000E+00 0.  1.
<mgrwt>
<rscale>  0 0.13421667E+04</rscale>
<asrwt>0</asrwt>
<pdfrwt beam="1">  1        1 0.14614544E+00 0.13421667E+04</pdfrwt>
<pdfrwt beam="2">  1       -1 0.72935832E-01 0.13421667E+04</pdfrwt>
<totfact> 0.30775120E+01</totfact>
</mgrwt>
</event>
<event>
12    1  0.2045212E-008  0.3477635E+04  0.7818608E-02  0.8119111E-01
         -1   -1    0    0    0  501 -0.00000000000E+00  0.00000000000E+00  0.32226236029E+04  0.32226236029E+04  0.00000000000E+00 0. -1.
          1   -1    0    0  501    0  0.00000000000E+00 -0.00000000000E+00 -0.93820622771E+03  0.93820622771E+03  0.00000000000E+00 0.  1.
         23    2    1    2    0    0  0.29129948023E+03 -0.96121907499E+03  0.25890878326E+04  0.27785488809E+04  0.90335934559E+02 0.  0.
        254    2    1    2    0    0 -0.29129948023E+03  0.96121907499E+03 -0.30467045745E+03  0.13822809497E+04  0.89948820948E+03 0.  0.
        -24    2    4    4    0    0 -0.19646480399E+03  0.10273336328E+04 -0.49442140728E+01  0.10510442541E+04  0.10323161580E+03 0.  0.
         24    2    4    4    0    0 -0.94834676239E+02 -0.66114557862E+02 -0.29972624338E+03  0.33123669558E+03  0.80729034136E+02 0.  0.
         13    1    3    3    0    0  0.81432491024E+02 -0.35757427746E+03  0.84933012867E+03  0.92512284695E+03  0.00000000000E+00 0.  1.
        -13    1    3    3    0    0  0.20986698920E+03 -0.60364479753E+03  0.17397577039E+04  0.18534260339E+04  0.00000000000E+00 0. -1.
          2    1    6    6  502    0 -0.56382227151E+02 -0.78271159515E+02 -0.24459580067E+03  0.26293047685E+03  0.00000000000E+00 0. -1.
          3    1    5    5  503    0 -0.14773939918E+03  0.52528110675E+03 -0.24996643527E+02  0.54623438501E+03  0.00000000000E+00 0. -1.
         -4    1    5    5    0  503 -0.48725404806E+02  0.50205252610E+03  0.20052429454E+02  0.50480986912E+03  0.00000000000E+00 0.  1.
         -1    1    6    6    0  502 -0.38452449088E+02  0.12156601653E+02 -0.55130442709E+02  0.68306218735E+02  0.00000000000E+00 0.  1.
<mgrwt>
<rscale>  0 0.34776346E+04</rscale>
<asrwt>0</asrwt>
<pdfrwt beam="1">  1        1 0.14433942E+00 0.34776346E+04</pdfrwt>
<pdfrwt beam="2">  1       -1 0.49578824E+00 0.34776346E+04</pdfrwt>
<totfact> 0.21952194E-02</totfact>
</mgrwt>
</event>
<event>
12    1  0.2045212E-008  0.2257627E+04  0.7818608E-02  0.8494818E-01
         -2   -1    0    0    0  501 -0.00000000000E+00  0.00000000000E+00  0.72849617460E+03  0.72849617460E+03  0.00000000000E+00 0.  1.
          2   -1    0    0  501    0  0.00000000000E+00 -0.00000000000E+00 -0.17491098469E+04  0.17491098469E+04  0.00000000000E+00 0. -1.
         23    2    1    2    0    0  0.17131123920E+03 -0.39632552363E+03 -0.13550037412E+04  0.14249906729E+04  0.90232022201E+02 0.  0.
        254    2    1    2    0    0 -0.17131123920E+03  0.39632552363E+03  0.33439006890E+03  0.10526153486E+04  0.89986715274E+03 0.  0.
        -24    2    4    4    0    0 -0.35557033011E+03 -0.93399700397E+02  0.36485609418E+03  0.52231234653E+03  0.67353204764E+02 0.  0.
         24    2    4    4    0    0  0.18425909090E+03  0.48972522403E+03 -0.30466025281E+02  0.53030300207E+03  0.80690071747E+02 0.  0.
         13    1    3    3    0    0  0.16606646142E+03 -0.31679915611E+03 -0.10293182043E+04  0.10896952512E+04  0.00000000000E+00 0. -1.
        -13    1    3    3    0    0  0.52447777793E+01 -0.79526367522E+02 -0.32568553694E+03  0.33529542167E+03  0.00000000000E+00 0.  1.
          2    1    6    6  502    0  0.62468502447E+02  0.10338843161E+03 -0.32978724652E+02  0.12521612463E+03  0.00000000000E+00 0. -1.
          1    1    5    5  503    0 -0.11802897179E+03 -0.43108389425E+02  0.84479302848E+02  0.15141309069E+03  0.00000000000E+00 0. -1.
         -2    1    5    5    0  503 -0.23754135831E+03 -0.50291310972E+02  0.28037679133E+03  0.37089925584E+03  0.00000000000E+00 0.  1.
         -1    1    6    6    0  502  0.12179058846E+03  0.38633679242E+03  0.25126993708E+01  0.40508687744E+03  0.00000000000E+00 0.  1.
<mgrwt>
<rscale>  0 0.22576269E+04</rscale>
<asrwt>0</asrwt>
<pdfrwt beam="1">  1        2 0.26909382E+00 0.22576269E+04</pdfrwt>
<pdfrwt beam="2">  1       -2 0.11207634E+00 0.22576269E+04</pdfrwt>
<totfact> 0.52605168E+00</totfact>
</mgrwt>
</event>
<event>
11    1  0.2045212E-008  0.1542087E+04  0.7818608E-02  0.8856938E-01
          1   -1    0    0  501    0  0.00000000000E+00  0.00000000000E+00  0.15259807993E+04  0.15259807993E+04  0.00000000000E+00 0. -1.
         -1   -1    0    0    0  501 -0.00000000000E+00 -0.00000000000E+00 -0.38959060058E+03  0.38959060058E+03  0.00000000000E+00 0.  1.
         23    2    1    2    0    0 -0.21791121811E+03 -0.42851266745E+03  0.18621314378E+03  0.52454061194E+03  0.96742511387E+02 0.  0.
        254    2    1    2    0    0  0.21791121811E+03  0.42851266745E+03  0.95017705493E+03  0.13910307879E+04  0.89499821904E+03 0.  0.
         24    2    4    4    0    0  0.26262893947E+03  0.52858224884E+03  0.24681847151E+03  0.64456159332E+03  0.78531115272E+02 0.  0.
         11    1    3    3    0    0 -0.18931359494E+03 -0.30494938476E+03  0.10515279441E+03  0.37401988539E+03  0.00000000000E+00 0.  1.
        -11    1    3    3    0    0 -0.28597623171E+02 -0.12356328269E+03  0.81060349365E+02  0.15052072654E+03  0.00000000000E+00 0. -1.
          2    1    5    5  502    0  0.78565103019E+02  0.89171000134E+02  0.55724056841E+02  0.13125971655E+03  0.00000000000E+00 0. -1.
          3    1    4    4  503    0 -0.86546610820E+02  0.80788342752E+00  0.95523770627E+02  0.12890213061E+03  0.00000000000E+00 0. -1.
         -4    1    4    4    0  503  0.41828889463E+02 -0.10087746481E+03  0.60783481279E+03  0.61756706400E+03  0.00000000000E+00 0.  1.
         -1    1    5    5    0  502  0.18406383645E+03  0.43941124870E+03  0.19109441467E+03  0.51330187677E+03  0.00000000000E+00 0.  1.
<mgrwt>
<rscale>  0 0.15420866E+04</rscale>
<asrwt>0</asrwt>
<pdfrwt beam="1">  1        1 0.23476627E+00 0.15420866E+04</pdfrwt>
<pdfrwt beam="2">  1       -1 0.59937016E-01 0.15420866E+04</pdfrwt>
<totfact> 0.17075967E+01</totfact>
</mgrwt>
</event>
<event>
11    1  0.2045212E-008  0.1393415E+04  0.7818608E-02  0.8958599E-01
         -1   -1    0    0    0  501 -0.00000000000E+00  0.00000000000E+00  0.57058567019E+03  0.57058567019E+03  0.00000000000E+00 0.  1.
          1   -1    0    0  501    0  0.00000000000E+00 -0.00000000000E+00 -0.85070696128E+03  0.85070696128E+03  0.00000000000E+00 0. -1.
         23    2    1    2    0    0 -0.10526339508E+03  0.31097140516E+03 -0.31233636746E+03  0.46189789110E+03  0.89510101101E+02 0.  0.
        254    2    1    2    0    0  0.10526339508E+03 -0.31097140516E+03  0.32215076375E+02  0.95939474036E+03  0.90089780748E+03 0.  0.
         24    2    4    4    0    0 -0.11264192952E+03 -0.54968570466E+03  0.27285255178E+02  0.56750868225E+03  0.80492490870E+02 0.  0.
         13    1    3    3    0    0 -0.39662895710E+02  0.20143434804E+03 -0.14467898597E+03  0.25115921414E+03  0.00000000000E+00 0. -1.
        -13    1    3    3    0    0 -0.65600499374E+02  0.10953705711E+03 -0.16765738149E+03  0.21073867696E+03  0.00000000000E+00 0.  1.
          2    1    5    5  502    0 -0.28806806823E+02 -0.33710658609E+03  0.15217215493E+02  0.33867720052E+03  0.00000000000E+00 0. -1.
          1    1    4    4  503    0  0.19448125419E+03  0.24303895773E+03 -0.65020363491E+02  0.31799141635E+03  0.00000000000E+00 0. -1.
         -2    1    4    4    0  503  0.23424070411E+02 -0.43246582264E+01  0.69950184687E+02  0.73894641763E+02  0.00000000000E+00 0.  1.
         -1    1    5    5    0  502 -0.83835122695E+02 -0.21257911857E+03  0.12068039685E+02  0.22883148173E+03  0.00000000000E+00 0.  1.
<mgrwt>
<rscale>  0 0.13934148E+04</rscale>
<asrwt>0</asrwt>
<pdfrwt beam="1">  1        1 0.13087799E+00 0.13934148E+04</pdfrwt>
<pdfrwt beam="2">  1       -1 0.87782411E-01 0.13934148E+04</pdfrwt>
<totfact> 0.24908990E+01</totfact>
</mgrwt>
</event>
<event>
12    1  0.2045212E-008  0.1535915E+04  0.7818608E-02  0.8860915E-01
         -1   -1    0    0    0  501 -0.00000000000E+00  0.00000000000E+00  0.23628745454E+03  0.23628745454E+03  0.00000000000E+00 0.  1.
          1   -1    0    0  501    0  0.00000000000E+00 -0.00000000000E+00 -0.24959365256E+04  0.24959365256E+04  0.00000000000E+00 0. -1.
         23    2    1    2    0    0  0.23559586048E+03 -0.33594374169E+03 -0.23844623535E+03  0.48452559076E+03  0.97697665773E+02 0.  0.
        254    2    1    2    0    0 -0.23559586048E+03  0.33594374169E+03 -0.20212028357E+04  0.22476983893E+04  0.89360144329E+03 0.  0.
        -24    2    4    4    0    0 -0.31781492518E+02 -0.28508950031E+03 -0.87678268209E+03  0.92727470227E+03  0.93831846446E+02 0.  0.
         24    2    4    4    0    0 -0.20381436796E+03  0.62103324200E+03 -0.11444201536E+04  0.13204236871E+04  0.81232020647E+02 0.  0.
         11    1    3    3    0    0  0.19242158158E+03 -0.29260409547E+03 -0.23786641803E+03  0.42334814818E+03  0.00000000000E+00 0.  1.
        -11    1    3    3    0    0  0.43174278901E+02 -0.43339646217E+02 -0.57981732466E+00  0.61177442583E+02  0.00000000000E+00 0. -1.
          2    1    6    6  502    0 -0.16352063206E+03  0.40552916210E+03 -0.71062516666E+03  0.83437463164E+03  0.00000000000E+00 0. -1.
          1    1    5    5  503    0 -0.30880056399E+02 -0.28963093918E+03 -0.81801547596E+03  0.86832538701E+03  0.00000000000E+00 0. -1.
         -2    1    5    5    0  503 -0.90143611918E+00  0.45414388629E+01 -0.58767206128E+02  0.58949315264E+02  0.00000000000E+00 0.  1.
         -1    1    6    6    0  502 -0.40293735905E+02  0.21550407990E+03 -0.43379498693E+03  0.48604905543E+03  0.00000000000E+00 0.  1.
<mgrwt>
<rscale>  0 0.15359147E+04</rscale>
<asrwt>0</asrwt>
<pdfrwt beam="1">  1        1 0.38399025E+00 0.15359147E+04</pdfrwt>
<pdfrwt beam="2">  1       -1 0.36351915E-01 0.15359147E+04</pdfrwt>
<totfact> 0.95553246E+00</totfact>
</mgrwt>
</event>
<event>
12    1  0.2045212E-008  0.1503874E+04  0.7818608E-02  0.8881881E-01
          2   -1    0    0  501    0  0.00000000000E+00  0.00000000000E+00  0.40230874968E+04  0.40230874968E+04  0.00000000000E+00 0. -1.
         -2   -1    0    0    0  501 -0.00000000000E+00 -0.00000000000E+00 -0.14054117688E+03  0.14054117688E+03  0.00000000000E+00 0.  1.
         23    2    1    2    0    0  0.55918840419E+01  0.25176019285E+03  0.13520097563E+03  0.30021059442E+03  0.91829370689E+02 0.  0.
        254    2    1    2    0    0 -0.55918840419E+01 -0.25176019285E+03  0.37473453443E+04  0.38634180792E+04  0.90553170123E+03 0.  0.
        -24    2    4    4    0    0 -0.23547961009E+03 -0.36697010896E+03  0.90990114617E+03  0.10132614291E+04  0.93064065407E+02 0.  0.
         24    2    4    4    0    0  0.22988772604E+03  0.11520991612E+03  0.28374441981E+04  0.28501566501E+04  0.78623543815E+02 0.  0.
         11    1    3    3    0    0  0.33275919034E+01  0.21587460032E+03  0.14831636960E+03  0.26193636903E+03  0.00000000000E+00 0.  1.
        -11    1    3    3    0    0  0.22642921385E+01  0.35885592526E+02 -0.13115393970E+02  0.38274225385E+02  0.00000000000E+00 0. -1.
          2    1    6    6  502    0  0.79221442093E+02  0.86198443281E+01  0.63210716564E+03  0.63711051432E+03  0.00000000000E+00 0. -1.
          3    1    5    5  503    0 -0.84049049118E+02 -0.20852594005E+03  0.41462181471E+03  0.47165512779E+03  0.00000000000E+00 0. -1.
         -4    1    5    5    0  503 -0.15143056097E+03 -0.15844416891E+03  0.49527933146E+03  0.54160630132E+03  0.00000000000E+00 0.  1.
         -1    1    6    6    0  502  0.15066628395E+03  0.10659007179E+03  0.22053370325E+04  0.22130461358E+04  0.00000000000E+00 0.  1.
<mgrwt>
<rscale>  0 0.15038743E+04</rscale>
<asrwt>0</asrwt>
<pdfrwt beam="1">  1        2 0.61893645E+00 0.15038743E+04</pdfrwt>
<pdfrwt beam="2">  1       -2 0.21621723E-01 0.15038743E+04</pdfrwt>
<totfact> 0.60370987E+00</totfact>
</mgrwt>
</event>
<event>
12    1  0.2045212E-008  0.1757542E+04  0.7818608E-02  0.8729210E-01
         -2   -1    0    0    0  501 -0.00000000000E+00  0.00000000000E+00  0.46724064010E+03  0.46724064010E+03  0.00000000000E+00 0. -1.
          2   -1    0    0  501    0  0.00000000000E+00 -0.00000000000E+00 -0.16527638497E+04  0.16527638497E+04  0.00000000000E+00 0.  1.
         23    2    1    2    0    0 -0.50942063160E+03 -0.37975814571E+03 -0.55413394066E+03  0.84792291511E+03  0.90461133322E+02 0.  0.
        254    2    1    2    0    0  0.50942063160E+03  0.37975814571E+03 -0.63138926889E+03  0.12720815746E+04  0.90322394485E+03 0.  0.
        -24    2    4    4    0    0  0.57624676129E+02  0.18215666209E+03  0.20317387400E+03  0.29936416411E+03  0.10880085862E+03 0.  0.
         24    2    4    4    0    0  0.45179595548E+03  0.19760148362E+03 -0.83456314290E+03  0.97271741053E+03  0.80731589595E+02 0.  0.
         11    1    3    3    0    0 -0.42972595206E+03 -0.31442890175E+03 -0.41668042930E+03  0.67613054086E+03  0.00000000000E+00 0.  1.
        -11    1    3    3    0    0 -0.79694679550E+02 -0.65329243958E+02 -0.13745351136E+03  0.17179237425E+03  0.00000000000E+00 0. -1.
          2    1    6    6  502    0  0.39810350460E+02  0.36793967220E+02 -0.13002640221E+03  0.14087414702E+03  0.00000000000E+00 0. -1.
          3    1    5    5  503    0 -0.15968795094E+02  0.15409345301E+01 -0.21370591677E+01  0.16184681581E+02  0.00000000000E+00 0. -1.
         -4    1    5    5    0  503  0.73593471223E+02  0.18061572756E+03  0.20531093317E+03  0.28317948253E+03  0.00000000000E+00 0.  1.
         -1    1    6    6    0  502  0.41198560502E+03  0.16080751640E+03 -0.70453674069E+03  0.83184326351E+03  0.00000000000E+00 0.  1.
<mgrwt>
<rscale>  0 0.17575420E+04</rscale>
<asrwt>0</asrwt>
<pdfrwt beam="1">  1        2 0.25427136E+00 0.17575420E+04</pdfrwt>
<pdfrwt beam="2">  1       -2 0.71883176E-01 0.17575420E+04</pdfrwt>
<totfact> 0.17308660E+01</totfact>
</mgrwt>
</event>
<event>
11    1  0.2045212E-008  0.1505236E+04  0.7818608E-02  0.8880979E-01
          2   -1    0    0  501    0  0.00000000000E+00  0.00000000000E+00  0.21612262236E+04  0.21612262236E+04  0.00000000000E+00 0. -1.
         -2   -1    0    0    0  501 -0.00000000000E+00 -0.00000000000E+00 -0.26208903526E+03  0.26208903526E+03  0.00000000000E+00 0.  1.
         23    2    1    2    0    0 -0.29291399376E+03 -0.54965731571E+02  0.11607465827E+02  0.31148332492E+03  0.89818088656E+02 0.  0.
        254    2    1    2    0    0  0.29291399376E+03  0.54965731571E+02  0.18875297225E+04  0.21118319340E+04  0.89902492984E+03 0.  0.
         24    2    4    4    0    0 -0.19892657154E+03 -0.48017165858E+02  0.86335615578E+03  0.89057993357E+03  0.76624651827E+02 0.  0.
         11    1    3    3    0    0 -0.29911761575E+03 -0.53161412891E+02  0.15021328576E+02  0.30417614006E+03  0.00000000000E+00 0.  1.
        -11    1    3    3    0    0  0.62036219852E+01 -0.18043186798E+01 -0.34138627498E+01  0.73071848552E+01  0.00000000000E+00 0. -1.
          4    1    5    5  502    0  0.40982970553E+01  0.61082909480E+01  0.16832567413E+02  0.18369610305E+02  0.00000000000E+00 0. -1.
          1    1    4    4  503    0  0.17170241284E+03  0.73909689346E+02  0.47268583827E+02  0.19281773718E+03  0.00000000000E+00 0. -1.
         -2    1    4    4    0  503  0.32013815247E+03  0.29073208082E+02  0.97690498293E+03  0.10284342632E+04  0.00000000000E+00 0.  1.
         -3    1    5    5    0  502 -0.20302486860E+03 -0.54125456806E+02  0.84652358837E+03  0.87221032326E+03  0.00000000000E+00 0.  1.
<mgrwt>
<rscale>  0 0.15052358E+04</rscale>
<asrwt>0</asrwt>
<pdfrwt beam="1">  1        2 0.33249633E+00 0.15052358E+04</pdfrwt>
<pdfrwt beam="2">  1       -2 0.40321391E-01 0.15052358E+04</pdfrwt>
<totfact> 0.30558872E+01</totfact>
</mgrwt>
</event>
<event>
11    1  0.2045212E-008  0.1402328E+04  0.7818608E-02  0.8952135E-01
          1   -1    0    0  501    0  0.00000000000E+00  0.00000000000E+00  0.66690166452E+03  0.66690166452E+03  0.00000000000E+00 0. -1.
         -1   -1    0    0    0  501 -0.00000000000E+00 -0.00000000000E+00 -0.73718621980E+03  0.73718621980E+03  0.00000000000E+00 0.  1.
         23    2    1    2    0    0  0.28210989566E+03  0.29518991852E+03 -0.42072241113E+01  0.42112680997E+03  0.10299033020E+03 0.  0.
        254    2    1    2    0    0 -0.28210989566E+03 -0.29518991852E+03 -0.66077331164E+02  0.98296107435E+03  0.89169679755E+03 0.  0.
         24    2    4    4    0    0  0.50461659790E+02 -0.30085192787E+03  0.32250317275E+03  0.45122371220E+03  0.80847265877E+02 0.  0.
         11    1    3    3    0    0  0.28128473534E+03  0.26572030613E+03  0.12673096150E+02  0.38715499582E+03  0.00000000000E+00 0. -1.
        -11    1    3    3    0    0  0.82516031721E+00  0.29469612393E+02 -0.16880320262E+02  0.33971814144E+02  0.00000000000E+00 0.  1.
          4    1    5    5  502    0  0.91014596861E+01 -0.11311782237E+03  0.68068153610E+02  0.13233197588E+03  0.00000000000E+00 0. -1.
          1    1    4    4  503    0 -0.16169243184E+03 -0.35806482631E+02 -0.98980637187E+02  0.19293447916E+03  0.00000000000E+00 0. -1.
         -2    1    4    4    0  503 -0.17087912361E+03  0.41468491984E+02 -0.28959986673E+03  0.33880288299E+03  0.00000000000E+00 0.  1.
         -3    1    5    5    0  502  0.41360200104E+02 -0.18773410551E+03  0.25443501914E+03  0.31889173631E+03  0.00000000000E+00 0.  1.
<mgrwt>
<rscale>  0 0.14023277E+04</rscale>
<asrwt>0</asrwt>
<pdfrwt beam="1">  1        1 0.10260026E+00 0.14023277E+04</pdfrwt>
<pdfrwt beam="2">  1       -1 0.11341326E+00 0.14023277E+04</pdfrwt>
<totfact> 0.20287219E+01</totfact>
</mgrwt>
</event>
<event>
12    1  0.2045212E-008  0.1457612E+04  0.7818608E-02  0.8913140E-01
          1   -1    0    0  501    0  0.00000000000E+00  0.00000000000E+00  0.70348476997E+03  0.70348476997E+03  0.00000000000E+00 0. -1.
         -1   -1    0    0    0  501 -0.00000000000E+00 -0.00000000000E+00 -0.75503892660E+03  0.75503892660E+03  0.00000000000E+00 0.  1.
         23    2    1    2    0    0  0.24334603653E+03  0.67940845714E+02  0.36662914591E+03  0.45449919861E+03  0.91210410012E+02 0.  0.
        254    2    1    2    0    0 -0.24334603653E+03 -0.67940845714E+02 -0.41818330254E+03  0.10040244980E+04  0.87712864849E+03 0.  0.
        -24    2    4    4    0    0  0.11337236014E+03  0.29836036014E+03  0.76204219766E+01  0.33413116193E+03  0.98556410240E+02 0.  0.
         24    2    4    4    0    0 -0.35671839667E+03 -0.36630120585E+03 -0.42580372452E+03  0.66989333604E+03  0.77612382571E+02 0.  0.
         11    1    3    3    0    0 -0.11044662802E+01 -0.10802211804E+02  0.84323043140E+01  0.13748141026E+02  0.00000000000E+00 0.  1.
        -11    1    3    3    0    0  0.24445050281E+03  0.78743057518E+02  0.35819684159E+03  0.44075105758E+03  0.00000000000E+00 0. -1.
          2    1    6    6  502    0 -0.31310677118E+03 -0.31729599999E+03 -0.33380317877E+03  0.55689959950E+03  0.00000000000E+00 0. -1.
          3    1    5    5  503    0  0.11260665258E+03  0.26870592028E+03  0.35400604026E+02  0.29348991902E+03  0.00000000000E+00 0. -1.
         -4    1    5    5    0  503  0.76570756581E+00  0.29654439853E+02 -0.27780182049E+02  0.40641242916E+02  0.00000000000E+00 0.  1.
         -1    1    6    6    0  502 -0.43611625489E+02 -0.49005205858E+02 -0.92000545742E+02  0.11299373653E+03  0.00000000000E+00 0.  1.
<mgrwt>
<rscale>  0 0.14576123E+04</rscale>
<asrwt>0</asrwt>
<pdfrwt beam="1">  1        1 0.10822843E+00 0.14576123E+04</pdfrwt>
<pdfrwt beam="2">  1       -1 0.11615984E+00 0.14576123E+04</pdfrwt>
<totfact> 0.17590907E+01</totfact>
</mgrwt>
</event>
<event>
11    1  0.2045212E-008  0.2031401E+04  0.7818608E-02  0.8592079E-01
         -2   -1    0    0    0  501 -0.00000000000E+00  0.00000000000E+00  0.16211300544E+04  0.16211300544E+04  0.00000000000E+00 0.  1.
          2   -1    0    0  501    0  0.00000000000E+00 -0.00000000000E+00 -0.63637576703E+03  0.63637576703E+03  0.00000000000E+00 0. -1.
         23    2    1    2    0    0 -0.33539997001E+03  0.66425878527E+03  0.73756088358E+03  0.10515273549E+04  0.89335588568E+02 0.  0.
        254    2    1    2    0    0  0.33539997001E+03 -0.66425878527E+03  0.24719340374E+03  0.12059784665E+04  0.91626776060E+03 0.  0.
         24    2    4    4    0    0 -0.12561598009E+03 -0.65844876801E+03  0.27884112196E+03  0.73054067457E+03  0.81259776975E+02 0.  0.
         11    1    3    3    0    0 -0.25403318167E+03  0.49132584821E+03  0.49128970890E+03  0.73979694821E+03  0.00000000000E+00 0.  1.
        -11    1    3    3    0    0 -0.81366788339E+02  0.17293293706E+03  0.24627117469E+03  0.31173040667E+03  0.00000000000E+00 0. -1.
          2    1    5    5  502    0  0.91868306048E+01 -0.26505522337E+02  0.39168122881E+01  0.28324582776E+02  0.00000000000E+00 0. -1.
          1    1    4    4  503    0  0.13883243217E+03 -0.50855792112E+02 -0.25669445004E+02  0.15006557307E+03  0.00000000000E+00 0. -1.
         -2    1    4    4    0  503  0.32218351793E+03  0.45045774850E+02 -0.59782732177E+01  0.32537221887E+03  0.00000000000E+00 0.  1.
         -1    1    5    5    0  502 -0.13480281069E+03 -0.63194324567E+03  0.27492430967E+03  0.70221609179E+03  0.00000000000E+00 0.  1.
<mgrwt>
<rscale>  0 0.20314014E+04</rscale>
<asrwt>0</asrwt>
<pdfrwt beam="1">  1        2 0.97903964E-01 0.20314014E+04</pdfrwt>
<pdfrwt beam="2">  1       -2 0.24940462E+00 0.20314014E+04</pdfrwt>
<totfact> 0.27713243E+00</totfact>
</mgrwt>
</event>
<event>
12    1  0.2045212E-008  0.4698746E+04  0.7818608E-02  0.7876737E-01
         -2   -1    0    0    0  501 -0.00000000000E+00  0.00000000000E+00  0.17312901989E+04  0.17312901989E+04  0.00000000000E+00 0.  1.
          2   -1    0    0  501    0  0.00000000000E+00 -0.00000000000E+00 -0.31881152310E+04  0.31881152310E+04  0.00000000000E+00 0. -1.
         23    2    1    2    0    0  0.30717378464E+03 -0.73167407605E+03  0.15013387540E+04  0.17005605413E+04  0.90473270188E+02 0.  0.
        254    2    1    2    0    0 -0.30717378464E+03  0.73167407605E+03 -0.29581637861E+04  0.32188448886E+04  0.99021550382E+03 0.  0.
        -24    2    4    4    0    0  0.18079676003E+03 -0.91705992092E+01 -0.10593877352E+03  0.23063492417E+03  0.95905558686E+02 0.  0.
         24    2    4    4    0    0 -0.48797054467E+03  0.74084467525E+03 -0.28522250126E+04  0.29882099645E+04  0.85118645705E+02 0.  0.
         13    1    3    3    0    0  0.11259524482E+03 -0.25229191778E+03  0.43461687348E+03  0.51499585207E+03  0.00000000000E+00 0. -1.
        -13    1    3    3    0    0  0.19457853982E+03 -0.47938215827E+03  0.10667218805E+04  0.11855646892E+04  0.00000000000E+00 0.  1.
          2    1    6    6  502    0 -0.35148999366E+03  0.51029164785E+03 -0.18628031691E+04  0.19631552227E+04  0.00000000000E+00 0. -1.
          3    1    5    5  503    0  0.12282963906E+03 -0.34722311403E+02 -0.10807332443E+03  0.16725011987E+03  0.00000000000E+00 0. -1.
         -2    1    5    5    0  503  0.57967120964E+02  0.25551712194E+02  0.21345509173E+01  0.63384804303E+02  0.00000000000E+00 0.  1.
         -1    1    6    6    0  502 -0.13648055101E+03  0.23055302740E+03 -0.98942184349E+03  0.10250547418E+04  0.00000000000E+00 0.  1.
<mgrwt>
<rscale>  0 0.46987456E+04</rscale>
<asrwt>0</asrwt>
<pdfrwt beam="1">  1        2 0.49047926E+00 0.46987456E+04</pdfrwt>
<pdfrwt beam="2">  1       -2 0.26635234E+00 0.46987456E+04</pdfrwt>
<totfact> 0.50173813E-02</totfact>
</mgrwt>
</event>
<event>
12    1  0.2045212E-008  0.1406982E+04  0.7818608E-02  0.8948780E-01
         -2   -1    0    0    0  501 -0.00000000000E+00  0.00000000000E+00  0.77403554932E+03  0.77403554932E+03  0.00000000000E+00 0.  1.
          2   -1    0    0  501    0  0.00000000000E+00 -0.00000000000E+00 -0.63937583876E+03  0.63937583876E+03  0.00000000000E+00 0. -1.
         23    2    1    2    0    0  0.23434185014E+03  0.30323433363E+03  0.17761949128E+03  0.43182265436E+03  0.89749414027E+02 0.  0.
        254    2    1    2    0    0 -0.23434185014E+03 -0.30323433363E+03 -0.42959780715E+02  0.98158873373E+03  0.90266479692E+03 0.  0.
        -24    2    4    4    0    0 -0.11396766371E+03 -0.16949900467E+03 -0.46493501969E+03  0.51581384254E+03  0.90447811809E+02 0.  0.
         24    2    4    4    0    0 -0.12037418643E+03 -0.13373532896E+03  0.42197523897E+03  0.46577489119E+03  0.80672572690E+02 0.  0.
         11    1    3    3    0    0  0.62974727909E+01 -0.26420204772E+01 -0.53626786091E+01  0.86831306346E+01  0.00000000000E+00 0.  1.
        -11    1    3    3    0    0  0.22804437735E+03  0.30587635411E+03  0.18298216989E+03  0.42313952373E+03  0.00000000000E+00 0. -1.
          2    1    6    6  502    0 -0.83718528607E+02 -0.86023527426E+02  0.17943783933E+03  0.21588602893E+03  0.00000000000E+00 0. -1.
          1    1    5    5  503    0 -0.17113932502E+02 -0.49170165505E+02 -0.22127897679E+03  0.22732130879E+03  0.00000000000E+00 0. -1.
         -2    1    5    5    0  503 -0.96853731208E+02 -0.12032883917E+03 -0.24365604290E+03  0.28849253374E+03  0.00000000000E+00 0.  1.
         -1    1    6    6    0  502 -0.36655657819E+02 -0.47711801533E+02  0.24253739964E+03  0.24988886226E+03  0.00000000000E+00 0.  1.
<mgrwt>
<rscale>  0 0.14069821E+04</rscale>
<asrwt>0</asrwt>
<pdfrwt beam="1">  1        2 0.98365513E-01 0.14069821E+04</pdfrwt>
<pdfrwt beam="2">  1       -2 0.11908239E+00 0.14069821E+04</pdfrwt>
<totfact> 0.24157010E+01</totfact>
</mgrwt>
</event>
<event>
12    1  0.2045212E-008  0.1688009E+04  0.7818608E-02  0.8768233E-01
          1   -1    0    0  501    0  0.00000000000E+00  0.00000000000E+00  0.10321453394E+04  0.10321453394E+04  0.00000000000E+00 0. -1.
         -1   -1    0    0    0  501 -0.00000000000E+00 -0.00000000000E+00 -0.69015797253E+03  0.69015797253E+03  0.00000000000E+00 0.  1.
         23    2    1    2    0    0  0.20505685207E+03 -0.10315542046E+03  0.70883578487E+03  0.75069211299E+03  0.91657652384E+02 0.  0.
        254    2    1    2    0    0 -0.20505685207E+03  0.10315542046E+03 -0.36684841796E+03  0.97161119898E+03  0.86992023018E+03 0.  0.
        -24    2    4    4    0    0 -0.33397262426E+03  0.10249534643E+03 -0.59811222557E+03  0.69524767817E+03  0.59900666316E+02 0.  0.
         24    2    4    4    0    0  0.12891577218E+03  0.66007403261E+00  0.23126380761E+03  0.27636352081E+03  0.79209436990E+02 0.  0.
         13    1    3    3    0    0  0.12743088491E+03 -0.63886872868E+02  0.29277214215E+03  0.32563121806E+03  0.00000000000E+00 0. -1.
        -13    1    3    3    0    0  0.77625967162E+02 -0.39268547596E+02  0.41606364272E+03  0.42506089493E+03  0.00000000000E+00 0.  1.
          4    1    6    6  502    0  0.48910713447E+02  0.38295605889E+02  0.10937298187E+03  0.12578259214E+03  0.00000000000E+00 0. -1.
          1    1    5    5  503    0 -0.18856791479E+03  0.28104230325E+02 -0.33981382981E+03  0.38964232981E+03  0.00000000000E+00 0. -1.
         -2    1    5    5    0  503 -0.14540470947E+03  0.74391116106E+02 -0.25829839576E+03  0.30560534836E+03  0.00000000000E+00 0.  1.
         -3    1    6    6    0  502  0.80005058736E+02 -0.37635531857E+02  0.12189082574E+03  0.15058092868E+03  0.00000000000E+00 0.  1.
<mgrwt>
<rscale>  0 0.16880087E+04</rscale>
<asrwt>0</asrwt>
<pdfrwt beam="1">  1        1 0.15879159E+00 0.16880087E+04</pdfrwt>
<pdfrwt beam="2">  1       -1 0.10617815E+00 0.16880087E+04</pdfrwt>
<totfact> 0.11288466E+01</totfact>
</mgrwt>
</event>
<event>
12    1  0.2045212E-008  0.2126014E+04  0.7818608E-02  0.8549870E-01
         -1   -1    0    0    0  501 -0.00000000000E+00  0.00000000000E+00  0.18126642047E+04  0.18126642047E+04  0.00000000000E+00 0.  1.
          1   -1    0    0  501    0  0.00000000000E+00 -0.00000000000E+00 -0.62338281974E+03  0.62338281974E+03  0.00000000000E+00 0. -1.
         23    2    1    2    0    0 -0.16464338655E+03  0.27131889075E+03  0.14223972021E+04  0.14603238253E+04  0.92792719964E+02 0.  0.
        254    2    1    2    0    0  0.16464338655E+03 -0.27131889075E+03 -0.23311581715E+03  0.97572319917E+03  0.89273254225E+03 0.  0.
        -24    2    4    4    0    0 -0.30831610367E+03 -0.86052683951E+02  0.11799606374E+03  0.35312822243E+03  0.91173385473E+02 0.  0.
         24    2    4    4    0    0  0.47295949022E+03 -0.18526620679E+03 -0.35111188090E+03  0.62259497675E+03  0.79565730010E+02 0.  0.
         13    1    3    3    0    0 -0.47897286675E+02  0.14835950786E+03  0.81116176362E+03  0.82600732467E+03  0.00000000000E+00 0.  1.
        -13    1    3    3    0    0 -0.11674609988E+03  0.12295938288E+03  0.61123543852E+03  0.63431650064E+03  0.00000000000E+00 0. -1.
          2    1    6    6  502    0  0.26648558265E+03 -0.11372361397E+03 -0.24612897750E+03  0.38016719966E+03  0.00000000000E+00 0. -1.
          1    1    5    5  503    0 -0.72699280715E+02 -0.57315162109E+02  0.54470796599E+02  0.10741173542E+03  0.00000000000E+00 0. -1.
         -2    1    5    5    0  503 -0.23561682295E+03 -0.28737521842E+02  0.63525267144E+02  0.24571648701E+03  0.00000000000E+00 0.  1.
         -1    1    6    6    0  502  0.20647390757E+03 -0.71542592827E+02 -0.10498290340E+03  0.24242777708E+03  0.00000000000E+00 0.  1.
<mgrwt>
<rscale>  0 0.21260139E+04</rscale>
<asrwt>0</asrwt>
<pdfrwt beam="1">  1        1 0.95905050E-01 0.21260139E+04</pdfrwt>
<pdfrwt beam="2">  1       -1 0.27887141E+00 0.21260139E+04</pdfrwt>
<totfact> 0.13456703E+00</totfact>
</mgrwt>
</event>
<event>
11    1  0.2045212E-008  0.2348418E+04  0.7818608E-02  0.8459071E-01
         -2   -1    0    0    0  501 -0.00000000000E+00  0.00000000000E+00  0.79719598865E+03  0.79719598865E+03  0.00000000000E+00 0.  1.
          2   -1    0    0  501    0  0.00000000000E+00 -0.00000000000E+00 -0.17295205847E+04  0.17295205847E+04  0.00000000000E+00 0. -1.
         23    2    1    2    0    0  0.38651005403E+03  0.59274100938E+02  0.59383943256E+03  0.71632151019E+03  0.86993065235E+02 0.  0.
        254    2    1    2    0    0 -0.38651005403E+03 -0.59274100938E+02 -0.15261640286E+04  0.18103950631E+04  0.89188014979E+03 0.  0.
         24    2    4    4    0    0  0.19859068725E+03 -0.24946128694E+03 -0.68814118607E+03  0.76268242697E+03  0.80479796788E+02 0.  0.
         13    1    3    3    0    0  0.22489711815E+03  0.55934003825E+02  0.28142206862E+03  0.36456235028E+03  0.00000000000E+00 0. -1.
        -13    1    3    3    0    0  0.16161293587E+03  0.33400971123E+01  0.31241736394E+03  0.35175915991E+03  0.00000000000E+00 0.  1.
          4    1    5    5  502    0  0.20133945872E+03 -0.24589273142E+03 -0.64233680258E+03  0.71665708742E+03  0.00000000000E+00 0. -1.
          3    1    4    4  503    0 -0.47592682444E+03  0.98906441363E+02 -0.63187206085E+03  0.79721460577E+03  0.00000000000E+00 0. -1.
         -4    1    4    4    0  503 -0.10917391683E+03  0.91280744636E+02 -0.20615078165E+03  0.25049803040E+03  0.00000000000E+00 0.  1.
         -3    1    5    5    0  502 -0.27487714659E+01 -0.35685555123E+01 -0.45804383495E+02  0.46025339546E+02  0.00000000000E+00 0.  1.
<mgrwt>
<rscale>  0 0.23484181E+04</rscale>
<asrwt>0</asrwt>
<pdfrwt beam="1">  1        2 0.26608009E+00 0.23484181E+04</pdfrwt>
<pdfrwt beam="2">  1       -2 0.12264554E+00 0.23484181E+04</pdfrwt>
<totfact> 0.42887594E+00</totfact>
</mgrwt>
</event>
<event>
11    1  0.2045212E-008  0.2172361E+04  0.7818608E-02  0.8530021E-01
          1   -1    0    0  501    0  0.00000000000E+00  0.00000000000E+00  0.18803094927E+04  0.18803094927E+04  0.00000000000E+00 0. -1.
         -1   -1    0    0    0  501 -0.00000000000E+00 -0.00000000000E+00 -0.62744353373E+03  0.62744353373E+03  0.00000000000E+00 0.  1.
         23    2    1    2    0    0 -0.64136259188E+03 -0.63196732307E+03  0.68969540220E+03  0.11382046362E+04  0.95401122976E+02 0.  0.
        254    2    1    2    0    0  0.64136259188E+03  0.63196732307E+03  0.56317055678E+03  0.13695483903E+04  0.86473871523E+03 0.  0.
         24    2    4    4    0    0  0.77040694723E+02  0.54153648859E+03  0.54429577828E+03  0.77596363454E+03  0.81637189787E+02 0.  0.
         11    1    3    3    0    0 -0.19511252030E+03 -0.16087774116E+03  0.14863026857E+03  0.29332831421E+03  0.00000000000E+00 0. -1.
        -11    1    3    3    0    0 -0.44625007158E+03 -0.47108958190E+03  0.54106513363E+03  0.84487632195E+03  0.00000000000E+00 0.  1.
          4    1    5    5  502    0  0.55968076508E+02  0.26155884095E+03  0.31664696066E+03  0.41450060381E+03  0.00000000000E+00 0. -1.
          1    1    4    4  503    0  0.56962611418E+03  0.75238441091E+02  0.88808444610E+01  0.57464215158E+03  0.00000000000E+00 0. -1.
         -4    1    4    4    0  503 -0.53042170241E+01  0.15192393386E+02  0.99939340425E+01  0.18942604168E+02  0.00000000000E+00 0.  1.
         -3    1    5    5    0  502  0.21072618214E+02  0.27997764764E+03  0.22764881762E+03  0.36146303073E+03  0.00000000000E+00 0.  1.
<mgrwt>
<rscale>  0 0.21723610E+04</rscale>
<asrwt>0</asrwt>
<pdfrwt beam="1">  1        1 0.28927838E+00 0.21723610E+04</pdfrwt>
<pdfrwt beam="2">  1       -1 0.96529775E-01 0.21723610E+04</pdfrwt>
<totfact> 0.33911494E+00</totfact>
</mgrwt>
</event>
<event>
12    1  0.2045212E-008  0.1477255E+04  0.7818608E-02  0.8899720E-01
          2   -1    0    0  501    0  0.00000000000E+00  0.00000000000E+00  0.59828908577E+03  0.59828908577E+03  0.00000000000E+00 0. -1.
         -2   -1    0    0    0  501 -0.00000000000E+00 -0.00000000000E+00 -0.91188479414E+03  0.91188479414E+03  0.00000000000E+00 0.  1.
         23    2    1    2    0    0 -0.10554511667E+03  0.15261769213E+03 -0.52842068828E+03  0.56805237845E+03  0.94990258782E+02 0.  0.
        254    2    1    2    0    0  0.10554511667E+03 -0.15261769213E+03  0.21482497992E+03  0.94212150146E+03  0.89833803209E+03 0.  0.
        -24    2    4    4    0    0 -0.12569011103E+03 -0.47763802291E+03  0.63446695868E+02  0.50800636905E+03  0.10054303972E+03 0.  0.
         24    2    4    4    0    0  0.23123522770E+03  0.32502033078E+03  0.15137828405E+03  0.43411513241E+03  0.80203599386E+02 0.  0.
         11    1    3    3    0    0  0.16579141385E+02  0.35294245505E+02 -0.91708541925E+02  0.99654444742E+02  0.00000000000E+00 0.  1.
        -11    1    3    3    0    0 -0.12212425806E+03  0.11732344662E+03 -0.43671214635E+03  0.46839793371E+03  0.00000000000E+00 0. -1.
          2    1    6    6  502    0  0.15572441152E+02 -0.13799393793E+01  0.49890359145E+01  0.16410229599E+02  0.00000000000E+00 0. -1.
          3    1    5    5  503    0  0.11135371526E+02 -0.12450383744E+03  0.80302816164E+01  0.12525848259E+03  0.00000000000E+00 0. -1.
         -4    1    5    5    0  503 -0.13682548255E+03 -0.35313418547E+03  0.55416414252E+02  0.38274788646E+03  0.00000000000E+00 0.  1.
         -1    1    6    6    0  502  0.21566278655E+03  0.32640027016E+03  0.14638924813E+03  0.41770490281E+03  0.00000000000E+00 0.  1.
<mgrwt>
<rscale>  0 0.14772552E+04</rscale>
<asrwt>0</asrwt>
<pdfrwt beam="1">  1        2 0.92044475E-01 0.14772552E+04</pdfrwt>
<pdfrwt beam="2">  1       -2 0.14028997E+00 0.14772552E+04</pdfrwt>
<totfact> 0.17196624E+01</totfact>
</mgrwt>
</event>
<event>
12    1  0.2045212E-008  0.1546535E+04  0.7818608E-02  0.8854084E-01
          2   -1    0    0  501    0  0.00000000000E+00  0.00000000000E+00  0.14464337065E+04  0.14464337065E+04  0.00000000000E+00 0. -1.
         -2   -1    0    0    0  501 -0.00000000000E+00 -0.00000000000E+00 -0.41339101896E+03  0.41339101896E+03  0.00000000000E+00 0.  1.
         23    2    1    2    0    0 -0.21086714579E+03 -0.28095910987E+02  0.87237837156E+03  0.90259839105E+03  0.91572370205E+02 0.  0.
        254    2    1    2    0    0  0.21086714579E+03  0.28095910987E+02  0.16066431597E+03  0.95722633440E+03  0.91935569801E+03 0.  0.
        -24    2    4    4    0    0  0.37898111336E+03  0.17177507872E+03 -0.24553070953E+03  0.48770233936E+03  0.66594898742E+02 0.  0.
         24    2    4    4    0    0 -0.16811396758E+03 -0.14367916773E+03  0.40619502550E+03  0.46952399504E+03  0.80946734617E+02 0.  0.
         11    1    3    3    0    0 -0.19875099931E+03  0.23616266465E+01  0.74163291938E+03  0.76780656686E+03  0.00000000000E+00 0. -1.
        -11    1    3    3    0    0 -0.12116146479E+02 -0.30457537634E+02  0.13074545218E+03  0.13479182419E+03  0.00000000000E+00 0.  1.
          2    1    6    6  502    0 -0.10199624389E+03 -0.92378637255E+02  0.32495062712E+03  0.35288802254E+03  0.00000000000E+00 0. -1.
          3    1    5    5  503    0  0.19411734080E+03  0.65883227816E+02 -0.15112710400E+03  0.25467929494E+03  0.00000000000E+00 0. -1.
         -4    1    5    5    0  503  0.18486377256E+03  0.10589185090E+03 -0.94403605528E+02  0.23302304442E+03  0.00000000000E+00 0.  1.
         -1    1    6    6    0  502 -0.66117723689E+02 -0.51300530474E+02  0.81244398381E+02  0.11663597250E+03  0.00000000000E+00 0.  1.
<mgrwt>
<rscale>  0 0.15465351E+04</rscale>
<asrwt>0</asrwt>
<pdfrwt beam="1">  1        2 0.22252826E+00 0.15465351E+04</pdfrwt>
<pdfrwt beam="2">  1       -2 0.63598619E-01 0.15465351E+04</pdfrwt>
<totfact> 0.29984111E+01</totfact>
</mgrwt>
</event>
<event>
11    1  0.2045212E-008  0.2169388E+04  0.7818608E-02  0.8531279E-01
         -2   -1    0    0    0  501 -0.00000000000E+00  0.00000000000E+00  0.41367373184E+03  0.41367373184E+03  0.00000000000E+00 0.  1.
          2   -1    0    0  501    0  0.00000000000E+00 -0.00000000000E+00 -0.28441757361E+04  0.28441757361E+04  0.00000000000E+00 0. -1.
         23    2    1    2    0    0  0.19383417885E+03  0.21946419773E+03 -0.22728010032E+04  0.22934193547E+04  0.91715393593E+02 0.  0.
        254    2    1    2    0    0 -0.19383417885E+03 -0.21946419773E+03 -0.15770100109E+03  0.96443011326E+03  0.90527322652E+03 0.  0.
         24    2    4    4    0    0  0.28128396040E+03  0.14467585518E+03 -0.13451537879E+03  0.35354179557E+03  0.82738410839E+02 0.  0.
         11    1    3    3    0    0  0.19314101937E+03  0.17247522062E+03 -0.18556537684E+04  0.18736333855E+04  0.00000000000E+00 0.  1.
        -11    1    3    3    0    0  0.69315947658E+00  0.46988977106E+02 -0.41714723475E+03  0.41978596915E+03  0.00000000000E+00 0. -1.
          4    1    5    5  502    0  0.23164637370E+03  0.14975605275E+03 -0.12457415640E+03  0.30266423348E+03  0.00000000000E+00 0. -1.
          3    1    4    4  503    0 -0.34784911335E+03 -0.25995474708E+03 -0.70051567579E+02  0.43986668242E+03  0.00000000000E+00 0. -1.
         -4    1    4    4    0  503 -0.12726902590E+03 -0.10418530583E+03  0.46865945276E+02  0.17102163527E+03  0.00000000000E+00 0.  1.
         -3    1    5    5    0  502  0.49637586704E+02 -0.50801975749E+01 -0.99412223891E+01  0.50877562086E+02  0.00000000000E+00 0.  1.
<mgrwt>
<rscale>  0 0.21693877E+04</rscale>
<asrwt>0</asrwt>
<pdfrwt beam="1">  1        2 0.43756550E+00 0.21693877E+04</pdfrwt>
<pdfrwt beam="2">  1       -2 0.63642112E-01 0.21693877E+04</pdfrwt>
<totfact> 0.45544338E+00</totfact>
</mgrwt>
</event>
<event>
12    1  0.3604835E-008  0.1716214E+04  0.7818608E-02  0.8752171E-01
         -1   -1    0    0    0  501 -0.00000000000E+00  0.00000000000E+00  0.55802543797E+03  0.55802543797E+03  0.00000000000E+00 0. -1.
          1   -1    0    0  501    0  0.00000000000E+00 -0.00000000000E+00 -0.13195594334E+04  0.13195594334E+04  0.00000000000E+00 0.  1.
         23    2    1    2    0    0  0.57103784514E+03 -0.13596707358E+03 -0.64583894789E+02  0.59719507420E+03  0.88879758658E+02 0.  0.
        254    2    1    2    0    0 -0.57103784514E+03  0.13596707358E+03 -0.69695010065E+03  0.12803897972E+04  0.89949281501E+03 0.  0.
        -24    2    4    4    0    0 -0.74344590531E+03  0.13525895135E+03 -0.26384269532E+03  0.80734579584E+03  0.10577082842E+03 0.  0.
         24    2    4    4    0    0  0.17240806016E+03  0.70812222907E+00 -0.43310740533E+03  0.47304400135E+03  0.80396281101E+02 0.  0.
         13    1    3    3    0    0  0.16536952253E+03 -0.44037876062E+02  0.21342832677E+02  0.17245848780E+03  0.00000000000E+00 0. -1.
        -13    1    3    3    0    0  0.40566832262E+03 -0.91929197519E+02 -0.85926727466E+02  0.42473658640E+03  0.00000000000E+00 0.  1.
          4    1    6    6  502    0 -0.88159873224E+01  0.18334152571E+01 -0.20199323358E+02  0.22115508316E+02  0.00000000000E+00 0. -1.
          3    1    5    5  503    0 -0.26122897149E+02  0.17500578039E+02 -0.30709784200E+02  0.43951869503E+02  0.00000000000E+00 0. -1.
         -4    1    5    5    0  503 -0.71732300816E+03  0.11775837331E+03 -0.23313291112E+03  0.76339392633E+03  0.00000000000E+00 0.  1.
         -3    1    6    6    0  502  0.18122404748E+03 -0.11252930280E+01 -0.41290808197E+03  0.45092849303E+03  0.00000000000E+00 0.  1.
<mgrwt>
<rscale>  0 0.17162141E+04</rscale>
<asrwt>0</asrwt>
<pdfrwt beam="1">  1        1 0.20300914E+00 0.17162141E+04</pdfrwt>
<pdfrwt beam="2">  1       -1 0.85850068E-01 0.17162141E+04</pdfrwt>
<totfact> 0.11152810E+01</totfact>
</mgrwt>
</event>
<event>
12    1  0.2045212E-008  0.1312403E+04  0.7818608E-02  0.9019787E-01
          2   -1    0    0  501    0  0.00000000000E+00  0.00000000000E+00  0.16220571416E+04  0.16220571416E+04  0.00000000000E+00 0. -1.
         -2   -1    0    0    0  501 -0.00000000000E+00 -0.00000000000E+00 -0.26546576632E+03  0.26546576632E+03  0.00000000000E+00 0.  1.
         23    2    1    2    0    0 -0.12059945969E+03  0.10222293386E+03 -0.70283403484E+02  0.19452991241E+03  0.88929028631E+02 0.  0.
        254    2    1    2    0    0  0.12059945969E+03 -0.10222293386E+03  0.14268747788E+04  0.16929929955E+04  0.89736274196E+03 0.  0.
        -24    2    4    4    0    0  0.40910815757E+03 -0.20960356507E+03  0.39432248954E+03  0.61238689890E+03  0.90688197187E+02 0.  0.
         24    2    4    4    0    0 -0.28850869788E+03  0.10738063122E+03  0.10325522892E+04  0.10806060966E+04  0.82325192512E+02 0.  0.
         13    1    3    3    0    0 -0.17818899558E+02  0.44149845367E+02  0.13828504835E+02  0.49577712466E+02  0.00000000000E+00 0. -1.
        -13    1    3    3    0    0 -0.10278056013E+03  0.58073088489E+02 -0.84111908319E+02  0.14495219994E+03  0.00000000000E+00 0.  1.
          2    1    6    6  502    0 -0.23044918187E+02  0.37532554063E+02  0.15328060702E+03  0.15948261773E+03  0.00000000000E+00 0. -1.
          3    1    5    5  503    0  0.82732530153E+02 -0.41604986232E+01  0.66406087838E+02  0.10616849719E+03  0.00000000000E+00 0. -1.
         -4    1    5    5    0  503  0.32637562741E+03 -0.20544306645E+03  0.32791640170E+03  0.50621840171E+03  0.00000000000E+00 0.  1.
         -1    1    6    6    0  502 -0.26546377969E+03  0.69848077152E+02  0.87927168219E+03  0.92112347886E+03  0.00000000000E+00 0.  1.
<mgrwt>
<rscale>  0 0.13124034E+04</rscale>
<asrwt>0</asrwt>
<pdfrwt beam="1">  1        2 0.24954725E+00 0.13124034E+04</pdfrwt>
<pdfrwt beam="2">  1       -2 0.40840888E-01 0.13124034E+04</pdfrwt>
<totfact> 0.60252731E+01</totfact>
</mgrwt>
</event>
<event>
12    1  0.2045212E-008  0.1543646E+04  0.7818608E-02  0.8855936E-01
         -2   -1    0    0    0  501 -0.00000000000E+00  0.00000000000E+00  0.35844101631E+03  0.35844101631E+03  0.00000000000E+00 0.  1.
          2   -1    0    0  501    0  0.00000000000E+00 -0.00000000000E+00 -0.16619500274E+04  0.16619500274E+04  0.00000000000E+00 0. -1.
         23    2    1    2    0    0 -0.47077940429E+03  0.10103809953E+03 -0.64965185966E+03  0.81370150930E+03  0.90667868784E+02 0.  0.
        254    2    1    2    0    0  0.47077940429E+03 -0.10103809953E+03 -0.65385715143E+03  0.12066895344E+04  0.89259650060E+03 0.  0.
        -24    2    4    4    0    0  0.32900643117E+03  0.24205196253E+03 -0.70806173669E+03  0.82303003971E+03  0.95878250883E+02 0.  0.
         24    2    4    4    0    0  0.14177297312E+03 -0.34309006206E+03  0.54204585251E+02  0.38365949469E+03  0.80287634245E+02 0.  0.
         11    1    3    3    0    0 -0.67274438038E+02  0.17087293729E+02 -0.47879837332E+02  0.84322621184E+02  0.00000000000E+00 0.  1.
        -11    1    3    3    0    0 -0.40350496625E+03  0.83950805803E+02 -0.60177202232E+03  0.72937888812E+03  0.00000000000E+00 0. -1.
          4    1    6    6  502    0  0.94051547669E+02 -0.13478831994E+03  0.41860029052E+02  0.16960497293E+03  0.00000000000E+00 0. -1.
          1    1    5    5  503    0  0.81780117744E+01  0.36286677868E+02 -0.46715372374E+02  0.59715399047E+02  0.00000000000E+00 0. -1.
         -2    1    5    5    0  503  0.32082841939E+03  0.20576528466E+03 -0.66134636431E+03  0.76331464066E+03  0.00000000000E+00 0.  1.
         -3    1    6    6    0  502  0.47721425448E+02 -0.20830174212E+03  0.12344556199E+02  0.21405452176E+03  0.00000000000E+00 0.  1.
<mgrwt>
<rscale>  0 0.15436464E+04</rscale>
<asrwt>0</asrwt>
<pdfrwt beam="1">  1        2 0.25568461E+00 0.15436464E+04</pdfrwt>
<pdfrwt beam="2">  1       -2 0.55144773E-01 0.15436464E+04</pdfrwt>
<totfact> 0.30658774E+01</totfact>
</mgrwt>
</event>
<event>
12    1  0.2045212E-008  0.1200236E+04  0.7818608E-02  0.9112650E-01
         -1   -1    0    0    0  501 -0.00000000000E+00  0.00000000000E+00  0.12167612018E+04  0.12167612018E+04  0.00000000000E+00 0.  1.
          1   -1    0    0  501    0  0.00000000000E+00 -0.00000000000E+00 -0.29598396386E+03  0.29598396386E+03  0.00000000000E+00 0. -1.
         23    2    1    2    0    0 -0.13930679161E+03 -0.13450469403E+03  0.30294013374E+03  0.37049625711E+03  0.89425147443E+02 0.  0.
        254    2    1    2    0    0  0.13930679161E+03  0.13450469403E+03  0.61783710417E+03  0.11422489085E+04  0.94101646470E+03 0.  0.
        -24    2    4    4    0    0 -0.24947162907E+03 -0.24272585750E+03  0.57909122863E+02  0.35905494141E+03  0.66445833822E+02 0.  0.
         24    2    4    4    0    0  0.38877842068E+03  0.37723055154E+03  0.55992798131E+03  0.78319396711E+03  0.80136736069E+02 0.  0.
         11    1    3    3    0    0 -0.77531803274E+02 -0.32186475989E+02  0.72568750746E+02  0.11096564036E+03  0.00000000000E+00 0. -1.
        -11    1    3    3    0    0 -0.61774988340E+02 -0.10231821804E+03  0.23037138300E+03  0.25953061675E+03  0.00000000000E+00 0.  1.
          2    1    6    6  502    0  0.34372113627E+03  0.35862955770E+03  0.48836128729E+03  0.69660327741E+03  0.00000000000E+00 0. -1.
          3    1    5    5  503    0 -0.22171360433E+03 -0.18072535342E+03  0.40169896964E+02  0.28884631958E+03  0.00000000000E+00 0. -1.
         -4    1    5    5    0  503 -0.27758024739E+02 -0.62000504087E+02  0.17739225900E+02  0.70208621835E+02  0.00000000000E+00 0.  1.
         -1    1    6    6    0  502  0.45057284410E+02  0.18600993836E+02  0.71566694020E+02  0.86590689702E+02  0.00000000000E+00 0.  1.
<mgrwt>
<rscale>  0 0.12002363E+04</rscale>
<asrwt>0</asrwt>
<pdfrwt beam="1">  1        1 0.45535995E-01 0.12002363E+04</pdfrwt>
<pdfrwt beam="2">  1       -1 0.18719403E+00 0.12002363E+04</pdfrwt>
<totfact> 0.16333661E+01</totfact>
</mgrwt>
</event>
<event>
12    1  0.2045212E-008  0.1334843E+04  0.7818608E-02  0.9002382E-01
         -3   -1    0    0    0  501 -0.00000000000E+00  0.00000000000E+00  0.12747776954E+04  0.12747776954E+04  0.00000000000E+00 0.  1.
          3   -1    0    0  501    0  0.00000000000E+00 -0.00000000000E+00 -0.34943464957E+03  0.34943464957E+03  0.00000000000E+00 0. -1.
         23    2    1    2    0    0  0.28470964892E+03  0.21441457153E+03  0.23771742926E+03  0.43759968824E+03  0.89166800430E+02 0.  0.
        254    2    1    2    0    0 -0.28470964892E+03 -0.21441457153E+03  0.68762561659E+03  0.11866126568E+04  0.89899244486E+03 0.  0.
        -24    2    4    4    0    0 -0.47237067057E+03  0.16758869969E+03  0.49873548136E+03  0.71412350230E+03  0.10007633831E+03 0.  0.
         24    2    4    4    0    0  0.18766102165E+03 -0.38200327122E+03  0.18889013523E+03  0.47248915446E+03  0.80145864655E+02 0.  0.
         11    1    3    3    0    0  0.16374414864E+03  0.17462578924E+03  0.14243452095E+03  0.27855682587E+03  0.00000000000E+00 0. -1.
        -11    1    3    3    0    0  0.12096550028E+03  0.39788782297E+02  0.95282908308E+02  0.15904286237E+03  0.00000000000E+00 0.  1.
          4    1    6    6  502    0  0.32718105413E+02 -0.39790473123E+02  0.50541115864E+02  0.72167586671E+02  0.00000000000E+00 0. -1.
          1    1    5    5  503    0 -0.43087245658E+02  0.26835253687E+02  0.97401581574E+02  0.10983492009E+03  0.00000000000E+00 0. -1.
         -2    1    5    5    0  503 -0.42928342491E+03  0.14075344600E+03  0.40133389979E+03  0.60428858221E+03  0.00000000000E+00 0.  1.
         -3    1    6    6    0  502  0.15494291624E+03 -0.34221279810E+03  0.13834901936E+03  0.40032156779E+03  0.00000000000E+00 0.  1.
<mgrwt>
<rscale>  0 0.13348431E+04</rscale>
<asrwt>0</asrwt>
<pdfrwt beam="1">  1        3 0.53759177E-01 0.13348431E+04</pdfrwt>
<pdfrwt beam="2">  1       -3 0.19611964E+00 0.13348431E+04</pdfrwt>
<totfact> 0.13579264E+00</totfact>
</mgrwt>
</event>
<event>
11    1  0.2045212E-008  0.1329413E+04  0.7818608E-02  0.9006560E-01
          2   -1    0    0  501    0  0.00000000000E+00  0.00000000000E+00  0.10514055028E+04  0.10514055028E+04  0.00000000000E+00 0. -1.
         -2   -1    0    0    0  501 -0.00000000000E+00 -0.00000000000E+00 -0.42023221054E+03  0.42023221054E+03  0.00000000000E+00 0.  1.
         23    2    1    2    0    0 -0.21222649898E+03 -0.89045610990E+02  0.43772738478E+03  0.50279822778E+03  0.90728092485E+02 0.  0.
        254    2    1    2    0    0  0.21222649898E+03  0.89045610990E+02  0.19344590746E+03  0.96883948554E+03  0.92101000099E+03 0.  0.
         24    2    4    4    0    0  0.14171446972E+02  0.86438634367E+02 -0.34465079804E+03  0.36532151625E+03  0.83684946236E+02 0.  0.
         13    1    3    3    0    0 -0.16830680090E+03 -0.60812909617E+02  0.24675370904E+03  0.30481598077E+03  0.00000000000E+00 0. -1.
        -13    1    3    3    0    0 -0.43919698076E+02 -0.28232701373E+02  0.19097367574E+03  0.19798224701E+03  0.00000000000E+00 0.  1.
          2    1    5    5  502    0  0.21326937062E+02 -0.92205726116E+01 -0.96935777202E+02  0.99681503326E+02  0.00000000000E+00 0. -1.
          1    1    4    4  503    0 -0.19860892796E+02  0.46864028147E+02  0.10334818222E+03  0.11520216563E+03  0.00000000000E+00 0. -1.
         -2    1    4    4    0  503  0.21791594480E+03 -0.44257051523E+02  0.43474852328E+03  0.48831580366E+03  0.00000000000E+00 0.  1.
         -1    1    5    5    0  502 -0.71554900896E+01  0.95659206978E+02 -0.24771502084E+03  0.26564001293E+03  0.00000000000E+00 0.  1.
<mgrwt>
<rscale>  0 0.13294126E+04</rscale>
<asrwt>0</asrwt>
<pdfrwt beam="1">  1        2 0.16175469E+00 0.13294126E+04</pdfrwt>
<pdfrwt beam="2">  1       -2 0.64651109E-01 0.13294126E+04</pdfrwt>
<totfact> 0.50475869E+01</totfact>
</mgrwt>
</event>
<event>
12    1  0.2045212E-008  0.1898600E+04  0.7818608E-02  0.8655554E-01
          1   -1    0    0  501    0  0.00000000000E+00  0.00000000000E+00  0.20585414618E+04  0.20585414618E+04  0.00000000000E+00 0. -1.
         -1   -1    0    0    0  501 -0.00000000000E+00 -0.00000000000E+00 -0.43777134464E+03  0.43777134464E+03  0.00000000000E+00 0.  1.
         23    2    1    2    0    0  0.57740155205E+03  0.44798256445E+03  0.52331824321E+03  0.90347329560E+03  0.91219963988E+02 0.  0.
        254    2    1    2    0    0 -0.57740155205E+03 -0.44798256445E+03  0.10974518740E+04  0.15928395108E+04  0.89367564659E+03 0.  0.
        -24    2    4    4    0    0 -0.70720440031E+03 -0.57983780566E+03  0.73366588602E+03  0.11772172665E+04  0.10594770242E+03 0.  0.
         24    2    4    4    0    0  0.12980284826E+03  0.13185524121E+03  0.36378598793E+03  0.41562224431E+03  0.78530381983E+02 0.  0.
         13    1    3    3    0    0  0.32967538831E+03  0.21072357643E+03  0.31353310059E+03  0.50139135661E+03  0.00000000000E+00 0. -1.
        -13    1    3    3    0    0  0.24772616374E+03  0.23725898802E+03  0.20978514261E+03  0.40208193898E+03  0.00000000000E+00 0.  1.
          2    1    6    6  502    0  0.32604338256E+01  0.44774478036E+02  0.57260747158E+02  0.72761098653E+02  0.00000000000E+00 0. -1.
          3    1    5    5  503    0 -0.27339481802E+03 -0.15964681778E+03  0.26049907623E+03  0.40998975800E+03  0.00000000000E+00 0. -1.
         -4    1    5    5    0  503 -0.43380958229E+03 -0.42019098787E+03  0.47316680980E+03  0.76722750854E+03  0.00000000000E+00 0.  1.
         -1    1    6    6    0  502  0.12654241443E+03  0.87080763171E+02  0.30652524078E+03  0.34286114565E+03  0.00000000000E+00 0.  1.
<mgrwt>
<rscale>  0 0.18986000E+04</rscale>
<asrwt>0</asrwt>
<pdfrwt beam="1">  1        1 0.31669868E+00 0.18986000E+04</pdfrwt>
<pdfrwt beam="2">  1       -1 0.67349439E-01 0.18986000E+04</pdfrwt>
<totfact> 0.56820099E+00</totfact>
</mgrwt>
</event>
<event>
12    1  0.2045212E-008  0.3149193E+04  0.7818608E-02  0.8202365E-01
         -2   -1    0    0    0  501 -0.00000000000E+00  0.00000000000E+00  0.98315679175E+03  0.98315679175E+03  0.00000000000E+00 0.  1.
          2   -1    0    0  501    0  0.00000000000E+00 -0.00000000000E+00 -0.25218306369E+04  0.25218306369E+04  0.00000000000E+00 0. -1.
         23    2    1    2    0    0  0.15753188275E+03 -0.75950987802E+03 -0.20640761040E+04  0.22068465294E+04  0.89943829701E+02 0.  0.
        254    2    1    2    0    0 -0.15753188275E+03  0.75950987802E+03  0.52540225877E+03  0.12981408993E+04  0.89858261278E+03 0.  0.
        -24    2    4    4    0    0 -0.44748360787E+03  0.75705792432E+03  0.44102528813E+03  0.98590873716E+03  0.64299713468E+02 0.  0.
         24    2    4    4    0    0  0.28995172512E+03  0.24519536999E+01  0.84376970644E+02  0.31223216213E+03  0.79318566024E+02 0.  0.
         11    1    3    3    0    0  0.14484109463E+03 -0.51551635027E+03 -0.13626957077E+04  0.14641296534E+04  0.00000000000E+00 0. -1.
        -11    1    3    3    0    0  0.12690788114E+02 -0.24399352775E+03 -0.70138039621E+03  0.74271687598E+03  0.00000000000E+00 0.  1.
          4    1    6    6  502    0  0.26839226763E+03  0.68291992881E+01  0.52600199653E+02  0.27358331142E+03  0.00000000000E+00 0. -1.
          3    1    5    5  503    0 -0.32235716745E+03  0.52417964481E+03  0.33878080415E+03  0.70246058729E+03  0.00000000000E+00 0. -1.
         -4    1    5    5    0  503 -0.12512644041E+03  0.23287827950E+03  0.10224448399E+03  0.28344814986E+03  0.00000000000E+00 0.  1.
         -3    1    6    6    0  502  0.21559457490E+02 -0.43772455881E+01  0.31776770991E+02  0.38648850705E+02  0.00000000000E+00 0.  1.
<mgrwt>
<rscale>  0 0.31491935E+04</rscale>
<asrwt>0</asrwt>
<pdfrwt beam="1">  1        2 0.38797393E+00 0.31491935E+04</pdfrwt>
<pdfrwt beam="2">  1       -2 0.15125489E+00 0.31491935E+04</pdfrwt>
<totfact> 0.83763798E-01</totfact>
</mgrwt>
</event>
<event>
12    1  0.2045212E-008  0.2025319E+04  0.7818608E-02  0.8594874E-01
          1   -1    0    0  501    0  0.00000000000E+00  0.00000000000E+00  0.16485793309E+04  0.16485793309E+04  0.00000000000E+00 0. -1.
         -1   -1    0    0    0  501 -0.00000000000E+00 -0.00000000000E+00 -0.62203838646E+03  0.62203838646E+03  0.00000000000E+00 0.  1.
         23    2    1    2    0    0  0.46394404338E+03 -0.76273278811E+02  0.11582213318E+04  0.12532388139E+04  0.89828630639E+02 0.  0.
        254    2    1    2    0    0 -0.46394404338E+03  0.76273278811E+02 -0.13168038736E+03  0.10173789034E+04  0.89255723641E+03 0.  0.
        -24    2    4    4    0    0 -0.52228542815E+03 -0.50090396761E+02 -0.42569976161E+03  0.68232830545E+03  0.95186727463E+02 0.  0.
         24    2    4    4    0    0  0.58341384764E+02  0.12636367557E+03  0.29401937426E+03  0.33505059797E+03  0.80249704557E+02 0.  0.
         13    1    3    3    0    0  0.29887374429E+03 -0.23906713260E+02  0.82325625685E+03  0.87615518626E+03  0.00000000000E+00 0. -1.
        -13    1    3    3    0    0  0.16507029909E+03 -0.52366565551E+02  0.33496507493E+03  0.37708362767E+03  0.00000000000E+00 0.  1.
          2    1    6    6  502    0  0.50305368535E+02  0.13195338397E+03  0.29294081052E+03  0.32520246634E+03  0.00000000000E+00 0. -1.
          3    1    5    5  503    0 -0.23418003509E+03 -0.55431015473E+02 -0.15028466771E+03  0.28372234255E+03  0.00000000000E+00 0. -1.
         -4    1    5    5    0  503 -0.28810539305E+03  0.53406187126E+01 -0.27541509390E+03  0.39860596290E+03  0.00000000000E+00 0.  1.
         -3    1    6    6    0  502  0.80360162290E+01 -0.55897084014E+01  0.10785637350E+01  0.98481316287E+01  0.00000000000E+00 0.  1.
<mgrwt>
<rscale>  0 0.20253194E+04</rscale>
<asrwt>0</asrwt>
<pdfrwt beam="1">  1        1 0.25362759E+00 0.20253194E+04</pdfrwt>
<pdfrwt beam="2">  1       -1 0.95698214E-01 0.20253194E+04</pdfrwt>
<totfact> 0.50378483E+00</totfact>
</mgrwt>
</event>
<event>
11    1  0.2045212E-008  0.1592725E+04  0.7818608E-02  0.8825030E-01
          2   -1    0    0  501    0  0.00000000000E+00  0.00000000000E+00  0.12838272727E+04  0.12838272727E+04  0.00000000000E+00 0. -1.
         -2   -1    0    0    0  501 -0.00000000000E+00 -0.00000000000E+00 -0.49398629597E+03  0.49398629597E+03  0.00000000000E+00 0.  1.
         23    2    1    2    0    0 -0.35589377905E+03  0.34608166898E+03  0.71246834805E+02  0.50938256024E+03  0.89227673038E+02 0.  0.
        254    2    1    2    0    0  0.35589377905E+03 -0.34608166898E+03  0.71859414189E+03  0.12684310084E+04  0.91984062682E+03 0.  0.
         24    2    4    4    0    0 -0.15453134839E+03 -0.20843989954E+03  0.67219406300E+03  0.72490926745E+03  0.79507599306E+02 0.  0.
         11    1    3    3    0    0 -0.17890126801E+03  0.18243433508E+03  0.81248197850E+02  0.26812165143E+03  0.00000000000E+00 0.  1.
        -11    1    3    3    0    0 -0.17699251104E+03  0.16364733390E+03 -0.10001363045E+02  0.24126090881E+03  0.00000000000E+00 0. -1.
          4    1    5    5  502    0 -0.20332771837E+02 -0.86079072814E+02  0.18766232788E+03  0.20746126793E+03  0.00000000000E+00 0. -1.
          3    1    4    4  503    0  0.15160344336E+03 -0.65854295981E+02  0.63803487892E+02  0.17717583753E+03  0.00000000000E+00 0. -1.
         -4    1    4    4    0  503  0.35882168407E+03 -0.71787473462E+02 -0.17403409000E+02  0.36634590342E+03  0.00000000000E+00 0.  1.
         -3    1    5    5    0  502 -0.13419857655E+03 -0.12236082672E+03  0.48453173512E+03  0.51744799951E+03  0.00000000000E+00 0.  1.
<mgrwt>
<rscale>  0 0.15927248E+04</rscale>
<asrwt>0</asrwt>
<pdfrwt beam="1">  1        2 0.19751189E+00 0.15927248E+04</pdfrwt>
<pdfrwt beam="2">  1       -2 0.75997892E-01 0.15927248E+04</pdfrwt>
<totfact> 0.25137515E+01</totfact>
</mgrwt>
</event>
<event>
11    1  0.2045212E-008  0.1386425E+04  0.7818608E-02  0.8963704E-01
          2   -1    0    0  501    0  0.00000000000E+00  0.00000000000E+00  0.25384530050E+04  0.25384530050E+04  0.00000000000E+00 0. -1.
         -2   -1    0    0    0  501 -0.00000000000E+00 -0.00000000000E+00 -0.18930554822E+03  0.18930554822E+03  0.00000000000E+00 0.  1.
         23    2    1    2    0    0 -0.22298118219E+03  0.23022670266E+03  0.23472763160E+03  0.40754838623E+03  0.90959792498E+02 0.  0.
        254    2    1    2    0    0  0.22298118219E+03 -0.23022670266E+03  0.21144198252E+04  0.23202101670E+04  0.89993281953E+03 0.  0.
         24    2    4    4    0    0  0.10126758172E+03 -0.18826627532E+03  0.17293499019E+04  0.17443799891E+04  0.80691694313E+02 0.  0.
         11    1    3    3    0    0 -0.21507186925E+03  0.23784138927E+03  0.21878031819E+03  0.38818714948E+03  0.00000000000E+00 0.  1.
        -11    1    3    3    0    0 -0.79093129374E+01 -0.76146866118E+01  0.15947313412E+02  0.19361236748E+02  0.00000000000E+00 0. -1.
          4    1    5    5  502    0  0.33501505176E+02 -0.61671823489E+02  0.31311256142E+03  0.32088197329E+03  0.00000000000E+00 0. -1.
          1    1    4    4  503    0  0.61629250461E+02  0.25143027742E+02  0.45621775990E+03  0.46104769906E+03  0.00000000000E+00 0. -1.
         -2    1    4    4    0  503  0.60084350007E+02 -0.67103455082E+02 -0.71147836617E+02  0.11478247887E+03  0.00000000000E+00 0.  1.
         -3    1    5    5    0  502  0.67766076543E+02 -0.12659445183E+03  0.14162373405E+04  0.14234980158E+04  0.00000000000E+00 0.  1.
<mgrwt>
<rscale>  0 0.13864245E+04</rscale>
<asrwt>0</asrwt>
<pdfrwt beam="1">  1        2 0.39053121E+00 0.13864245E+04</pdfrwt>
<pdfrwt beam="2">  1       -2 0.29123932E-01 0.13864245E+04</pdfrwt>
<totfact> 0.35054063E+01</totfact>
</mgrwt>
</event>
<event>
11    1  0.2045212E-008  0.1944350E+04  0.7818608E-02  0.8633090E-01
          2   -1    0    0  501    0  0.00000000000E+00  0.00000000000E+00  0.99799008061E+03  0.99799008061E+03  0.00000000000E+00 0. -1.
         -2   -1    0    0    0  501 -0.00000000000E+00 -0.00000000000E+00 -0.94702794055E+03  0.94702794055E+03  0.00000000000E+00 0.  1.
         23    2    1    2    0    0  0.37319618834E+03 -0.65994590737E+03 -0.93831553668E+02  0.76939833099E+03  0.91462755411E+02 0.  0.
        254    2    1    2    0    0 -0.37319618834E+03  0.65994590737E+03  0.14479369373E+03  0.11756196902E+04  0.88674260444E+03 0.  0.
         24    2    4    4    0    0 -0.12753410698E+02  0.68948365253E+03 -0.42110135273E+02  0.69541984882E+03  0.79278913012E+02 0.  0.
         11    1    3    3    0    0  0.21729333645E+03 -0.42162388754E+03 -0.17891246942E+02  0.47466113526E+03  0.00000000000E+00 0. -1.
        -11    1    3    3    0    0  0.15590285189E+03 -0.23832201983E+03 -0.75940306725E+02  0.29473719573E+03  0.00000000000E+00 0.  1.
          4    1    5    5  502    0 -0.12179412679E+02  0.51021386165E+02  0.14585460003E+02  0.54444977573E+02  0.00000000000E+00 0. -1.
          1    1    4    4  503    0 -0.57286576464E+02  0.27743532711E+02  0.15798711080E+03  0.17032728093E+03  0.00000000000E+00 0. -1.
         -2    1    4    4    0  503 -0.30315620118E+03 -0.57281277879E+02  0.28916718203E+02  0.30987256042E+03  0.00000000000E+00 0.  1.
         -3    1    5    5    0  502 -0.57399801945E+00  0.63846226637E+03 -0.56695595276E+02  0.64097487125E+03  0.00000000000E+00 0.  1.
<mgrwt>
<rscale>  0 0.19443503E+04</rscale>
<asrwt>0</asrwt>
<pdfrwt beam="1">  1        2 0.15353693E+00 0.19443503E+04</pdfrwt>
<pdfrwt beam="2">  1       -2 0.14569661E+00 0.19443503E+04</pdfrwt>
<totfact> 0.76282286E+00</totfact>
</mgrwt>
</event>
<event>
11    1  0.2045212E-008  0.3073218E+04  0.7818608E-02  0.8223127E-01
         -2   -1    0    0    0  501 -0.00000000000E+00  0.00000000000E+00  0.94963517873E+03  0.94963517873E+03  0.00000000000E+00 0.  1.
          2   -1    0    0  501    0  0.00000000000E+00 -0.00000000000E+00 -0.24863946876E+04  0.24863946876E+04  0.00000000000E+00 0. -1.
         23    2    1    2    0    0 -0.13754195646E+04  0.19867863860E+03 -0.38575326059E+03  0.14451267641E+04  0.91288587464E+02 0.  0.
        254    2    1    2    0    0  0.13754195646E+04 -0.19867863860E+03 -0.11510062482E+04  0.19909031022E+04  0.84120603831E+03 0.  0.
         24    2    4    4    0    0  0.38603089701E+03 -0.32457124458E+03 -0.78044763716E+02  0.51607071804E+03  0.76626722640E+02 0.  0.
         13    1    3    3    0    0 -0.13470963198E+04  0.19276550827E+03 -0.39065204475E+03  0.14157810763E+04  0.00000000000E+00 0.  1.
        -13    1    3    3    0    0 -0.28323244755E+02  0.59131303272E+01  0.48987841603E+01  0.29345687758E+02  0.00000000000E+00 0. -1.
          2    1    5    5  502    0  0.21080395576E+03 -0.16549459120E+03 -0.78995339478E+02  0.27940478010E+03  0.00000000000E+00 0. -1.
          3    1    4    4  503    0  0.24489251747E+03  0.95284623635E+02 -0.33911617130E+03  0.42901198381E+03  0.00000000000E+00 0. -1.
         -4    1    4    4    0  503  0.74449615007E+03  0.30607982346E+02 -0.73384531323E+03  0.10458204004E+04  0.00000000000E+00 0.  1.
         -1    1    5    5    0  502  0.17522694125E+03 -0.15907665338E+03  0.95057576176E+00  0.23666593794E+03  0.00000000000E+00 0.  1.
<mgrwt>
<rscale>  0 0.30732184E+04</rscale>
<asrwt>0</asrwt>
<pdfrwt beam="1">  1        2 0.38252225E+00 0.30732184E+04</pdfrwt>
<pdfrwt beam="2">  1       -2 0.14609772E+00 0.30732184E+04</pdfrwt>
<totfact> 0.96877218E-01</totfact>
</mgrwt>
</event>
<event>
12    1  0.2226090E-008  0.1625401E+04  0.7818608E-02  0.8805093E-01
         -2   -1    0    0    0  501 -0.00000000000E+00  0.00000000000E+00  0.81593315418E+03  0.81593315418E+03  0.00000000000E+00 0.  1.
          2   -1    0    0  501    0  0.00000000000E+00 -0.00000000000E+00 -0.80948050454E+03  0.80948050454E+03  0.00000000000E+00 0. -1.
         23    2    1    2    0    0  0.46115094792E+03 -0.29322289254E+03  0.10242013342E+03  0.56315409424E+03  0.89514181302E+02 0.  0.
        254    2    1    2    0    0 -0.46115094792E+03  0.29322289254E+03 -0.95967483778E+02  0.10622595645E+04  0.90583981085E+03 0.  0.
        -24    2    4    4    0    0 -0.13605476099E+03  0.75554373717E+02  0.39203306577E+03  0.43174743741E+03  0.92176806577E+02 0.  0.
         24    2    4    4    0    0 -0.32509618693E+03  0.21766851882E+03 -0.48800054955E+03  0.63051212708E+03  0.79585747393E+02 0.  0.
         13    1    3    3    0    0  0.14292924768E+03 -0.63925365265E+02  0.63645392081E+02  0.16901466830E+03  0.00000000000E+00 0.  1.
        -13    1    3    3    0    0  0.31822170024E+03 -0.22929752727E+03  0.38774741342E+02  0.39413942594E+03  0.00000000000E+00 0. -1.
          4    1    6    6  502    0 -0.11201142197E+03  0.56472741916E+02 -0.10535954046E+03  0.16381807592E+03  0.00000000000E+00 0. -1.
          3    1    5    5  503    0 -0.31232211610E+02  0.22373191682E+02  0.23762482495E+02  0.45173734874E+02  0.00000000000E+00 0. -1.
         -4    1    5    5    0  503 -0.10482254938E+03  0.53181182034E+02  0.36827058328E+03  0.38657370253E+03  0.00000000000E+00 0.  1.
         -3    1    6    6    0  502 -0.21308476495E+03  0.16119577690E+03 -0.38264100909E+03  0.46669405115E+03  0.00000000000E+00 0.  1.
<mgrwt>
<rscale>  0 0.16254009E+04</rscale>
<asrwt>0</asrwt>
<pdfrwt beam="1">  1        2 0.12453546E+00 0.16254009E+04</pdfrwt>
<pdfrwt beam="2">  1       -2 0.12552818E+00 0.16254009E+04</pdfrwt>
<totfact> 0.15394372E+01</totfact>
</mgrwt>
</event>
<event>
11    1  0.2045212E-008  0.1424645E+04  0.7818608E-02  0.8936170E-01
          1   -1    0    0  501    0  0.00000000000E+00  0.00000000000E+00  0.16325584625E+04  0.16325584625E+04  0.00000000000E+00 0. -1.
         -1   -1    0    0    0  501 -0.00000000000E+00 -0.00000000000E+00 -0.31080253374E+03  0.31080253374E+03  0.00000000000E+00 0.  1.
         23    2    1    2    0    0  0.13564730254E+03 -0.26288041027E+03  0.82792174886E+03  0.88368047552E+03  0.89053129009E+02 0.  0.
        254    2    1    2    0    0 -0.13564730254E+03  0.26288041027E+03  0.49383417990E+03  0.10596805207E+04  0.88968775869E+03 0.  0.
         24    2    4    4    0    0  0.13251675377E+03 -0.14253611400E+03  0.51490014137E+03  0.55560276232E+03  0.75465489390E+02 0.  0.
         13    1    3    3    0    0  0.47402647392E+02 -0.22112106689E+02  0.15228981082E+03  0.16102218084E+03  0.00000000000E+00 0.  1.
        -13    1    3    3    0    0  0.88244655153E+02 -0.24076830358E+03  0.67563193803E+03  0.72265829467E+03  0.00000000000E+00 0. -1.
          2    1    5    5  502    0  0.11087838730E+03 -0.11551479948E+03  0.48179092550E+03  0.50770087804E+03  0.00000000000E+00 0. -1.
          3    1    4    4  503    0 -0.22681493050E+03  0.35715523868E+03  0.27664340122E+02  0.42399315198E+03  0.00000000000E+00 0. -1.
         -4    1    4    4    0  503 -0.41349125816E+02  0.48261285583E+02 -0.48730301589E+02  0.80084606416E+02  0.00000000000E+00 0.  1.
         -1    1    5    5    0  502  0.21638366468E+02 -0.27021314517E+02  0.33109215867E+02  0.47901884274E+02  0.00000000000E+00 0.  1.
<mgrwt>
<rscale>  0 0.14246449E+04</rscale>
<asrwt>0</asrwt>
<pdfrwt beam="1">  1        1 0.25116284E+00 0.14246449E+04</pdfrwt>
<pdfrwt beam="2">  1       -1 0.47815775E-01 0.14246449E+04</pdfrwt>
<totfact> 0.22537211E+01</totfact>
</mgrwt>
</event>
<event>
12    1  0.2045212E-008  0.1656876E+04  0.7818608E-02  0.8786349E-01
         -1   -1    0    0    0  501 -0.00000000000E+00  0.00000000000E+00  0.10126848879E+04  0.10126848879E+04  0.00000000000E+00 0.  1.
          1   -1    0    0  501    0  0.00000000000E+00 -0.00000000000E+00 -0.67771244011E+03  0.67771244011E+03  0.00000000000E+00 0. -1.
         23    2    1    2    0    0  0.26748975839E+02 -0.55659771754E+03 -0.45121326809E+02  0.56646932170E+03  0.91296393228E+02 0.  0.
        254    2    1    2    0    0 -0.26748975839E+02  0.55659771754E+03  0.38009377464E+03  0.11239280063E+04  0.89901410392E+03 0.  0.
        -24    2    4    4    0    0 -0.43048916573E+03  0.37128297075E+03  0.34415166489E+03  0.67130923809E+03  0.95098677738E+02 0.  0.
         24    2    4    4    0    0  0.40374018989E+03  0.18531474679E+03  0.35942109752E+02  0.45261876826E+03  0.78893712150E+02 0.  0.
         11    1    3    3    0    0  0.11035795634E+02 -0.54233397852E+03 -0.49834528416E+02  0.54473058779E+03  0.00000000000E+00 0. -1.
        -11    1    3    3    0    0  0.15713180205E+02 -0.14263739016E+02  0.47132016071E+01  0.21738733916E+02  0.00000000000E+00 0.  1.
          2    1    6    6  502    0  0.11002365569E+03  0.45609169442E+02 -0.25029342704E+02  0.12170402271E+03  0.00000000000E+00 0. -1.
          1    1    5    5  503    0 -0.16258031297E+03  0.12916712596E+03  0.17935054841E+03  0.27437770283E+03  0.00000000000E+00 0. -1.
         -2    1    5    5    0  503 -0.26790885277E+03  0.24211584479E+03  0.16480111648E+03  0.39693153526E+03  0.00000000000E+00 0.  1.
         -1    1    6    6    0  502  0.29371653421E+03  0.13970557735E+03  0.60971452456E+02  0.33091474555E+03  0.00000000000E+00 0.  1.
<mgrwt>
<rscale>  0 0.16568755E+04</rscale>
<asrwt>0</asrwt>
<pdfrwt beam="1">  1        1 0.10426345E+00 0.16568755E+04</pdfrwt>
<pdfrwt beam="2">  1       -1 0.15579768E+00 0.16568755E+04</pdfrwt>
<totfact> 0.85984405E+00</totfact>
</mgrwt>
</event>
<event>
11    1  0.2045212E-008  0.4021025E+04  0.7818608E-02  0.8000318E-01
          2   -1    0    0  501    0  0.00000000000E+00  0.00000000000E+00  0.20058343886E+04  0.20058343886E+04  0.00000000000E+00 0. -1.
         -2   -1    0    0    0  501 -0.00000000000E+00 -0.00000000000E+00 -0.20152019394E+04  0.20152019394E+04  0.00000000000E+00 0.  1.
         23    2    1    2    0    0 -0.15159837996E+04 -0.70413593326E+03  0.91766683414E+03  0.19091390449E+04  0.93194317618E+02 0.  0.
        254    2    1    2    0    0  0.15159837996E+04  0.70413593326E+03 -0.92703438495E+03  0.21118972832E+04  0.89816651615E+03 0.  0.
         24    2    4    4    0    0 -0.75527235991E+02  0.13360187578E+03 -0.21458414672E+03  0.27363018740E+03  0.72617483062E+02 0.  0.
         11    1    3    3    0    0 -0.13390842472E+04 -0.63513111667E+03  0.84343681927E+03  0.17052635646E+04  0.00000000000E+00 0. -1.
        -11    1    3    3    0    0 -0.17689955241E+03 -0.69004816587E+02  0.74230014872E+02  0.20387548029E+03  0.00000000000E+00 0.  1.
          2    1    5    5  502    0 -0.16668508014E+01 -0.65019028690E+01 -0.28455617210E+02  0.29236540208E+02  0.00000000000E+00 0. -1.
          3    1    4    4  503    0  0.19145574119E+03  0.96666350871E+02 -0.12097151375E+03  0.24623929695E+03  0.00000000000E+00 0. -1.
         -4    1    4    4    0  503  0.14000552944E+04  0.47386770661E+03 -0.59147872448E+03  0.15920277989E+04  0.00000000000E+00 0.  1.
         -1    1    5    5    0  502 -0.73860385189E+02  0.14010377865E+03 -0.18612852951E+03  0.24439364720E+03  0.00000000000E+00 0.  1.
<mgrwt>
<rscale>  0 0.40210254E+04</rscale>
<asrwt>0</asrwt>
<pdfrwt beam="1">  1        2 0.30858991E+00 0.40210254E+04</pdfrwt>
<pdfrwt beam="2">  1       -2 0.31003107E+00 0.40210254E+04</pdfrwt>
<totfact> 0.14405284E-01</totfact>
</mgrwt>
</event>
<event>
11    1  0.2045212E-008  0.1516377E+04  0.7818608E-02  0.8873635E-01
          1   -1    0    0  501    0  0.00000000000E+00  0.00000000000E+00  0.10263056658E+04  0.10263056658E+04  0.00000000000E+00 0. -1.
         -1   -1    0    0    0  501 -0.00000000000E+00 -0.00000000000E+00 -0.56011585413E+03  0.56011585413E+03  0.00000000000E+00 0.  1.
         23    2    1    2    0    0  0.43940803068E+03 -0.69873706785E+02  0.34519084676E+03  0.57058992724E+03  0.91947768039E+02 0.  0.
        254    2    1    2    0    0 -0.43940803068E+03  0.69873706785E+02  0.12099896491E+03  0.10158315927E+04  0.90515817560E+03 0.  0.
         24    2    4    4    0    0 -0.97090520813E+02 -0.24662503403E+03 -0.27063089056E+03  0.38527136369E+03  0.70302689217E+02 0.  0.
         11    1    3    3    0    0  0.37958932971E+03 -0.86354903649E+02  0.31877695573E+03  0.50315402823E+03  0.00000000000E+00 0. -1.
        -11    1    3    3    0    0  0.59818700970E+02  0.16481196863E+02  0.26413891029E+02  0.67435899009E+02  0.00000000000E+00 0.  1.
          2    1    5    5  502    0 -0.10207352235E+03 -0.24723043498E+03 -0.27025712031E+03  0.38023782429E+03  0.00000000000E+00 0. -1.
          3    1    4    4  503    0 -0.96034875895E+02  0.12728868054E+03  0.46133145617E+02  0.16599208628E+03  0.00000000000E+00 0. -1.
         -4    1    4    4    0  503 -0.24628263398E+03  0.18921006027E+03  0.34549670985E+03  0.46456814271E+03  0.00000000000E+00 0.  1.
         -1    1    5    5    0  502  0.49830015416E+01  0.60540094630E+00 -0.37377025273E+00  0.50335393980E+01  0.00000000000E+00 0.  1.
<mgrwt>
<rscale>  0 0.15163774E+04</rscale>
<asrwt>0</asrwt>
<pdfrwt beam="1">  1        1 0.15789318E+00 0.15163774E+04</pdfrwt>
<pdfrwt beam="2">  1       -1 0.86171670E-01 0.15163774E+04</pdfrwt>
<totfact> 0.18534487E+01</totfact>
</mgrwt>
</event>
<event>
11    1  0.2045212E-008  0.1092740E+04  0.7818608E-02  0.9212297E-01
          3   -1    0    0  501    0  0.00000000000E+00  0.00000000000E+00  0.23796239990E+03  0.23796239990E+03  0.00000000000E+00 0. -1.
         -3   -1    0    0    0  501 -0.00000000000E+00 -0.00000000000E+00 -0.12544846903E+04  0.12544846903E+04  0.00000000000E+00 0.  1.
         23    2    1    2    0    0 -0.14851028125E+03 -0.15102623036E+02 -0.28714516619E+03  0.33738782614E+03  0.95366691757E+02 0.  0.
        254    2    1    2    0    0  0.14851028125E+03  0.15102623036E+02 -0.72937712424E+03  0.11550592641E+04  0.88311240584E+03 0.  0.
         24    2    4    4    0    0 -0.21534095146E+03  0.24928383106E+03 -0.55425064921E+02  0.34353626951E+03  0.80193995033E+02 0.  0.
         13    1    3    3    0    0 -0.83711557750E+02  0.22530848604E+02 -0.22115359548E+03  0.23753773770E+03  0.00000000000E+00 0. -1.
        -13    1    3    3    0    0 -0.64798723498E+02 -0.37633471640E+02 -0.65991570719E+02  0.99850088436E+02  0.00000000000E+00 0.  1.
          2    1    5    5  502    0 -0.26957917117E+01  0.94063240873E+00 -0.13636944726E+02  0.13932635922E+02  0.00000000000E+00 0. -1.
          1    1    4    4  503    0  0.14239697081E+03 -0.19692570593E+02 -0.21178200800E+03  0.25596154700E+03  0.00000000000E+00 0. -1.
         -4    1    4    4    0  503  0.22145426190E+03 -0.21448863744E+03 -0.46217005132E+03  0.55556144758E+03  0.00000000000E+00 0.  1.
         -1    1    5    5    0  502 -0.21264515975E+03  0.24834319866E+03 -0.41788120196E+02  0.32960363359E+03  0.00000000000E+00 0.  1.
<mgrwt>
<rscale>  0 0.10927400E+04</rscale>
<asrwt>0</asrwt>
<pdfrwt beam="1">  1        3 0.36609601E-01 0.10927400E+04</pdfrwt>
<pdfrwt beam="2">  1       -3 0.19299764E+00 0.10927400E+04</pdfrwt>
<totfact> 0.31304154E+00</totfact>
</mgrwt>
</event>
<event>
11    1  0.2045212E-008  0.1939710E+04  0.7818608E-02  0.8635339E-01
         -2   -1    0    0    0  501 -0.00000000000E+00  0.00000000000E+00  0.55683090416E+03  0.55683090416E+03  0.00000000000E+00 0.  1.
          2   -1    0    0  501    0  0.00000000000E+00 -0.00000000000E+00 -0.16892354043E+04  0.16892354043E+04  0.00000000000E+00 0. -1.
         23    2    1    2    0    0  0.57111537860E+03 -0.46567555185E+03 -0.19588987781E+03  0.76804125701E+03  0.92130521389E+02 0.  0.
        254    2    1    2    0    0 -0.57111537860E+03  0.46567555185E+03 -0.93651462229E+03  0.14780250514E+04  0.87434084863E+03 0.  0.
         24    2    4    4    0    0 -0.20276449552E+03  0.50857101216E+03 -0.12207715230E+03  0.56661967775E+03  0.79981954461E+02 0.  0.
         11    1    3    3    0    0  0.54029656587E+03 -0.41328949965E+03 -0.16548511167E+03  0.70008136084E+03  0.00000000000E+00 0.  1.
        -11    1    3    3    0    0  0.30818812734E+02 -0.52386052194E+02 -0.30404766139E+02  0.67959896165E+02  0.00000000000E+00 0. -1.
          4    1    5    5  502    0 -0.14372988080E+03  0.42237400939E+03 -0.76648840145E+02  0.45269540216E+03  0.00000000000E+00 0. -1.
          3    1    4    4  503    0 -0.28627464808E+03 -0.12768254952E+02 -0.74974845283E+03  0.80264496821E+03  0.00000000000E+00 0. -1.
         -4    1    4    4    0  503 -0.82076234998E+02 -0.30127205365E+02 -0.64689017161E+02  0.10876040546E+03  0.00000000000E+00 0.  1.
         -3    1    5    5    0  502 -0.59034614722E+02  0.86197002774E+02 -0.45428312154E+02  0.11392427559E+03  0.00000000000E+00 0.  1.
<mgrwt>
<rscale>  0 0.19397097E+04</rscale>
<asrwt>0</asrwt>
<pdfrwt beam="1">  1        2 0.25988236E+00 0.19397097E+04</pdfrwt>
<pdfrwt beam="2">  1       -2 0.85666295E-01 0.19397097E+04</pdfrwt>
<totfact> 0.10987156E+01</totfact>
</mgrwt>
</event>
<event>
12    1  0.2045212E-008  0.1607617E+04  0.7818608E-02  0.8815882E-01
         -1   -1    0    0    0  501 -0.00000000000E+00  0.00000000000E+00  0.21934256680E+03  0.21934256680E+03  0.00000000000E+00 0.  1.
          1   -1    0    0  501    0  0.00000000000E+00 -0.00000000000E+00 -0.29456591971E+04  0.29456591971E+04  0.00000000000E+00 0. -1.
         23    2    1    2    0    0 -0.18336473251E+03 -0.19892464632E+03 -0.80369344452E+01  0.28584394680E+03  0.91915883070E+02 0.  0.
        254    2    1    2    0    0  0.18336473251E+03  0.19892464632E+03 -0.27182796958E+04  0.28791578171E+04  0.90956670503E+03 0.  0.
        -24    2    4    4    0    0 -0.35546534373E+03  0.14127180833E+03 -0.13147173841E+04  0.13724779845E+04  0.94343434513E+02 0.  0.
         24    2    4    4    0    0  0.53883007624E+03  0.57652837993E+02 -0.14035623118E+04  0.15066798326E+04  0.80220035122E+02 0.  0.
         11    1    3    3    0    0 -0.64845281278E+02 -0.14408198309E+02 -0.13470205363E+01  0.66440357817E+02  0.00000000000E+00 0. -1.
        -11    1    3    3    0    0 -0.11851945124E+03 -0.18451644801E+03 -0.66899139089E+01  0.21940358898E+03  0.00000000000E+00 0.  1.
          4    1    6    6  502    0  0.25154605989E+02  0.17779403229E+02 -0.54846813390E+02  0.62904962607E+02  0.00000000000E+00 0. -1.
          1    1    5    5  503    0 -0.19218212865E+03  0.10710526155E+03 -0.61563945997E+03  0.65377171268E+03  0.00000000000E+00 0. -1.
         -2    1    5    5    0  503 -0.16328321509E+03  0.34166546783E+02 -0.69907792409E+03  0.71870627185E+03  0.00000000000E+00 0.  1.
         -3    1    6    6    0  502  0.51367547026E+03  0.39873434764E+02 -0.13487154984E+04  0.14437748700E+04  0.00000000000E+00 0.  1.
<mgrwt>
<rscale>  0 0.16076174E+04</rscale>
<asrwt>0</asrwt>
<pdfrwt beam="1">  1        1 0.45317832E+00 0.16076174E+04</pdfrwt>
<pdfrwt beam="2">  1       -1 0.33745012E-01 0.16076174E+04</pdfrwt>
<totfact> 0.52247880E+00</totfact>
</mgrwt>
</event>
<event>
12    1  0.2045212E-008  0.1379322E+04  0.7818608E-02  0.8968924E-01
         -2   -1    0    0    0  501 -0.00000000000E+00  0.00000000000E+00  0.23839806094E+03  0.23839806094E+03  0.00000000000E+00 0.  1.
          2   -1    0    0  501    0  0.00000000000E+00 -0.00000000000E+00 -0.19951183849E+04  0.19951183849E+04  0.00000000000E+00 0. -1.
         23    2    1    2    0    0  0.34671232415E+02 -0.23596222539E+03 -0.50481702479E+01  0.25500519108E+03  0.90121569498E+02 0.  0.
        254    2    1    2    0    0 -0.34671232415E+02  0.23596222539E+03 -0.17516721537E+04  0.19785112548E+04  0.88840935664E+03 0.  0.
        -24    2    4    4    0    0  0.34365978396E+03 -0.23273810823E+02 -0.12248508635E+04  0.12756522996E+04  0.91572016605E+02 0.  0.
         24    2    4    4    0    0 -0.37833101638E+03  0.25923603621E+03 -0.52682129026E+03  0.70285895523E+03  0.78309377760E+02 0.  0.
         11    1    3    3    0    0 -0.22276020581E+02 -0.14981004298E+03 -0.82674121486E+01  0.15168262977E+03  0.00000000000E+00 0. -1.
        -11    1    3    3    0    0  0.56947252996E+02 -0.86152182408E+02  0.32192419006E+01  0.10332256131E+03  0.00000000000E+00 0.  1.
          2    1    6    6  502    0 -0.19733037997E+02  0.72002555304E+00 -0.44011542062E+02  0.48238232348E+02  0.00000000000E+00 0. -1.
          1    1    5    5  503    0  0.21149271582E+02 -0.24129632283E+02 -0.15317375301E+03  0.15649833690E+03  0.00000000000E+00 0. -1.
         -4    1    5    5    0  503  0.32251051238E+03  0.85582145987E+00 -0.10716771105E+04  0.11191539627E+04  0.00000000000E+00 0.  1.
         -1    1    6    6    0  502 -0.35859797838E+03  0.25851601066E+03 -0.48280974820E+03  0.65462072288E+03  0.00000000000E+00 0.  1.
<mgrwt>
<rscale>  0 0.13793221E+04</rscale>
<asrwt>0</asrwt>
<pdfrwt beam="1">  1        2 0.30694130E+00 0.13793221E+04</pdfrwt>
<pdfrwt beam="2">  1       -2 0.36676624E-01 0.13793221E+04</pdfrwt>
<totfact> 0.45913042E+01</totfact>
</mgrwt>
</event>
<event>
12    1  0.2045212E-008  0.1104773E+04  0.7818608E-02  0.9200552E-01
          2   -1    0    0  501    0  0.00000000000E+00  0.00000000000E+00  0.18849957812E+03  0.18849957812E+03  0.00000000000E+00 0.  1.
         -2   -1    0    0    0  501 -0.00000000000E+00 -0.00000000000E+00 -0.16187342763E+04  0.16187342763E+04  0.00000000000E+00 0. -1.
         23    2    1    2    0    0 -0.32627724226E+02  0.20081803883E+02  0.29486143180E+01  0.98946498500E+02  0.91180414584E+02 0.  0.
        254    2    1    2    0    0  0.32627724226E+02 -0.20081803883E+02 -0.14331833125E+04  0.17082873560E+04  0.92885059938E+03 0.  0.
        -24    2    4    4    0    0  0.45737551717E+02  0.15803000958E+03  0.63739514106E+02  0.19871490245E+03  0.91430187751E+02 0.  0.
         24    2    4    4    0    0 -0.13109827491E+02 -0.17811181346E+03 -0.14969228266E+04  0.15095724535E+04  0.78328524934E+02 0.  0.
         11    1    3    3    0    0  0.19643165554E+02  0.15653980747E+02  0.30646928653E+02  0.39624932833E+02  0.00000000000E+00 0.  1.
        -11    1    3    3    0    0 -0.52270889781E+02  0.44278231357E+01 -0.27698314335E+02  0.59321565667E+02  0.00000000000E+00 0. -1.
          2    1    6    6  502    0 -0.33195382217E+02 -0.29425366194E+02 -0.39465853976E+03  0.39714373793E+03  0.00000000000E+00 0. -1.
          1    1    5    5  503    0 -0.31662033348E-01 -0.97319497003E+01 -0.59165424697E+01  0.11389351265E+02  0.00000000000E+00 0. -1.
         -2    1    5    5    0  503  0.45769213750E+02  0.16776195928E+03  0.69656056575E+02  0.18732555118E+03  0.00000000000E+00 0.  1.
         -1    1    6    6    0  502  0.20085554726E+02 -0.14868644727E+03 -0.11022642869E+04  0.11124287156E+04  0.00000000000E+00 0.  1.
<mgrwt>
<rscale>  0 0.11047728E+04</rscale>
<asrwt>0</asrwt>
<pdfrwt beam="1">  1        2 0.28999935E-01 0.11047728E+04</pdfrwt>
<pdfrwt beam="2">  1       -2 0.24903604E+00 0.11047728E+04</pdfrwt>
<totfact> 0.12018429E+01</totfact>
</mgrwt>
</event>
<event>
11    1  0.2045212E-008  0.1975275E+04  0.7818608E-02  0.8618268E-01
         -1   -1    0    0    0  501 -0.00000000000E+00  0.00000000000E+00  0.12471393556E+04  0.12471393556E+04  0.00000000000E+00 0.  1.
          1   -1    0    0  501    0  0.00000000000E+00 -0.00000000000E+00 -0.78213244658E+03  0.78213244658E+03  0.00000000000E+00 0. -1.
         23    2    1    2    0    0 -0.56883438316E+03 -0.52470270641E+03  0.87651388439E+02  0.78413680611E+03  0.91116843782E+02 0.  0.
        254    2    1    2    0    0  0.56883438316E+03  0.52470270641E+03  0.37735552057E+03  0.12451349961E+04  0.89948790094E+03 0.  0.
         24    2    4    4    0    0 -0.15282815026E+03 -0.49271954152E+01  0.54613208408E+01  0.17213257414E+03  0.78861120255E+02 0.  0.
         13    1    3    3    0    0 -0.93891463569E+02 -0.12586445597E+03 -0.47317033690E+01  0.15709824068E+03  0.00000000000E+00 0.  1.
        -13    1    3    3    0    0 -0.47494291959E+03 -0.39883825043E+03  0.92383091808E+02  0.62703856542E+03  0.00000000000E+00 0. -1.
          4    1    5    5  502    0 -0.96150443875E+02 -0.32055781241E+02 -0.21745396008E+02  0.10365974733E+03  0.00000000000E+00 0. -1.
          3    1    4    4  503    0  0.65870801867E+03  0.24926045456E+03  0.17826572332E+03  0.72650237176E+03  0.00000000000E+00 0. -1.
         -4    1    4    4    0  503  0.62954514747E+02  0.28036944727E+03  0.19362847641E+03  0.34650005016E+03  0.00000000000E+00 0.  1.
         -3    1    5    5    0  502 -0.56677706384E+02  0.27128585826E+02  0.27206716849E+02  0.68472826811E+02  0.00000000000E+00 0.  1.
<mgrwt>
<rscale>  0 0.19752753E+04</rscale>
<asrwt>0</asrwt>
<pdfrwt beam="1">  1        1 0.12032807E+00 0.19752753E+04</pdfrwt>
<pdfrwt beam="2">  1       -1 0.19186759E+00 0.19752753E+04</pdfrwt>
<totfact> 0.36532775E+00</totfact>
</mgrwt>
</event>
<event>
11    1  0.2045212E-008  0.2152423E+04  0.7818608E-02  0.8538496E-01
          2   -1    0    0  501    0  0.00000000000E+00  0.00000000000E+00  0.64584795987E+03  0.64584795987E+03  0.00000000000E+00 0. -1.
         -2   -1    0    0    0  501 -0.00000000000E+00 -0.00000000000E+00 -0.17933489238E+04  0.17933489238E+04  0.00000000000E+00 0.  1.
         23    2    1    2    0    0  0.50954780892E+03 -0.62486608384E+03 -0.68352952121E+02  0.81384808417E+03  0.87063113497E+02 0.  0.
        254    2    1    2    0    0 -0.50954780892E+03  0.62486608384E+03 -0.10791480118E+04  0.16253487995E+04  0.90945131607E+03 0.  0.
         24    2    4    4    0    0 -0.40489162649E+03  0.40248680485E+03 -0.97410354176E+02  0.58448125234E+03  0.78719120622E+02 0.  0.
         11    1    3    3    0    0  0.23005539634E+03 -0.35003945231E+03 -0.28176500265E+02  0.41981783993E+03  0.00000000000E+00 0.  1.
        -11    1    3    3    0    0  0.27949241258E+03 -0.27482663153E+03 -0.40176451856E+02  0.39403024423E+03  0.00000000000E+00 0. -1.
          2    1    5    5  502    0 -0.35873340001E+02  0.73937816423E+02 -0.16364626237E+02  0.83794380552E+02  0.00000000000E+00 0. -1.
          1    1    4    4  503    0 -0.14767752750E+03  0.72401462251E+02 -0.30652563029E+03  0.34786288375E+03  0.00000000000E+00 0. -1.
         -2    1    4    4    0  503  0.43021345073E+02  0.14997781674E+03 -0.67521202730E+03  0.69300466337E+03  0.00000000000E+00 0.  1.
         -1    1    5    5    0  502 -0.36901828649E+03  0.32854898843E+03 -0.81045727940E+02  0.50068687179E+03  0.00000000000E+00 0.  1.
<mgrwt>
<rscale>  0 0.21524226E+04</rscale>
<asrwt>0</asrwt>
<pdfrwt beam="1">  1        2 0.99361226E-01 0.21524226E+04</pdfrwt>
<pdfrwt beam="2">  1       -2 0.27589983E+00 0.21524226E+04</pdfrwt>
<totfact> 0.18554988E+00</totfact>
</mgrwt>
</event>
<event>
12    1  0.2045212E-008  0.1567007E+04  0.7818608E-02  0.8841077E-01
         -2   -1    0    0    0  501 -0.00000000000E+00  0.00000000000E+00  0.20876620269E+03  0.20876620269E+03  0.00000000000E+00 0.  1.
          2   -1    0    0  501    0  0.00000000000E+00 -0.00000000000E+00 -0.29405022934E+04  0.29405022934E+04  0.00000000000E+00 0. -1.
         23    2    1    2    0    0  0.37500681855E+03 -0.22605661310E+02 -0.18115597654E+03  0.42740073119E+03  0.93342205370E+02 0.  0.
        254    2    1    2    0    0 -0.37500681855E+03  0.22605661310E+02 -0.25505801141E+04  0.27218677649E+04  0.87290553952E+03 0.  0.
        -24    2    4    4    0    0 -0.25061665343E+02 -0.63536473484E+02  0.40082645025E+02  0.10501611011E+03  0.68969518035E+02 0.  0.
         24    2    4    4    0    0 -0.34994515321E+03  0.86142134794E+02 -0.25906627592E+04  0.26168516548E+04  0.80603806763E+02 0.  0.
         11    1    3    3    0    0  0.11915664930E+03 -0.28301104261E+02 -0.17708851298E+02  0.12374515340E+03  0.00000000000E+00 0. -1.
        -11    1    3    3    0    0  0.25585016925E+03  0.56954429511E+01 -0.16344712524E+03  0.30365557780E+03  0.00000000000E+00 0.  1.
          4    1    6    6  502    0 -0.23025566246E+03  0.77843472985E+02 -0.14935476324E+04  0.15131958917E+04  0.00000000000E+00 0. -1.
          1    1    5    5  503    0  0.82466214037E+01 -0.35159833100E+02 -0.11002373267E+02  0.37752785933E+02  0.00000000000E+00 0. -1.
         -2    1    5    5    0  503 -0.33308286747E+02 -0.28376640384E+02  0.51085018292E+02  0.67263324177E+02  0.00000000000E+00 0.  1.
         -3    1    6    6    0  502 -0.11968949075E+03  0.82986618092E+01 -0.10971151268E+04  0.11036557631E+04  0.00000000000E+00 0.  1.
<mgrwt>
<rscale>  0 0.15670067E+04</rscale>
<asrwt>0</asrwt>
<pdfrwt beam="1">  1        2 0.45238493E+00 0.15670067E+04</pdfrwt>
<pdfrwt beam="2">  1       -2 0.32117880E-01 0.15670067E+04</pdfrwt>
<totfact> 0.16542950E+01</totfact>
</mgrwt>
</event>
<event>
12    1  0.2045212E-008  0.1858651E+04  0.7818608E-02  0.8675717E-01
         -2   -1    0    0    0  501 -0.00000000000E+00  0.00000000000E+00  0.10468780722E+04  0.10468780722E+04  0.00000000000E+00 0.  1.
          2   -1    0    0  501    0  0.00000000000E+00 -0.00000000000E+00 -0.82497253537E+03  0.82497253537E+03  0.00000000000E+00 0. -1.
         23    2    1    2    0    0  0.65707687189E+03 -0.23156225080E+03  0.11478178632E+03  0.71181246170E+03  0.90172227423E+02 0.  0.
        254    2    1    2    0    0 -0.65707687189E+03  0.23156225080E+03  0.10712375053E+03  0.11600381459E+04  0.92132616941E+03 0.  0.
        -24    2    4    4    0    0 -0.78715207089E+03 -0.52373839181E+02  0.21449721495E+03  0.81971052579E+03  0.59706692492E+02 0.  0.
         24    2    4    4    0    0  0.13007519901E+03  0.28393608998E+03 -0.10737346442E+03  0.34032762010E+03  0.82186176191E+02 0.  0.
         11    1    3    3    0    0  0.64863694599E+03 -0.22037486310E+03  0.12234133300E+03  0.69588962469E+03  0.00000000000E+00 0. -1.
        -11    1    3    3    0    0  0.84399258961E+01 -0.11187387694E+02 -0.75595466743E+01  0.15922837011E+02  0.00000000000E+00 0.  1.
          2    1    6    6  502    0  0.12119953143E+03  0.28689087759E+03 -0.96641453205E+02  0.32609089613E+03  0.00000000000E+00 0. -1.
          1    1    5    5  503    0 -0.44366888913E+03 -0.33990022679E+02  0.90573346303E+02  0.45409353209E+03  0.00000000000E+00 0. -1.
         -2    1    5    5    0  503 -0.34348318176E+03 -0.18383816502E+02  0.12392386865E+03  0.36561699370E+03  0.00000000000E+00 0.  1.
         -1    1    6    6    0  502  0.88756675742E+01 -0.29547876126E+01 -0.10732011215E+02  0.14236723972E+02  0.00000000000E+00 0.  1.
<mgrwt>
<rscale>  0 0.18586508E+04</rscale>
<asrwt>0</asrwt>
<pdfrwt beam="1">  1        2 0.12691885E+00 0.18586508E+04</pdfrwt>
<pdfrwt beam="2">  1       -2 0.16105817E+00 0.18586508E+04</pdfrwt>
<totfact> 0.76810675E+00</totfact>
</mgrwt>
</event>
<event>
12    1  0.2045212E-008  0.3630978E+04  0.7818608E-02  0.8083432E-01
         -2   -1    0    0    0  501 -0.00000000000E+00  0.00000000000E+00  0.22567487139E+04  0.22567487139E+04  0.00000000000E+00 0.  1.
          2   -1    0    0  501    0  0.00000000000E+00 -0.00000000000E+00 -0.14605083339E+04  0.14605083339E+04  0.00000000000E+00 0. -1.
         23    2    1    2    0    0 -0.10353284904E+04 -0.64778220696E+03  0.15827901767E+04  0.20012541732E+04  0.90921127149E+02 0.  0.
        254    2    1    2    0    0  0.10353284904E+04  0.64778220696E+03 -0.78654979663E+03  0.17160028746E+04  0.91349789955E+03 0.  0.
        -24    2    4    4    0    0  0.91654701887E+02  0.25921633046E+03  0.15173078142E+03  0.32737651679E+03  0.92517367887E+02 0.  0.
         24    2    4    4    0    0  0.94367378853E+03  0.38856587650E+03 -0.93828057805E+03  0.13886263578E+04  0.80056598879E+02 0.  0.
         13    1    3    3    0    0 -0.77201014774E+03 -0.52021873012E+03  0.12403889967E+04  0.15508681629E+04  0.00000000000E+00 0.  1.
        -13    1    3    3    0    0 -0.26331834268E+03 -0.12756347683E+03  0.34240118000E+03  0.45038601030E+03  0.00000000000E+00 0. -1.
          4    1    6    6  502    0  0.31824720979E+02  0.27293587192E+02 -0.27391599661E+02  0.50080460254E+02  0.00000000000E+00 0. -1.
          3    1    5    5  503    0  0.25665869213E+02  0.73353089176E+01  0.14361376486E+01  0.26732117213E+02  0.00000000000E+00 0. -1.
         -4    1    5    5    0  503  0.65988832674E+02  0.25188102154E+03  0.15029464377E+03  0.30064439958E+03  0.00000000000E+00 0.  1.
         -3    1    6    6    0  502  0.91184906756E+03  0.36127228931E+03 -0.91088897839E+03  0.13385458976E+04  0.00000000000E+00 0.  1.
<mgrwt>
<rscale>  0 0.36309780E+04</rscale>
<asrwt>0</asrwt>
<pdfrwt beam="1">  1        2 0.22469359E+00 0.36309780E+04</pdfrwt>
<pdfrwt beam="2">  1       -2 0.34719211E+00 0.36309780E+04</pdfrwt>
<totfact> 0.17600737E-01</totfact>
</mgrwt>
</event>
<event>
11    1  0.2045212E-008  0.1239025E+04  0.7818608E-02  0.9079368E-01
         -2   -1    0    0    0  501 -0.00000000000E+00  0.00000000000E+00  0.52433330039E+03  0.52433330039E+03  0.00000000000E+00 0.  1.
          2   -1    0    0  501    0  0.00000000000E+00 -0.00000000000E+00 -0.73196867781E+03  0.73196867781E+03  0.00000000000E+00 0. -1.
         23    2    1    2    0    0 -0.98208201312E+02 -0.21257969070E+03 -0.19319189902E+03  0.31771416130E+03  0.93724077689E+02 0.  0.
        254    2    1    2    0    0  0.98208201312E+02  0.21257969070E+03 -0.14443478403E+02  0.93858781690E+03  0.90879233066E+03 0.  0.
         24    2    4    4    0    0 -0.27545964877E+03  0.29217824509E+03 -0.13660651069E+03  0.43163226379E+03  0.79993295835E+02 0.  0.
         13    1    3    3    0    0 -0.83176413005E+02 -0.92054465724E+02 -0.13394667346E+03  0.18257615307E+03  0.00000000000E+00 0. -1.
        -13    1    3    3    0    0 -0.15031788307E+02 -0.12052522497E+03 -0.59245225562E+02  0.13513800822E+03  0.00000000000E+00 0.  1.
          4    1    5    5  502    0 -0.18242621501E+03  0.15508478738E+03 -0.49697402493E+02  0.24454129920E+03  0.00000000000E+00 0. -1.
          3    1    4    4  503    0  0.19964234470E+03  0.11312257430E+03  0.84718990366E+02  0.24460394506E+03  0.00000000000E+00 0. -1.
         -4    1    4    4    0  503  0.17402550539E+03 -0.19272112869E+03  0.37444041922E+02  0.26235160805E+03  0.00000000000E+00 0.  1.
         -3    1    5    5    0  502 -0.93033433759E+02  0.13709345771E+03 -0.86909108198E+02  0.18709096459E+03  0.00000000000E+00 0.  1.
<mgrwt>
<rscale>  0 0.12390247E+04</rscale>
<asrwt>0</asrwt>
<pdfrwt beam="1">  1        2 0.11261057E+00 0.12390247E+04</pdfrwt>
<pdfrwt beam="2">  1       -2 0.80666661E-01 0.12390247E+04</pdfrwt>
<totfact> 0.51699491E+01</totfact>
</mgrwt>
</event>
<event>
12    1  0.2045212E-008  0.2717172E+04  0.7818608E-02  0.8329455E-01
         -2   -1    0    0    0  501 -0.00000000000E+00  0.00000000000E+00  0.71965878187E+03  0.71965878187E+03  0.00000000000E+00 0.  1.
          2   -1    0    0  501    0  0.00000000000E+00 -0.00000000000E+00 -0.25647645059E+04  0.25647645059E+04  0.00000000000E+00 0. -1.
         23    2    1    2    0    0 -0.71456467687E+03  0.80083425970E+03 -0.14992133608E+04  0.18462412462E+04  0.95014993315E+02 0.  0.
        254    2    1    2    0    0  0.71456467687E+03 -0.80083425970E+03 -0.34589236329E+03  0.14381820417E+04  0.89262974913E+03 0.  0.
        -24    2    4    4    0    0  0.61798903920E+03 -0.29229736643E+03  0.16495085007E+03  0.70665394111E+03  0.69302283888E+02 0.  0.
         24    2    4    4    0    0  0.96575637666E+02 -0.50853689327E+03 -0.51084321336E+03  0.73152810055E+03  0.78968016603E+02 0.  0.
         13    1    3    3    0    0 -0.27254967085E+03  0.24601257298E+03 -0.54856024279E+03  0.66009381841E+03  0.00000000000E+00 0. -1.
        -13    1    3    3    0    0 -0.44201500602E+03  0.55482168672E+03 -0.95065311799E+03  0.11861474277E+04  0.00000000000E+00 0.  1.
          4    1    6    6  502    0  0.11063725188E+03 -0.45245157315E+03 -0.45290050472E+03  0.64967060479E+03  0.00000000000E+00 0. -1.
          3    1    5    5  503    0  0.59196242163E+03 -0.26278562734E+03  0.15248434208E+03  0.66537753880E+03  0.00000000000E+00 0. -1.
         -4    1    5    5    0  503  0.26026617573E+02 -0.29511739089E+02  0.12466507989E+02  0.41276402312E+02  0.00000000000E+00 0.  1.
         -3    1    6    6    0  502 -0.14061614216E+02 -0.56085320117E+02 -0.57942708644E+02  0.81857495759E+02  0.00000000000E+00 0.  1.
<mgrwt>
<rscale>  0 0.27171715E+04</rscale>
<asrwt>0</asrwt>
<pdfrwt beam="1">  1        2 0.39457915E+00 0.27171715E+04</pdfrwt>
<pdfrwt beam="2">  1       -2 0.11071674E+00 0.27171715E+04</pdfrwt>
<totfact> 0.18078014E+00</totfact>
</mgrwt>
</event>
<event>
11    1  0.2045212E-008  0.3136958E+04  0.7818608E-02  0.8205668E-01
          2   -1    0    0  501    0  0.00000000000E+00  0.00000000000E+00  0.52929205997E+03  0.52929205997E+03  0.00000000000E+00 0. -1.
         -2   -1    0    0    0  501 -0.00000000000E+00 -0.00000000000E+00 -0.46479561720E+04  0.46479561720E+04  0.00000000000E+00 0.  1.
         23    2    1    2    0    0 -0.32276360967E+03 -0.92504073493E+03 -0.15612871057E+03  0.99642423497E+03  0.92781316848E+02 0.  0.
        254    2    1    2    0    0  0.32276360967E+03  0.92504073493E+03 -0.39625354015E+04  0.41808239970E+04  0.90428191236E+03 0.  0.
         24    2    4    4    0    0  0.29528204603E+03  0.83411714873E+03 -0.33366882636E+04  0.34529397708E+04  0.79759563293E+02 0.  0.
         13    1    3    3    0    0 -0.28130744819E+03 -0.80481759484E+03 -0.16708800417E+03  0.86878285118E+03  0.00000000000E+00 0. -1.
        -13    1    3    3    0    0 -0.41456161478E+02 -0.12022314010E+03  0.10959293603E+02  0.12764138379E+03  0.00000000000E+00 0.  1.
          2    1    5    5  502    0  0.36159386874E+02  0.85549371398E+02 -0.45336149872E+03  0.46277731657E+03  0.00000000000E+00 0. -1.
          3    1    4    4  503    0 -0.29715775987E+02  0.22222036140E+03 -0.32678811574E+03  0.39630214351E+03  0.00000000000E+00 0. -1.
         -4    1    4    4    0  503  0.57197339624E+02 -0.13129677519E+03 -0.29905902214E+03  0.33158208269E+03  0.00000000000E+00 0.  1.
         -1    1    5    5    0  502  0.25912265916E+03  0.74856777733E+03 -0.28833267649E+04  0.29901624542E+04  0.00000000000E+00 0.  1.
<mgrwt>
<rscale>  0 0.31369580E+04</rscale>
<asrwt>0</asrwt>
<pdfrwt beam="1">  1        2 0.81429546E-01 0.31369580E+04</pdfrwt>
<pdfrwt beam="2">  1       -2 0.71507019E+00 0.31369580E+04</pdfrwt>
<totfact> 0.97116383E-03</totfact>
</mgrwt>
</event>
<event>
12    1  0.2264238E-008  0.2937666E+04  0.7818608E-02  0.8261758E-01
         -1   -1    0    0    0  501 -0.00000000000E+00  0.00000000000E+00  0.90825411851E+03  0.90825411851E+03  0.00000000000E+00 0.  1.
          1   -1    0    0  501    0  0.00000000000E+00 -0.00000000000E+00 -0.23754037786E+04  0.23754037786E+04  0.00000000000E+00 0. -1.
         23    2    1    2    0    0  0.13771824015E+03  0.12582902622E+04 -0.19614802860E+03  0.12841312426E+04  0.90875197577E+02 0.  0.
        254    2    1    2    0    0 -0.13771824015E+03 -0.12582902622E+04 -0.12710016315E+04  0.19995266545E+04  0.88340307740E+03 0.  0.
        -24    2    4    4    0    0  0.15007249826E+03 -0.90414843984E+03 -0.12270806246E+04  0.15342868258E+04  0.91121065845E+02 0.  0.
         24    2    4    4    0    0 -0.28779073841E+03 -0.35414182236E+03 -0.43921006897E+02  0.46523982867E+03  0.79240796765E+02 0.  0.
         13    1    3    3    0    0  0.25307780897E+02  0.37205629698E+03 -0.18985941446E+02  0.37339903303E+03  0.00000000000E+00 0.  1.
        -13    1    3    3    0    0  0.11241045925E+03  0.88623396522E+03 -0.17716208715E+03  0.91073220958E+03  0.00000000000E+00 0. -1.
          4    1    6    6  502    0 -0.15664067126E+03 -0.23975205811E+03 -0.27081598028E+01  0.28639951709E+03  0.00000000000E+00 0. -1.
          1    1    5    5  503    0  0.31335109447E+02 -0.44014349978E+03 -0.62085005459E+03  0.76168430453E+03  0.00000000000E+00 0. -1.
         -2    1    5    5    0  503  0.11873738881E+03 -0.46400494005E+03 -0.60623057004E+03  0.77260252132E+03  0.00000000000E+00 0.  1.
         -3    1    6    6    0  502 -0.13115006715E+03 -0.11438976425E+03 -0.41212847094E+02  0.17884031157E+03  0.00000000000E+00 0.  1.
<mgrwt>
<rscale>  0 0.29376659E+04</rscale>
<asrwt>0</asrwt>
<pdfrwt beam="1">  1        1 0.36544674E+00 0.29376659E+04</pdfrwt>
<pdfrwt beam="2">  1       -1 0.13973140E+00 0.29376659E+04</pdfrwt>
<totfact> 0.59523286E-01</totfact>
</mgrwt>
</event>
<event>
12    1  0.2045212E-008  0.1340398E+04  0.7818608E-02  0.8998129E-01
          2   -1    0    0  501    0  0.00000000000E+00  0.00000000000E+00  0.21791781143E+04  0.21791781143E+04  0.00000000000E+00 0.  1.
         -2   -1    0    0    0  501 -0.00000000000E+00 -0.00000000000E+00 -0.20611749226E+03  0.20611749226E+03  0.00000000000E+00 0. -1.
         23    2    1    2    0    0 -0.12501623467E+03 -0.17736549996E+03  0.10894173658E+04  0.11145437960E+04  0.91049968118E+02 0.  0.
        254    2    1    2    0    0  0.12501623467E+03  0.17736549996E+03  0.88364325619E+03  0.12707518106E+04  0.88707225203E+03 0.  0.
        -24    2    4    4    0    0  0.33637221689E+03 -0.16108572422E+03  0.74919424582E+03  0.84185559137E+03  0.91290415275E+02 0.  0.
         24    2    4    4    0    0 -0.21135598222E+03  0.33845122418E+03  0.13444901037E+03  0.42889621918E+03  0.81577252186E+02 0.  0.
         13    1    3    3    0    0 -0.69164378293E+02 -0.14115480604E+03  0.58487258823E+03  0.60562722441E+03  0.00000000000E+00 0.  1.
        -13    1    3    3    0    0 -0.55851856375E+02 -0.36210693922E+02  0.50454477760E+03  0.50891657157E+03  0.00000000000E+00 0. -1.
          4    1    6    6  502    0 -0.91020811623E+02  0.79036503531E+02  0.27965469206E+02  0.12374823032E+03  0.00000000000E+00 0. -1.
          1    1    5    5  503    0  0.61208659936E+02 -0.67442155762E+01  0.71768429727E+02  0.94565807777E+02  0.00000000000E+00 0. -1.
         -2    1    5    5    0  503  0.27516355695E+03 -0.15434150864E+03  0.67742581609E+03  0.74728978360E+03  0.00000000000E+00 0.  1.
         -3    1    6    6    0  502 -0.12033517060E+03  0.25941472064E+03  0.10648354117E+03  0.30514798887E+03  0.00000000000E+00 0.  1.
<mgrwt>
<rscale>  0 0.13403980E+04</rscale>
<asrwt>0</asrwt>
<pdfrwt beam="1">  1        2 0.33525816E+00 0.13403980E+04</pdfrwt>
<pdfrwt beam="2">  1       -2 0.31710385E-01 0.13403980E+04</pdfrwt>
<totfact> 0.48001012E+01</totfact>
</mgrwt>
</event>
<event>
11    1  0.2045212E-008  0.1670482E+04  0.7818608E-02  0.8778381E-01
         -2   -1    0    0    0  501 -0.00000000000E+00  0.00000000000E+00  0.29149670816E+03  0.29149670816E+03  0.00000000000E+00 0.  1.
          2   -1    0    0  501    0  0.00000000000E+00 -0.00000000000E+00 -0.23932604439E+04  0.23932604439E+04  0.00000000000E+00 0. -1.
         23    2    1    2    0    0 -0.51303299924E+03  0.10098460816E+02 -0.11710028182E+04  0.12817815954E+04  0.91714889483E+02 0.  0.
        254    2    1    2    0    0  0.51303299924E+03 -0.10098460816E+02 -0.93076091754E+03  0.14029755566E+04  0.91581640608E+03 0.  0.
         24    2    4    4    0    0  0.52875235406E+03  0.14444361611E+03 -0.13704096745E+03  0.57018159624E+03  0.76706034845E+02 0.  0.
         11    1    3    3    0    0 -0.11997291306E+03 -0.24984690098E+00 -0.18755998754E+03  0.22264840268E+03  0.00000000000E+00 0.  1.
        -11    1    3    3    0    0 -0.39306008618E+03  0.10348307717E+02 -0.98344283063E+03  0.10591331927E+04  0.00000000000E+00 0. -1.
          2    1    5    5  502    0  0.22879572848E+02 -0.67620539041E+01  0.27129620072E+01  0.24011671944E+02  0.00000000000E+00 0. -1.
          1    1    4    4  503    0 -0.52823432133E+02 -0.98042459887E+02 -0.15695423650E+03  0.19245069831E+03  0.00000000000E+00 0. -1.
         -2    1    4    4    0  503  0.37104077317E+02 -0.56499617034E+02 -0.63676571359E+03  0.64034326207E+03  0.00000000000E+00 0.  1.
         -1    1    5    5    0  502  0.50587278121E+03  0.15120567001E+03 -0.13975392946E+03  0.54616992430E+03  0.00000000000E+00 0.  1.
<mgrwt>
<rscale>  0 0.16704820E+04</rscale>
<asrwt>0</asrwt>
<pdfrwt beam="1">  1        2 0.36819393E+00 0.16704820E+04</pdfrwt>
<pdfrwt beam="2">  1       -2 0.44845645E-01 0.16704820E+04</pdfrwt>
<totfact> 0.18062240E+01</totfact>
</mgrwt>
</event>
<event>
12    1  0.2045212E-008  0.1467047E+04  0.7818608E-02  0.8906667E-01
         -2   -1    0    0    0  501 -0.00000000000E+00  0.00000000000E+00  0.32464138314E+03  0.32464138314E+03  0.00000000000E+00 0.  1.
          2   -1    0    0  501    0  0.00000000000E+00 -0.00000000000E+00 -0.16573883629E+04  0.16573883629E+04  0.00000000000E+00 0. -1.
         23    2    1    2    0    0  0.16788671091E+03  0.31056910685E+03 -0.34834293003E+02  0.36582329809E+03  0.89298038243E+02 0.  0.
        254    2    1    2    0    0 -0.16788671091E+03 -0.31056910685E+03 -0.12979126867E+04  0.16162064479E+04  0.89605068055E+03 0.  0.
        -24    2    4    4    0    0  0.34527649572E+03 -0.24020690838E+03 -0.66402977158E+03  0.79376004034E+03  0.11047283274E+03 0.  0.
         24    2    4    4    0    0 -0.51316320663E+03 -0.70362198464E+02 -0.63388291516E+03  0.82244640758E+03  0.79518724915E+02 0.  0.
         13    1    3    3    0    0  0.33135963201E+02  0.19204035118E+02 -0.22821212405E+02  0.44582448987E+02  0.00000000000E+00 0. -1.
        -13    1    3    3    0    0  0.13475074770E+03  0.29136507173E+03 -0.12013080598E+02  0.32124084911E+03  0.00000000000E+00 0.  1.
          4    1    6    6  502    0 -0.49359403421E+03 -0.82721807617E+02 -0.61212155240E+03  0.79067740766E+03  0.00000000000E+00 0. -1.
          1    1    5    5  503    0  0.35291308358E+03 -0.23478561138E+03 -0.65769244455E+03  0.78245209406E+03  0.00000000000E+00 0. -1.
         -4    1    5    5    0  503 -0.76365878620E+01 -0.54212970004E+01 -0.63373270219E+01  0.11307946282E+02  0.00000000000E+00 0.  1.
         -3    1    6    6    0  502 -0.19569172413E+02  0.12359609153E+02 -0.21761362759E+02  0.31768999928E+02  0.00000000000E+00 0.  1.
<mgrwt>
<rscale>  0 0.14670472E+04</rscale>
<asrwt>0</asrwt>
<pdfrwt beam="1">  1        2 0.25498283E+00 0.14670472E+04</pdfrwt>
<pdfrwt beam="2">  1       -2 0.49944827E-01 0.14670472E+04</pdfrwt>
<totfact> 0.38045078E+01</totfact>
</mgrwt>
</event>
<event>
11    1  0.2045212E-008  0.1340409E+04  0.7818608E-02  0.8998121E-01
          2   -1    0    0  501    0  0.00000000000E+00  0.00000000000E+00  0.66766765957E+03  0.66766765957E+03  0.00000000000E+00 0. -1.
         -2   -1    0    0    0  501 -0.00000000000E+00 -0.00000000000E+00 -0.67275057075E+03  0.67275057075E+03  0.00000000000E+00 0.  1.
         23    2    1    2    0    0 -0.19803152359E+03 -0.14380415329E+03  0.26616070160E+03  0.37265983816E+03  0.90209295878E+02 0.  0.
        254    2    1    2    0    0  0.19803152359E+03  0.14380415329E+03 -0.27124361278E+03  0.96775839216E+03  0.89615126473E+03 0.  0.
         24    2    4    4    0    0 -0.30386057955E+03 -0.76460510969E+02 -0.56599375940E+01  0.32611034297E+03  0.90213410055E+02 0.  0.
         11    1    3    3    0    0 -0.18854996142E+02  0.38594987749E+01 -0.28093305448E+00  0.19248000771E+02  0.00000000000E+00 0.  1.
        -11    1    3    3    0    0 -0.17917652745E+03 -0.14766365207E+03  0.26644163466E+03  0.35341183739E+03  0.00000000000E+00 0. -1.
          2    1    5    5  502    0 -0.26730416345E+03 -0.51739613841E+02 -0.32905771091E+02  0.27424677429E+03  0.00000000000E+00 0. -1.
          1    1    4    4  503    0  0.31309964938E+03  0.12725650607E+03 -0.52274216996E+02  0.34199152408E+03  0.00000000000E+00 0. -1.
         -2    1    4    4    0  503  0.18879245376E+03  0.93008158192E+02 -0.21330945819E+03  0.29965652511E+03  0.00000000000E+00 0.  1.
         -1    1    5    5    0  502 -0.36556416104E+02 -0.24720897127E+02  0.27245833497E+02  0.51863568679E+02  0.00000000000E+00 0.  1.
<mgrwt>
<rscale>  0 0.13404086E+04</rscale>
<asrwt>0</asrwt>
<pdfrwt beam="1">  1        2 0.10271810E+00 0.13404086E+04</pdfrwt>
<pdfrwt beam="2">  1       -2 0.10350009E+00 0.13404086E+04</pdfrwt>
<totfact> 0.32348002E+01</totfact>
</mgrwt>
</event>
<event>
11    1  0.2045212E-008  0.1575212E+04  0.7818608E-02  0.8835923E-01
          2   -1    0    0  501    0  0.00000000000E+00  0.00000000000E+00  0.10526925543E+04  0.10526925543E+04  0.00000000000E+00 0. -1.
         -2   -1    0    0    0  501 -0.00000000000E+00 -0.00000000000E+00 -0.58927284171E+03  0.58927284171E+03  0.00000000000E+00 0.  1.
         23    2    1    2    0    0 -0.25429153875E+03  0.16141399709E+03 -0.28963358257E+03  0.42796855045E+03  0.92470551434E+02 0.  0.
        254    2    1    2    0    0  0.25429153875E+03 -0.16141399709E+03  0.75305329518E+03  0.12139968456E+04  0.90331634027E+03 0.  0.
         24    2    4    4    0    0  0.17731280118E+02  0.25510989615E+03 -0.33308038816E+02  0.27032885318E+03  0.81072843825E+02 0.  0.
         11    1    3    3    0    0 -0.14327486733E+03  0.12103242425E+03 -0.12521395626E+03  0.22551068749E+03  0.00000000000E+00 0. -1.
        -11    1    3    3    0    0 -0.11101667142E+03  0.40381572836E+02 -0.16441962631E+03  0.20245786296E+03  0.00000000000E+00 0.  1.
          2    1    5    5  502    0 -0.46344624471E+01 -0.31149465646E+01 -0.82044033178E+01  0.99243825035E+01  0.00000000000E+00 0. -1.
          1    1    4    4  503    0  0.51733702990E+02 -0.16496907384E+03  0.12820766016E+03  0.21524027382E+03  0.00000000000E+00 0. -1.
         -2    1    4    4    0  503  0.18482655565E+03 -0.25155481939E+03  0.65815367384E+03  0.72842771859E+03  0.00000000000E+00 0.  1.
         -1    1    5    5    0  502  0.22365742565E+02  0.25822484271E+03 -0.25103635498E+02  0.26040447068E+03  0.00000000000E+00 0.  1.
<mgrwt>
<rscale>  0 0.15752119E+04</rscale>
<asrwt>0</asrwt>
<pdfrwt beam="1">  1        2 0.16195270E+00 0.15752119E+04</pdfrwt>
<pdfrwt beam="2">  1       -2 0.90657360E-01 0.15752119E+04</pdfrwt>
<totfact> 0.23284469E+01</totfact>
</mgrwt>
</event>
<event>
11    1  0.2045212E-008  0.2003713E+04  0.7818608E-02  0.8604887E-01
         -1   -1    0    0    0  501 -0.00000000000E+00  0.00000000000E+00  0.67564886920E+03  0.67564886920E+03  0.00000000000E+00 0. -1.
          1   -1    0    0  501    0  0.00000000000E+00 -0.00000000000E+00 -0.14855589350E+04  0.14855589350E+04  0.00000000000E+00 0.  1.
         23    2    1    2    0    0 -0.11364661618E+03  0.63728485813E+03  0.17292917134E+03  0.67658041365E+03  0.93856348062E+02 0.  0.
        254    2    1    2    0    0  0.11364661618E+03 -0.63728485813E+03 -0.98283923715E+03  0.14846273906E+04  0.90504031897E+03 0.  0.
         24    2    4    4    0    0  0.28077140188E+03 -0.42771234709E+03 -0.15680244086E+03  0.54106113832E+03  0.79935711512E+02 0.  0.
         11    1    3    3    0    0 -0.58423486876E+02  0.49067582066E+03  0.15992671302E+03  0.51937714461E+03  0.00000000000E+00 0. -1.
        -11    1    3    3    0    0 -0.55223129306E+02  0.14660903746E+03  0.13002458316E+02  0.15720326904E+03  0.00000000000E+00 0.  1.
          2    1    5    5  502    0  0.15750478418E+03 -0.24166501921E+03 -0.12958160574E+03  0.31622955443E+03  0.00000000000E+00 0. -1.
          3    1    4    4  503    0 -0.13450208728E+02 -0.11653234111E+03 -0.21554128986E+02  0.11926975776E+03  0.00000000000E+00 0. -1.
         -4    1    4    4    0  503 -0.15367457697E+03 -0.93040169924E+02 -0.80448266731E+03  0.82429649449E+03  0.00000000000E+00 0.  1.
         -1    1    5    5    0  502  0.12326661770E+03 -0.18604732788E+03 -0.27220835124E+02  0.22483158389E+03  0.00000000000E+00 0.  1.
<mgrwt>
<rscale>  0 0.20037128E+04</rscale>
<asrwt>0</asrwt>
<pdfrwt beam="1">  1        1 0.22854752E+00 0.20037128E+04</pdfrwt>
<pdfrwt beam="2">  1       -1 0.10394598E+00 0.20037128E+04</pdfrwt>
<totfact> 0.54109071E+00</totfact>
</mgrwt>
</event>
<event>
11    1  0.2045212E-008  0.1312873E+04  0.7818608E-02  0.9019419E-01
         -1   -1    0    0    0  501 -0.00000000000E+00  0.00000000000E+00  0.21303961976E+03  0.21303961976E+03  0.00000000000E+00 0.  1.
          1   -1    0    0  501    0  0.00000000000E+00 -0.00000000000E+00 -0.20226692054E+04  0.20226692054E+04  0.00000000000E+00 0. -1.
         23    2    1    2    0    0 -0.85388544472E+02  0.34602135830E+03 -0.33462811153E+03  0.49785617382E+03  0.94142513550E+02 0.  0.
        254    2    1    2    0    0  0.85388544472E+02 -0.34602135830E+03 -0.14750014741E+04  0.17378526513E+04  0.84704220979E+03 0.  0.
         24    2    4    4    0    0 -0.24209115583E+03 -0.47356456285E+03 -0.10031736834E+04  0.11386386594E+04  0.85258633523E+02 0.  0.
         11    1    3    3    0    0 -0.22523806696E+02  0.89139972662E+01 -0.34455089528E+02  0.42118100738E+02  0.00000000000E+00 0. -1.
        -11    1    3    3    0    0 -0.62864737776E+02  0.33710736104E+03 -0.30017302200E+03  0.45573807309E+03  0.00000000000E+00 0.  1.
          4    1    5    5  502    0 -0.15756203715E+03 -0.32540065496E+03 -0.75986938563E+03  0.84149442364E+03  0.00000000000E+00 0. -1.
          3    1    4    4  503    0  0.28056883314E+03  0.63866601520E+02 -0.39718280198E+03  0.49046099856E+03  0.00000000000E+00 0. -1.
         -4    1    4    4    0  503  0.46910867159E+02  0.63676603024E+02 -0.74644988655E+02  0.10875299335E+03  0.00000000000E+00 0.  1.
         -3    1    5    5    0  502 -0.84529118678E+02 -0.14816390789E+03 -0.24330429781E+03  0.29714423575E+03  0.00000000000E+00 0.  1.
<mgrwt>
<rscale>  0 0.13128727E+04</rscale>
<asrwt>0</asrwt>
<pdfrwt beam="1">  1        1 0.31117989E+00 0.13128727E+04</pdfrwt>
<pdfrwt beam="2">  1       -1 0.32775325E-01 0.13128727E+04</pdfrwt>
<totfact> 0.24668957E+01</totfact>
</mgrwt>
</event>
<event>
12    1  0.2045212E-008  0.1458088E+04  0.7818608E-02  0.8912813E-01
         -1   -1    0    0    0  501 -0.00000000000E+00  0.00000000000E+00  0.33177737305E+03  0.33177737305E+03  0.00000000000E+00 0.  1.
          1   -1    0    0  501    0  0.00000000000E+00 -0.00000000000E+00 -0.16019926015E+04  0.16019926015E+04  0.00000000000E+00 0. -1.
         23    2    1    2    0    0  0.15901384795E+03 -0.23568949297E+03  0.47348029989E+02  0.30243166644E+03  0.91586767523E+02 0.  0.
        254    2    1    2    0    0 -0.15901384795E+03  0.23568949297E+03 -0.13175632585E+04  0.16313383082E+04  0.91894330325E+03 0.  0.
        -24    2    4    4    0    0 -0.46747874919E+03  0.37705598688E+03 -0.90710289027E+03  0.10928168144E+04  0.10346660398E+03 0.  0.
         24    2    4    4    0    0  0.30846490123E+03 -0.14136649391E+03 -0.41046036822E+03  0.53852149374E+03  0.79953764498E+02 0.  0.
         13    1    3    3    0    0  0.54767499843E+02 -0.91020935830E+02  0.62877158838E+02  0.12344159308E+03  0.00000000000E+00 0. -1.
        -13    1    3    3    0    0  0.10424634811E+03 -0.14466855714E+03 -0.15529128849E+02  0.17899007336E+03  0.00000000000E+00 0.  1.
          2    1    6    6  502    0  0.24861201124E+03 -0.14387007208E+03 -0.31981798981E+03  0.42987216284E+03  0.00000000000E+00 0. -1.
          1    1    5    5  503    0 -0.30636957848E+03  0.30632877666E+03 -0.63096629165E+03  0.76538754839E+03  0.00000000000E+00 0. -1.
         -4    1    5    5    0  503 -0.16110917070E+03  0.70727210220E+02 -0.27613659862E+03  0.32742926602E+03  0.00000000000E+00 0.  1.
         -1    1    6    6    0  502  0.59852889988E+02  0.25035781763E+01 -0.90642378407E+02  0.10864933091E+03  0.00000000000E+00 0.  1.
<mgrwt>
<rscale>  0 0.14580876E+04</rscale>
<asrwt>0</asrwt>
<pdfrwt beam="1">  1        1 0.24646040E+00 0.14580876E+04</pdfrwt>
<pdfrwt beam="2">  1       -1 0.51042674E-01 0.14580876E+04</pdfrwt>
<totfact> 0.20833045E+01</totfact>
</mgrwt>
</event>
<event>
12    1  0.2045212E-008  0.2814379E+04  0.7818608E-02  0.8298818E-01
          2   -1    0    0  501    0  0.00000000000E+00  0.00000000000E+00  0.14938836900E+04  0.14938836900E+04  0.00000000000E+00 0. -1.
         -2   -1    0    0    0  501 -0.00000000000E+00 -0.00000000000E+00 -0.13255259588E+04  0.13255259588E+04  0.00000000000E+00 0.  1.
         23    2    1    2    0    0 -0.65034291180E+03  0.99347874675E+03 -0.35270199656E+03  0.12419326932E+04  0.89734011598E+02 0.  0.
        254    2    1    2    0    0  0.65034291180E+03 -0.99347874675E+03  0.52105972780E+03  0.15774769556E+04  0.89832309458E+03 0.  0.
        -24    2    4    4    0    0  0.59900856503E+03 -0.12629925142E+03  0.18979327561E+03  0.64438644621E+03  0.66705642161E+02 0.  0.
         24    2    4    4    0    0  0.51334346768E+02 -0.86717949533E+03  0.33126645219E+03  0.93309050936E+03  0.79277638967E+02 0.  0.
         13    1    3    3    0    0 -0.47285129398E+03  0.70160752176E+03 -0.21016771619E+03  0.87178663086E+03  0.00000000000E+00 0.  1.
        -13    1    3    3    0    0 -0.17749161782E+03  0.29187122499E+03 -0.14253428037E+03  0.37014606232E+03  0.00000000000E+00 0. -1.
          2    1    6    6  502    0 -0.16132861322E+02 -0.10600510732E+03  0.55145914971E+02  0.12057538691E+03  0.00000000000E+00 0. -1.
          1    1    5    5  503    0  0.15435330468E+02 -0.10960061516E+02  0.15639892347E+02  0.24555622732E+02  0.00000000000E+00 0. -1.
         -2    1    5    5    0  503  0.58357323457E+03 -0.11533918990E+03  0.17415338326E+03  0.61983082348E+03  0.00000000000E+00 0.  1.
         -1    1    6    6    0  502  0.67467208090E+02 -0.76117438801E+03  0.27612053722E+03  0.81251512245E+03  0.00000000000E+00 0.  1.
<mgrwt>
<rscale>  0 0.28143785E+04</rscale>
<asrwt>0</asrwt>
<pdfrwt beam="1">  1        2 0.22982826E+00 0.28143785E+04</pdfrwt>
<pdfrwt beam="2">  1       -2 0.20392707E+00 0.28143785E+04</pdfrwt>
<totfact> 0.13942333E+00</totfact>
</mgrwt>
</event>
<event>
12    1  0.2045212E-008  0.1393937E+04  0.7818608E-02  0.8958219E-01
          1   -1    0    0  501    0  0.00000000000E+00  0.00000000000E+00  0.57899110489E+03  0.57899110489E+03  0.00000000000E+00 0.  1.
         -1   -1    0    0    0  501 -0.00000000000E+00 -0.00000000000E+00 -0.83898553239E+03  0.83898553239E+03  0.00000000000E+00 0. -1.
         23    2    1    2    0    0 -0.37941600282E+03  0.13566622676E+03 -0.12967863507E+03  0.43296671637E+03  0.91004399958E+02 0.  0.
        254    2    1    2    0    0  0.37941600282E+03 -0.13566622676E+03 -0.13031579243E+03  0.98500992091E+03  0.88932587405E+03 0.  0.
        -24    2    4    4    0    0  0.63491167635E+03 -0.16113570877E+03  0.43206894312E+02  0.66510806861E+03  0.10688476886E+03 0.  0.
         24    2    4    4    0    0 -0.25549567353E+03  0.25469482013E+02 -0.17352268674E+03  0.31990185230E+03  0.79374672167E+02 0.  0.
         11    1    3    3    0    0 -0.71770970362E+02  0.26237650569E+02 -0.64497920435E+02  0.99997341137E+02  0.00000000000E+00 0. -1.
        -11    1    3    3    0    0 -0.30764503246E+03  0.10942857619E+03 -0.65180714640E+02  0.33296937523E+03  0.00000000000E+00 0.  1.
          4    1    6    6  502    0 -0.23988985643E+03  0.44481899604E+02 -0.16087110918E+03  0.29224184570E+03  0.00000000000E+00 0. -1.
          1    1    5    5  503    0  0.55056228325E+03 -0.17563155369E+03  0.43364530864E+02  0.57952200384E+03  0.00000000000E+00 0. -1.
         -2    1    5    5    0  503  0.84349393094E+02  0.14495844914E+02 -0.15763655247E+00  0.85586064779E+02  0.00000000000E+00 0.  1.
         -3    1    6    6    0  502 -0.15605817101E+02 -0.19012417591E+02 -0.12651577568E+02  0.27660006598E+02  0.00000000000E+00 0.  1.
<mgrwt>
<rscale>  0 0.13939371E+04</rscale>
<asrwt>0</asrwt>
<pdfrwt beam="1">  1        1 0.89075555E-01 0.13939371E+04</pdfrwt>
<pdfrwt beam="2">  1       -1 0.12907470E+00 0.13939371E+04</pdfrwt>
<totfact> 0.18166755E+01</totfact>
</mgrwt>
</event>
<event>
11    1  0.2045212E-008  0.1048684E+04  0.7818608E-02  0.9256704E-01
         -1   -1    0    0    0  501 -0.00000000000E+00  0.00000000000E+00  0.68624718423E+03  0.68624718423E+03  0.00000000000E+00 0.  1.
          1   -1    0    0  501    0  0.00000000000E+00 -0.00000000000E+00 -0.40063489535E+03  0.40063489535E+03  0.00000000000E+00 0. -1.
         23    2    1    2    0    0  0.39175218377E+02  0.55149878292E+00 -0.50963473634E+02  0.11697285856E+03  0.97726005287E+02 0.  0.
        254    2    1    2    0    0 -0.39175218377E+02 -0.55149878292E+00  0.33657576252E+03  0.96990922102E+03  0.90879351407E+03 0.  0.
         24    2    4    4    0    0 -0.64720066125E+02 -0.12191739154E+03 -0.27664862430E+03  0.31926105269E+03  0.79628017155E+02 0.  0.
         13    1    3    3    0    0  0.26643673260E+02  0.24949744944E+02 -0.73112683850E+02  0.81718049642E+02  0.00000000000E+00 0. -1.
        -13    1    3    3    0    0  0.12531545117E+02 -0.24398246161E+02  0.22149210216E+02  0.35254808919E+02  0.00000000000E+00 0.  1.
          2    1    5    5  502    0  0.12326975317E+02 -0.23766730461E+02 -0.18517881955E+02  0.32553398430E+02  0.00000000000E+00 0. -1.
          1    1    4    4  503    0 -0.12568418581E+02 -0.44294088067E+02  0.10219430336E+03  0.11208749718E+03  0.00000000000E+00 0. -1.
         -2    1    4    4    0  503  0.38113266329E+02  0.16565998083E+03  0.51103008346E+03  0.53856067116E+03  0.00000000000E+00 0.  1.
         -1    1    5    5    0  502 -0.77047041442E+02 -0.98150661081E+02 -0.25813074235E+03  0.28670765426E+03  0.00000000000E+00 0.  1.
<mgrwt>
<rscale>  0 0.10486841E+04</rscale>
<asrwt>0</asrwt>
<pdfrwt beam="1">  1        1 0.61636138E-01 0.10486841E+04</pdfrwt>
<pdfrwt beam="2">  1       -1 0.10557649E+00 0.10486841E+04</pdfrwt>
<totfact> 0.50336255E+01</totfact>
</mgrwt>
</event>
<event>
12    1  0.2045212E-008  0.2177644E+04  0.7818608E-02  0.8527791E-01
         -1   -1    0    0    0  501 -0.00000000000E+00  0.00000000000E+00  0.11761814524E+04  0.11761814524E+04  0.00000000000E+00 0. -1.
          1   -1    0    0  501    0  0.00000000000E+00 -0.00000000000E+00 -0.10079507996E+04  0.10079507996E+04  0.00000000000E+00 0.  1.
         23    2    1    2    0    0 -0.73349741809E+03  0.17318406568E+03  0.55719409356E+03  0.94169298926E+03  0.91155061133E+02 0.  0.
        254    2    1    2    0    0  0.73349741809E+03 -0.17318406568E+03 -0.38896344076E+03  0.12424392628E+04  0.90793809285E+03 0.  0.
        -24    2    4    4    0    0  0.32406919502E+03  0.36032131171E+03 -0.24231497941E+03  0.54942798328E+03  0.91116786206E+02 0.  0.
         24    2    4    4    0    0  0.40942822307E+03 -0.53350537739E+03 -0.14664846136E+03  0.69301127948E+03  0.80618885603E+02 0.  0.
         11    1    3    3    0    0 -0.38142777813E+03  0.67778242676E+02  0.23615044223E+03  0.45370482858E+03  0.00000000000E+00 0.  1.
        -11    1    3    3    0    0 -0.35206963995E+03  0.10540582301E+03  0.32104365133E+03  0.48798816067E+03  0.00000000000E+00 0. -1.
          2    1    6    6  502    0  0.20958432040E+03 -0.24945711053E+03 -0.10951427880E+03  0.34372636589E+03  0.00000000000E+00 0. -1.
          1    1    5    5  503    0  0.12938150128E+03  0.12869329631E+03 -0.44214473350E+02  0.18776702864E+03  0.00000000000E+00 0. -1.
         -2    1    5    5    0  503  0.19468769374E+03  0.23162801540E+03 -0.19810050605E+03  0.36166095464E+03  0.00000000000E+00 0.  1.
         -1    1    6    6    0  502  0.19984390267E+03 -0.28404826687E+03 -0.37134182551E+02  0.34928491359E+03  0.00000000000E+00 0.  1.
<mgrwt>
<rscale>  0 0.21776437E+04</rscale>
<asrwt>0</asrwt>
<pdfrwt beam="1">  1        1 0.15506935E+00 0.21776437E+04</pdfrwt>
<pdfrwt beam="2">  1       -1 0.18095099E+00 0.21776437E+04</pdfrwt>
<totfact> 0.27914566E+00</totfact>
</mgrwt>
</event>
<event>
12    1  0.2147715E-008  0.1417221E+04  0.7818608E-02  0.8941446E-01
          1   -1    0    0  501    0  0.00000000000E+00  0.00000000000E+00  0.12822599899E+04  0.12822599899E+04  0.00000000000E+00 0. -1.
         -1   -1    0    0    0  501 -0.00000000000E+00 -0.00000000000E+00 -0.39159688716E+03  0.39159688716E+03  0.00000000000E+00 0.  1.
         23    2    1    2    0    0 -0.13940795393E+03  0.27864645668E+03  0.61247959241E+03  0.69312869127E+03  0.90651564233E+02 0.  0.
        254    2    1    2    0    0  0.13940795393E+03 -0.27864645668E+03  0.27818351035E+03  0.98072818580E+03  0.88733493313E+03 0.  0.
        -24    2    4    4    0    0  0.12748947418E+03 -0.10610707531E+03 -0.30728933471E+03  0.36503192134E+03  0.10634514994E+03 0.  0.
         24    2    4    4    0    0  0.11918479750E+02 -0.17253938138E+03  0.58547284505E+03  0.61569626446E+03  0.79947166918E+02 0.  0.
         13    1    3    3    0    0 -0.14592570766E+03  0.25193126129E+03  0.51236316720E+03  0.58930441002E+03  0.00000000000E+00 0. -1.
        -13    1    3    3    0    0  0.65177537334E+01  0.26715195396E+02  0.10011642521E+03  0.10382428124E+03  0.00000000000E+00 0.  1.
          4    1    6    6  502    0 -0.12272672238E+02 -0.16055356258E+03  0.53136797919E+03  0.55522967702E+03  0.00000000000E+00 0. -1.
          1    1    5    5  503    0  0.13306138739E+03 -0.11972602850E+03 -0.29801431722E+03  0.34763801286E+03  0.00000000000E+00 0. -1.
         -2    1    5    5    0  503 -0.55719132177E+01  0.13618953187E+02 -0.92750174813E+01  0.17393908477E+02  0.00000000000E+00 0.  1.
         -3    1    6    6    0  502  0.24191151988E+02 -0.11985818793E+02  0.54104865865E+02  0.60466587442E+02  0.00000000000E+00 0.  1.
<mgrwt>
<rscale>  0 0.14172213E+04</rscale>
<asrwt>0</asrwt>
<pdfrwt beam="1">  1        1 0.19727076E+00 0.14172213E+04</pdfrwt>
<pdfrwt beam="2">  1       -1 0.60245676E-01 0.14172213E+04</pdfrwt>
<totfact> 0.25338268E+01</totfact>
</mgrwt>
</event>
<event>
12    1  0.2045212E-008  0.2167567E+04  0.7818608E-02  0.8532050E-01
          2   -1    0    0  501    0  0.00000000000E+00  0.00000000000E+00  0.30666308737E+04  0.30666308737E+04  0.00000000000E+00 0. -1.
         -2   -1    0    0    0  501 -0.00000000000E+00 -0.00000000000E+00 -0.38302181210E+03  0.38302181210E+03  0.00000000000E+00 0.  1.
         23    2    1    2    0    0 -0.55511491763E+03  0.47576142692E+03  0.29071989903E+03  0.79171074321E+03  0.88240206819E+02 0.  0.
        254    2    1    2    0    0  0.55511491763E+03 -0.47576142692E+03  0.23928891626E+04  0.26579419426E+04  0.89679168082E+03 0.  0.
        -24    2    4    4    0    0 -0.25261422287E+02 -0.45742859981E+03  0.16282624234E+04  0.16945246284E+04  0.10146986446E+03 0.  0.
         24    2    4    4    0    0  0.58037633992E+03 -0.18332827110E+02  0.76462673914E+03  0.96341731418E+03  0.79662303324E+02 0.  0.
         13    1    3    3    0    0 -0.88335500738E+02  0.54369790780E+02  0.70487975699E+02  0.12541048424E+03  0.00000000000E+00 0. -1.
        -13    1    3    3    0    0 -0.46677941689E+03  0.42139163614E+03  0.22023192333E+03  0.66630025896E+03  0.00000000000E+00 0.  1.
          2    1    6    6  502    0  0.46248659920E+03 -0.85721497139E+01  0.55282954698E+03  0.72082441982E+03  0.00000000000E+00 0. -1.
          3    1    5    5  503    0  0.10809327581E+02 -0.30447657009E+03  0.12084365727E+04  0.12462510877E+04  0.00000000000E+00 0. -1.
         -4    1    5    5    0  503 -0.36070749868E+02 -0.15295202971E+03  0.41982585074E+03  0.44827354075E+03  0.00000000000E+00 0.  1.
         -1    1    6    6    0  502  0.11788974072E+03 -0.97606773964E+01  0.21179719216E+03  0.24259289437E+03  0.00000000000E+00 0.  1.
<mgrwt>
<rscale>  0 0.21675669E+04</rscale>
<asrwt>0</asrwt>
<pdfrwt beam="1">  1        2 0.47178935E+00 0.21675669E+04</pdfrwt>
<pdfrwt beam="2">  1       -2 0.58926435E-01 0.21675669E+04</pdfrwt>
<totfact> 0.39036452E+00</totfact>
</mgrwt>
</event>
<event>
12    1  0.2045212E-008  0.1664039E+04  0.7818608E-02  0.8782144E-01
         -1   -1    0    0    0  501 -0.00000000000E+00  0.00000000000E+00  0.22998866169E+04  0.22998866169E+04  0.00000000000E+00 0.  1.
          1   -1    0    0  501    0  0.00000000000E+00 -0.00000000000E+00 -0.30099600262E+03  0.30099600262E+03  0.00000000000E+00 0. -1.
         23    2    1    2    0    0 -0.48508988829E+03 -0.29651973315E+03  0.51016584812E+03  0.76929748930E+03  0.91177204336E+02 0.  0.
        254    2    1    2    0    0  0.48508988829E+03  0.29651973315E+03  0.14887247661E+04  0.18315851302E+04  0.90286571978E+03 0.  0.
        -24    2    4    4    0    0  0.73209679666E+03  0.16373945505E+03  0.90835224681E+03  0.11821822546E+04  0.98360306414E+02 0.  0.
         24    2    4    4    0    0 -0.24700690837E+03  0.13278027810E+03  0.58037251933E+03  0.64940287563E+03  0.79049469689E+02 0.  0.
         11    1    3    3    0    0 -0.18718378423E+02 -0.29850779949E+02  0.13722103389E+02  0.37811940915E+02  0.00000000000E+00 0. -1.
        -11    1    3    3    0    0 -0.46637150987E+03 -0.26666895320E+03  0.49644374473E+03  0.73148554839E+03  0.00000000000E+00 0.  1.
          4    1    6    6  502    0 -0.95685566531E+02  0.72034716090E+02  0.32547841327E+03  0.34681540547E+03  0.00000000000E+00 0. -1.
          1    1    5    5  503    0  0.58224364491E+03  0.15881489502E+03  0.76848514678E+03  0.97713829817E+03  0.00000000000E+00 0. -1.
         -2    1    5    5    0  503  0.14985315175E+03  0.49245600316E+01  0.13986710002E+03  0.20504395639E+03  0.00000000000E+00 0.  1.
         -1    1    6    6    0  502 -0.15132134184E+03  0.60745562007E+02  0.25489410605E+03  0.30258747016E+03  0.00000000000E+00 0.  1.
<mgrwt>
<rscale>  0 0.16640393E+04</rscale>
<asrwt>0</asrwt>
<pdfrwt beam="1">  1        1 0.46307079E-01 0.16640393E+04</pdfrwt>
<pdfrwt beam="2">  1       -1 0.35382870E+00 0.16640393E+04</pdfrwt>
<totfact> 0.12253886E+00</totfact>
</mgrwt>
</event>
<event>
11    1  0.2045212E-008  0.1756001E+04  0.7818608E-02  0.8730054E-01
          1   -1    0    0  501    0  0.00000000000E+00  0.00000000000E+00  0.76322182653E+03  0.76322182653E+03  0.00000000000E+00 0. -1.
         -1   -1    0    0    0  501 -0.00000000000E+00 -0.00000000000E+00 -0.10100399920E+04  0.10100399920E+04  0.00000000000E+00 0.  1.
         23    2    1    2    0    0 -0.60557038095E+03  0.55688337642E+01  0.12404609346E+03  0.62472632412E+03  0.90272080694E+02 0.  0.
        254    2    1    2    0    0  0.60557038095E+03 -0.55688337642E+01 -0.37086425895E+03  0.11485354944E+04  0.90268875321E+03 0.  0.
         24    2    4    4    0    0  0.25356964104E+02 -0.13605104524E+03  0.16921146160E+03  0.23307461812E+03  0.80860350812E+02 0.  0.
         13    1    3    3    0    0 -0.41720209175E+03  0.23799241108E+02  0.47453298374E+02  0.42056605280E+03  0.00000000000E+00 0. -1.
        -13    1    3    3    0    0 -0.18836828920E+03 -0.18230407344E+02  0.76592795087E+02  0.20416027132E+03  0.00000000000E+00 0.  1.
          4    1    5    5  502    0  0.42323420439E+02 -0.41447588000E+02  0.93662973587E+02  0.11082385614E+03  0.00000000000E+00 0. -1.
          1    1    4    4  503    0  0.12576248082E+03 -0.14937772536E+03 -0.21547369775E+03  0.29078999439E+03  0.00000000000E+00 0. -1.
         -2    1    4    4    0  503  0.45445093603E+03  0.27985993684E+03 -0.32460202279E+03  0.62467088191E+03  0.00000000000E+00 0.  1.
         -3    1    5    5    0  502 -0.16966456335E+02 -0.94603457242E+02  0.75548488011E+02  0.12225076198E+03  0.00000000000E+00 0.  1.
<mgrwt>
<rscale>  0 0.17560006E+04</rscale>
<asrwt>0</asrwt>
<pdfrwt beam="1">  1        1 0.11741874E+00 0.17560006E+04</pdfrwt>
<pdfrwt beam="2">  1       -1 0.15539077E+00 0.17560006E+04</pdfrwt>
<totfact> 0.71533948E+00</totfact>
</mgrwt>
</event>
<event>
11    1  0.2045212E-008  0.1458832E+04  0.7818608E-02  0.8912300E-01
          2   -1    0    0  501    0  0.00000000000E+00  0.00000000000E+00  0.21196442846E+04  0.21196442846E+04  0.00000000000E+00 0. -1.
         -2   -1    0    0    0  501 -0.00000000000E+00 -0.00000000000E+00 -0.25100805307E+03  0.25100805307E+03  0.00000000000E+00 0.  1.
         23    2    1    2    0    0  0.25596942325E+03  0.34511857349E+03  0.76223714517E+03  0.87960671878E+03  0.89862889104E+02 0.  0.
        254    2    1    2    0    0 -0.25596942325E+03 -0.34511857349E+03  0.11063990864E+04  0.14910456189E+04  0.90248042855E+03 0.  0.
         24    2    4    4    0    0 -0.48955730890E+03 -0.20823460407E+03  0.10357180566E+04  0.11669211368E+04  0.77233657284E+02 0.  0.
         13    1    3    3    0    0  0.20304824527E+03  0.32309299560E+03  0.66745192482E+03  0.76883661831E+03  0.00000000000E+00 0. -1.
        -13    1    3    3    0    0  0.52921177980E+02  0.22025577882E+02  0.94785220348E+02  0.11077010046E+03  0.00000000000E+00 0.  1.
          4    1    5    5  502    0 -0.31048460295E+03 -0.12384158502E+03  0.72726309848E+03  0.80040554799E+03  0.00000000000E+00 0. -1.
          1    1    4    4  503    0  0.78605017017E+01 -0.29193269047E+02 -0.40404857474E+02  0.50463719167E+02  0.00000000000E+00 0. -1.
         -2    1    4    4    0  503  0.22572738395E+03 -0.10769070037E+03  0.11108588729E+03  0.27366076292E+03  0.00000000000E+00 0.  1.
         -3    1    5    5    0  502 -0.17907270595E+03 -0.84393019048E+02  0.30845495810E+03  0.36651558883E+03  0.00000000000E+00 0.  1.
<mgrwt>
<rscale>  0 0.14588321E+04</rscale>
<asrwt>0</asrwt>
<pdfrwt beam="1">  1        2 0.32609911E+00 0.14588321E+04</pdfrwt>
<pdfrwt beam="2">  1       -2 0.38616625E-01 0.14588321E+04</pdfrwt>
<totfact> 0.35207658E+01</totfact>
</mgrwt>
</event>
<event>
11    1  0.2045212E-008  0.3238327E+04  0.7818608E-02  0.8178768E-01
          2   -1    0    0  501    0  0.00000000000E+00  0.00000000000E+00  0.14040717686E+04  0.14040717686E+04  0.00000000000E+00 0. -1.
         -2   -1    0    0    0  501 -0.00000000000E+00 -0.00000000000E+00 -0.18672052121E+04  0.18672052121E+04  0.00000000000E+00 0.  1.
         23    2    1    2    0    0 -0.11997794260E+03 -0.14471656486E+04  0.14151503763E+03  0.14617844047E+04  0.90022324243E+02 0.  0.
        254    2    1    2    0    0  0.11997794260E+03  0.14471656486E+04 -0.60464848104E+03  0.18094925760E+04  0.89441627647E+03 0.  0.
         24    2    4    4    0    0  0.40327567832E+03  0.34669739608E+03 -0.91278478233E+02  0.54595999860E+03  0.83127626604E+02 0.  0.
         13    1    3    3    0    0 -0.28517891206E+02 -0.91950259262E+02  0.14294395665E+01  0.96281688782E+02  0.00000000000E+00 0.  1.
        -13    1    3    3    0    0 -0.91460051392E+02 -0.13552153893E+04  0.14008559806E+03  0.13655027160E+04  0.00000000000E+00 0. -1.
          2    1    5    5  502    0  0.35495850772E+02  0.66085587709E+02 -0.34831440743E+01  0.75095889485E+02  0.00000000000E+00 0. -1.
          1    1    4    4  503    0 -0.88648966568E+02  0.33639729134E+03 -0.26350705387E+03  0.43641464725E+03  0.00000000000E+00 0. -1.
         -2    1    4    4    0  503 -0.19464876916E+03  0.76407096119E+03 -0.24986294894E+03  0.82711793012E+03  0.00000000000E+00 0.  1.
         -1    1    5    5    0  502  0.36777982755E+03  0.28061180837E+03 -0.87795334159E+02  0.47086410911E+03  0.00000000000E+00 0.  1.
<mgrwt>
<rscale>  0 0.32383268E+04</rscale>
<asrwt>0</asrwt>
<pdfrwt beam="1">  1        2 0.21601104E+00 0.32383268E+04</pdfrwt>
<pdfrwt beam="2">  1       -2 0.28726234E+00 0.32383268E+04</pdfrwt>
<totfact> 0.45939194E-01</totfact>
</mgrwt>
</event>
<event>
12    1  0.2045212E-008  0.1084498E+04  0.7818608E-02  0.9220434E-01
          2   -1    0    0  501    0  0.00000000000E+00  0.00000000000E+00  0.12123401866E+04  0.12123401866E+04  0.00000000000E+00 0. -1.
         -2   -1    0    0    0  501 -0.00000000000E+00 -0.00000000000E+00 -0.24253434848E+03  0.24253434848E+03  0.00000000000E+00 0.  1.
         23    2    1    2    0    0  0.80217544858E+02 -0.51884925524E+02  0.31317059150E+03  0.33970914750E+03  0.90551562747E+02 0.  0.
        254    2    1    2    0    0 -0.80217544858E+02  0.51884925524E+02  0.65663524663E+03  0.11151653876E+04  0.89626842773E+03 0.  0.
        -24    2    4    4    0    0  0.10027041433E+03  0.11786342674E+03 -0.17707780663E+03  0.25548111687E+03  0.99840413264E+02 0.  0.
         24    2    4    4    0    0 -0.18048795919E+03 -0.65978501220E+02  0.83371305326E+03  0.85968427072E+03  0.83967399120E+02 0.  0.
         13    1    3    3    0    0  0.52915274855E+02 -0.60476637563E+02  0.29513320786E+03  0.30587752514E+03  0.00000000000E+00 0. -1.
        -13    1    3    3    0    0  0.27302270003E+02  0.85917120395E+01  0.18037383642E+02  0.33831622363E+02  0.00000000000E+00 0.  1.
          4    1    6    6  502    0 -0.57651923172E+02 -0.38882976285E+01  0.41316913658E+03  0.41719012276E+03  0.00000000000E+00 0. -1.
          3    1    5    5  503    0  0.11191593534E+03  0.10366467912E+03 -0.11583524330E+03  0.19154463153E+03  0.00000000000E+00 0. -1.
         -4    1    5    5    0  503 -0.11645521006E+02  0.14198747625E+02 -0.61242563326E+02  0.63936485330E+02  0.00000000000E+00 0.  1.
         -3    1    6    6    0  502 -0.12283603602E+03 -0.62090203591E+02  0.42054391668E+03  0.44249414796E+03  0.00000000000E+00 0.  1.
<mgrwt>
<rscale>  0 0.10844983E+04</rscale>
<asrwt>0</asrwt>
<pdfrwt beam="1">  1        2 0.18651387E+00 0.10844983E+04</pdfrwt>
<pdfrwt beam="2">  1       -2 0.37312977E-01 0.10844983E+04</pdfrwt>
<totfact> 0.12521037E+02</totfact>
</mgrwt>
</event>
<event>
11    1  0.2045212E-008  0.1796768E+04  0.7818608E-02  0.8708020E-01
          2   -1    0    0  501    0  0.00000000000E+00  0.00000000000E+00  0.13984950236E+04  0.13984950236E+04  0.00000000000E+00 0. -1.
         -2   -1    0    0    0  501 -0.00000000000E+00 -0.00000000000E+00 -0.57711609385E+03  0.57711609385E+03  0.00000000000E+00 0.  1.
         23    2    1    2    0    0  0.18254453752E+03 -0.19455725384E+03 -0.36639781652E+03  0.46226736608E+03  0.90932527691E+02 0.  0.
        254    2    1    2    0    0 -0.18254453752E+03  0.19455725384E+03  0.11877767463E+04  0.15133437514E+04  0.89901094411E+03 0.  0.
         24    2    4    4    0    0  0.47412699711E+02  0.99194967458E+02  0.10523744764E+04  0.10613889799E+04  0.83468092382E+02 0.  0.
         13    1    3    3    0    0  0.17671486538E+03 -0.18793549980E+03 -0.37134248587E+03  0.45215388702E+03  0.00000000000E+00 0.  1.
        -13    1    3    3    0    0  0.58296721413E+01 -0.66217540392E+01  0.49446693495E+01  0.10113479065E+02  0.00000000000E+00 0. -1.
          2    1    5    5  502    0 -0.23663646267E+02  0.17480562014E+02  0.19668573820E+03  0.19887387414E+03  0.00000000000E+00 0. -1.
          1    1    4    4  503    0 -0.74364299337E+02  0.26484387805E+02  0.23970876810E+03  0.25237227525E+03  0.00000000000E+00 0. -1.
         -2    1    4    4    0  503 -0.15559293790E+03  0.68877898581E+02 -0.10430649819E+03  0.19958249623E+03  0.00000000000E+00 0.  1.
         -1    1    5    5    0  502  0.71076345978E+02  0.81714405443E+02  0.85568873820E+03  0.86251510578E+03  0.00000000000E+00 0.  1.
<mgrwt>
<rscale>  0 0.17967682E+04</rscale>
<asrwt>0</asrwt>
<pdfrwt beam="1">  1        2 0.21515308E+00 0.17967682E+04</pdfrwt>
<pdfrwt beam="2">  1       -2 0.88787092E-01 0.17967682E+04</pdfrwt>
<totfact> 0.14930885E+01</totfact>
</mgrwt>
</event>
<event>
12    1  0.2045212E-008  0.2266478E+04  0.7818608E-02  0.8491257E-01
          1   -1    0    0  501    0  0.00000000000E+00  0.00000000000E+00  0.75320374657E+03  0.75320374657E+03  0.00000000000E+00 0. -1.
         -1   -1    0    0    0  501 -0.00000000000E+00 -0.00000000000E+00 -0.17050239288E+04  0.17050239288E+04  0.00000000000E+00 0.  1.
         23    2    1    2    0    0  0.39850882396E+03  0.85728709698E+03 -0.52907754267E+03  0.10870515529E+04  0.89485099647E+02 0.  0.
        254    2    1    2    0    0 -0.39850882396E+03 -0.85728709698E+03 -0.42274263955E+03  0.13711761225E+04  0.89870026711E+03 0.  0.
        -24    2    4    4    0    0  0.38199172243E+02  0.15895506615E+03 -0.85132428362E+02  0.21178880062E+03  0.10431239569E+03 0.  0.
         24    2    4    4    0    0 -0.43670799621E+03 -0.10162421631E+04 -0.33761021119E+03  0.11593873218E+04  0.82074961373E+02 0.  0.
         13    1    3    3    0    0  0.37066262088E+03  0.79183380353E+03 -0.46010384503E+03  0.98797120360E+03  0.00000000000E+00 0. -1.
        -13    1    3    3    0    0  0.27846203083E+02  0.65453293449E+02 -0.68973697636E+02  0.99080349288E+02  0.00000000000E+00 0.  1.
          2    1    6    6  502    0 -0.43581737150E+03 -0.97703877793E+03 -0.32281138585E+03  0.11174742707E+04  0.00000000000E+00 0. -1.
          3    1    5    5  503    0  0.74891465976E+01  0.11288486147E+03 -0.35454275182E+01  0.11318855649E+03  0.00000000000E+00 0. -1.
         -4    1    5    5    0  503  0.30710025645E+02  0.46070204684E+02 -0.81587000844E+02  0.98600244125E+02  0.00000000000E+00 0.  1.
         -1    1    6    6    0  502 -0.89062470504E+00 -0.39203385199E+02 -0.14798825335E+02  0.41913051127E+02  0.00000000000E+00 0.  1.
<mgrwt>
<rscale>  0 0.22664778E+04</rscale>
<asrwt>0</asrwt>
<pdfrwt beam="1">  1        1 0.11587750E+00 0.22664778E+04</pdfrwt>
<pdfrwt beam="2">  1       -1 0.26231137E+00 0.22664778E+04</pdfrwt>
<totfact> 0.12783425E+00</totfact>
</mgrwt>
</event>
<event>
11    1  0.2045212E-008  0.2299973E+04  0.7818608E-02  0.8477932E-01
          2   -1    0    0  501    0  0.00000000000E+00  0.00000000000E+00  0.38287972867E+03  0.38287972867E+03  0.00000000000E+00 0. -1.
         -2   -1    0    0    0  501 -0.00000000000E+00 -0.00000000000E+00 -0.34540068194E+04  0.34540068194E+04  0.00000000000E+00 0.  1.
         23    2    1    2    0    0 -0.46321524260E+02 -0.76576850578E+03 -0.31139098918E+03  0.83300811421E+03  0.91602850053E+02 0.  0.
        254    2    1    2    0    0  0.46321524260E+02  0.76576850578E+03 -0.27597361016E+04  0.30038784339E+04  0.90476251423E+03 0.  0.
         24    2    4    4    0    0 -0.36312503222E+03  0.30145101325E+03 -0.16398278081E+04  0.17083294470E+04  0.81374176515E+02 0.  0.
         11    1    3    3    0    0 -0.50793659441E+02 -0.67026920531E+03 -0.24023392658E+03  0.71382991175E+03  0.00000000000E+00 0. -1.
        -11    1    3    3    0    0  0.44721351804E+01 -0.95499300473E+02 -0.71157062604E+02  0.11917820246E+03  0.00000000000E+00 0.  1.
          4    1    5    5  502    0 -0.80927457250E+02  0.82140527991E+02 -0.52905128959E+03  0.54147168595E+03  0.00000000000E+00 0. -1.
          3    1    4    4  503    0  0.41091570337E+02 -0.70530490499E+01 -0.15266831373E+03  0.15825889128E+03  0.00000000000E+00 0. -1.
         -2    1    4    4    0  503  0.36835498615E+03  0.47137054159E+03 -0.96723997972E+03  0.11372900957E+04  0.00000000000E+00 0.  1.
         -3    1    5    5    0  502 -0.28219757497E+03  0.21931048526E+03 -0.11107765185E+04  0.11668577610E+04  0.00000000000E+00 0.  1.
<mgrwt>
<rscale>  0 0.22999732E+04</rscale>
<asrwt>0</asrwt>
<pdfrwt beam="1">  1        2 0.58904572E-01 0.22999732E+04</pdfrwt>
<pdfrwt beam="2">  1       -2 0.53138568E+00 0.22999732E+04</pdfrwt>
<totfact> 0.80716544E-02</totfact>
</mgrwt>
</event>
<event>
11    1  0.2045212E-008  0.1481258E+04  0.7818608E-02  0.8897012E-01
          1   -1    0    0  501    0  0.00000000000E+00  0.00000000000E+00  0.10584329818E+04  0.10584329818E+04  0.00000000000E+00 0. -1.
         -1   -1    0    0    0  501 -0.00000000000E+00 -0.00000000000E+00 -0.51824872469E+03  0.51824872469E+03  0.00000000000E+00 0.  1.
         23    2    1    2    0    0 -0.30743515276E+03  0.31337257318E+03  0.29867353507E+03  0.53884360526E+03  0.91803091494E+02 0.  0.
        254    2    1    2    0    0  0.30743515276E+03 -0.31337257318E+03  0.24151072207E+03  0.10378381012E+04  0.90887939395E+03 0.  0.
         24    2    4    4    0    0  0.53255799697E+03 -0.20426175936E+03  0.41073376426E+03  0.70753601933E+03  0.81019177083E+02 0.  0.
         11    1    3    3    0    0 -0.48519264708E+02  0.62802423027E+02  0.99079161032E+02  0.12694464753E+03  0.00000000000E+00 0. -1.
        -11    1    3    3    0    0 -0.25891588805E+03  0.25057015016E+03  0.19959437404E+03  0.41189895773E+03  0.00000000000E+00 0.  1.
          2    1    5    5  502    0  0.11600812652E+03 -0.74140672864E+02  0.73851487291E+02  0.15623305337E+03  0.00000000000E+00 0. -1.
          3    1    4    4  503    0  0.13549474636E+02  0.99821592732E+01 -0.12120516344E+02  0.20739785031E+02  0.00000000000E+00 0. -1.
         -4    1    4    4    0  503 -0.23867231885E+03 -0.11909297309E+03 -0.15710252585E+03  0.30956229689E+03  0.00000000000E+00 0.  1.
         -1    1    5    5    0  502  0.41654987046E+03 -0.13012108650E+03  0.33688227697E+03  0.55130296595E+03  0.00000000000E+00 0.  1.
<mgrwt>
<rscale>  0 0.14812583E+04</rscale>
<asrwt>0</asrwt>
<pdfrwt beam="1">  1        1 0.16283584E+00 0.14812583E+04</pdfrwt>
<pdfrwt beam="2">  1       -1 0.79730573E-01 0.14812583E+04</pdfrwt>
<totfact> 0.20758167E+01</totfact>
</mgrwt>
</event>
<event>
12    1  0.2045212E-008  0.4012149E+04  0.7818608E-02  0.8002100E-01
         -2   -1    0    0    0  501 -0.00000000000E+00  0.00000000000E+00  0.17356193891E+04  0.17356193891E+04  0.00000000000E+00 0. -1.
          2   -1    0    0  501    0  0.00000000000E+00 -0.00000000000E+00 -0.23186731019E+04  0.23186731019E+04  0.00000000000E+00 0.  1.
         23    2    1    2    0    0  0.14767404272E+04  0.11046536399E+04 -0.77373089515E+03  0.20020115750E+04  0.91481662946E+02 0.  0.
        254    2    1    2    0    0 -0.14767404272E+04 -0.11046536399E+04  0.19067718236E+03  0.20522809160E+04  0.88004387214E+03 0.  0.
        -24    2    4    4    0    0  0.78419779015E+02 -0.82034555531E+02 -0.82368680369E+02  0.16942681194E+03  0.95086881617E+02 0.  0.
         24    2    4    4    0    0 -0.15551602062E+04 -0.10226190844E+04  0.27304586273E+03  0.18828541041E+04  0.79451087902E+02 0.  0.
         11    1    3    3    0    0  0.98653507518E+03  0.73982793894E+03 -0.56370569011E+03  0.13558616961E+04  0.00000000000E+00 0. -1.
        -11    1    3    3    0    0  0.49020535205E+03  0.36482570097E+03 -0.21002520504E+03  0.64614987891E+03  0.00000000000E+00 0.  1.
          4    1    6    6  502    0 -0.12414830855E+03 -0.90928051961E+02  0.43464303898E+02  0.15990578121E+03  0.00000000000E+00 0. -1.
          1    1    5    5  503    0 -0.10725387758E+02 -0.49482612752E+02 -0.43938617996E+02  0.67038534134E+02  0.00000000000E+00 0. -1.
         -2    1    5    5    0  503  0.89145166773E+02 -0.32551942779E+02 -0.38430062372E+02  0.10238827780E+03  0.00000000000E+00 0.  1.
         -1    1    6    6    0  502 -0.14310118977E+04 -0.93169103241E+03  0.22958155883E+03  0.17229483229E+04  0.00000000000E+00 0.  1.
<mgrwt>
<rscale>  0 0.40121485E+04</rscale>
<asrwt>0</asrwt>
<pdfrwt beam="1">  1        2 0.35671894E+00 0.40121485E+04</pdfrwt>
<pdfrwt beam="2">  1       -2 0.26701837E+00 0.40121485E+04</pdfrwt>
<totfact> 0.17624325E-01</totfact>
</mgrwt>
</event>
<event>
12    1  0.2045212E-008  0.2068204E+04  0.7818608E-02  0.8575381E-01
         -2   -1    0    0    0  501 -0.00000000000E+00  0.00000000000E+00  0.48267359285E+03  0.48267359285E+03  0.00000000000E+00 0.  1.
          2   -1    0    0  501    0  0.00000000000E+00 -0.00000000000E+00 -0.22155067037E+04  0.22155067037E+04  0.00000000000E+00 0. -1.
         23    2    1    2    0    0  0.30876643521E+03  0.61546583354E+03 -0.13211280885E+04  0.14926106699E+04  0.91500173505E+02 0.  0.
        254    2    1    2    0    0 -0.30876643521E+03 -0.61546583354E+03 -0.41170502229E+03  0.12055696266E+04  0.89986787671E+03 0.  0.
        -24    2    4    4    0    0 -0.43927355714E+03 -0.78423049898E+03 -0.32654909332E+03  0.96233260574E+03  0.10710275530E+03 0.  0.
         24    2    4    4    0    0  0.13050712193E+03  0.16876466544E+03 -0.85155928964E+02  0.24323702090E+03  0.79994343077E+02 0.  0.
         11    1    3    3    0    0  0.39932741361E+01  0.55929838547E+02 -0.13503388280E+03  0.14621300415E+03  0.00000000000E+00 0.  1.
        -11    1    3    3    0    0  0.30477316107E+03  0.55953599500E+03 -0.11860942057E+04  0.13463976657E+04  0.00000000000E+00 0. -1.
          4    1    6    6  502    0 -0.10354060277E+02  0.22221749008E+02 -0.10956497752E+02  0.26852514522E+02  0.00000000000E+00 0. -1.
          3    1    5    5  503    0 -0.64875842085E+02 -0.13715047470E+03 -0.97886579899E+02  0.18055722118E+03  0.00000000000E+00 0. -1.
         -4    1    5    5    0  503 -0.37439771505E+03 -0.64708002428E+03 -0.22866251342E+03  0.78177538456E+03  0.00000000000E+00 0.  1.
         -3    1    6    6    0  502  0.14086118220E+03  0.14654291643E+03 -0.74199431212E+02  0.21638450638E+03  0.00000000000E+00 0.  1.
<mgrwt>
<rscale>  0 0.20682036E+04</rscale>
<asrwt>0</asrwt>
<pdfrwt beam="1">  1        2 0.34084719E+00 0.20682036E+04</pdfrwt>
<pdfrwt beam="2">  1       -2 0.74257474E-01 0.20682036E+04</pdfrwt>
<totfact> 0.76331212E+00</totfact>
</mgrwt>
</event>
<event>
12    1  0.2661461E-008  0.2264769E+04  0.7818608E-02  0.8491943E-01
          2   -1    0    0  501    0  0.00000000000E+00  0.00000000000E+00  0.10085296913E+04  0.10085296913E+04  0.00000000000E+00 0. -1.
         -2   -1    0    0    0  501 -0.00000000000E+00 -0.00000000000E+00 -0.12714490686E+04  0.12714490686E+04  0.00000000000E+00 0.  1.
         23    2    1    2    0    0  0.58164292498E+03  0.40261969794E+03  0.51501963022E+03  0.87971923847E+03  0.90827339842E+02 0.  0.
        254    2    1    2    0    0 -0.58164292498E+03 -0.40261969794E+03 -0.77793900752E+03  0.14002595214E+04  0.92473050917E+03 0.  0.
        -24    2    4    4    0    0 -0.37572865570E+03  0.18331149251E+03 -0.38079879647E+02  0.43106113834E+03  0.97920895348E+02 0.  0.
         24    2    4    4    0    0 -0.20591426928E+03 -0.58593119046E+03 -0.73985912788E+03  0.96919838310E+03  0.78980570141E+02 0.  0.
         13    1    3    3    0    0  0.52197652736E+02  0.34848076083E+02  0.81485672803E+02  0.10285377110E+03  0.00000000000E+00 0.  1.
        -13    1    3    3    0    0  0.52944527225E+03  0.36777162186E+03  0.43353395742E+03  0.77686546736E+03  0.00000000000E+00 0. -1.
          2    1    6    6  502    0 -0.20231963154E+03 -0.56341595770E+03 -0.68460894335E+03  0.90942849087E+03  0.00000000000E+00 0. -1.
          1    1    5    5  503    0 -0.35076537520E+03  0.19440291557E+03 -0.28244657833E+02  0.40202811185E+03  0.00000000000E+00 0. -1.
         -2    1    5    5    0  503 -0.24963280503E+02 -0.11091423055E+02 -0.98352218135E+01  0.29033026487E+02  0.00000000000E+00 0.  1.
         -1    1    6    6    0  502 -0.35946377333E+01 -0.22515232762E+02 -0.55250184532E+02  0.59769892233E+02  0.00000000000E+00 0.  1.
<mgrwt>
<rscale>  0 0.22647685E+04</rscale>
<asrwt>0</asrwt>
<pdfrwt beam="1">  1        2 0.15515842E+00 0.22647685E+04</pdfrwt>
<pdfrwt beam="2">  1       -2 0.19560755E+00 0.22647685E+04</pdfrwt>
<totfact> 0.32148948E+00</totfact>
</mgrwt>
</event>
<event>
12    1  0.2045212E-008  0.2939382E+04  0.7818608E-02  0.8261256E-01
          2   -1    0    0  501    0  0.00000000000E+00  0.00000000000E+00  0.19700382584E+04  0.19700382584E+04  0.00000000000E+00 0. -1.
         -2   -1    0    0    0  501 -0.00000000000E+00 -0.00000000000E+00 -0.10964209463E+04  0.10964209463E+04  0.00000000000E+00 0.  1.
         23    2    1    2    0    0 -0.11036700711E+04  0.56020691779E+03 -0.10851495800E+03  0.12454935772E+04  0.86944453814E+02 0.  0.
        254    2    1    2    0    0  0.11036700711E+04 -0.56020691779E+03  0.98213227012E+03  0.18209656275E+04  0.90521412051E+03 0.  0.
        -24    2    4    4    0    0  0.75909804944E+03  0.41387670045E+02  0.24360371527E+03  0.80470921903E+03  0.10134776369E+03 0.  0.
         24    2    4    4    0    0  0.34457202167E+03 -0.60159458784E+03  0.73852855485E+03  0.10162564085E+04  0.81894659280E+02 0.  0.
         13    1    3    3    0    0 -0.10507106133E+04  0.51118613731E+03 -0.97965024456E+02  0.11725618132E+04  0.00000000000E+00 0. -1.
        -13    1    3    3    0    0 -0.52959457837E+02  0.49020780485E+02 -0.10549933546E+02  0.72931763941E+02  0.00000000000E+00 0.  1.
          4    1    6    6  502    0  0.17524943032E+03 -0.22510255297E+03  0.30488902249E+03  0.41754142096E+03  0.00000000000E+00 0. -1.
          1    1    5    5  503    0  0.37802668849E+03  0.57039415877E+02  0.84928599765E+02  0.39162550891E+03  0.00000000000E+00 0. -1.
         -2    1    5    5    0  503  0.38107136096E+03 -0.15651745832E+02  0.15867511550E+03  0.41308371012E+03  0.00000000000E+00 0.  1.
         -3    1    6    6    0  502  0.16932259135E+03 -0.37649203486E+03  0.43363953235E+03  0.59871498752E+03  0.00000000000E+00 0.  1.
<mgrwt>
<rscale>  0 0.29393817E+04</rscale>
<asrwt>0</asrwt>
<pdfrwt beam="1">  1        2 0.30308281E+00 0.29393817E+04</pdfrwt>
<pdfrwt beam="2">  1       -2 0.16868015E+00 0.29393817E+04</pdfrwt>
<totfact> 0.13010026E+00</totfact>
</mgrwt>
</event>
<event>
11    1  0.2045212E-008  0.1264458E+04  0.7818608E-02  0.9058235E-01
          2   -1    0    0  501    0  0.00000000000E+00  0.00000000000E+00  0.57007688607E+03  0.57007688607E+03  0.00000000000E+00 0. -1.
         -2   -1    0    0    0  501 -0.00000000000E+00 -0.00000000000E+00 -0.70115671361E+03  0.70115671361E+03  0.00000000000E+00 0.  1.
         23    2    1    2    0    0  0.13396663869E+03 -0.36479857931E+02  0.23954130392E+03  0.29118120562E+03  0.90158848195E+02 0.  0.
        254    2    1    2    0    0 -0.13396663869E+03  0.36479857931E+02 -0.37062113146E+03  0.98005239405E+03  0.89658509451E+03 0.  0.
         24    2    4    4    0    0  0.26785080347E+03  0.18578471385E+03 -0.40514448041E+03  0.52673896163E+03  0.83975418269E+02 0.  0.
         13    1    3    3    0    0  0.44885955182E+02  0.28547514186E+02  0.10048945657E+03  0.11370066148E+03  0.00000000000E+00 0.  1.
        -13    1    3    3    0    0  0.89080683504E+02 -0.65027372117E+02  0.13905184735E+03  0.17748054414E+03  0.00000000000E+00 0. -1.
          4    1    5    5  502    0  0.41446624344E+02  0.24047205924E+01 -0.27631331664E+02  0.49870791453E+02  0.00000000000E+00 0. -1.
          1    1    4    4  503    0 -0.29870102087E+02 -0.10105340222E+02  0.46275800690E+02  0.55998130586E+02  0.00000000000E+00 0. -1.
         -2    1    4    4    0  503 -0.37194734007E+03 -0.13919951569E+03 -0.11752451737E+02  0.39731530184E+03  0.00000000000E+00 0.  1.
         -3    1    5    5    0  502  0.22640417913E+03  0.18337999325E+03 -0.37751314874E+03  0.47686817018E+03  0.00000000000E+00 0.  1.
<mgrwt>
<rscale>  0 0.12644576E+04</rscale>
<asrwt>0</asrwt>
<pdfrwt beam="1">  1        2 0.87704137E-01 0.12644576E+04</pdfrwt>
<pdfrwt beam="2">  1       -2 0.10787026E+00 0.12644576E+04</pdfrwt>
<totfact> 0.35703738E+01</totfact>
</mgrwt>
</event>
<event>
11    1  0.2045212E-008  0.1925186E+04  0.7818608E-02  0.8642421E-01
          2   -1    0    0  501    0  0.00000000000E+00  0.00000000000E+00  0.11783265690E+04  0.11783265690E+04  0.00000000000E+00 0. -1.
         -2   -1    0    0    0  501 -0.00000000000E+00 -0.00000000000E+00 -0.78635656047E+03  0.78635656047E+03  0.00000000000E+00 0.  1.
         23    2    1    2    0    0 -0.16848953604E+03  0.60568443052E+03  0.56600174562E+03  0.85109411982E+03  0.93599527856E+02 0.  0.
        254    2    1    2    0    0  0.16848953604E+03 -0.60568443052E+03 -0.17403173710E+03  0.11135890096E+04  0.90252483830E+03 0.  0.
         24    2    4    4    0    0 -0.34099211860E+03 -0.12937858393E+03 -0.81932864472E+02  0.38231304928E+03  0.80223627673E+02 0.  0.
         13    1    3    3    0    0 -0.98155402229E+01  0.18709547630E+03  0.18415828862E+03  0.26270770325E+03  0.00000000000E+00 0.  1.
        -13    1    3    3    0    0 -0.15867399581E+03  0.41858895422E+03  0.38184345701E+03  0.58838641657E+03  0.00000000000E+00 0. -1.
          2    1    5    5  502    0 -0.28425467380E+03 -0.79349319490E+02 -0.46431673972E+02  0.29875229611E+03  0.00000000000E+00 0. -1.
          3    1    4    4  503    0  0.37946157975E+03 -0.35801767910E+03 -0.15555833954E+03  0.54439521128E+03  0.00000000000E+00 0. -1.
         -4    1    4    4    0  503  0.13002007488E+03 -0.11828816748E+03  0.63459466914E+02  0.18688074909E+03  0.00000000000E+00 0.  1.
         -1    1    5    5    0  502 -0.56737444801E+02 -0.50029264445E+02 -0.35501190500E+02  0.83560753170E+02  0.00000000000E+00 0.  1.
<mgrwt>
<rscale>  0 0.19251855E+04</rscale>
<asrwt>0</asrwt>
<pdfrwt beam="1">  1        2 0.18128101E+00 0.19251855E+04</pdfrwt>
<pdfrwt beam="2">  1       -2 0.12097793E+00 0.19251855E+04</pdfrwt>
<totfact> 0.94941604E+00</totfact>
</mgrwt>
</event>
<event>
12    1  0.2045212E-008  0.1966145E+04  0.7818608E-02  0.8622615E-01
         -2   -1    0    0    0  501 -0.00000000000E+00  0.00000000000E+00  0.11566510183E+04  0.11566510183E+04  0.00000000000E+00 0. -1.
          2   -1    0    0  501    0  0.00000000000E+00 -0.00000000000E+00 -0.83554291341E+03  0.83554291341E+03  0.00000000000E+00 0.  1.
         23    2    1    2    0    0 -0.35202455950E+03  0.50205836324E+03 -0.35014305443E+03  0.71173124124E+03  0.89315791443E+02 0.  0.
        254    2    1    2    0    0  0.35202455950E+03 -0.50205836324E+03  0.67125115929E+03  0.12804626904E+04  0.90167770971E+03 0.  0.
        -24    2    4    4    0    0  0.21197856448E+03  0.20866547745E+03  0.38796510853E+03  0.49856007529E+03  0.97821418711E+02 0.  0.
         24    2    4    4    0    0  0.14004599502E+03 -0.71072384069E+03  0.28328605076E+03  0.78190261515E+03  0.79871487896E+02 0.  0.
         13    1    3    3    0    0 -0.28184384387E+03  0.44295604437E+03 -0.32139216156E+03  0.61558015813E+03  0.00000000000E+00 0.  1.
        -13    1    3    3    0    0 -0.70180715627E+02  0.59102318869E+02 -0.28750892862E+02  0.96151083104E+02  0.00000000000E+00 0. -1.
          4    1    6    6  502    0  0.84460353114E+02 -0.58551195873E+03  0.22258952102E+03  0.63206320881E+03  0.00000000000E+00 0. -1.
          3    1    5    5  503    0  0.16622496159E+03  0.20793026555E+03  0.34524591951E+03  0.43595926200E+03  0.00000000000E+00 0. -1.
         -4    1    5    5    0  503  0.45753602891E+02  0.73521190350E+00  0.42719189018E+02  0.62600813289E+02  0.00000000000E+00 0.  1.
         -3    1    6    6    0  502  0.55585641905E+02 -0.12521188196E+03  0.60696529743E+02  0.14983940634E+03  0.00000000000E+00 0.  1.
<mgrwt>
<rscale>  0 0.19661450E+04</rscale>
<asrwt>0</asrwt>
<pdfrwt beam="1">  1        2 0.12854506E+00 0.19661450E+04</pdfrwt>
<pdfrwt beam="2">  1       -2 0.17794631E+00 0.19661450E+04</pdfrwt>
<totfact> 0.56687534E+00</totfact>
</mgrwt>
</event>
<event>
12    1  0.2045212E-008  0.2131438E+04  0.7818608E-02  0.8547520E-01
          2   -1    0    0  501    0  0.00000000000E+00  0.00000000000E+00  0.28641136347E+04  0.28641136347E+04  0.00000000000E+00 0. -1.
         -2   -1    0    0    0  501 -0.00000000000E+00 -0.00000000000E+00 -0.39654744108E+03  0.39654744108E+03  0.00000000000E+00 0.  1.
         23    2    1    2    0    0 -0.41550966865E+03  0.13502794315E+02  0.21850034283E+04  0.22260766745E+04  0.91360652644E+02 0.  0.
        254    2    1    2    0    0  0.41550966865E+03 -0.13502794315E+02  0.28256276527E+03  0.10345844012E+04  0.90426354385E+03 0.  0.
        -24    2    4    4    0    0  0.96630274189E+02  0.42801632094E+03  0.15540685381E+03  0.46950764041E+03  0.61243393979E+02 0.  0.
         24    2    4    4    0    0  0.31887939446E+03 -0.44151911526E+03  0.12715591146E+03  0.56507676082E+03  0.80746036708E+02 0.  0.
         11    1    3    3    0    0 -0.41315576011E+01  0.10219964464E+00  0.14013587550E+03  0.14019680386E+03  0.00000000000E+00 0.  1.
        -11    1    3    3    0    0 -0.41137811105E+03  0.13400594670E+02  0.20448675528E+04  0.20858798706E+04  0.00000000000E+00 0. -1.
          2    1    6    6  502    0  0.22238260264E+03 -0.26387049645E+03  0.49984513917E+02  0.34868339864E+03  0.00000000000E+00 0. -1.
          1    1    5    5  503    0  0.48287388133E+02  0.32101273832E+03  0.12789976178E+03  0.34891144876E+03  0.00000000000E+00 0. -1.
         -2    1    5    5    0  503  0.48342886056E+02  0.10700358263E+03  0.27507092027E+02  0.12059619164E+03  0.00000000000E+00 0.  1.
         -1    1    6    6    0  502  0.96496791822E+02 -0.17764861881E+03  0.77171397541E+02  0.21639336218E+03  0.00000000000E+00 0.  1.
<mgrwt>
<rscale>  0 0.21314379E+04</rscale>
<asrwt>0</asrwt>
<pdfrwt beam="1">  1        2 0.44063285E+00 0.21314379E+04</pdfrwt>
<pdfrwt beam="2">  1       -2 0.61007300E-01 0.21314379E+04</pdfrwt>
<totfact> 0.48627039E+00</totfact>
</mgrwt>
</event>
<event>
12    1  0.2045212E-008  0.2162616E+04  0.7818608E-02  0.8534151E-01
         -2   -1    0    0    0  501 -0.00000000000E+00  0.00000000000E+00  0.50297878178E+03  0.50297878178E+03  0.00000000000E+00 0.  1.
          2   -1    0    0  501    0  0.00000000000E+00 -0.00000000000E+00 -0.23246039682E+04  0.23246039682E+04  0.00000000000E+00 0. -1.
         23    2    1    2    0    0  0.43843469936E+03 -0.67455457373E+03 -0.28015735751E+03  0.85684826138E+03  0.91934430581E+02 0.  0.
        254    2    1    2    0    0 -0.43843469936E+03  0.67455457373E+03 -0.15414678289E+04  0.19707344886E+04  0.92758961752E+03 0.  0.
        -24    2    4    4    0    0 -0.49562110436E+03 -0.22296272692E+02 -0.45033080346E+03  0.67197316950E+03  0.51114627294E+02 0.  0.
         24    2    4    4    0    0  0.57186405003E+02  0.69685084642E+03 -0.10911370255E+04  0.12987613191E+04  0.85612900039E+02 0.  0.
         11    1    3    3    0    0  0.57621372858E+02 -0.42326722054E+02 -0.19419162554E+02  0.74086961634E+02  0.00000000000E+00 0.  1.
        -11    1    3    3    0    0  0.38081332650E+03 -0.63222785167E+03 -0.26073819496E+03  0.78276129975E+03  0.00000000000E+00 0. -1.
          2    1    6    6  502    0  0.72158275049E+01  0.22421772870E+03 -0.42336746507E+03  0.47913011647E+03  0.00000000000E+00 0. -1.
          3    1    5    5  503    0 -0.29550692398E+03 -0.53430779160E+01 -0.23565913175E+03  0.37800544570E+03  0.00000000000E+00 0. -1.
         -4    1    5    5    0  503 -0.20011418037E+03 -0.16953194776E+02 -0.21467167172E+03  0.29396772380E+03  0.00000000000E+00 0.  1.
         -1    1    6    6    0  502  0.49970577498E+02  0.47263311772E+03 -0.66776956041E+03  0.81963120267E+03  0.00000000000E+00 0.  1.
<mgrwt>
<rscale>  0 0.21626155E+04</rscale>
<asrwt>0</asrwt>
<pdfrwt beam="1">  1        2 0.35763138E+00 0.21626155E+04</pdfrwt>
<pdfrwt beam="2">  1       -2 0.77381351E-01 0.21626155E+04</pdfrwt>
<totfact> 0.59946393E+00</totfact>
</mgrwt>
</event>
<event>
12    1  0.2045212E-008  0.2026337E+04  0.7818608E-02  0.8594405E-01
          1   -1    0    0  501    0  0.00000000000E+00  0.00000000000E+00  0.14978103103E+04  0.14978103103E+04  0.00000000000E+00 0. -1.
         -1   -1    0    0    0  501 -0.00000000000E+00 -0.00000000000E+00 -0.68534089616E+03  0.68534089616E+03  0.00000000000E+00 0.  1.
         23    2    1    2    0    0 -0.20581868210E+03 -0.67962426901E+03  0.74943860142E+03  0.10362012552E+04  0.88342215429E+02 0.  0.
        254    2    1    2    0    0  0.20581868210E+03  0.67962426901E+03  0.63030812742E+02  0.11469499513E+04  0.89848251540E+03 0.  0.
        -24    2    4    4    0    0 -0.33529838325E+03  0.40327343459E+03  0.39917365753E+02  0.53366953778E+03  0.90306758384E+02 0.  0.
         24    2    4    4    0    0  0.54111706535E+03  0.27635083443E+03  0.23113446989E+02  0.61328041351E+03  0.80007325039E+02 0.  0.
         13    1    3    3    0    0 -0.16104938369E+02 -0.12715114226E+03  0.98883290696E+02  0.16187861871E+03  0.00000000000E+00 0.  1.
        -13    1    3    3    0    0 -0.18971374373E+03 -0.55247312676E+03  0.65055531073E+03  0.87432263648E+03  0.00000000000E+00 0. -1.
          2    1    6    6  502    0  0.38899525890E+03  0.18675680944E+03 -0.18490056348E+02  0.43189964054E+03  0.00000000000E+00 0. -1.
          1    1    5    5  503    0 -0.14717590065E+03  0.17608016897E+03  0.62470671336E+02  0.23783935001E+03  0.00000000000E+00 0. -1.
         -2    1    5    5    0  503 -0.18812248260E+03  0.22719326562E+03 -0.22553305583E+02  0.29583018777E+03  0.00000000000E+00 0.  1.
         -1    1    6    6    0  502  0.15212180645E+03  0.89594024989E+02  0.41603503338E+02  0.18138077297E+03  0.00000000000E+00 0.  1.
<mgrwt>
<rscale>  0 0.20263372E+04</rscale>
<asrwt>0</asrwt>
<pdfrwt beam="1">  1        1 0.23043236E+00 0.20263372E+04</pdfrwt>
<pdfrwt beam="2">  1       -1 0.10543706E+00 0.20263372E+04</pdfrwt>
<totfact> 0.51226771E+00</totfact>
</mgrwt>
</event>
<event>
12    1  0.2045212E-008  0.1821326E+04  0.7818608E-02  0.8695040E-01
          2   -1    0    0  501    0  0.00000000000E+00  0.00000000000E+00  0.14274544379E+04  0.14274544379E+04  0.00000000000E+00 0. -1.
         -2   -1    0    0    0  501 -0.00000000000E+00 -0.00000000000E+00 -0.58096928049E+03  0.58096928049E+03  0.00000000000E+00 0.  1.
         23    2    1    2    0    0 -0.13359175264E+03 -0.63501572244E+03  0.58572460464E+02  0.65803607625E+03  0.92135880067E+02 0.  0.
        254    2    1    2    0    0  0.13359175264E+03  0.63501572244E+03  0.78791269694E+03  0.13503876421E+04  0.88410895365E+03 0.  0.
        -24    2    4    4    0    0 -0.17530629287E+03 -0.12482131493E+03  0.40434961893E+02  0.23773738028E+03  0.92581957527E+02 0.  0.
         24    2    4    4    0    0  0.30889804551E+03  0.75983703738E+03  0.74747773504E+03  0.11126502619E+04  0.80605923689E+02 0.  0.
         13    1    3    3    0    0 -0.52052218908E+02 -0.44402516997E+03  0.54023723135E+02  0.45031805173E+03  0.00000000000E+00 0.  1.
        -13    1    3    3    0    0 -0.81539533729E+02 -0.19099055248E+03  0.45487373292E+01  0.20771802451E+03  0.00000000000E+00 0. -1.
          4    1    6    6  502    0  0.18567349828E+03  0.54603697223E+03  0.50275124052E+03  0.76510772631E+03  0.00000000000E+00 0. -1.
          1    1    5    5  503    0 -0.11966652577E+03 -0.12619358771E+03  0.97530131976E+01  0.17418386904E+03  0.00000000000E+00 0. -1.
         -2    1    5    5    0  503 -0.55639767101E+02  0.13722727713E+01  0.30681948696E+02  0.63553511244E+02  0.00000000000E+00 0.  1.
         -3    1    6    6    0  502  0.12322454722E+03  0.21380006515E+03  0.24472649452E+03  0.34754253555E+03  0.00000000000E+00 0.  1.
<mgrwt>
<rscale>  0 0.18213261E+04</rscale>
<asrwt>0</asrwt>
<pdfrwt beam="1">  1        2 0.21960837E+00 0.18213261E+04</pdfrwt>
<pdfrwt beam="2">  1       -2 0.89379890E-01 0.18213261E+04</pdfrwt>
<totfact> 0.14125704E+01</totfact>
</mgrwt>
</event>
<event>
12    1  0.2045212E-008  0.1828272E+04  0.7818608E-02  0.8691407E-01
          1   -1    0    0  501    0  0.00000000000E+00  0.00000000000E+00  0.66184791462E+03  0.66184791462E+03  0.00000000000E+00 0. -1.
         -1   -1    0    0    0  501 -0.00000000000E+00 -0.00000000000E+00 -0.12625937623E+04  0.12625937623E+04  0.00000000000E+00 0.  1.
         23    2    1    2    0    0 -0.56726290827E+03 -0.38108831487E+03 -0.13655155858E+03  0.70269603573E+03  0.90110374864E+02 0.  0.
        254    2    1    2    0    0  0.56726290827E+03  0.38108831487E+03 -0.46419428914E+03  0.12217456412E+04  0.90009475220E+03 0.  0.
        -24    2    4    4    0    0  0.67475111469E+03  0.53457235502E+03 -0.52006169209E+03  0.10115877214E+04  0.10857663211E+03 0.  0.
         24    2    4    4    0    0 -0.10748820642E+03 -0.15348404015E+03  0.55867402951E+02  0.21015791978E+03  0.77033235910E+02 0.  0.
         11    1    3    3    0    0 -0.27774118226E+03 -0.16216399359E+03 -0.23281829679E+02  0.32245832092E+03  0.00000000000E+00 0.  1.
        -11    1    3    3    0    0 -0.28952172601E+03 -0.21892432128E+03 -0.11326972890E+03  0.38023771481E+03  0.00000000000E+00 0. -1.
          2    1    6    6  502    0 -0.57431959518E+02 -0.21903516965E+02  0.22689208507E+02  0.65520944836E+02  0.00000000000E+00 0. -1.
          1    1    5    5  503    0  0.56300324617E+02  0.14325045172E+02 -0.50055095487E+02  0.76684066503E+02  0.00000000000E+00 0. -1.
         -2    1    5    5    0  503  0.61845079008E+03  0.52024730985E+03 -0.47000659661E+03  0.93490365493E+03  0.00000000000E+00 0.  1.
         -1    1    6    6    0  502 -0.50056246906E+02 -0.13158052318E+03  0.33178194444E+02  0.14463697495E+03  0.00000000000E+00 0.  1.
<mgrwt>
<rscale>  0 0.18282725E+04</rscale>
<asrwt>0</asrwt>
<pdfrwt beam="1">  1        1 0.10182276E+00 0.18282725E+04</pdfrwt>
<pdfrwt beam="2">  1       -1 0.19424519E+00 0.18282725E+04</pdfrwt>
<totfact> 0.46043734E+00</totfact>
</mgrwt>
</event>
<event>
11    1  0.2045212E-008  0.1587866E+04  0.7818608E-02  0.8828037E-01
         -1   -1    0    0    0  501 -0.00000000000E+00  0.00000000000E+00  0.42340007889E+03  0.42340007889E+03  0.00000000000E+00 0.  1.
          1   -1    0    0  501    0  0.00000000000E+00 -0.00000000000E+00 -0.14887331986E+04  0.14887331986E+04  0.00000000000E+00 0. -1.
         23    2    1    2    0    0  0.16724531461E+03  0.49144584415E+03 -0.29207585617E+03  0.59965127197E+03  0.69161616712E+02 0.  0.
        254    2    1    2    0    0 -0.16724531461E+03 -0.49144584415E+03 -0.77325726357E+03  0.13124820056E+04  0.92476602783E+03 0.  0.
         24    2    4    4    0    0  0.67011629238E+02  0.19721437140E+03 -0.45450592497E+03  0.50706467706E+03  0.84586548287E+02 0.  0.
         13    1    3    3    0    0  0.14899660649E+03  0.38602827715E+03 -0.25682458768E+03  0.48700789352E+03  0.00000000000E+00 0.  1.
        -13    1    3    3    0    0  0.18248708121E+02  0.10541756700E+03 -0.35251268483E+02  0.11264337846E+03  0.00000000000E+00 0. -1.
          2    1    5    5  502    0 -0.58687036394E+00  0.12813663227E+03 -0.25570102580E+03  0.28601111087E+03  0.00000000000E+00 0. -1.
          3    1    4    4  503    0  0.78604908077E+01 -0.13665828343E+03 -0.57519445016E+02  0.14847814755E+03  0.00000000000E+00 0. -1.
         -4    1    4    4    0  503 -0.24211743466E+03 -0.55200193212E+03 -0.26123189359E+03  0.65693918094E+03  0.00000000000E+00 0.  1.
         -1    1    5    5    0  502  0.67598499602E+02  0.69077739126E+02 -0.19880489917E+03  0.22105356619E+03  0.00000000000E+00 0.  1.
<mgrwt>
<rscale>  0 0.15878662E+04</rscale>
<asrwt>0</asrwt>
<pdfrwt beam="1">  1        1 0.22903588E+00 0.15878662E+04</pdfrwt>
<pdfrwt beam="2">  1       -1 0.65138472E-01 0.15878662E+04</pdfrwt>
<totfact> 0.15285123E+01</totfact>
</mgrwt>
</event>
<event>
11    1  0.2045212E-008  0.1934158E+04  0.7818608E-02  0.8638038E-01
         -1   -1    0    0    0  501 -0.00000000000E+00  0.00000000000E+00  0.15481735690E+04  0.15481735690E+04  0.00000000000E+00 0.  1.
          1   -1    0    0  501    0  0.00000000000E+00 -0.00000000000E+00 -0.60409346403E+03  0.60409346403E+03  0.00000000000E+00 0. -1.
         23    2    1    2    0    0 -0.68493351323E+03  0.13199820964E+03  0.67166065279E+03  0.97299730987E+03  0.95069909071E+02 0.  0.
        254    2    1    2    0    0  0.68493351323E+03 -0.13199820964E+03  0.27241945214E+03  0.11792697231E+04  0.91099246818E+03 0.  0.
         24    2    4    4    0    0  0.27649176015E+03  0.27290107087E+03  0.42643767741E+03  0.58256587044E+03  0.81309364600E+02 0.  0.
         11    1    3    3    0    0 -0.79352627156E+02  0.26098295554E+02  0.12492552029E+03  0.15028089063E+03  0.00000000000E+00 0. -1.
        -11    1    3    3    0    0 -0.60558088607E+03  0.10589991409E+03  0.54673513250E+03  0.82271641924E+03  0.00000000000E+00 0.  1.
          2    1    5    5  502    0  0.21105591654E+02  0.57680042733E+02  0.48926987081E+02  0.78525686203E+02  0.00000000000E+00 0. -1.
          3    1    4    4  503    0  0.70462534788E+02 -0.83211672249E+02 -0.16614411187E+02  0.11029591954E+03  0.00000000000E+00 0. -1.
         -4    1    4    4    0  503  0.33797921829E+03 -0.32168760826E+03 -0.13740381409E+03  0.48640793315E+03  0.00000000000E+00 0.  1.
         -1    1    5    5    0  502  0.25538616850E+03  0.21522102813E+03  0.37751069033E+03  0.50404018423E+03  0.00000000000E+00 0.  1.
<mgrwt>
<rscale>  0 0.19341577E+04</rscale>
<asrwt>0</asrwt>
<pdfrwt beam="1">  1        1 0.92937457E-01 0.19341577E+04</pdfrwt>
<pdfrwt beam="2">  1       -1 0.23818055E+00 0.19341577E+04</pdfrwt>
<totfact> 0.26364255E+00</totfact>
</mgrwt>
</event>
<event>
11    1  0.2045212E-008  0.1852312E+04  0.7818608E-02  0.8678965E-01
          2   -1    0    0  501    0  0.00000000000E+00  0.00000000000E+00  0.49652325419E+04  0.49652325419E+04  0.00000000000E+00 0. -1.
         -2   -1    0    0    0  501 -0.00000000000E+00 -0.00000000000E+00 -0.17275418378E+03  0.17275418378E+03  0.00000000000E+00 0.  1.
         23    2    1    2    0    0  0.53100010952E+03 -0.26827074759E+03  0.29087835534E+04  0.29703595049E+04  0.89908385941E+02 0.  0.
        254    2    1    2    0    0 -0.53100010952E+03  0.26827074759E+03  0.18836948047E+04  0.21676272207E+04  0.89239640314E+03 0.  0.
         24    2    4    4    0    0 -0.96342366462E+02  0.14952807694E+03 -0.27448462470E+02  0.19728208664E+03  0.80785557179E+02 0.  0.
         11    1    3    3    0    0  0.44941841183E+03 -0.24899973100E+03  0.23661845767E+04  0.24213234451E+04  0.00000000000E+00 0. -1.
        -11    1    3    3    0    0  0.81581697691E+02 -0.19271016595E+02  0.54259897669E+03  0.54903605982E+03  0.00000000000E+00 0.  1.
          2    1    5    5  502    0 -0.60028581982E+02  0.85875523449E+02 -0.55797559673E+02  0.11870721902E+03  0.00000000000E+00 0. -1.
          1    1    4    4  503    0 -0.42228624760E+03  0.12799053492E+03  0.16267699031E+04  0.16855526007E+04  0.00000000000E+00 0. -1.
         -2    1    4    4    0  503 -0.12371495458E+02 -0.92478642669E+01  0.28437336403E+03  0.28479253337E+03  0.00000000000E+00 0.  1.
         -1    1    5    5    0  502 -0.36313784480E+02  0.63652553487E+02  0.28349097203E+02  0.78574867616E+02  0.00000000000E+00 0.  1.
<mgrwt>
<rscale>  0 0.18523117E+04</rscale>
<asrwt>0</asrwt>
<pdfrwt beam="1">  1        2 0.76388182E+00 0.18523117E+04</pdfrwt>
<pdfrwt beam="2">  1       -2 0.26577570E-01 0.18523117E+04</pdfrwt>
<totfact> 0.47193008E-01</totfact>
</mgrwt>
</event>
<event>
11    1  0.2045212E-008  0.1607814E+04  0.7818608E-02  0.8815762E-01
         -2   -1    0    0    0  501 -0.00000000000E+00  0.00000000000E+00  0.32940605699E+03  0.32940605699E+03  0.00000000000E+00 0.  1.
          2   -1    0    0  501    0  0.00000000000E+00 -0.00000000000E+00 -0.19619136271E+04  0.19619136271E+04  0.00000000000E+00 0. -1.
         23    2    1    2    0    0 -0.42937044444E+03 -0.22569621893E+02 -0.10528624867E+04  0.11405890377E+04  0.86922784478E+02 0.  0.
        254    2    1    2    0    0  0.42937044444E+03  0.22569621893E+02 -0.57964508340E+03  0.11507306465E+04  0.89628356651E+03 0.  0.
         24    2    4    4    0    0  0.57898811790E+03  0.23764837659E+03 -0.20336389059E+03  0.66298279522E+03  0.80531504432E+02 0.  0.
         11    1    3    3    0    0 -0.39009208956E+03 -0.40474494026E+02 -0.98447453011E+03  0.10597170016E+04  0.00000000000E+00 0. -1.
        -11    1    3    3    0    0 -0.39278354881E+02  0.17904872133E+02 -0.68387956642E+02  0.80872036093E+02  0.00000000000E+00 0.  1.
          2    1    5    5  502    0  0.73785324506E+02  0.91868542134E+01 -0.42572219936E+02  0.85680022835E+02  0.00000000000E+00 0. -1.
          3    1    4    4  503    0 -0.12797942817E+03 -0.41353104363E+02 -0.18069814702E+03  0.22525681702E+03  0.00000000000E+00 0. -1.
         -4    1    4    4    0  503 -0.21638245289E+02 -0.17372565033E+03 -0.19558304579E+03  0.26249103422E+03  0.00000000000E+00 0.  1.
         -1    1    5    5    0  502  0.50520279339E+03  0.22846152237E+03 -0.16079167065E+03  0.57730277239E+03  0.00000000000E+00 0.  1.
<mgrwt>
<rscale>  0 0.16078137E+04</rscale>
<asrwt>0</asrwt>
<pdfrwt beam="1">  1        2 0.30183286E+00 0.16078137E+04</pdfrwt>
<pdfrwt beam="2">  1       -2 0.50677855E-01 0.16078137E+04</pdfrwt>
<totfact> 0.24754169E+01</totfact>
</mgrwt>
</event>
<event>
11    1  0.2045212E-008  0.1698140E+04  0.7818608E-02  0.8762426E-01
          2   -1    0    0  501    0  0.00000000000E+00  0.00000000000E+00  0.13967548925E+04  0.13967548925E+04  0.00000000000E+00 0.  1.
         -2   -1    0    0    0  501 -0.00000000000E+00 -0.00000000000E+00 -0.51613902194E+03  0.51613902194E+03  0.00000000000E+00 0. -1.
         23    2    1    2    0    0  0.28281078815E+03 -0.47081872281E+03  0.60060333011E+03  0.81915141432E+03  0.92911074687E+02 0.  0.
        254    2    1    2    0    0 -0.28281078815E+03  0.47081872281E+03  0.28001254043E+03  0.10937425001E+04  0.90344530663E+03 0.  0.
         24    2    4    4    0    0 -0.46926348667E+03  0.28296011425E+03  0.48300178545E+03  0.73479081481E+03  0.79700505625E+02 0.  0.
         13    1    3    3    0    0  0.15353700807E+03 -0.23831463315E+03  0.37660560337E+03  0.47138016262E+03  0.00000000000E+00 0.  1.
        -13    1    3    3    0    0  0.12927378008E+03 -0.23250408966E+03  0.22399772674E+03  0.34777125170E+03  0.00000000000E+00 0. -1.
          2    1    5    5  502    0 -0.46674601947E+03  0.28380477998E+03  0.48573322442E+03  0.73098137126E+03  0.00000000000E+00 0. -1.
          3    1    4    4  503    0  0.19204153579E+03  0.18270318239E+03 -0.21729557786E+03  0.34275030632E+03  0.00000000000E+00 0. -1.
         -4    1    4    4    0  503 -0.55888372775E+01  0.51554261677E+01  0.14306332835E+02  0.16201378962E+02  0.00000000000E+00 0.  1.
         -1    1    5    5    0  502 -0.25174672020E+01 -0.84466572978E+00 -0.27314389650E+01  0.38094435457E+01  0.00000000000E+00 0.  1.
<mgrwt>
<rscale>  0 0.16981398E+04</rscale>
<asrwt>0</asrwt>
<pdfrwt beam="1">  1        2 0.21488537E+00 0.16981398E+04</pdfrwt>
<pdfrwt beam="2">  1       -2 0.79406004E-01 0.16981398E+04</pdfrwt>
<totfact> 0.19441812E+01</totfact>
</mgrwt>
</event>
<event>
12    1  0.2399697E-008  0.1797869E+04  0.7818608E-02  0.8707433E-01
         -2   -1    0    0    0  501 -0.00000000000E+00  0.00000000000E+00  0.58623932568E+03  0.58623932568E+03  0.00000000000E+00 0.  1.
          2   -1    0    0  501    0  0.00000000000E+00 -0.00000000000E+00 -0.13784189971E+04  0.13784189971E+04  0.00000000000E+00 0. -1.
         23    2    1    2    0    0 -0.49907675586E+03 -0.41696154350E+02  0.18452311803E+03  0.54110447784E+03  0.89045478999E+02 0.  0.
        254    2    1    2    0    0  0.49907675586E+03  0.41696154350E+02 -0.97670278949E+03  0.14235538450E+04  0.90649932878E+03 0.  0.
        -24    2    4    4    0    0 -0.71645327667E+02 -0.30494239472E+03 -0.13770925545E+03  0.34835787986E+03  0.65318116518E+02 0.  0.
         24    2    4    4    0    0  0.57072208352E+03  0.34663854907E+03 -0.83899353403E+03  0.10751959651E+04  0.79083708589E+02 0.  0.
         13    1    3    3    0    0 -0.54657289157E+02 -0.33133735821E+02  0.28916540360E+02  0.70152904529E+02  0.00000000000E+00 0. -1.
        -13    1    3    3    0    0 -0.44441946670E+03 -0.85624185286E+01  0.15560657767E+03  0.47095157331E+03  0.00000000000E+00 0.  1.
          4    1    6    6  502    0  0.21429520007E+03  0.91413827285E+02 -0.26296511070E+03  0.35132544747E+03  0.00000000000E+00 0. -1.
          1    1    5    5  503    0  0.14186801024E+00  0.32741259696E+01 -0.28952817143E+01  0.43729490738E+01  0.00000000000E+00 0. -1.
         -2    1    5    5    0  503 -0.71787195677E+02 -0.30821652069E+03 -0.13481397374E+03  0.34398493078E+03  0.00000000000E+00 0.  1.
         -3    1    6    6    0  502  0.35642688345E+03  0.25522472179E+03 -0.57602842333E+03  0.72387051766E+03  0.00000000000E+00 0.  1.
<mgrwt>
<rscale>  0 0.17978692E+04</rscale>
<asrwt>0</asrwt>
<pdfrwt beam="1">  1        2 0.21206446E+00 0.17978692E+04</pdfrwt>
<pdfrwt beam="2">  1       -2 0.90190666E-01 0.17978692E+04</pdfrwt>
<totfact> 0.14786621E+01</totfact>
</mgrwt>
</event>
<event>
11    1  0.2045212E-008  0.1450590E+04  0.7818608E-02  0.8917992E-01
          2   -1    0    0  501    0  0.00000000000E+00  0.00000000000E+00  0.83500760058E+03  0.83500760058E+03  0.00000000000E+00 0. -1.
         -2   -1    0    0    0  501 -0.00000000000E+00 -0.00000000000E+00 -0.62999727059E+03  0.62999727059E+03  0.00000000000E+00 0.  1.
         23    2    1    2    0    0 -0.76725174599E+02  0.28308213348E+03 -0.27005471507E+03  0.40906337031E+03  0.91548047960E+02 0.  0.
        254    2    1    2    0    0  0.76725174599E+02 -0.28308213348E+03  0.47506504506E+03  0.10559415009E+04  0.89627195063E+03 0.  0.
         24    2    4    4    0    0 -0.21560058577E+03  0.73721007589E+02 -0.13717977638E+03  0.27768208002E+03  0.79816332741E+02 0.  0.
         13    1    3    3    0    0 -0.26725003567E+02  0.10339221278E+03 -0.16041091920E+03  0.19270661244E+03  0.00000000000E+00 0. -1.
        -13    1    3    3    0    0 -0.50000171032E+02  0.17968992070E+03 -0.10964379587E+03  0.21635675787E+03  0.00000000000E+00 0.  1.
          2    1    5    5  502    0 -0.77675546038E+02  0.62193059272E+02 -0.81010389170E+02  0.12831270486E+03  0.00000000000E+00 0. -1.
          3    1    4    4  503    0  0.29518962349E+03 -0.35386624493E+03  0.55723500495E+03  0.72309687031E+03  0.00000000000E+00 0. -1.
         -4    1    4    4    0  503 -0.28638631255E+01 -0.29368961343E+01  0.55009816493E+02  0.55162550535E+02  0.00000000000E+00 0.  1.
         -1    1    5    5    0  502 -0.13792503973E+03  0.11527948317E+02 -0.56169387207E+02  0.14936937516E+03  0.00000000000E+00 0.  1.
<mgrwt>
<rscale>  0 0.14505895E+04</rscale>
<asrwt>0</asrwt>
<pdfrwt beam="1">  1        2 0.12846271E+00 0.14505895E+04</pdfrwt>
<pdfrwt beam="2">  1       -2 0.96922657E-01 0.14505895E+04</pdfrwt>
<totfact> 0.28047796E+01</totfact>
</mgrwt>
</event>
<event>
11    1  0.2045212E-008  0.1146797E+04  0.7818608E-02  0.9160744E-01
          2   -1    0    0  501    0  0.00000000000E+00  0.00000000000E+00  0.23541924922E+04  0.23541924922E+04  0.00000000000E+00 0.  1.
         -2   -1    0    0    0  501 -0.00000000000E+00 -0.00000000000E+00 -0.13965959903E+03  0.13965959903E+03  0.00000000000E+00 0. -1.
         23    2    1    2    0    0  0.50130992964E+02 -0.34987928562E+01  0.85140681508E+03  0.85780903782E+03  0.91746512715E+02 0.  0.
        254    2    1    2    0    0 -0.50130992964E+02  0.34987928562E+01  0.13631260781E+04  0.16360430534E+04  0.90332652448E+03 0.  0.
         24    2    4    4    0    0  0.87905646764E+02 -0.55486129571E+02 -0.96288165829E+02  0.16267003091E+03  0.79900029845E+02 0.  0.
         11    1    3    3    0    0  0.57747520950E+02  0.15087784590E+02  0.29179096439E+03  0.29783281269E+03  0.00000000000E+00 0. -1.
        -11    1    3    3    0    0 -0.76165279860E+01 -0.18586577446E+02  0.55961585069E+03  0.55997622513E+03  0.00000000000E+00 0.  1.
          4    1    5    5  502    0  0.47448191139E+02 -0.57556118356E+02 -0.96738473301E+02  0.12215715214E+03  0.00000000000E+00 0. -1.
          1    1    4    4  503    0 -0.78707475338E+02  0.14988555550E+02  0.12245446488E+04  0.12271630374E+04  0.00000000000E+00 0. -1.
         -2    1    4    4    0  503 -0.59329164390E+02  0.43996366877E+02  0.23486959511E+03  0.24620998508E+03  0.00000000000E+00 0.  1.
         -1    1    5    5    0  502  0.40457455625E+02  0.20699887857E+01  0.45030747175E+00  0.40512878767E+02  0.00000000000E+00 0.  1.
<mgrwt>
<rscale>  0 0.11467965E+04</rscale>
<asrwt>0</asrwt>
<pdfrwt beam="1">  1        2 0.36218343E+00 0.11467965E+04</pdfrwt>
<pdfrwt beam="2">  1       -2 0.21486094E-01 0.11467965E+04</pdfrwt>
<totfact> 0.79165431E+01</totfact>
</mgrwt>
</event>
<event>
12    1  0.2045212E-008  0.3219449E+04  0.7818608E-02  0.8183700E-01
         -2   -1    0    0    0  501 -0.00000000000E+00  0.00000000000E+00  0.94660043383E+03  0.94660043383E+03  0.00000000000E+00 0.  1.
          2   -1    0    0  501    0  0.00000000000E+00 -0.00000000000E+00 -0.27373880705E+04  0.27373880705E+04  0.00000000000E+00 0. -1.
         23    2    1    2    0    0 -0.45713228959E+03 -0.12843430163E+04 -0.15090136300E+04  0.20356811187E+04  0.91479877500E+02 0.  0.
        254    2    1    2    0    0  0.45713228959E+03  0.12843430163E+04 -0.28177400675E+03  0.16483073857E+04  0.88261754641E+03 0.  0.
        -24    2    4    4    0    0  0.42167896808E+03  0.14025602096E+04 -0.30649387664E+03  0.14991254391E+04  0.91925470909E+02 0.  0.
         24    2    4    4    0    0  0.35453321503E+02 -0.11821719330E+03  0.24719869882E+02  0.14918194658E+03  0.80074580374E+02 0.  0.
         11    1    3    3    0    0 -0.16990120527E+03 -0.55703509002E+03 -0.59004078898E+03  0.82903717874E+03  0.00000000000E+00 0. -1.
        -11    1    3    3    0    0 -0.28723108432E+03 -0.72730792624E+03 -0.91897284098E+03  0.12066439400E+04  0.00000000000E+00 0.  1.
          2    1    6    6  502    0 -0.95143249565E+01 -0.83738259988E+02 -0.64260081839E+01  0.84521666727E+02  0.00000000000E+00 0. -1.
          1    1    5    5  503    0  0.30072215570E+03  0.10807216131E+04 -0.20238861927E+03  0.11398921761E+04  0.00000000000E+00 0. -1.
         -2    1    5    5    0  503  0.12095681238E+03  0.32183859650E+03 -0.10410525737E+03  0.35923326303E+03  0.00000000000E+00 0.  1.
         -1    1    6    6    0  502  0.44967646459E+02 -0.34478933309E+02  0.31145878066E+02  0.64660279853E+02  0.00000000000E+00 0.  1.
<mgrwt>
<rscale>  0 0.32194489E+04</rscale>
<asrwt>0</asrwt>
<pdfrwt beam="1">  1        2 0.42113663E+00 0.32194489E+04</pdfrwt>
<pdfrwt beam="2">  1       -2 0.14563084E+00 0.32194489E+04</pdfrwt>
<totfact> 0.68667253E-01</totfact>
</mgrwt>
</event>
<event>
11    1  0.2045212E-008  0.2122528E+04  0.7818608E-02  0.8551384E-01
         -2   -1    0    0    0  501 -0.00000000000E+00  0.00000000000E+00  0.60638258524E+03  0.60638258524E+03  0.00000000000E+00 0.  1.
          2   -1    0    0  501    0  0.00000000000E+00 -0.00000000000E+00 -0.18573765826E+04  0.18573765826E+04  0.00000000000E+00 0. -1.
         23    2    1    2    0    0 -0.27848651863E+03  0.21469229542E+03 -0.14843661602E+04  0.15288397601E+04  0.10178699181E+03 0.  0.
        254    2    1    2    0    0  0.27848651863E+03 -0.21469229542E+03  0.23337216283E+03  0.93491940775E+03  0.83424469422E+03 0.  0.
         24    2    4    4    0    0 -0.13607701522E+03  0.11457495492E+03 -0.10248809853E+03  0.22134958693E+03  0.82749350004E+02 0.  0.
         11    1    3    3    0    0 -0.69022517413E+02  0.79534455712E+01 -0.35651860583E+03  0.36322566197E+03  0.00000000000E+00 0.  1.
        -11    1    3    3    0    0 -0.20946400122E+03  0.20673884985E+03 -0.11278475544E+04  0.11656140981E+04  0.00000000000E+00 0. -1.
          4    1    5    5  502    0 -0.14367455659E+03  0.88265753779E+02 -0.91457051915E+02  0.19182704149E+03  0.00000000000E+00 0. -1.
          3    1    4    4  503    0  0.34391715963E+03 -0.22548857658E+03  0.39904122813E+03  0.57302531585E+03  0.00000000000E+00 0. -1.
         -4    1    4    4    0  503  0.70646374220E+02 -0.10377867376E+03 -0.63180966762E+02  0.14054450498E+03  0.00000000000E+00 0.  1.
         -3    1    5    5    0  502  0.75975413718E+01  0.26309201143E+02 -0.11031046620E+02  0.29522545439E+02  0.00000000000E+00 0.  1.
<mgrwt>
<rscale>  0 0.21225276E+04</rscale>
<asrwt>0</asrwt>
<pdfrwt beam="1">  1        2 0.28575024E+00 0.21225276E+04</pdfrwt>
<pdfrwt beam="2">  1       -2 0.93289629E-01 0.21225276E+04</pdfrwt>
<totfact> 0.71719980E+00</totfact>
</mgrwt>
</event>
<event>
11    1  0.2045212E-008  0.1794131E+04  0.7818608E-02  0.8709427E-01
          2   -1    0    0  501    0  0.00000000000E+00  0.00000000000E+00  0.31036293795E+04  0.31036293795E+04  0.00000000000E+00 0. -1.
         -2   -1    0    0    0  501 -0.00000000000E+00 -0.00000000000E+00 -0.25928555182E+03  0.25928555182E+03  0.00000000000E+00 0.  1.
         23    2    1    2    0    0 -0.45618662601E+03  0.35045963733E+03  0.16767016730E+04  0.17749702341E+04  0.90899047456E+02 0.  0.
        254    2    1    2    0    0  0.45618662601E+03 -0.35045963733E+03  0.11676421547E+04  0.15879446971E+04  0.90953392716E+03 0.  0.
         24    2    4    4    0    0  0.26078195921E+03 -0.30795310730E+03  0.47854092405E+02  0.41254548599E+03  0.71143638569E+02 0.  0.
         13    1    3    3    0    0 -0.44163800010E+03  0.34979888930E+03  0.15856766991E+04  0.16827875624E+04  0.00000000000E+00 0. -1.
        -13    1    3    3    0    0 -0.14548625914E+02  0.66074802662E+00  0.91024973822E+02  0.92182671708E+02  0.00000000000E+00 0.  1.
          4    1    5    5  502    0  0.20671200425E+02 -0.14629756789E+02  0.20339738059E+02  0.32481275453E+02  0.00000000000E+00 0. -1.
          1    1    4    4  503    0 -0.41994352236E+01 -0.13384410579E+03  0.51067854629E+03  0.52794361209E+03  0.00000000000E+00 0. -1.
         -2    1    4    4    0  503  0.19960410203E+03  0.91337575753E+02  0.60910951598E+03  0.64745559906E+03  0.00000000000E+00 0.  1.
         -3    1    5    5    0  502  0.24011075878E+03 -0.29332335051E+03  0.27514354346E+02  0.38006421054E+03  0.00000000000E+00 0.  1.
<mgrwt>
<rscale>  0 0.17941307E+04</rscale>
<asrwt>0</asrwt>
<pdfrwt beam="1">  1        2 0.47748142E+00 0.17941307E+04</pdfrwt>
<pdfrwt beam="2">  1       -2 0.39890087E-01 0.17941307E+04</pdfrwt>
<totfact> 0.84460927E+00</totfact>
</mgrwt>
</event>
<event>
12    1  0.2045212E-008  0.1644857E+04  0.7818608E-02  0.8793455E-01
          2   -1    0    0  501    0  0.00000000000E+00  0.00000000000E+00  0.40781574797E+04  0.40781574797E+04  0.00000000000E+00 0. -1.
         -2   -1    0    0    0  501 -0.00000000000E+00 -0.00000000000E+00 -0.16585650980E+03  0.16585650980E+03  0.00000000000E+00 0.  1.
         23    2    1    2    0    0  0.53756219797E+03 -0.16989424855E+03  0.13554381458E+04  0.14708591225E+04  0.91524962186E+02 0.  0.
        254    2    1    2    0    0 -0.53756219797E+03  0.16989424855E+03  0.25568628240E+04  0.27731548669E+04  0.91378511854E+03 0.  0.
        -24    2    4    4    0    0 -0.32758146518E+03  0.44935447937E+03  0.21854653015E+04  0.22571774927E+04  0.96760453002E+02 0.  0.
         24    2    4    4    0    0 -0.20998073279E+03 -0.27946023083E+03  0.37139752256E+03  0.51597737423E+03  0.78144751616E+02 0.  0.
         11    1    3    3    0    0  0.71567285875E+02 -0.25350985906E+02  0.27649259632E+03  0.28672757927E+03  0.00000000000E+00 0.  1.
        -11    1    3    3    0    0  0.46599491209E+03 -0.14454326264E+03  0.10789455495E+04  0.11841315432E+04  0.00000000000E+00 0. -1.
          4    1    6    6  502    0 -0.95105031850E+00 -0.17526952201E+02  0.44459759251E+02  0.47799254627E+02  0.00000000000E+00 0. -1.
          1    1    5    5  503    0 -0.62617567624E+02  0.11393700259E+03  0.37362501369E+03  0.39559859857E+03  0.00000000000E+00 0. -1.
         -2    1    5    5    0  503 -0.26496389756E+03  0.33541747678E+03  0.18118402878E+04  0.18615788941E+04  0.00000000000E+00 0.  1.
         -3    1    6    6    0  502 -0.20902968247E+03 -0.26193327862E+03  0.32693776330E+03  0.46817811961E+03  0.00000000000E+00 0.  1.
<mgrwt>
<rscale>  0 0.16448574E+04</rscale>
<asrwt>0</asrwt>
<pdfrwt beam="1">  1        2 0.62740877E+00 0.16448574E+04</pdfrwt>
<pdfrwt beam="2">  1       -2 0.25516389E-01 0.16448574E+04</pdfrwt>
<totfact> 0.39783218E+00</totfact>
</mgrwt>
</event>
<event>
11    1  0.2045212E-008  0.1421238E+04  0.7818608E-02  0.8938587E-01
         -2   -1    0    0    0  501 -0.00000000000E+00  0.00000000000E+00  0.13115701038E+04  0.13115701038E+04  0.00000000000E+00 0.  1.
          2   -1    0    0  501    0  0.00000000000E+00 -0.00000000000E+00 -0.38501922349E+03  0.38501922349E+03  0.00000000000E+00 0. -1.
         23    2    1    2    0    0 -0.88388726638E+02 -0.29957097077E+03  0.60633530458E+03  0.68875583885E+03  0.95847641853E+02 0.  0.
        254    2    1    2    0    0  0.88388726638E+02  0.29957097077E+03  0.32021557574E+03  0.10078334885E+04  0.90312512532E+03 0.  0.
         24    2    4    4    0    0 -0.52987555958E+02  0.34188221135E+03  0.56433339279E+03  0.66681342367E+03  0.80478793725E+02 0.  0.
         11    1    3    3    0    0 -0.35500171162E+02 -0.22500110828E+03  0.36008926770E+03  0.42608689442E+03  0.00000000000E+00 0.  1.
        -11    1    3    3    0    0 -0.52888555476E+02 -0.74569862483E+02  0.24624603688E+03  0.26266894443E+03  0.00000000000E+00 0. -1.
          2    1    5    5  502    0  0.68435214986E+01 -0.10046533370E+01  0.14569238997E+02  0.16127797115E+02  0.00000000000E+00 0. -1.
          3    1    4    4  503    0  0.70678153872E+02  0.28081616907E+02  0.13373007268E+01  0.76064229544E+02  0.00000000000E+00 0. -1.
         -4    1    4    4    0  503  0.70698128724E+02 -0.70392857492E+02 -0.24545511778E+03  0.26495583525E+03  0.00000000000E+00 0.  1.
         -1    1    5    5    0  502 -0.59831077456E+02  0.34288686469E+03  0.54976415379E+03  0.65068562655E+03  0.00000000000E+00 0.  1.
<mgrwt>
<rscale>  0 0.14212385E+04</rscale>
<asrwt>0</asrwt>
<pdfrwt beam="1">  1        2 0.59233727E-01 0.14212385E+04</pdfrwt>
<pdfrwt beam="2">  1       -2 0.20178001E+00 0.14212385E+04</pdfrwt>
<totfact> 0.10435796E+01</totfact>
</mgrwt>
</event>
<event>
11    1  0.2045212E-008  0.1554934E+04  0.7818608E-02  0.8848722E-01
         -1   -1    0    0    0  501 -0.00000000000E+00  0.00000000000E+00  0.26175772796E+03  0.26175772796E+03  0.00000000000E+00 0.  1.
          1   -1    0    0  501    0  0.00000000000E+00 -0.00000000000E+00 -0.23092145422E+04  0.23092145422E+04  0.00000000000E+00 0. -1.
         23    2    1    2    0    0  0.43565817984E+03  0.10966029144E+02 -0.24139864256E+03  0.50634686363E+03  0.90529212007E+02 0.  0.
        254    2    1    2    0    0 -0.43565817984E+03 -0.10966029144E+02 -0.18060581717E+04  0.20646254066E+04  0.90050743824E+03 0.  0.
         24    2    4    4    0    0 -0.13362302090E+03 -0.25917752796E+03 -0.10628907787E+03  0.32002449575E+03  0.78039778936E+02 0.  0.
         11    1    3    3    0    0  0.11995148947E+03 -0.23720465770E+02 -0.10308651989E+03  0.15993076911E+03  0.00000000000E+00 0. -1.
        -11    1    3    3    0    0  0.31570669036E+03  0.34686494914E+02 -0.13831212266E+03  0.34641609452E+03  0.00000000000E+00 0.  1.
          2    1    5    5  502    0  0.60860768760E+01 -0.44224945156E+00  0.23683487032E+01  0.65456085964E+01  0.00000000000E+00 0. -1.
          3    1    4    4  503    0 -0.11497895074E+03  0.70654083423E+02 -0.56542196795E+03  0.58130384521E+03  0.00000000000E+00 0. -1.
         -4    1    4    4    0  503 -0.18705620820E+03  0.17755741539E+03 -0.11343471259E+04  0.11632970656E+04  0.00000000000E+00 0.  1.
         -1    1    5    5    0  502 -0.13970909777E+03 -0.25873527850E+03 -0.10865742657E+03  0.31347888715E+03  0.00000000000E+00 0.  1.
<mgrwt>
<rscale>  0 0.15549338E+04</rscale>
<asrwt>0</asrwt>
<pdfrwt beam="1">  1        1 0.35526378E+00 0.15549338E+04</pdfrwt>
<pdfrwt beam="2">  1       -1 0.40270419E-01 0.15549338E+04</pdfrwt>
<totfact> 0.10642945E+01</totfact>
</mgrwt>
</event>
<event>
11    1  0.2045212E-008  0.3400476E+04  0.7818608E-02  0.8137789E-01
         -2   -1    0    0    0  501 -0.00000000000E+00  0.00000000000E+00  0.13845449825E+04  0.13845449825E+04  0.00000000000E+00 0. -1.
          2   -1    0    0  501    0  0.00000000000E+00 -0.00000000000E+00 -0.20879130812E+04  0.20879130812E+04  0.00000000000E+00 0.  1.
         23    2    1    2    0    0  0.14357763955E+04  0.56593275413E+03 -0.67055809408E+03  0.16850958671E+04  0.90366938418E+02 0.  0.
        254    2    1    2    0    0 -0.14357763955E+04 -0.56593275413E+03 -0.32810004651E+02  0.17873621965E+04  0.90102907002E+03 0.  0.
         24    2    4    4    0    0 -0.73921988131E+02 -0.36667740873E+03  0.60084163924E+01  0.38291934605E+03  0.81696646846E+02 0.  0.
         11    1    3    3    0    0  0.13875960668E+04  0.56247756639E+03 -0.64311106110E+03  0.16295384912E+04  0.00000000000E+00 0.  1.
        -11    1    3    3    0    0  0.48180328699E+02  0.34551877360E+01 -0.27447032975E+02  0.55557375883E+02  0.00000000000E+00 0. -1.
          2    1    5    5  502    0 -0.33860416790E+01 -0.16754578073E+01  0.10477226444E+02  0.11137536132E+02  0.00000000000E+00 0. -1.
          1    1    4    4  503    0 -0.31054283889E+03 -0.20448049950E+01 -0.11719368557E+03  0.33192679306E+03  0.00000000000E+00 0. -1.
         -2    1    4    4    0  503 -0.10513115685E+04 -0.19721054040E+03  0.78375264526E+02  0.10725160574E+04  0.00000000000E+00 0.  1.
         -1    1    5    5    0  502 -0.70535946452E+02 -0.36500195093E+03 -0.44688100520E+01  0.37178180992E+03  0.00000000000E+00 0.  1.
<mgrwt>
<rscale>  0 0.34004762E+04</rscale>
<asrwt>0</asrwt>
<pdfrwt beam="1">  1        2 0.32121740E+00 0.34004762E+04</pdfrwt>
<pdfrwt beam="2">  1       -2 0.21300692E+00 0.34004762E+04</pdfrwt>
<totfact> 0.54150100E-01</totfact>
</mgrwt>
</event>
<event>
11    1  0.2045212E-008  0.1886567E+04  0.7818608E-02  0.8661572E-01
          1   -1    0    0  501    0  0.00000000000E+00  0.00000000000E+00  0.90093678511E+03  0.90093678511E+03  0.00000000000E+00 0. -1.
         -1   -1    0    0    0  501 -0.00000000000E+00 -0.00000000000E+00 -0.98762064189E+03  0.98762064189E+03  0.00000000000E+00 0.  1.
         23    2    1    2    0    0  0.25642575025E+03  0.67663418174E+03 -0.33451559466E+03  0.80253887760E+03  0.92628212230E+02 0.  0.
        254    2    1    2    0    0 -0.25642575025E+03 -0.67663418174E+03  0.24783173788E+03  0.10860185494E+04  0.77099139946E+03 0.  0.
         24    2    4    4    0    0 -0.17891530930E+02 -0.73118265589E+03  0.31313834174E+03  0.79978645960E+03  0.81575589113E+02 0.  0.
         11    1    3    3    0    0  0.23782590870E+03  0.64199655341E+03 -0.33712974815E+03  0.76313642589E+03  0.00000000000E+00 0.  1.
        -11    1    3    3    0    0  0.18599841542E+02  0.34637628337E+02  0.26141534932E+01  0.39402451709E+02  0.00000000000E+00 0. -1.
          2    1    5    5  502    0  0.86211253929E+01 -0.39996780215E+03  0.13157331913E+03  0.42114143095E+03  0.00000000000E+00 0. -1.
          1    1    4    4  503    0 -0.16890236299E+03  0.88433927761E+02 -0.97062101237E+01  0.19089991702E+03  0.00000000000E+00 0. -1.
         -2    1    4    4    0  503 -0.69631856329E+02 -0.33885453611E+02 -0.55600393738E+02  0.95332172775E+02  0.00000000000E+00 0.  1.
         -1    1    5    5    0  502 -0.26512656323E+02 -0.33121485374E+03  0.18156502261E+03  0.37864502865E+03  0.00000000000E+00 0.  1.
<mgrwt>
<rscale>  0 0.18865670E+04</rscale>
<asrwt>0</asrwt>
<pdfrwt beam="1">  1        1 0.13860566E+00 0.18865670E+04</pdfrwt>
<pdfrwt beam="2">  1       -1 0.15194164E+00 0.18865670E+04</pdfrwt>
<totfact> 0.57335618E+00</totfact>
</mgrwt>
</event>
<event>
11    1  0.2045212E-008  0.2445617E+04  0.7818608E-02  0.8422620E-01
          2   -1    0    0  501    0  0.00000000000E+00  0.00000000000E+00  0.13392113594E+04  0.13392113594E+04  0.00000000000E+00 0. -1.
         -2   -1    0    0    0  501 -0.00000000000E+00 -0.00000000000E+00 -0.11165233608E+04  0.11165233608E+04  0.00000000000E+00 0.  1.
         23    2    1    2    0    0 -0.82713796813E+02  0.10497376928E+04  0.24580289979E+03  0.10853928824E+04  0.94169250632E+02 0.  0.
        254    2    1    2    0    0  0.82713796813E+02 -0.10497376928E+04 -0.23114901156E+02  0.13703418378E+04  0.87664796691E+03 0.  0.
         24    2    4    4    0    0 -0.15551276710E+03  0.50621367916E+02 -0.10402675721E+03  0.20890999563E+03  0.77942776696E+02 0.  0.
         11    1    3    3    0    0 -0.21931665639E+02  0.27440899423E+03  0.22194132116E+02  0.27617725028E+03  0.00000000000E+00 0.  1.
        -11    1    3    3    0    0 -0.60782131174E+02  0.77532869854E+03  0.22360876767E+03  0.80921563210E+03  0.00000000000E+00 0. -1.
          2    1    5    5  502    0  0.61977420488E+01 -0.55355597806E-01  0.45118157083E+01  0.76662606094E+01  0.00000000000E+00 0. -1.
          1    1    4    4  503    0  0.16830972904E+03 -0.65298560370E+03 -0.83983581847E+02  0.67953778817E+03  0.00000000000E+00 0. -1.
         -2    1    4    4    0  503  0.69916834869E+02 -0.44737345698E+03  0.16489543790E+03  0.48189405397E+03  0.00000000000E+00 0.  1.
         -3    1    5    5    0  502 -0.16171050915E+03  0.50676723513E+02 -0.10853857292E+03  0.20124373502E+03  0.00000000000E+00 0.  1.
<mgrwt>
<rscale>  0 0.24456171E+04</rscale>
<asrwt>0</asrwt>
<pdfrwt beam="1">  1        2 0.20603252E+00 0.24456171E+04</pdfrwt>
<pdfrwt beam="2">  1       -2 0.17177283E+00 0.24456171E+04</pdfrwt>
<totfact> 0.29098048E+00</totfact>
</mgrwt>
</event>
<event>
12    1  0.2045212E-008  0.1792748E+04  0.7818608E-02  0.8710165E-01
          2   -1    0    0  501    0  0.00000000000E+00  0.00000000000E+00  0.34733631355E+04  0.34733631355E+04  0.00000000000E+00 0.  1.
         -2   -1    0    0    0  501 -0.00000000000E+00 -0.00000000000E+00 -0.23132812051E+03  0.23132812051E+03  0.00000000000E+00 0. -1.
         23    2    1    2    0    0 -0.23141643187E+03 -0.20102911611E+03 -0.78807169817E+01  0.31982721042E+03  0.90890419519E+02 0.  0.
        254    2    1    2    0    0  0.23141643187E+03  0.20102911611E+03  0.32499157320E+04  0.33848640456E+04  0.89520169332E+03 0.  0.
        -24    2    4    4    0    0 -0.30729807059E+03  0.21264376876E+03  0.16272593126E+04  0.16729389497E+04  0.10536784253E+03 0.  0.
         24    2    4    4    0    0  0.53871450246E+03 -0.11614652648E+02  0.16226564193E+04  0.17119250959E+04  0.85588921260E+02 0.  0.
         11    1    3    3    0    0 -0.16981342469E+03 -0.94384942164E+02 -0.23441016747E+02  0.19569005539E+03  0.00000000000E+00 0. -1.
        -11    1    3    3    0    0 -0.61603007187E+02 -0.10664417395E+03  0.15560299765E+02  0.12413715504E+03  0.00000000000E+00 0.  1.
          2    1    6    6  502    0  0.18529915540E+03 -0.43851736655E+02  0.59372301344E+03  0.62351084071E+03  0.00000000000E+00 0. -1.
          3    1    5    5  503    0 -0.13154312352E+03  0.13711949586E+03  0.96865003248E+03  0.98711105501E+03  0.00000000000E+00 0. -1.
         -4    1    5    5    0  503 -0.17575494707E+03  0.75524272902E+02  0.65860928015E+03  0.68582789468E+03  0.00000000000E+00 0.  1.
         -1    1    6    6    0  502  0.35341534706E+03  0.32237084007E+02  0.10289334059E+04  0.10884142552E+04  0.00000000000E+00 0.  1.
<mgrwt>
<rscale>  0 0.17927482E+04</rscale>
<asrwt>0</asrwt>
<pdfrwt beam="1">  1        2 0.53436352E+00 0.17927482E+04</pdfrwt>
<pdfrwt beam="2">  1       -2 0.35588944E-01 0.17927482E+04</pdfrwt>
<totfact> 0.59953787E+00</totfact>
</mgrwt>
</event>
<event>
12    1  0.2045212E-008  0.2296903E+04  0.7818608E-02  0.8479143E-01
         -1   -1    0    0    0  501 -0.00000000000E+00  0.00000000000E+00  0.47503957436E+03  0.47503957436E+03  0.00000000000E+00 0.  1.
          1   -1    0    0  501    0  0.00000000000E+00 -0.00000000000E+00 -0.27764871714E+04  0.27764871714E+04  0.00000000000E+00 0. -1.
         23    2    1    2    0    0  0.31633964193E+03 -0.31388032829E+03 -0.21863515646E+04  0.22330284246E+04  0.87699209971E+02 0.  0.
        254    2    1    2    0    0 -0.31633964193E+03  0.31388032829E+03 -0.11509603243E+03  0.10184983212E+04  0.90857036271E+03 0.  0.
        -24    2    4    4    0    0  0.11434125785E+03  0.40366314715E+03 -0.31120952632E+03  0.53032940633E+03  0.91542614841E+02 0.  0.
         24    2    4    4    0    0 -0.43068089978E+03 -0.89782818855E+02  0.19611349388E+03  0.48816891484E+03  0.79381326083E+02 0.  0.
         13    1    3    3    0    0  0.48397582990E+02 -0.15363369274E+02 -0.18309547379E+03  0.19000608326E+03  0.00000000000E+00 0.  1.
        -13    1    3    3    0    0  0.26794205894E+03 -0.29851695902E+03 -0.20032560908E+04  0.20430223413E+04  0.00000000000E+00 0. -1.
          4    1    6    6  502    0 -0.19727106884E+03 -0.76140352258E+02  0.71435375275E+02  0.22319552120E+03  0.00000000000E+00 0. -1.
          3    1    5    5  503    0  0.41207035094E+02  0.39224516314E+02 -0.30603233216E+02  0.64599847559E+02  0.00000000000E+00 0. -1.
         -4    1    5    5    0  503  0.73134222759E+02  0.36443863083E+03 -0.28060629310E+03  0.46572955877E+03  0.00000000000E+00 0.  1.
         -3    1    6    6    0  502 -0.23340983095E+03 -0.13642466598E+02  0.12467811861E+03  0.26497339364E+03  0.00000000000E+00 0.  1.
<mgrwt>
<rscale>  0 0.22969034E+04</rscale>
<asrwt>0</asrwt>
<pdfrwt beam="1">  1        1 0.42715188E+00 0.22969034E+04</pdfrwt>
<pdfrwt beam="2">  1       -1 0.73083010E-01 0.22969034E+04</pdfrwt>
<totfact> 0.14782026E+00</totfact>
</mgrwt>
</event>
<event>
12    1  0.2045212E-008  0.2309333E+04  0.7818608E-02  0.8474250E-01
          3   -1    0    0  501    0  0.00000000000E+00  0.00000000000E+00  0.27015507956E+04  0.27015507956E+04  0.00000000000E+00 0. -1.
         -3   -1    0    0    0  501 -0.00000000000E+00 -0.00000000000E+00 -0.49351478405E+03  0.49351478405E+03  0.00000000000E+00 0.  1.
         23    2    1    2    0    0  0.44404624743E+03 -0.30250462695E+03  0.18881410011E+04  0.19652368367E+04  0.91614763007E+02 0.  0.
        254    2    1    2    0    0 -0.44404624743E+03  0.30250462695E+03  0.31989501044E+03  0.12298287430E+04  0.10589899906E+04 0.  0.
        -24    2    4    4    0    0  0.94268002006E+02  0.47499202081E+03  0.42268437337E+03  0.64997346624E+03  0.96434181126E+02 0.  0.
         24    2    4    4    0    0 -0.53831424943E+03 -0.17248739386E+03 -0.10278936293E+03  0.57985527678E+03  0.78309365328E+02 0.  0.
         11    1    3    3    0    0  0.10853291802E+03 -0.10664194410E+03  0.42581021132E+03  0.45217942744E+03  0.00000000000E+00 0.  1.
        -11    1    3    3    0    0  0.33551332941E+03 -0.19586268285E+03  0.14623307898E+04  0.15130574092E+04  0.00000000000E+00 0. -1.
          4    1    6    6  502    0 -0.15256829687E+03 -0.85945963479E+02 -0.24031363499E+02  0.17675208706E+03  0.00000000000E+00 0. -1.
          3    1    5    5  503    0  0.46595383578E+02  0.24171577551E+03  0.15129127697E+03  0.28894064510E+03  0.00000000000E+00 0. -1.
         -4    1    5    5    0  503  0.47672618429E+02  0.23327624530E+03  0.27139309640E+03  0.36103282114E+03  0.00000000000E+00 0.  1.
         -3    1    6    6    0  502 -0.38574595256E+03 -0.86541430385E+02 -0.78757999429E+02  0.40310318973E+03  0.00000000000E+00 0.  1.
<mgrwt>
<rscale>  0 0.23093335E+04</rscale>
<asrwt>0</asrwt>
<pdfrwt beam="1">  1        3 0.41562319E+00 0.23093335E+04</pdfrwt>
<pdfrwt beam="2">  1       -3 0.75925353E-01 0.23093335E+04</pdfrwt>
<totfact> 0.35563407E-02</totfact>
</mgrwt>
</event>
<event>
12    1  0.2045212E-008  0.3997806E+04  0.7818608E-02  0.8004989E-01
          2   -1    0    0  501    0  0.00000000000E+00  0.00000000000E+00  0.33789705415E+04  0.33789705415E+04  0.00000000000E+00 0. -1.
         -2   -1    0    0    0  501 -0.00000000000E+00 -0.00000000000E+00 -0.11824941999E+04  0.11824941999E+04  0.00000000000E+00 0.  1.
         23    2    1    2    0    0 -0.89709900712E+03 -0.84266065466E+03  0.26922964324E+04  0.29617349950E+04  0.92468876925E+02 0.  0.
        254    2    1    2    0    0  0.89709900712E+03  0.84266065466E+03 -0.49582009077E+03  0.15997297464E+04  0.89355139280E+03 0.  0.
        -24    2    4    4    0    0  0.92316050798E+03  0.67574804899E+03 -0.68161330141E+03  0.13361410004E+04  0.10869834898E+03 0.  0.
         24    2    4    4    0    0 -0.26061500864E+02  0.16691260567E+03  0.18579321064E+03  0.26358874599E+03  0.80130456959E+02 0.  0.
         13    1    3    3    0    0 -0.71623790451E+03 -0.66955337294E+03  0.22294793203E+04  0.24355443939E+04  0.00000000000E+00 0. -1.
        -13    1    3    3    0    0 -0.18086110260E+03 -0.17310728172E+03  0.46281711216E+03  0.52619060114E+03  0.00000000000E+00 0.  1.
          2    1    6    6  502    0  0.28365591511E+02  0.70328924686E+02  0.82580498365E+02  0.11211736324E+03  0.00000000000E+00 0. -1.
          1    1    5    5  503    0  0.82752580160E+01 -0.40442208083E+01 -0.33403750573E+01  0.97976386288E+01  0.00000000000E+00 0. -1.
         -2    1    5    5    0  503  0.91488524996E+03  0.67979226980E+03 -0.67827292635E+03  0.13263433618E+04  0.00000000000E+00 0.  1.
         -1    1    6    6    0  502 -0.54427092375E+02  0.96583680984E+02  0.10321271228E+03  0.15147138275E+03  0.00000000000E+00 0.  1.
<mgrwt>
<rscale>  0 0.39978059E+04</rscale>
<asrwt>0</asrwt>
<pdfrwt beam="1">  1        2 0.51984162E+00 0.39978059E+04</pdfrwt>
<pdfrwt beam="2">  1       -2 0.18192219E+00 0.39978059E+04</pdfrwt>
<totfact> 0.13654465E-01</totfact>
</mgrwt>
</event>
<event>
12    1  0.2045212E-008  0.1159457E+04  0.7818608E-02  0.9149103E-01
          2   -1    0    0  501    0  0.00000000000E+00  0.00000000000E+00  0.40885106005E+04  0.40885106005E+04  0.00000000000E+00 0. -1.
         -2   -1    0    0    0  501 -0.00000000000E+00 -0.00000000000E+00 -0.82202317288E+02  0.82202317288E+02  0.00000000000E+00 0.  1.
         23    2    1    2    0    0  0.17473536560E+02 -0.17330445549E+02  0.34381242247E+02  0.99615909840E+02  0.90197510231E+02 0.  0.
        254    2    1    2    0    0 -0.17473536560E+02  0.17330445549E+02  0.39719270409E+04  0.40710970079E+04  0.89276019207E+03 0.  0.
        -24    2    4    4    0    0 -0.34875602333E+03  0.26403416061E+03  0.25411520821E+04  0.25794103081E+04  0.67519115765E+02 0.  0.
         24    2    4    4    0    0  0.33128248677E+03 -0.24670371506E+03  0.14307749588E+04  0.14916866999E+04  0.86031498582E+02 0.  0.
         11    1    3    3    0    0 -0.13733497649E+02 -0.10191838430E+02  0.57589529323E+02  0.60075256270E+02  0.00000000000E+00 0. -1.
        -11    1    3    3    0    0  0.31207034209E+02 -0.71386071187E+01 -0.23208287076E+02  0.39540653570E+02  0.00000000000E+00 0.  1.
          2    1    6    6  502    0  0.29273047252E+03 -0.17877349497E+03  0.11278492939E+04  0.11788533080E+04  0.00000000000E+00 0. -1.
          1    1    5    5  503    0 -0.31976058595E+03  0.21755684645E+03  0.21617662925E+04  0.21960900066E+04  0.00000000000E+00 0. -1.
         -4    1    5    5    0  503 -0.28995437376E+02  0.46477314158E+02  0.37938578969E+03  0.38332030149E+03  0.00000000000E+00 0.  1.
         -1    1    6    6    0  502  0.38552014250E+02 -0.67930220095E+02  0.30292566492E+03  0.31283339188E+03  0.00000000000E+00 0.  1.
<mgrwt>
<rscale>  0 0.11594568E+04</rscale>
<asrwt>0</asrwt>
<pdfrwt beam="1">  1        2 0.62900147E+00 0.11594568E+04</pdfrwt>
<pdfrwt beam="2">  1       -2 0.12646514E-01 0.11594568E+04</pdfrwt>
<totfact> 0.14019205E+01</totfact>
</mgrwt>
</event>
<event>
12    1  0.2045212E-008  0.1497977E+04  0.7818608E-02  0.8885799E-01
         -2   -1    0    0    0  501 -0.00000000000E+00  0.00000000000E+00  0.35588780338E+03  0.35588780338E+03  0.00000000000E+00 0.  1.
          2   -1    0    0  501    0  0.00000000000E+00 -0.00000000000E+00 -0.15762949285E+04  0.15762949285E+04  0.00000000000E+00 0. -1.
         23    2    1    2    0    0  0.22451540313E+03 -0.91160954930E+02 -0.91970349480E+03  0.95529597064E+03  0.89545447801E+02 0.  0.
        254    2    1    2    0    0 -0.22451540313E+03  0.91160954930E+02 -0.30070363032E+03  0.97688676124E+03  0.89731130888E+03 0.  0.
        -24    2    4    4    0    0 -0.12601843082E+03  0.31788633630E+03 -0.52561579163E+03  0.63442578997E+03  0.96393749091E+02 0.  0.
         24    2    4    4    0    0 -0.98496972315E+02 -0.22672538137E+03  0.22491216130E+03  0.34246097127E+03  0.74752822214E+02 0.  0.
         11    1    3    3    0    0  0.90419221553E+02 -0.32013977616E+02 -0.53678655527E+03  0.54528922262E+03  0.00000000000E+00 0. -1.
        -11    1    3    3    0    0  0.13409618158E+03 -0.59146977314E+02 -0.38291693953E+03  0.41000674801E+03  0.00000000000E+00 0.  1.
          2    1    6    6  502    0 -0.84840680771E+02 -0.20484056953E+03  0.22605947068E+03  0.31663936004E+03  0.00000000000E+00 0. -1.
          3    1    5    5  503    0 -0.10835739187E+03  0.31202224151E+03 -0.51793690926E+03  0.61429459183E+03  0.00000000000E+00 0. -1.
         -4    1    5    5    0  503 -0.17661038949E+02  0.58640947905E+01 -0.76788823612E+01  0.20131198145E+02  0.00000000000E+00 0.  1.
         -1    1    6    6    0  502 -0.13656291545E+02 -0.21884811837E+02 -0.11473093777E+01  0.25821611234E+02  0.00000000000E+00 0.  1.
<mgrwt>
<rscale>  0 0.14979775E+04</rscale>
<asrwt>0</asrwt>
<pdfrwt beam="1">  1        2 0.24250691E+00 0.14979775E+04</pdfrwt>
<pdfrwt beam="2">  1       -2 0.54751969E-01 0.14979775E+04</pdfrwt>
<totfact> 0.34865443E+01</totfact>
</mgrwt>
</event>
<event>
11    1  0.2045212E-008  0.1766858E+04  0.7818608E-02  0.8724125E-01
         -2   -1    0    0    0  501 -0.00000000000E+00  0.00000000000E+00  0.95448825490E+03  0.95448825490E+03  0.00000000000E+00 0.  1.
          2   -1    0    0  501    0  0.00000000000E+00 -0.00000000000E+00 -0.81765963773E+03  0.81765963773E+03  0.00000000000E+00 0. -1.
         23    2    1    2    0    0 -0.15235387939E+03 -0.53261227010E+03  0.39024166156E+03  0.68377775528E+03  0.91520103677E+02 0.  0.
        254    2    1    2    0    0  0.15235387939E+03  0.53261227010E+03 -0.25341304439E+03  0.10883701373E+04  0.90191122066E+03 0.  0.
         24    2    4    4    0    0 -0.21055224866E+03  0.23499128555E+03  0.23341613213E+03  0.40054503368E+03  0.80000497331E+02 0.  0.
         13    1    3    3    0    0 -0.11997020166E+01 -0.12769951478E+03  0.11108130564E+03  0.16925620172E+03  0.00000000000E+00 0. -1.
        -13    1    3    3    0    0 -0.15115417737E+03 -0.40491275532E+03  0.27916035593E+03  0.51452155356E+03  0.00000000000E+00 0.  1.
          4    1    5    5  502    0 -0.10455421683E+03  0.16426931443E+03  0.11250977463E+03  0.22488761928E+03  0.00000000000E+00 0. -1.
          3    1    4    4  503    0  0.65754449833E+02  0.30900711838E+02 -0.14505088306E+03  0.16222903668E+03  0.00000000000E+00 0. -1.
         -4    1    4    4    0  503  0.29715167821E+03  0.26672027271E+03 -0.34177829347E+03  0.52559606698E+03  0.00000000000E+00 0.  1.
         -3    1    5    5    0  502 -0.10599803182E+03  0.70721971120E+02  0.12090635750E+03  0.17565741440E+03  0.00000000000E+00 0.  1.
<mgrwt>
<rscale>  0 0.17668577E+04</rscale>
<asrwt>0</asrwt>
<pdfrwt beam="1">  1        2 0.12579379E+00 0.17668577E+04</pdfrwt>
<pdfrwt beam="2">  1       -2 0.14684435E+00 0.17668577E+04</pdfrwt>
<totfact> 0.10033189E+01</totfact>
</mgrwt>
</event>
<event>
12    1  0.2045212E-008  0.1984150E+04  0.7818608E-02  0.8614067E-01
         -1   -1    0    0    0  501 -0.00000000000E+00  0.00000000000E+00  0.82013015858E+03  0.82013015858E+03  0.00000000000E+00 0.  1.
          1   -1    0    0  501    0  0.00000000000E+00 -0.00000000000E+00 -0.12000687252E+04  0.12000687252E+04  0.00000000000E+00 0. -1.
         23    2    1    2    0    0  0.75301761002E+03  0.21312029558E+03 -0.21177987145E+03  0.81558415688E+03  0.88718778238E+02 0.  0.
        254    2    1    2    0    0 -0.75301761002E+03 -0.21312029558E+03 -0.16815869514E+03  0.12046147269E+04  0.90020192847E+03 0.  0.
        -24    2    4    4    0    0 -0.44690979046E+03 -0.53508500786E+03  0.45486070912E+02  0.70526825585E+03  0.96384664823E+02 0.  0.
         24    2    4    4    0    0 -0.30610781956E+03  0.32196471229E+03 -0.21364476605E+03  0.49934647101E+03  0.79621221364E+02 0.  0.
         11    1    3    3    0    0  0.46567348070E+03  0.10997178428E+03 -0.16823788365E+03  0.50719776169E+03  0.00000000000E+00 0. -1.
        -11    1    3    3    0    0  0.28734412932E+03  0.10314851129E+03 -0.43541987794E+02  0.30838639519E+03  0.00000000000E+00 0.  1.
          2    1    6    6  502    0 -0.91606950136E+02  0.15195546799E+03 -0.91274457225E+02  0.19953276449E+03  0.00000000000E+00 0. -1.
          3    1    5    5  503    0 -0.35889691300E+03 -0.36680460358E+03  0.47287410703E+02  0.51535299609E+03  0.00000000000E+00 0. -1.
         -4    1    5    5    0  503 -0.88012877465E+02 -0.16828040429E+03 -0.18013397911E+01  0.18991525976E+03  0.00000000000E+00 0.  1.
         -1    1    6    6    0  502 -0.21450086942E+03  0.17000924430E+03 -0.12237030883E+03  0.29981370651E+03  0.00000000000E+00 0.  1.
<mgrwt>
<rscale>  0 0.19841497E+04</rscale>
<asrwt>0</asrwt>
<pdfrwt beam="1">  1        1 0.18462596E+00 0.19841497E+04</pdfrwt>
<pdfrwt beam="2">  1       -1 0.12617387E+00 0.19841497E+04</pdfrwt>
<totfact> 0.54266516E+00</totfact>
</mgrwt>
</event>
<event>
11    1  0.2045212E-008  0.2501977E+04  0.7818608E-02  0.8402282E-01
          2   -1    0    0  501    0  0.00000000000E+00  0.00000000000E+00  0.23990229488E+04  0.23990229488E+04  0.00000000000E+00 0. -1.
         -2   -1    0    0    0  501 -0.00000000000E+00 -0.00000000000E+00 -0.65233738613E+03  0.65233738613E+03  0.00000000000E+00 0.  1.
         23    2    1    2    0    0 -0.39191849136E+03 -0.31606386597E+03  0.19345690866E+04  0.20009614857E+04  0.88277092584E+02 0.  0.
        254    2    1    2    0    0  0.39191849136E+03  0.31606386597E+03 -0.18788352393E+03  0.10503988493E+04  0.90251928107E+03 0.  0.
         24    2    4    4    0    0 -0.12679055990E+03 -0.19485150183E+03  0.69288124626E+02  0.25350038276E+03  0.73611452912E+02 0.  0.
         11    1    3    3    0    0 -0.36536202241E+03 -0.29934001843E+03  0.17034190738E+04  0.17676906956E+04  0.00000000000E+00 0. -1.
        -11    1    3    3    0    0 -0.26556468948E+02 -0.16723847539E+02  0.23115001279E+03  0.23327079014E+03  0.00000000000E+00 0.  1.
          2    1    5    5  502    0  0.12223625742E+01  0.45935452116E+01  0.69952669013E+01  0.84574574723E+01  0.00000000000E+00 0. -1.
          3    1    4    4  503    0  0.62722963735E+02  0.65021498367E+01 -0.64402694247E+02  0.90134095427E+02  0.00000000000E+00 0. -1.
         -4    1    4    4    0  503  0.45598608752E+03  0.50441321796E+03 -0.19276895431E+03  0.70676437107E+03  0.00000000000E+00 0.  1.
         -1    1    5    5    0  502 -0.12801292247E+03 -0.19944504704E+03  0.62292857725E+02  0.24504292529E+03  0.00000000000E+00 0.  1.
<mgrwt>
<rscale>  0 0.25019771E+04</rscale>
<asrwt>0</asrwt>
<pdfrwt beam="1">  1        2 0.36908045E+00 0.25019771E+04</pdfrwt>
<pdfrwt beam="2">  1       -2 0.10035960E+00 0.25019771E+04</pdfrwt>
<totfact> 0.29066585E+00</totfact>
</mgrwt>
</event>
<event>
12    1  0.2045212E-008  0.1636049E+04  0.7818608E-02  0.8798703E-01
          2   -1    0    0  501    0  0.00000000000E+00  0.00000000000E+00  0.17525572040E+04  0.17525572040E+04  0.00000000000E+00 0.  1.
         -2   -1    0    0    0  501 -0.00000000000E+00 -0.00000000000E+00 -0.38182163223E+03  0.38182163223E+03  0.00000000000E+00 0. -1.
         23    2    1    2    0    0  0.17818563044E+03 -0.37704353615E+03  0.98379854284E+03  0.10725806163E+04  0.93046539316E+02 0.  0.
        254    2    1    2    0    0 -0.17818563044E+03  0.37704353615E+03  0.38693702889E+03  0.10617982199E+04  0.89653959670E+03 0.  0.
        -24    2    4    4    0    0 -0.35117111404E+03 -0.16952314747E+03  0.22075199602E+03  0.45834216398E+03  0.96368286624E+02 0.  0.
         24    2    4    4    0    0  0.17298548360E+03  0.54656668362E+03  0.16618503287E+03  0.60345605594E+03  0.88784171586E+02 0.  0.
         13    1    3    3    0    0  0.13010315414E+03 -0.33359289913E+03  0.88191336649E+03  0.95183099291E+03  0.00000000000E+00 0.  1.
        -13    1    3    3    0    0  0.48082476302E+02 -0.43450637019E+02  0.10188517636E+03  0.12074962338E+03  0.00000000000E+00 0. -1.
          2    1    6    6  502    0  0.16311761274E+03  0.48788519980E+03  0.12028943543E+03  0.52830755441E+03  0.00000000000E+00 0. -1.
          3    1    5    5  503    0 -0.28893144896E+03 -0.11761464896E+03  0.21123065451E+03  0.37673993318E+03  0.00000000000E+00 0. -1.
         -4    1    5    5    0  503 -0.62239665080E+02 -0.51908498507E+02  0.95213415111E+01  0.81602230795E+02  0.00000000000E+00 0.  1.
         -1    1    6    6    0  502  0.98678708649E+01  0.58681483817E+02  0.45895597436E+02  0.75148501531E+02  0.00000000000E+00 0.  1.
<mgrwt>
<rscale>  0 0.16360492E+04</rscale>
<asrwt>0</asrwt>
<pdfrwt beam="1">  1        2 0.26962418E+00 0.16360492E+04</pdfrwt>
<pdfrwt beam="2">  1       -2 0.58741791E-01 0.16360492E+04</pdfrwt>
<totfact> 0.23745500E+01</totfact>
</mgrwt>
</event>
<event>
11    1  0.2045212E-008  0.1732695E+04  0.7818608E-02  0.8742934E-01
         -2   -1    0    0    0  501 -0.00000000000E+00  0.00000000000E+00  0.18992696300E+03  0.18992696300E+03  0.00000000000E+00 0.  1.
          2   -1    0    0  501    0  0.00000000000E+00 -0.00000000000E+00 -0.39518225731E+04  0.39518225731E+04  0.00000000000E+00 0. -1.
         23    2    1    2    0    0 -0.22443939196E+03 -0.56921747888E+03 -0.10451016131E+04  0.12144117258E+04  0.90426097557E+02 0.  0.
        254    2    1    2    0    0  0.22443939196E+03  0.56921747888E+03 -0.27167939970E+04  0.29273378103E+04  0.90219479860E+03 0.  0.
         24    2    4    4    0    0  0.63815048875E+02 -0.21606497276E+03 -0.35211233980E+03  0.42548003493E+03  0.79333015593E+02 0.  0.
         13    1    3    3    0    0 -0.80648503110E+02 -0.14872026512E+03 -0.36040533787E+03  0.39813804876E+03  0.00000000000E+00 0. -1.
        -13    1    3    3    0    0 -0.14379088885E+03 -0.42049721376E+03 -0.68469627528E+03  0.81627367707E+03  0.00000000000E+00 0.  1.
          4    1    5    5  502    0  0.81567461318E+02 -0.15528851588E+03 -0.25247897382E+03  0.30743032727E+03  0.00000000000E+00 0. -1.
          1    1    4    4  503    0  0.11258115039E+02  0.36915712941E+03 -0.93207315811E+03  0.10025787268E+04  0.00000000000E+00 0. -1.
         -2    1    4    4    0  503  0.14936622804E+03  0.41612532223E+03 -0.14326084991E+04  0.14992790486E+04  0.00000000000E+00 0.  1.
         -3    1    5    5    0  502 -0.17752412443E+02 -0.60776456887E+02 -0.99633365984E+02  0.11804970765E+03  0.00000000000E+00 0.  1.
<mgrwt>
<rscale>  0 0.17326946E+04</rscale>
<asrwt>0</asrwt>
<pdfrwt beam="1">  1        2 0.60797273E+00 0.17326946E+04</pdfrwt>
<pdfrwt beam="2">  1       -2 0.29219531E-01 0.17326946E+04</pdfrwt>
<totfact> 0.38839150E+00</totfact>
</mgrwt>
</event>
<event>
12    1  0.2045212E-008  0.1404090E+04  0.7818608E-02  0.8950863E-01
         -2   -1    0    0    0  501 -0.00000000000E+00  0.00000000000E+00  0.27884021615E+03  0.27884021615E+03  0.00000000000E+00 0.  1.
          2   -1    0    0  501    0  0.00000000000E+00 -0.00000000000E+00 -0.17675614859E+04  0.17675614859E+04  0.00000000000E+00 0. -1.
         23    2    1    2    0    0  0.14340225061E+03 -0.37248832351E+03 -0.36604700333E+03  0.54930268942E+03  0.91821998062E+02 0.  0.
        254    2    1    2    0    0 -0.14340225061E+03  0.37248832351E+03 -0.11226742665E+04  0.14970990127E+04  0.90641943300E+03 0.  0.
        -24    2    4    4    0    0 -0.24691985466E+02  0.34953162874E+03  0.94432011133E+01  0.35567789959E+03  0.60295444064E+02 0.  0.
         24    2    4    4    0    0 -0.11871026514E+03  0.22956694771E+02 -0.11321174676E+04  0.11414211131E+04  0.80827347468E+02 0.  0.
         11    1    3    3    0    0  0.14270003783E+03 -0.30310647439E+03 -0.33331558294E+03  0.47258450403E+03  0.00000000000E+00 0. -1.
        -11    1    3    3    0    0  0.70221278085E+00 -0.69381849114E+02 -0.32731420388E+02  0.76718185392E+02  0.00000000000E+00 0.  1.
          4    1    6    6  502    0 -0.27974063625E+02 -0.27306794077E+02 -0.22245546410E+03  0.22586421307E+03  0.00000000000E+00 0. -1.
          3    1    5    5  503    0 -0.24014722558E+02  0.14746684615E+03 -0.22528243867E+02  0.15109831033E+03  0.00000000000E+00 0. -1.
         -4    1    5    5    0  503 -0.67726290796E+00  0.20206478259E+03  0.31971444980E+02  0.20457958926E+03  0.00000000000E+00 0.  1.
         -3    1    6    6    0  502 -0.90736201514E+02  0.50263488847E+02 -0.90966200348E+03  0.91555690000E+03  0.00000000000E+00 0.  1.
<mgrwt>
<rscale>  0 0.14040901E+04</rscale>
<asrwt>0</asrwt>
<pdfrwt beam="1">  1        2 0.27193253E+00 0.14040901E+04</pdfrwt>
<pdfrwt beam="2">  1       -2 0.42898496E-01 0.14040901E+04</pdfrwt>
<totfact> 0.45085289E+01</totfact>
</mgrwt>
</event>
<event>
12    1  0.2045212E-008  0.2130259E+04  0.7818608E-02  0.8548030E-01
         -2   -1    0    0    0  501 -0.00000000000E+00  0.00000000000E+00  0.78782973651E+03  0.78782973651E+03  0.00000000000E+00 0.  1.
          2   -1    0    0  501    0  0.00000000000E+00 -0.00000000000E+00 -0.14400337004E+04  0.14400337004E+04  0.00000000000E+00 0. -1.
         23    2    1    2    0    0  0.40891609897E+03 -0.60438686605E+03 -0.74954142178E+03  0.10499992493E+04  0.90499838337E+02 0.  0.
        254    2    1    2    0    0 -0.40891609897E+03  0.60438686605E+03  0.97337457891E+02  0.11778641876E+04  0.91945288290E+03 0.  0.
        -24    2    4    4    0    0 -0.16661348289E+03  0.78251331544E+03  0.23096794643E+03  0.84004605854E+03  0.11065282040E+03 0.  0.
         24    2    4    4    0    0 -0.24230261607E+03 -0.17812644939E+03 -0.13363048853E+03  0.33781812906E+03  0.76317698664E+02 0.  0.
         11    1    3    3    0    0  0.23581103418E+03 -0.37366697351E+03 -0.51233297632E+03  0.67654928095E+03  0.00000000000E+00 0.  1.
        -11    1    3    3    0    0  0.17310506478E+03 -0.23071989254E+03 -0.23720844546E+03  0.37344996836E+03  0.00000000000E+00 0. -1.
          2    1    6    6  502    0 -0.74335732390E+02 -0.62072234051E+02 -0.59642323297E+01  0.97027498253E+02  0.00000000000E+00 0. -1.
          1    1    5    5  503    0  0.93014901501E+01  0.49566541279E+02 -0.37863836715E+01  0.50573673335E+02  0.00000000000E+00 0. -1.
         -2    1    5    5    0  503 -0.17591497305E+03  0.73294677416E+03  0.23475433010E+03  0.78947238520E+03  0.00000000000E+00 0.  1.
         -1    1    6    6    0  502 -0.16796688368E+03 -0.11605421534E+03 -0.12766625620E+03  0.24079063081E+03  0.00000000000E+00 0.  1.
<mgrwt>
<rscale>  0 0.21302595E+04</rscale>
<asrwt>0</asrwt>
<pdfrwt beam="1">  1        2 0.22154365E+00 0.21302595E+04</pdfrwt>
<pdfrwt beam="2">  1       -2 0.12120457E+00 0.21302595E+04</pdfrwt>
<totfact> 0.65377665E+00</totfact>
</mgrwt>
</event>
<event>
12    1  0.2045212E-008  0.1503403E+04  0.7818608E-02  0.8882193E-01
          1   -1    0    0  501    0  0.00000000000E+00  0.00000000000E+00  0.59125853578E+03  0.59125853578E+03  0.00000000000E+00 0. -1.
         -1   -1    0    0    0  501 -0.00000000000E+00 -0.00000000000E+00 -0.95568242663E+03  0.95568242663E+03  0.00000000000E+00 0.  1.
         23    2    1    2    0    0  0.34325309560E+03 -0.53898129379E+02  0.23019776991E+03  0.42697223770E+03  0.92663814447E+02 0.  0.
        254    2    1    2    0    0 -0.34325309560E+03  0.53898129379E+02 -0.59462166076E+03  0.11199687247E+04  0.88319155843E+03 0.  0.
        -24    2    4    4    0    0 -0.40979855367E+03  0.40266750333E+03 -0.34572458172E+03  0.67902597874E+03  0.10712058891E+03 0.  0.
         24    2    4    4    0    0  0.66545458072E+02 -0.34876937395E+03 -0.24889707904E+03  0.44094274596E+03  0.80077306828E+02 0.  0.
         13    1    3    3    0    0  0.31046183480E+03 -0.46883517209E+02  0.16749035115E+03  0.35586181698E+03  0.00000000000E+00 0. -1.
        -13    1    3    3    0    0  0.32791260802E+02 -0.70146121695E+01  0.62707418754E+02  0.71110420725E+02  0.00000000000E+00 0.  1.
          2    1    6    6  502    0 -0.12602496865E+02 -0.13753209298E+03 -0.85988701970E+02  0.16268975503E+03  0.00000000000E+00 0. -1.
          1    1    5    5  503    0 -0.14401492602E+03  0.20097034093E+03 -0.18430580333E+03  0.30837964588E+03  0.00000000000E+00 0. -1.
         -2    1    5    5    0  503 -0.26578362765E+03  0.20169716240E+03 -0.16141877839E+03  0.37064633287E+03  0.00000000000E+00 0.  1.
         -1    1    6    6    0  502  0.79147954937E+02 -0.21123728097E+03 -0.16290837707E+03  0.27825299093E+03  0.00000000000E+00 0.  1.
<mgrwt>
<rscale>  0 0.15034033E+04</rscale>
<asrwt>0</asrwt>
<pdfrwt beam="1">  1        1 0.90962853E-01 0.15034033E+04</pdfrwt>
<pdfrwt beam="2">  1       -1 0.14702806E+00 0.15034033E+04</pdfrwt>
<totfact> 0.12457309E+01</totfact>
</mgrwt>
</event>
<event>
11    1  0.2045212E-008  0.1761406E+04  0.7818608E-02  0.8727097E-01
          1   -1    0    0  501    0  0.00000000000E+00  0.00000000000E+00  0.54643548141E+03  0.54643548141E+03  0.00000000000E+00 0. -1.
         -1   -1    0    0    0  501 -0.00000000000E+00 -0.00000000000E+00 -0.14194505922E+04  0.14194505922E+04  0.00000000000E+00 0.  1.
         23    2    1    2    0    0 -0.37698184649E+03  0.46740001618E+03 -0.60199269847E+03  0.85493339708E+03  0.89094425858E+02 0.  0.
        254    2    1    2    0    0  0.37698184649E+03 -0.46740001618E+03 -0.27102241228E+03  0.11109526765E+04  0.89453038726E+03 0.  0.
         24    2    4    4    0    0  0.55164982389E+03 -0.17149232921E+03 -0.15299435080E+03  0.60285503794E+03  0.79371142214E+02 0.  0.
         11    1    3    3    0    0 -0.21049428346E+03  0.28936764440E+03 -0.41332206767E+03  0.54669608433E+03  0.00000000000E+00 0.  1.
        -11    1    3    3    0    0 -0.16648756303E+03  0.17803237178E+03 -0.18867063080E+03  0.30823731275E+03  0.00000000000E+00 0. -1.
          2    1    5    5  502    0  0.53739887387E+03 -0.17619006131E+03 -0.13908815365E+03  0.58239677354E+03  0.00000000000E+00 0. -1.
          1    1    4    4  503    0 -0.19862921049E+03 -0.20997273939E+03 -0.22681650048E+03  0.36740691261E+03  0.00000000000E+00 0. -1.
         -2    1    4    4    0  503  0.23961233086E+02 -0.85934947576E+02  0.10878843900E+03  0.14069072594E+03  0.00000000000E+00 0.  1.
         -1    1    5    5    0  502  0.14250950021E+02  0.46977320961E+01 -0.13906197144E+02  0.20458264403E+02  0.00000000000E+00 0.  1.
<mgrwt>
<rscale>  0 0.17614064E+04</rscale>
<asrwt>0</asrwt>
<pdfrwt beam="1">  1        1 0.84066998E-01 0.17614064E+04</pdfrwt>
<pdfrwt beam="2">  1       -1 0.21837701E+00 0.17614064E+04</pdfrwt>
<totfact> 0.41817531E+00</totfact>
</mgrwt>
</event>
<event>
11    1  0.2045212E-008  0.2131931E+04  0.7818608E-02  0.8547307E-01
         -1   -1    0    0    0  501 -0.00000000000E+00  0.00000000000E+00  0.10848893566E+04  0.10848893566E+04  0.00000000000E+00 0.  1.
          1   -1    0    0  501    0  0.00000000000E+00 -0.00000000000E+00 -0.10473714504E+04  0.10473714504E+04  0.00000000000E+00 0. -1.
         23    2    1    2    0    0 -0.69932222672E+03  0.14144232825E+03  0.51211714301E+03  0.88286615523E+03  0.90173005269E+02 0.  0.
        254    2    1    2    0    0  0.69932222672E+03 -0.14144232825E+03 -0.47459923674E+03  0.12493946518E+04  0.90922222333E+03 0.  0.
         24    2    4    4    0    0  0.36759692828E+03  0.56296276371E+01 -0.70076534190E+03  0.79499203548E+03  0.76033398389E+02 0.  0.
         13    1    3    3    0    0 -0.11629585359E+03 -0.99494462257E+01  0.87904408726E+02  0.14611947891E+03  0.00000000000E+00 0. -1.
        -13    1    3    3    0    0 -0.58302637313E+03  0.15139177448E+03  0.42421273429E+03  0.73674667633E+03  0.00000000000E+00 0.  1.
          4    1    5    5  502    0  0.10044367204E+03 -0.20543429969E+02 -0.14255027737E+03  0.17558913789E+03  0.00000000000E+00 0. -1.
          3    1    4    4  503    0  0.13701315964E+03 -0.14430554103E+03  0.10408183849E+03  0.22456563448E+03  0.00000000000E+00 0. -1.
         -4    1    4    4    0  503  0.19471213880E+03 -0.27664148606E+01  0.12208426667E+03  0.22983698183E+03  0.00000000000E+00 0.  1.
         -3    1    5    5    0  502  0.26715325624E+03  0.26173057606E+02 -0.55821506453E+03  0.61940289758E+03  0.00000000000E+00 0.  1.
<mgrwt>
<rscale>  0 0.21319307E+04</rscale>
<asrwt>0</asrwt>
<pdfrwt beam="1">  1        1 0.16113407E+00 0.21319307E+04</pdfrwt>
<pdfrwt beam="2">  1       -1 0.16690605E+00 0.21319307E+04</pdfrwt>
<totfact> 0.33075278E+00</totfact>
</mgrwt>
</event>
<event>
12    1  0.2045212E-008  0.2056118E+04  0.7818608E-02  0.8580824E-01
         -1   -1    0    0    0  501 -0.00000000000E+00  0.00000000000E+00  0.32083345970E+03  0.32083345970E+03  0.00000000000E+00 0.  1.
          1   -1    0    0  501    0  0.00000000000E+00 -0.00000000000E+00 -0.32942478687E+04  0.32942478687E+04  0.00000000000E+00 0. -1.
         23    2    1    2    0    0  0.52705159302E+03 -0.27104786509E+00 -0.23271365457E+04  0.23877553306E+04  0.89596660838E+02 0.  0.
        254    2    1    2    0    0 -0.52705159302E+03  0.27104786509E+00 -0.64627786337E+03  0.12273259978E+04  0.90048352179E+03 0.  0.
        -24    2    4    4    0    0 -0.59971701551E+02  0.39827175163E+03 -0.33329256153E+03  0.53378968586E+03  0.10784481456E+03 0.  0.
         24    2    4    4    0    0 -0.46707989147E+03 -0.39800070377E+03 -0.31298530184E+03  0.69353631194E+03  0.80402932717E+02 0.  0.
         13    1    3    3    0    0  0.49765739579E+03  0.90399725913E+01 -0.22554588943E+04  0.23097271329E+04  0.00000000000E+00 0. -1.
        -13    1    3    3    0    0  0.29394197238E+02 -0.93110204564E+01 -0.71677651384E+02  0.78028197731E+02  0.00000000000E+00 0.  1.
          4    1    6    6  502    0 -0.79402346790E+02 -0.10668690081E+03 -0.51644880118E+02  0.14266751951E+03  0.00000000000E+00 0. -1.
          3    1    5    5  503    0 -0.55277943467E+02  0.72746831197E+02 -0.70610845168E+02  0.11547139879E+03  0.00000000000E+00 0. -1.
         -4    1    5    5    0  503 -0.46937580839E+01  0.32552492043E+03 -0.26268171636E+03  0.41831828707E+03  0.00000000000E+00 0.  1.
         -3    1    6    6    0  502 -0.38767754468E+03 -0.29131380295E+03 -0.26134042172E+03  0.55086879242E+03  0.00000000000E+00 0.  1.
<mgrwt>
<rscale>  0 0.20561176E+04</rscale>
<asrwt>0</asrwt>
<pdfrwt beam="1">  1        1 0.50680734E+00 0.20561176E+04</pdfrwt>
<pdfrwt beam="2">  1       -1 0.49358996E-01 0.20561176E+04</pdfrwt>
<totfact> 0.13738935E+00</totfact>
</mgrwt>
</event>
<event>
11    1  0.2045212E-008  0.1476883E+04  0.7818608E-02  0.8899972E-01
         -2   -1    0    0    0  501 -0.00000000000E+00  0.00000000000E+00  0.19739360548E+03  0.19739360548E+03  0.00000000000E+00 0.  1.
          2   -1    0    0  501    0  0.00000000000E+00 -0.00000000000E+00 -0.27624806788E+04  0.27624806788E+04  0.00000000000E+00 0. -1.
         23    2    1    2    0    0  0.20495330326E+03 -0.38679492905E+03 -0.10738378892E+04  0.11631964718E+04  0.91005746676E+02 0.  0.
        254    2    1    2    0    0 -0.20495330326E+03  0.38679492905E+03 -0.14912491841E+04  0.17966778126E+04  0.90144931045E+03 0.  0.
         24    2    4    4    0    0  0.12323156629E+03 -0.16146691073E+03 -0.64336552437E+03  0.67951147868E+03  0.80988082619E+02 0.  0.
         13    1    3    3    0    0  0.12964551085E+03 -0.20683359447E+03 -0.48648872861E+03  0.54429714068E+03  0.00000000000E+00 0.  1.
        -13    1    3    3    0    0  0.75307792407E+02 -0.17996133458E+03 -0.58734916060E+03  0.61889933107E+03  0.00000000000E+00 0. -1.
          4    1    5    5  502    0 -0.10159761454E+02 -0.28052750566E+02 -0.78900535197E+02  0.84353257326E+02  0.00000000000E+00 0. -1.
          1    1    4    4  503    0 -0.15512939919E+03  0.68399037372E+01 -0.23099360329E+03  0.27833425865E+03  0.00000000000E+00 0. -1.
         -2    1    4    4    0  503 -0.17305547036E+03  0.54142193604E+03 -0.61689005648E+03  0.83883207523E+03  0.00000000000E+00 0.  1.
         -3    1    5    5    0  502  0.13339132775E+03 -0.13341416016E+03 -0.56446498917E+03  0.59515822136E+03  0.00000000000E+00 0.  1.
<mgrwt>
<rscale>  0 0.14768832E+04</rscale>
<asrwt>0</asrwt>
<pdfrwt beam="1">  1        2 0.42499703E+00 0.14768832E+04</pdfrwt>
<pdfrwt beam="2">  1       -2 0.30368247E-01 0.14768832E+04</pdfrwt>
<totfact> 0.23757042E+01</totfact>
</mgrwt>
</event>
<event>
11    1  0.2045212E-008  0.1650651E+04  0.7818608E-02  0.8790021E-01
          1   -1    0    0  501    0  0.00000000000E+00  0.00000000000E+00  0.32189089622E+04  0.32189089622E+04  0.00000000000E+00 0. -1.
         -1   -1    0    0    0  501 -0.00000000000E+00 -0.00000000000E+00 -0.21161286115E+03  0.21161286115E+03  0.00000000000E+00 0.  1.
         23    2    1    2    0    0  0.19348572478E+03  0.50658211137E+03  0.63481024122E+03  0.83954075925E+03  0.88218381412E+02 0.  0.
        254    2    1    2    0    0 -0.19348572478E+03 -0.50658211137E+03  0.23724858598E+04  0.25909810641E+04  0.88906217901E+03 0.  0.
         24    2    4    4    0    0 -0.21706833917E+03  0.38943502777E+02  0.10742286361E+03  0.25742089743E+03  0.78042209904E+02 0.  0.
         11    1    3    3    0    0  0.22123403930E+02  0.17196384062E+03  0.19381742305E+03  0.26005038158E+03  0.00000000000E+00 0. -1.
        -11    1    3    3    0    0  0.17136232085E+03  0.33461827076E+03  0.44099281817E+03  0.57949037767E+03  0.00000000000E+00 0.  1.
          2    1    5    5  502    0 -0.23010509503E+02  0.16432249056E+02  0.43476320718E+02  0.51862248503E+02  0.00000000000E+00 0. -1.
          1    1    4    4  503    0  0.53171944997E+02 -0.11348089775E+03  0.41625311879E+03  0.43470890121E+03  0.00000000000E+00 0. -1.
         -2    1    4    4    0  503 -0.29589330602E+02 -0.43204471640E+03  0.18488098774E+04  0.18988512654E+04  0.00000000000E+00 0.  1.
         -1    1    5    5    0  502 -0.19405782967E+03  0.22511253721E+02  0.63946542894E+02  0.20555864893E+03  0.00000000000E+00 0.  1.
<mgrwt>
<rscale>  0 0.16506514E+04</rscale>
<asrwt>0</asrwt>
<pdfrwt beam="1">  1        1 0.49521673E+00 0.16506514E+04</pdfrwt>
<pdfrwt beam="2">  1       -1 0.32555827E-01 0.16506514E+04</pdfrwt>
<totfact> 0.34928141E+00</totfact>
</mgrwt>
</event>
<event>
11    1  0.2045212E-008  0.1374666E+04  0.7818608E-02  0.8972364E-01
         -1   -1    0    0    0  501 -0.00000000000E+00  0.00000000000E+00  0.32464254656E+03  0.32464254656E+03  0.00000000000E+00 0. -1.
          1   -1    0    0  501    0  0.00000000000E+00 -0.00000000000E+00 -0.14552203349E+04  0.14552203349E+04  0.00000000000E+00 0.  1.
         23    2    1    2    0    0  0.79243136120E+02  0.92994163046E+01  0.16059420850E+03  0.20219415836E+03  0.93413190228E+02 0.  0.
        254    2    1    2    0    0 -0.79243136120E+02 -0.92994163046E+01 -0.12911719968E+04  0.15776687231E+04  0.90307669700E+03 0.  0.
         24    2    4    4    0    0 -0.37642456032E+03 -0.27775826140E+03 -0.78715953073E+03  0.91911512517E+03  0.79419047548E+02 0.  0.
         11    1    3    3    0    0  0.16868568960E+02  0.42030141459E+02  0.31611537168E+02  0.55230161071E+02  0.00000000000E+00 0.  1.
        -11    1    3    3    0    0  0.62374567160E+02 -0.32730725155E+02  0.12898267133E+03  0.14696399729E+03  0.00000000000E+00 0. -1.
          2    1    5    5  502    0 -0.15517425852E+02 -0.34465911588E+02 -0.84535373483E+02  0.92600858185E+02  0.00000000000E+00 0. -1.
          1    1    4    4  503    0  0.21866598222E+03  0.12972054373E+03 -0.23703193518E+03  0.34760087678E+03  0.00000000000E+00 0. -1.
         -2    1    4    4    0  503  0.78515441982E+02  0.13873830136E+03 -0.26698053089E+03  0.31095272112E+03  0.00000000000E+00 0.  1.
         -1    1    5    5    0  502 -0.36090713447E+03 -0.24329234981E+03 -0.70262415725E+03  0.82651426699E+03  0.00000000000E+00 0.  1.
<mgrwt>
<rscale>  0 0.13746657E+04</rscale>
<asrwt>0</asrwt>
<pdfrwt beam="1">  1        1 0.22388005E+00 0.13746657E+04</pdfrwt>
<pdfrwt beam="2">  1       -1 0.49945007E-01 0.13746657E+04</pdfrwt>
<totfact> 0.27615789E+01</totfact>
</mgrwt>
</event>
<event>
12    1  0.2045212E-008  0.2179338E+04  0.7818608E-02  0.8527078E-01
          1   -1    0    0  501    0  0.00000000000E+00  0.00000000000E+00  0.11485868866E+04  0.11485868866E+04  0.00000000000E+00 0. -1.
         -1   -1    0    0    0  501 -0.00000000000E+00 -0.00000000000E+00 -0.10337729988E+04  0.10337729988E+04  0.00000000000E+00 0.  1.
         23    2    1    2    0    0 -0.24084622173E+03 -0.83008044402E+03  0.28529450762E+03  0.91482328888E+03  0.92023082666E+02 0.  0.
        254    2    1    2    0    0  0.24084622173E+03  0.83008044402E+03 -0.17048061979E+03  0.12675365965E+04  0.91134238115E+03 0.  0.
        -24    2    4    4    0    0  0.25927554722E+03  0.43690136259E+03 -0.52426870786E+03  0.73234082307E+03  0.57955095320E+02 0.  0.
         24    2    4    4    0    0 -0.18429325489E+02  0.39317908143E+03  0.35378808807E+03  0.53519577343E+03  0.79618305227E+02 0.  0.
         11    1    3    3    0    0 -0.85519933396E+02 -0.31860108615E+03  0.62701853529E+02  0.33578539804E+03  0.00000000000E+00 0. -1.
        -11    1    3    3    0    0 -0.15532628833E+03 -0.51147935787E+03  0.22259265409E+03  0.57903789084E+03  0.00000000000E+00 0.  1.
          4    1    6    6  502    0 -0.29041758798E+02  0.47065487743E+02  0.49273168047E+02  0.74070432563E+02  0.00000000000E+00 0. -1.
          3    1    5    5  503    0 -0.43262408377E+00  0.21006950547E+02 -0.22011135594E+02  0.30429742442E+02  0.00000000000E+00 0. -1.
         -4    1    5    5    0  503  0.25970817130E+03  0.41589441204E+03 -0.50225757227E+03  0.70191108063E+03  0.00000000000E+00 0.  1.
         -3    1    6    6    0  502  0.10612433309E+02  0.34611359368E+03  0.30451492002E+03  0.46112534087E+03  0.00000000000E+00 0.  1.
<mgrwt>
<rscale>  0 0.21793376E+04</rscale>
<asrwt>0</asrwt>
<pdfrwt beam="1">  1        1 0.17670567E+00 0.21793376E+04</pdfrwt>
<pdfrwt beam="2">  1       -1 0.15904200E+00 0.21793376E+04</pdfrwt>
<totfact> 0.31652563E+00</totfact>
</mgrwt>
</event>
<event>
11    1  0.2045212E-008  0.1610614E+04  0.7818608E-02  0.8814054E-01
          2   -1    0    0  501    0  0.00000000000E+00  0.00000000000E+00  0.47537346401E+03  0.47537346401E+03  0.00000000000E+00 0. -1.
         -2   -1    0    0    0  501 -0.00000000000E+00 -0.00000000000E+00 -0.13642312113E+04  0.13642312113E+04  0.00000000000E+00 0.  1.
         23    2    1    2    0    0  0.49025144833E+03 -0.72429468163E+02 -0.12682797228E+03  0.51857025971E+03  0.85072141477E+02 0.  0.
        254    2    1    2    0    0 -0.49025144833E+03  0.72429468163E+02 -0.76202977497E+03  0.13210344156E+04  0.95856665847E+03 0.  0.
         24    2    4    4    0    0 -0.10233227052E+03  0.21152617170E+03 -0.64400750616E+03  0.68997797365E+03  0.78158308727E+02 0.  0.
         11    1    3    3    0    0  0.41235673898E+03 -0.28863704581E+02 -0.98597944604E+02  0.42496205513E+03  0.00000000000E+00 0. -1.
        -11    1    3    3    0    0  0.77894709348E+02 -0.43565763582E+02 -0.28230027676E+02  0.93608204574E+02  0.00000000000E+00 0.  1.
          2    1    5    5  502    0 -0.11356711948E+03  0.18945192836E+03 -0.60158329276E+03  0.64085254303E+03  0.00000000000E+00 0. -1.
          1    1    4    4  503    0 -0.46968103223E+03 -0.17118305463E+03 -0.21231533111E+02  0.50035456251E+03  0.00000000000E+00 0. -1.
         -2    1    4    4    0  503  0.81761854417E+02  0.32086351090E+02 -0.96790735701E+02  0.13070187941E+03  0.00000000000E+00 0.  1.
         -1    1    5    5    0  502  0.11234848958E+02  0.22074243346E+02 -0.42424213404E+02  0.49125430617E+02  0.00000000000E+00 0.  1.
<mgrwt>
<rscale>  0 0.16106139E+04</rscale>
<asrwt>0</asrwt>
<pdfrwt beam="1">  1        2 0.73134379E-01 0.16106139E+04</pdfrwt>
<pdfrwt beam="2">  1       -2 0.20988172E+00 0.16106139E+04</pdfrwt>
<totfact> 0.71703682E+00</totfact>
</mgrwt>
</event>
<event>
11    1  0.2045212E-008  0.1208184E+04  0.7818608E-02  0.9105723E-01
         -2   -1    0    0    0  501 -0.00000000000E+00  0.00000000000E+00  0.48162194869E+03  0.48162194869E+03  0.00000000000E+00 0.  1.
          2   -1    0    0  501    0  0.00000000000E+00 -0.00000000000E+00 -0.75770487610E+03  0.75770487610E+03  0.00000000000E+00 0. -1.
         23    2    1    2    0    0 -0.26773034453E+03  0.30432152433E+02  0.22765694812E+01  0.28540372472E+03  0.94044936218E+02 0.  0.
        254    2    1    2    0    0  0.26773034453E+03 -0.30432152433E+02 -0.27835949689E+03  0.95392310007E+03  0.87171074219E+03 0.  0.
         24    2    4    4    0    0 -0.19274796240E+03 -0.19156932927E+03  0.49360355079E+02  0.28790011036E+03  0.81236961809E+02 0.  0.
         11    1    3    3    0    0 -0.17644995655E+03  0.44248266519E+02  0.39001292684E+02  0.18604729798E+03  0.00000000000E+00 0.  1.
        -11    1    3    3    0    0 -0.91280387985E+02 -0.13816114085E+02 -0.36724723202E+02  0.99356426734E+02  0.00000000000E+00 0. -1.
          2    1    5    5  502    0 -0.12985940331E+03 -0.83026226317E+02  0.29987060685E+01  0.15416163959E+03  0.00000000000E+00 0. -1.
          1    1    4    4  503    0  0.41912013730E+03  0.17602659208E+03 -0.14359643634E+03  0.47672527429E+03  0.00000000000E+00 0. -1.
         -2    1    4    4    0  503  0.41358169631E+02 -0.14889415245E+02 -0.18412341563E+03  0.18929771543E+03  0.00000000000E+00 0.  1.
         -1    1    5    5    0  502 -0.62888559093E+02 -0.10854310296E+03  0.46361649010E+02  0.13373847077E+03  0.00000000000E+00 0.  1.
<mgrwt>
<rscale>  0 0.12081843E+04</rscale>
<asrwt>0</asrwt>
<pdfrwt beam="1">  1        2 0.11656998E+00 0.12081843E+04</pdfrwt>
<pdfrwt beam="2">  1       -2 0.74095685E-01 0.12081843E+04</pdfrwt>
<totfact> 0.59891725E+01</totfact>
</mgrwt>
</event>
<event>
12    1  0.2045212E-008  0.2264305E+04  0.7818608E-02  0.8492129E-01
         -1   -1    0    0    0  501 -0.00000000000E+00  0.00000000000E+00  0.44361068430E+03  0.44361068430E+03  0.00000000000E+00 0.  1.
          1   -1    0    0  501    0  0.00000000000E+00 -0.00000000000E+00 -0.28894022436E+04  0.28894022436E+04  0.00000000000E+00 0. -1.
         23    2    1    2    0    0 -0.57025037590E+03 -0.60673949389E+03 -0.18450561160E+04  0.20263535758E+04  0.92511828904E+02 0.  0.
        254    2    1    2    0    0  0.57025037590E+03  0.60673949389E+03 -0.60073544327E+03  0.13066593520E+04  0.80818146771E+03 0.  0.
        -24    2    4    4    0    0 -0.54047478318E+02  0.50800780189E+03 -0.19295890895E+03  0.55035308972E+03  0.68281228198E+02 0.  0.
         24    2    4    4    0    0  0.62429785422E+03  0.98731692001E+02 -0.40777653431E+03  0.75630626230E+03  0.78877770409E+02 0.  0.
         13    1    3    3    0    0 -0.47298280197E+03 -0.54572197484E+03 -0.16210107934E+04  0.17745988834E+04  0.00000000000E+00 0. -1.
        -13    1    3    3    0    0 -0.97267573928E+02 -0.61017519053E+02 -0.22404532258E+03  0.25175469239E+03  0.00000000000E+00 0.  1.
          2    1    6    6  502    0  0.40639996727E+03  0.74224411821E+02 -0.30854472986E+03  0.51562587894E+03  0.00000000000E+00 0. -1.
          1    1    5    5  503    0 -0.13825607630E+02  0.32933796393E+03 -0.97047869073E+02  0.34361741923E+03  0.00000000000E+00 0. -1.
         -2    1    5    5    0  503 -0.40221870688E+02  0.17866983796E+03 -0.95911039879E+02  0.20673567048E+03  0.00000000000E+00 0.  1.
         -1    1    6    6    0  502  0.21789788695E+03  0.24507280180E+02 -0.99231804458E+02  0.24068038336E+03  0.00000000000E+00 0.  1.
<mgrwt>
<rscale>  0 0.22643054E+04</rscale>
<asrwt>0</asrwt>
<pdfrwt beam="1">  1        1 0.44452343E+00 0.22643054E+04</pdfrwt>
<pdfrwt beam="2">  1       -1 0.68247797E-01 0.22643054E+04</pdfrwt>
<totfact> 0.14174649E+00</totfact>
</mgrwt>
</event>
<event>
12    1  0.2045212E-008  0.1350255E+04  0.7818608E-02  0.8990635E-01
         -2   -1    0    0    0  501 -0.00000000000E+00  0.00000000000E+00  0.11516736516E+03  0.11516736516E+03  0.00000000000E+00 0.  1.
          2   -1    0    0  501    0  0.00000000000E+00 -0.00000000000E+00 -0.39576932465E+04  0.39576932465E+04  0.00000000000E+00 0. -1.
         23    2    1    2    0    0  0.10845827189E+03 -0.17166591260E+03 -0.31024100915E+03  0.38230572269E+03  0.93143972183E+02 0.  0.
        254    2    1    2    0    0 -0.10845827189E+03  0.17166591260E+03 -0.35322848722E+04  0.36905548890E+04  0.10497269111E+04 0.  0.
        -24    2    4    4    0    0  0.49159472027E+02  0.58807596322E+03 -0.16169599475E+04  0.17225749402E+04  0.66745491420E+02 0.  0.
         24    2    4    4    0    0 -0.15761774392E+03 -0.41641005062E+03 -0.19153249247E+04  0.19679799488E+04  0.78960927620E+02 0.  0.
         13    1    3    3    0    0  0.20896825725E+02 -0.69042233882E+01 -0.94703602816E+02  0.97227146478E+02  0.00000000000E+00 0. -1.
        -13    1    3    3    0    0  0.87561446169E+02 -0.16476168921E+03 -0.21553740633E+03  0.28507857621E+03  0.00000000000E+00 0.  1.
          2    1    6    6  502    0 -0.15810908893E+03 -0.40045669397E+03 -0.17624929296E+04  0.18143167790E+04  0.00000000000E+00 0. -1.
          3    1    5    5  503    0  0.27136504861E+02  0.51089718880E+03 -0.13450101205E+04  0.14390290309E+04  0.00000000000E+00 0. -1.
         -4    1    5    5    0  503  0.22022967167E+02  0.77178774420E+02 -0.27194982701E+03  0.28354590936E+03  0.00000000000E+00 0.  1.
         -1    1    6    6    0  502  0.49134500422E+00 -0.15953356649E+02 -0.15283199509E+03  0.15366316973E+03  0.00000000000E+00 0.  1.
<mgrwt>
<rscale>  0 0.13502549E+04</rscale>
<asrwt>0</asrwt>
<pdfrwt beam="1">  1        2 0.60887593E+00 0.13502549E+04</pdfrwt>
<pdfrwt beam="2">  1       -2 0.17718055E-01 0.13502549E+04</pdfrwt>
<totfact> 0.98303121E+00</totfact>
</mgrwt>
</event>
<event>
12    1  0.2045212E-008  0.1152074E+04  0.7818608E-02  0.9155872E-01
          1   -1    0    0  501    0  0.00000000000E+00  0.00000000000E+00  0.25481430610E+04  0.25481430610E+04  0.00000000000E+00 0. -1.
         -1   -1    0    0    0  501 -0.00000000000E+00 -0.00000000000E+00 -0.13021981469E+03  0.13021981469E+03  0.00000000000E+00 0.  1.
         23    2    1    2    0    0 -0.11116779687E+03 -0.18117599629E+03  0.55782537155E+03  0.60309916133E+03  0.85886160412E+02 0.  0.
        254    2    1    2    0    0  0.11116779687E+03  0.18117599629E+03  0.18600978748E+04  0.20752637144E+04  0.89530573537E+03 0.  0.
        -24    2    4    4    0    0  0.10826805091E+02 -0.33987433125E+03  0.49247090132E+03  0.60613019990E+03  0.96096044857E+02 0.  0.
         24    2    4    4    0    0  0.10034099177E+03  0.52105032754E+03  0.13676269735E+04  0.14691335145E+04  0.79924879513E+02 0.  0.
         13    1    3    3    0    0 -0.29460675170E+02 -0.71036387148E+02  0.31473289883E+03  0.32399212535E+03  0.00000000000E+00 0. -1.
        -13    1    3    3    0    0 -0.81707121696E+02 -0.11013960914E+03  0.24309247272E+03  0.27910703598E+03  0.00000000000E+00 0.  1.
          4    1    6    6  502    0  0.65879895342E+02  0.47159702280E+03  0.12024168924E+04  0.12932711609E+04  0.00000000000E+00 0. -1.
          1    1    5    5  503    0  0.12244195832E+01 -0.31986878458E+03  0.48800431411E+03  0.58349442940E+03  0.00000000000E+00 0. -1.
         -2    1    5    5    0  503  0.96023855074E+01 -0.20005546670E+02  0.44665872119E+01  0.22635770505E+02  0.00000000000E+00 0.  1.
         -3    1    6    6    0  502  0.34461096433E+02  0.49453304746E+02  0.16521008104E+03  0.17586235354E+03  0.00000000000E+00 0.  1.
<mgrwt>
<rscale>  0 0.11520742E+04</rscale>
<asrwt>0</asrwt>
<pdfrwt beam="1">  1        1 0.39202197E+00 0.11520742E+04</pdfrwt>
<pdfrwt beam="2">  1       -1 0.20033819E-01 0.11520742E+04</pdfrwt>
<totfact> 0.25609239E+01</totfact>
</mgrwt>
</event>
<event>
12    1  0.2045212E-008  0.1864463E+04  0.7818608E-02  0.8672751E-01
         -1   -1    0    0    0  501 -0.00000000000E+00  0.00000000000E+00  0.11814564532E+04  0.11814564532E+04  0.00000000000E+00 0.  1.
          1   -1    0    0  501    0  0.00000000000E+00 -0.00000000000E+00 -0.73557949626E+03  0.73557949626E+03  0.00000000000E+00 0. -1.
         23    2    1    2    0    0 -0.26690797155E+03 -0.97631117629E+02  0.84242202940E+03  0.89375146132E+03  0.91351511140E+02 0.  0.
        254    2    1    2    0    0  0.26690797155E+03  0.97631117629E+02 -0.39654507248E+03  0.10232844881E+04  0.89949510766E+03 0.  0.
        -24    2    4    4    0    0  0.30963375381E+03 -0.15980793421E+03 -0.58787441681E+03  0.69008508239E+03  0.95965898482E+02 0.  0.
         24    2    4    4    0    0 -0.42725782260E+02  0.25743905183E+03  0.19132934433E+03  0.33319940572E+03  0.79464256706E+02 0.  0.
         13    1    3    3    0    0 -0.27394195298E+03 -0.90772337057E+02  0.81874734704E+03  0.86811924818E+03  0.00000000000E+00 0.  1.
        -13    1    3    3    0    0  0.70339814262E+01 -0.68587805724E+01  0.23674682368E+02  0.25632213148E+02  0.00000000000E+00 0. -1.
          4    1    6    6  502    0 -0.88796859652E+01  0.22211084349E+03  0.16992447610E+03  0.27979707503E+03  0.00000000000E+00 0. -1.
          1    1    5    5  503    0  0.12693800604E+03 -0.60377245843E+02 -0.33062779904E+03  0.35926788152E+03  0.00000000000E+00 0. -1.
         -2    1    5    5    0  503  0.18269574777E+03 -0.99430688362E+02 -0.25724661776E+03  0.33081720087E+03  0.00000000000E+00 0.  1.
         -3    1    6    6    0  502 -0.33846096295E+02  0.35328208345E+02  0.21404868223E+02  0.53402330688E+02  0.00000000000E+00 0.  1.
<mgrwt>
<rscale>  0 0.18644625E+04</rscale>
<asrwt>0</asrwt>
<pdfrwt beam="1">  1        1 0.11316608E+00 0.18644625E+04</pdfrwt>
<pdfrwt beam="2">  1       -1 0.18176253E+00 0.18644625E+04</pdfrwt>
<totfact> 0.47883575E+00</totfact>
</mgrwt>
</event>
<event>
11    1  0.2045212E-008  0.2321845E+04  0.7818608E-02  0.8469357E-01
         -1   -1    0    0    0  501 -0.00000000000E+00  0.00000000000E+00  0.49818942794E+03  0.49818942794E+03  0.00000000000E+00 0.  1.
          1   -1    0    0  501    0  0.00000000000E+00 -0.00000000000E+00 -0.27052780308E+04  0.27052780308E+04  0.00000000000E+00 0. -1.
         23    2    1    2    0    0 -0.91523088827E+03  0.30430712401E+03 -0.66254257503E+03  0.11736981180E+04  0.91401334373E+02 0.  0.
        254    2    1    2    0    0  0.91523088827E+03 -0.30430712401E+03 -0.15445460279E+04  0.20297693408E+04  0.89671106825E+03 0.  0.
         24    2    4    4    0    0 -0.73142236259E+02  0.17615978569E+03 -0.28646389442E+03  0.35355144235E+03  0.80962971571E+02 0.  0.
         13    1    3    3    0    0 -0.24652471588E+03  0.67238871985E+02 -0.22253651363E+03  0.33884805053E+03  0.00000000000E+00 0. -1.
        -13    1    3    3    0    0 -0.66870617239E+03  0.23706825202E+03 -0.44000606139E+03  0.83485006748E+03  0.00000000000E+00 0.  1.
          4    1    5    5  502    0  0.84449803785E+01  0.75972056585E+02 -0.86049926002E+02  0.11509848322E+03  0.00000000000E+00 0. -1.
          1    1    4    4  503    0  0.11599231684E+03 -0.41309887666E+02 -0.21127697456E+03  0.24453769518E+03  0.00000000000E+00 0. -1.
         -2    1    4    4    0  503  0.87238080769E+03 -0.43915702203E+03 -0.10468051589E+04  0.14316802032E+04  0.00000000000E+00 0.  1.
         -3    1    5    5    0  502 -0.81587216638E+02  0.10018772911E+03 -0.20041396841E+03  0.23845295913E+03  0.00000000000E+00 0.  1.
<mgrwt>
<rscale>  0 0.23218449E+04</rscale>
<asrwt>0</asrwt>
<pdfrwt beam="1">  1        1 0.41619663E+00 0.23218449E+04</pdfrwt>
<pdfrwt beam="2">  1       -1 0.76644526E-01 0.23218449E+04</pdfrwt>
<totfact> 0.14995850E+00</totfact>
</mgrwt>
</event>
<event>
11    1  0.2045212E-008  0.1380308E+04  0.7818608E-02  0.8968197E-01
          2   -1    0    0  501    0  0.00000000000E+00  0.00000000000E+00  0.13480398987E+04  0.13480398987E+04  0.00000000000E+00 0.  1.
         -2   -1    0    0    0  501 -0.00000000000E+00 -0.00000000000E+00 -0.35333728647E+03  0.35333728647E+03  0.00000000000E+00 0. -1.
         23    2    1    2    0    0  0.17580652213E+03  0.22061698361E+03  0.62256707765E+03  0.68928004007E+03  0.89092203824E+02 0.  0.
        254    2    1    2    0    0 -0.17580652213E+03 -0.22061698361E+03  0.37213553459E+03  0.10120971451E+04  0.89792872121E+03 0.  0.
         24    2    4    4    0    0 -0.49108180497E+03 -0.17418435281E+03  0.90221308967E+02  0.53480214105E+03  0.79824291661E+02 0.  0.
         13    1    3    3    0    0  0.58176528235E+02  0.40648184981E+02  0.24185978259E+03  0.25205740976E+03  0.00000000000E+00 0. -1.
        -13    1    3    3    0    0  0.11762999389E+03  0.17996879862E+03  0.38070729506E+03  0.43722263031E+03  0.00000000000E+00 0.  1.
          4    1    5    5  502    0 -0.25615714149E+03 -0.95382422072E+02  0.87485073067E+02  0.28699812820E+03  0.00000000000E+00 0. -1.
          1    1    4    4  503    0  0.18841825713E+03 -0.27515249055E+02  0.29204198309E+03  0.34863598270E+03  0.00000000000E+00 0. -1.
         -2    1    4    4    0  503  0.12685702572E+03 -0.18917381737E+02 -0.10127757463E+02  0.12865902136E+03  0.00000000000E+00 0.  1.
         -3    1    5    5    0  502 -0.23492466348E+03 -0.78801930741E+02  0.27362359000E+01  0.24780401286E+03  0.00000000000E+00 0.  1.
<mgrwt>
<rscale>  0 0.13803083E+04</rscale>
<asrwt>0</asrwt>
<pdfrwt beam="1">  1        2 0.20739075E+00 0.13803083E+04</pdfrwt>
<pdfrwt beam="2">  1       -2 0.54359583E-01 0.13803083E+04</pdfrwt>
<totfact> 0.48126010E+01</totfact>
</mgrwt>
</event>
<event>
12    1  0.2045212E-008  0.1892333E+04  0.7818608E-02  0.8658682E-01
         -2   -1    0    0    0  501 -0.00000000000E+00  0.00000000000E+00  0.55770492971E+03  0.55770492971E+03  0.00000000000E+00 0.  1.
          2   -1    0    0  501    0  0.00000000000E+00 -0.00000000000E+00 -0.16052058713E+04  0.16052058713E+04  0.00000000000E+00 0. -1.
         23    2    1    2    0    0 -0.28916604298E+03  0.67268587301E+02 -0.11645640434E+04  0.12052665888E+04  0.91192519726E+02 0.  0.
        254    2    1    2    0    0  0.28916604298E+03 -0.67268587301E+02  0.11706310183E+03  0.95764421219E+03  0.90290453764E+03 0.  0.
        -24    2    4    4    0    0 -0.29857780363E+03 -0.12946009553E+03 -0.27469820978E+02  0.34397598762E+03  0.10796419703E+03 0.  0.
         24    2    4    4    0    0  0.58774384661E+03  0.62191508225E+02  0.14453292281E+03  0.61366822457E+03  0.79926911261E+02 0.  0.
         11    1    3    3    0    0 -0.61766968549E+02 -0.22635392329E+02 -0.26788867349E+03  0.27584753176E+03  0.00000000000E+00 0.  1.
        -11    1    3    3    0    0 -0.22739907443E+03  0.89903979630E+02 -0.89667536989E+03  0.92941905704E+03  0.00000000000E+00 0. -1.
          4    1    6    6  502    0  0.56554640930E+02 -0.14428402037E+02  0.26774295011E+02  0.64214243509E+02  0.00000000000E+00 0. -1.
          1    1    5    5  503    0 -0.12268592771E+03 -0.10490456561E+02  0.24066499069E+02  0.12546347243E+03  0.00000000000E+00 0. -1.
         -2    1    5    5    0  503 -0.17589187592E+03 -0.11896963897E+03 -0.51536320047E+02  0.21851251519E+03  0.00000000000E+00 0.  1.
         -3    1    6    6    0  502  0.53118920568E+03  0.76619910261E+02  0.11775862780E+03  0.54945398106E+03  0.00000000000E+00 0.  1.
<mgrwt>
<rscale>  0 0.18923332E+04</rscale>
<asrwt>0</asrwt>
<pdfrwt beam="1">  1        2 0.24695475E+00 0.18923332E+04</pdfrwt>
<pdfrwt beam="2">  1       -2 0.85800759E-01 0.18923332E+04</pdfrwt>
<totfact> 0.12243231E+01</totfact>
</mgrwt>
</event>
<event>
12    1  0.2045212E-008  0.2031213E+04  0.7818608E-02  0.8592165E-01
          2   -1    0    0  501    0  0.00000000000E+00  0.00000000000E+00  0.11642513552E+04  0.11642513552E+04  0.00000000000E+00 0. -1.
         -2   -1    0    0    0  501 -0.00000000000E+00 -0.00000000000E+00 -0.88594000808E+03  0.88594000808E+03  0.00000000000E+00 0.  1.
         23    2    1    2    0    0 -0.19477535097E+03 -0.42727117116E+03  0.77750216607E+03  0.91296880844E+03  0.92218956279E+02 0.  0.
        254    2    1    2    0    0  0.19477535097E+03  0.42727117116E+03 -0.49919081890E+03  0.11372225549E+04  0.90751615667E+03 0.  0.
        -24    2    4    4    0    0 -0.14631779230E+03  0.40567727741E+02  0.20323256392E+03  0.26290044040E+03  0.68982096544E+02 0.  0.
         24    2    4    4    0    0  0.34109314327E+03  0.38670344342E+03 -0.70242338282E+03  0.87432211449E+03  0.71808534440E+02 0.  0.
         11    1    3    3    0    0 -0.95699739925E+02 -0.10882734198E+03  0.24505128616E+03  0.28469626522E+03  0.00000000000E+00 0.  1.
        -11    1    3    3    0    0 -0.99075611045E+02 -0.31844382917E+03  0.53245087991E+03  0.62827254321E+03  0.00000000000E+00 0. -1.
          2    1    6    6  502    0  0.17241289199E+02  0.52076452436E+02 -0.69345971617E+02  0.88419922705E+02  0.00000000000E+00 0. -1.
          3    1    5    5  503    0 -0.68428151082E+02 -0.98973526661E+01  0.11867983237E+03  0.13735090849E+03  0.00000000000E+00 0. -1.
         -4    1    5    5    0  503 -0.77889641223E+02  0.50465080407E+02  0.84552731549E+02  0.12554953191E+03  0.00000000000E+00 0.  1.
         -1    1    6    6    0  502  0.32385185408E+03  0.33462699098E+03 -0.63307741120E+03  0.78590219179E+03  0.00000000000E+00 0.  1.
<mgrwt>
<rscale>  0 0.20312133E+04</rscale>
<asrwt>0</asrwt>
<pdfrwt beam="1">  1        2 0.17911559E+00 0.20312133E+04</pdfrwt>
<pdfrwt beam="2">  1       -2 0.13629846E+00 0.20312133E+04</pdfrwt>
<totfact> 0.71009125E+00</totfact>
</mgrwt>
</event>
<event>
11    1  0.2045212E-008  0.1320342E+04  0.7818608E-02  0.9013588E-01
         -1   -1    0    0    0  501 -0.00000000000E+00  0.00000000000E+00  0.16191159751E+03  0.16191159751E+03  0.00000000000E+00 0.  1.
          1   -1    0    0  501    0  0.00000000000E+00 -0.00000000000E+00 -0.26917493576E+04  0.26917493576E+04  0.00000000000E+00 0. -1.
         23    2    1    2    0    0  0.16236377538E+03  0.18171129675E+03 -0.15032133091E+03  0.30032621655E+03  0.90655076502E+02 0.  0.
        254    2    1    2    0    0 -0.16236377538E+03 -0.18171129675E+03 -0.23795164291E+04  0.25533347385E+04  0.89333020743E+03 0.  0.
         24    2    4    4    0    0 -0.10996986203E+03  0.33996860450E+03 -0.10506033064E+04  0.11127950813E+04  0.82906953500E+02 0.  0.
         11    1    3    3    0    0  0.44747212532E+02  0.33461703392E+02 -0.81803061384E+02  0.99064319889E+02  0.00000000000E+00 0. -1.
        -11    1    3    3    0    0  0.11761656285E+03  0.14824959336E+03 -0.68518269529E+02  0.20126189666E+03  0.00000000000E+00 0.  1.
          4    1    5    5  502    0 -0.58937373819E+02  0.17396025831E+03 -0.66472755551E+03  0.68963650466E+03  0.00000000000E+00 0. -1.
          1    1    4    4  503    0  0.14053410646E+02 -0.47346667855E+03 -0.11173071619E+04  0.12135664334E+04  0.00000000000E+00 0. -1.
         -2    1    4    4    0  503 -0.66447324004E+02 -0.48213222707E+02 -0.21160596075E+03  0.22697322383E+03  0.00000000000E+00 0.  1.
         -1    1    5    5    0  502 -0.51032488208E+02  0.16600834619E+03 -0.38587575092E+03  0.42315857667E+03  0.00000000000E+00 0.  1.
<mgrwt>
<rscale>  0 0.13203415E+04</rscale>
<asrwt>0</asrwt>
<pdfrwt beam="1">  1        1 0.41411530E+00 0.13203415E+04</pdfrwt>
<pdfrwt beam="2">  1       -1 0.24909476E-01 0.13203415E+04</pdfrwt>
<totfact> 0.13837968E+01</totfact>
</mgrwt>
</event>
<event>
11    1  0.2045212E-008  0.3237006E+04  0.7818608E-02  0.8179112E-01
         -2   -1    0    0    0  501 -0.00000000000E+00  0.00000000000E+00  0.21038091030E+04  0.21038091030E+04  0.00000000000E+00 0.  1.
          2   -1    0    0  501    0  0.00000000000E+00 -0.00000000000E+00 -0.12451472922E+04  0.12451472922E+04  0.00000000000E+00 0. -1.
         23    2    1    2    0    0 -0.85684921966E+03 -0.16405461309E+03  0.16619592637E+04  0.18791860091E+04  0.90149660314E+02 0.  0.
        254    2    1    2    0    0  0.85684921966E+03  0.16405461309E+03 -0.80329745289E+03  0.14697703861E+04  0.86823596373E+03 0.  0.
         24    2    4    4    0    0  0.84588795502E+03  0.10085994139E+03 -0.39014489794E+03  0.94015872176E+03  0.77370669439E+02 0.  0.
         13    1    3    3    0    0 -0.70922161512E+03 -0.12336716255E+03  0.14343376186E+04  0.16048486409E+04  0.00000000000E+00 0.  1.
        -13    1    3    3    0    0 -0.14762760455E+03 -0.40687450535E+02  0.22762164511E+03  0.27433736817E+03  0.00000000000E+00 0. -1.
          4    1    5    5  502    0  0.76238384918E+03  0.68390737488E+02 -0.34094091043E+03  0.83794220019E+03  0.00000000000E+00 0. -1.
          3    1    4    4  503    0 -0.12258982872E+03  0.12325448075E+03 -0.15542382961E+03  0.23318769252E+03  0.00000000000E+00 0. -1.
         -4    1    4    4    0  503  0.13355109336E+03 -0.60059809046E+02 -0.25772872534E+03  0.29642397182E+03  0.00000000000E+00 0.  1.
         -3    1    5    5    0  502  0.83504105845E+02  0.32469203898E+02 -0.49203987512E+02  0.10221652157E+03  0.00000000000E+00 0.  1.
<mgrwt>
<rscale>  0 0.32370062E+04</rscale>
<asrwt>0</asrwt>
<pdfrwt beam="1">  1        2 0.19156112E+00 0.32370062E+04</pdfrwt>
<pdfrwt beam="2">  1       -2 0.32366294E+00 0.32370062E+04</pdfrwt>
<totfact> 0.33961792E-01</totfact>
</mgrwt>
</event>
<event>
12    1  0.2045212E-008  0.1434386E+04  0.7818608E-02  0.8929297E-01
          1   -1    0    0  501    0  0.00000000000E+00  0.00000000000E+00  0.18908240768E+04  0.18908240768E+04  0.00000000000E+00 0. -1.
         -1   -1    0    0    0  501 -0.00000000000E+00 -0.00000000000E+00 -0.27203264939E+03  0.27203264939E+03  0.00000000000E+00 0.  1.
         23    2    1    2    0    0  0.29564209618E+03  0.87719100536E+02  0.94814030569E+03  0.10011512243E+04  0.90746046848E+02 0.  0.
        254    2    1    2    0    0 -0.29564209618E+03 -0.87719100536E+02  0.67065112175E+03  0.11617055019E+04  0.89704395457E+03 0.  0.
        -24    2    4    4    0    0  0.18723926724E+03  0.26715398174E+03  0.22738463690E+03  0.41268692354E+03  0.11034913052E+03 0.  0.
         24    2    4    4    0    0 -0.48288136342E+03 -0.35487308227E+03  0.44326648485E+03  0.74901857837E+03  0.73717965890E+02 0.  0.
         11    1    3    3    0    0  0.24625494268E+03  0.10666850867E+03  0.77876740540E+03  0.82371010632E+03  0.00000000000E+00 0. -1.
        -11    1    3    3    0    0  0.49387153500E+02 -0.18949408135E+02  0.16937290029E+03  0.17744111799E+03  0.00000000000E+00 0.  1.
          4    1    6    6  502    0 -0.40061227450E+03 -0.29809650336E+03  0.33306649239E+03  0.60023745980E+03  0.00000000000E+00 0. -1.
          1    1    5    5  503    0  0.18941849843E+03  0.23360349805E+03  0.23050273504E+03  0.37892145982E+03  0.00000000000E+00 0. -1.
         -2    1    5    5    0  503 -0.21792311920E+01  0.33550483685E+02 -0.31180981419E+01  0.33765463718E+02  0.00000000000E+00 0.  1.
         -3    1    6    6    0  502 -0.82269088912E+02 -0.56776578917E+02  0.11019999246E+03  0.14878111857E+03  0.00000000000E+00 0.  1.
<mgrwt>
<rscale>  0 0.14343861E+04</rscale>
<asrwt>0</asrwt>
<pdfrwt beam="1">  1        1 0.29089600E+00 0.14343861E+04</pdfrwt>
<pdfrwt beam="2">  1       -1 0.41851178E-01 0.14343861E+04</pdfrwt>
<totfact> 0.19271746E+01</totfact>
</mgrwt>
</event>
<event>
11    1  0.2045212E-008  0.1796673E+04  0.7818608E-02  0.8708071E-01
         -2   -1    0    0    0  501 -0.00000000000E+00  0.00000000000E+00  0.80428035503E+03  0.80428035503E+03  0.00000000000E+00 0.  1.
          2   -1    0    0  501    0  0.00000000000E+00 -0.00000000000E+00 -0.10033919022E+04  0.10033919022E+04  0.00000000000E+00 0. -1.
         23    2    1    2    0    0 -0.63691279217E+03 -0.53613638170E+01 -0.27771443476E+03  0.70095593064E+03  0.92343166367E+02 0.  0.
        254    2    1    2    0    0  0.63691279217E+03  0.53613638170E+01  0.78602887621E+02  0.11067163266E+04  0.90164070697E+03 0.  0.
         24    2    4    4    0    0  0.10906117014E+03 -0.23160149025E+03 -0.14409947728E+03  0.30347539317E+03  0.76151597431E+02 0.  0.
         13    1    3    3    0    0 -0.16510289847E+03  0.38613021266E+01 -0.29514221588E+02  0.16776461490E+03  0.00000000000E+00 0.  1.
        -13    1    3    3    0    0 -0.47180989370E+03 -0.92226659435E+01 -0.24820021317E+03  0.53319131574E+03  0.00000000000E+00 0. -1.
          4    1    5    5  502    0  0.63523911013E+02 -0.20438285825E+03 -0.11492853882E+03  0.24293251954E+03  0.00000000000E+00 0. -1.
          3    1    4    4  503    0 -0.94302880572E+02 -0.11309877736E+02 -0.66285578725E+01  0.95209686471E+02  0.00000000000E+00 0. -1.
         -4    1    4    4    0  503  0.62215450260E+03  0.24827273180E+03  0.22933092278E+03  0.70803124691E+03  0.00000000000E+00 0.  1.
         -3    1    5    5    0  502  0.45537259126E+02 -0.27218632000E+02 -0.29170938462E+02  0.60542873630E+02  0.00000000000E+00 0.  1.
<mgrwt>
<rscale>  0 0.17966729E+04</rscale>
<asrwt>0</asrwt>
<pdfrwt beam="1">  1        2 0.15436798E+00 0.17966729E+04</pdfrwt>
<pdfrwt beam="2">  1       -2 0.12373544E+00 0.17966729E+04</pdfrwt>
<totfact> 0.11641542E+01</totfact>
</mgrwt>
</event>
<event>
12    1  0.2045212E-008  0.1817567E+04  0.7818608E-02  0.8697013E-01
          1   -1    0    0  501    0  0.00000000000E+00  0.00000000000E+00  0.67357743617E+03  0.67357743617E+03  0.00000000000E+00 0. -1.
         -1   -1    0    0    0  501 -0.00000000000E+00 -0.00000000000E+00 -0.12261204610E+04  0.12261204610E+04  0.00000000000E+00 0.  1.
         23    2    1    2    0    0  0.30996900174E+03 -0.49404898035E+02 -0.83296705925E+03  0.89472279374E+03  0.90405364062E+02 0.  0.
        254    2    1    2    0    0 -0.30996900174E+03  0.49404898035E+02  0.28042403439E+03  0.10049751035E+04  0.91258736213E+03 0.  0.
        -24    2    4    4    0    0  0.97669420102E+02 -0.35357179485E+03  0.19219791396E+03  0.41970471841E+03  0.68261869186E+02 0.  0.
         24    2    4    4    0    0 -0.40763842184E+03  0.40297669289E+03  0.88226120429E+02  0.58527038505E+03  0.78729138940E+02 0.  0.
         13    1    3    3    0    0  0.79028614441E+01  0.13080346747E+02 -0.19767300584E+02  0.24985933290E+02  0.00000000000E+00 0. -1.
        -13    1    3    3    0    0  0.30206614029E+03 -0.62485244781E+02 -0.81319975867E+03  0.86973686045E+03  0.00000000000E+00 0.  1.
          2    1    6    6  502    0  0.14066872955E+01  0.20670662250E+00  0.50163920874E+01  0.52139894850E+01  0.00000000000E+00 0. -1.
          3    1    5    5  503    0  0.83262609248E+02 -0.18446662711E+03  0.89147976996E+02  0.22115144227E+03  0.00000000000E+00 0. -1.
         -4    1    5    5    0  503  0.14406810854E+02 -0.16910516774E+03  0.10304993696E+03  0.19855327614E+03  0.00000000000E+00 0.  1.
         -1    1    6    6    0  502 -0.40904510913E+03  0.40276998626E+03  0.83209728342E+02  0.58005639556E+03  0.00000000000E+00 0.  1.
<mgrwt>
<rscale>  0 0.18175666E+04</rscale>
<asrwt>0</asrwt>
<pdfrwt beam="1">  1        1 0.10362730E+00 0.18175666E+04</pdfrwt>
<pdfrwt beam="2">  1       -1 0.18863391E+00 0.18175666E+04</pdfrwt>
<totfact> 0.49145960E+00</totfact>
</mgrwt>
</event>
<event>
11    1  0.2045212E-008  0.1623621E+04  0.7818608E-02  0.8806167E-01
         -1   -1    0    0    0  501 -0.00000000000E+00  0.00000000000E+00  0.45838744476E+03  0.45838744476E+03  0.00000000000E+00 0.  1.
          1   -1    0    0  501    0  0.00000000000E+00 -0.00000000000E+00 -0.14377278349E+04  0.14377278349E+04  0.00000000000E+00 0. -1.
         23    2    1    2    0    0 -0.35345295230E+03 -0.69905181320E+02 -0.91181478431E+03  0.98430133875E+03  0.87333846325E+02 0.  0.
        254    2    1    2    0    0  0.35345295230E+03  0.69905181320E+02 -0.67525605794E+02  0.91181394088E+03  0.83488276511E+03 0.  0.
         24    2    4    4    0    0  0.33115198535E+02 -0.17022878584E+03  0.26026826998E+03  0.32305607252E+03  0.80939469554E+02 0.  0.
         11    1    3    3    0    0 -0.81979276363E+02  0.15917575251E+02 -0.16216513668E+03  0.18240477656E+03  0.00000000000E+00 0.  1.
        -11    1    3    3    0    0 -0.27147367594E+03 -0.85822756571E+02 -0.74964964763E+03  0.80189656220E+03  0.00000000000E+00 0. -1.
          2    1    5    5  502    0 -0.25611363465E+01  0.20259634546E+01  0.44713083714E+02  0.44832173743E+02  0.00000000000E+00 0. -1.
          3    1    4    4  503    0  0.41691393059E+02  0.83495706075E+02 -0.23963833005E+03  0.25716966077E+03  0.00000000000E+00 0. -1.
         -4    1    4    4    0  503  0.27864636070E+03  0.15663826108E+03 -0.88155545725E+02  0.33158820759E+03  0.00000000000E+00 0.  1.
         -1    1    5    5    0  502  0.35676334882E+02 -0.17225474929E+03  0.21555518627E+03  0.27822389878E+03  0.00000000000E+00 0.  1.
<mgrwt>
<rscale>  0 0.16236211E+04</rscale>
<asrwt>0</asrwt>
<pdfrwt beam="1">  1        1 0.22118890E+00 0.16236211E+04</pdfrwt>
<pdfrwt beam="2">  1       -1 0.70521145E-01 0.16236211E+04</pdfrwt>
<totfact> 0.14066381E+01</totfact>
</mgrwt>
</event>
<event>
11    1  0.2045212E-008  0.1429512E+04  0.7818608E-02  0.8932729E-01
         -1   -1    0    0    0  501 -0.00000000000E+00  0.00000000000E+00  0.11437967132E+04  0.11437967132E+04  0.00000000000E+00 0.  1.
          1   -1    0    0  501    0  0.00000000000E+00 -0.00000000000E+00 -0.44664959332E+03  0.44664959332E+03  0.00000000000E+00 0. -1.
         23    2    1    2    0    0  0.10331206071E+03  0.18227818697E+03  0.63079454692E+03  0.67134691962E+03  0.94372701153E+02 0.  0.
        254    2    1    2    0    0 -0.10331206071E+03 -0.18227818697E+03  0.66352572951E+02  0.91909938690E+03  0.89243616003E+03 0.  0.
         24    2    4    4    0    0 -0.19713076319E+03 -0.30237028112E+03 -0.31159994419E+03  0.48341965615E+03  0.79446296507E+02 0.  0.
         13    1    3    3    0    0  0.88224299240E+02  0.16550482074E+03  0.42784723974E+03  0.46714947631E+03  0.00000000000E+00 0.  1.
        -13    1    3    3    0    0  0.15087761473E+02  0.16773366226E+02  0.20294730719E+03  0.20419744331E+03  0.00000000000E+00 0. -1.
          4    1    5    5  502    0 -0.20435051652E+03 -0.29095162059E+03 -0.29482198980E+03  0.46187875551E+03  0.00000000000E+00 0. -1.
          3    1    4    4  503    0  0.62224355678E+02  0.91950141189E+02  0.85366938198E+02  0.14005075166E+03  0.00000000000E+00 0. -1.
         -4    1    4    4    0  503  0.31594346799E+02  0.28141952962E+02  0.29258557895E+03  0.29562897908E+03  0.00000000000E+00 0.  1.
         -3    1    5    5    0  502  0.72197533309E+01 -0.11418660534E+02 -0.16777954398E+02  0.21540900639E+02  0.00000000000E+00 0.  1.
<mgrwt>
<rscale>  0 0.14295123E+04</rscale>
<asrwt>0</asrwt>
<pdfrwt beam="1">  1        1 0.68715323E-01 0.14295123E+04</pdfrwt>
<pdfrwt beam="2">  1       -1 0.17596872E+00 0.14295123E+04</pdfrwt>
<totfact> 0.11197099E+01</totfact>
</mgrwt>
</event>
<event>
12    1  0.2045212E-008  0.3347732E+04  0.7818608E-02  0.8150855E-01
          1   -1    0    0  501    0  0.00000000000E+00  0.00000000000E+00  0.33317676309E+04  0.33317676309E+04  0.00000000000E+00 0. -1.
         -1   -1    0    0    0  501 -0.00000000000E+00 -0.00000000000E+00 -0.84094339746E+03  0.84094339746E+03  0.00000000000E+00 0.  1.
         23    2    1    2    0    0  0.13385582812E+03 -0.12625984726E+04  0.22699506537E+04  0.26024871613E+04  0.90505074989E+02 0.  0.
        254    2    1    2    0    0 -0.13385582812E+03  0.12625984726E+04  0.22087357973E+03  0.15702238671E+04  0.89707612197E+03 0.  0.
        -24    2    4    4    0    0 -0.30577360843E+03  0.12043133290E+04 -0.34755173722E+02  0.12465821346E+04  0.94292110724E+02 0.  0.
         24    2    4    4    0    0  0.17191778031E+03  0.58285143632E+02  0.25562875345E+03  0.32364173246E+03  0.80280945697E+02 0.  0.
         13    1    3    3    0    0  0.14502283477E+03 -0.11563425679E+04  0.21015071002E+04  0.24030172386E+04  0.00000000000E+00 0. -1.
        -13    1    3    3    0    0 -0.11167006650E+02 -0.10625590480E+03  0.16844355348E+03  0.19946992267E+03  0.00000000000E+00 0.  1.
          4    1    6    6  502    0  0.13562004861E+03  0.22749832274E+02  0.22680446832E+03  0.26523691165E+03  0.00000000000E+00 0. -1.
          1    1    5    5  503    0 -0.29417641653E+03  0.10354842739E+04 -0.40985582088E+02  0.10772405783E+04  0.00000000000E+00 0. -1.
         -2    1    5    5    0  503 -0.11597191905E+02  0.16882905513E+03  0.62304083653E+01  0.16934155634E+03  0.00000000000E+00 0.  1.
         -3    1    6    6    0  502  0.36297731707E+02  0.35535311358E+02  0.28824285135E+02  0.58404820811E+02  0.00000000000E+00 0.  1.
<mgrwt>
<rscale>  0 0.33477324E+04</rscale>
<asrwt>0</asrwt>
<pdfrwt beam="1">  1        1 0.51257963E+00 0.33477324E+04</pdfrwt>
<pdfrwt beam="2">  1       -1 0.12937591E+00 0.33477324E+04</pdfrwt>
<totfact> 0.14307426E-01</totfact>
</mgrwt>
</event>
<event>
11    1  0.2045212E-008  0.1634487E+04  0.7818608E-02  0.8799637E-01
         -2   -1    0    0    0  501 -0.00000000000E+00  0.00000000000E+00  0.62580702427E+03  0.62580702427E+03  0.00000000000E+00 0.  1.
          2   -1    0    0  501    0  0.00000000000E+00 -0.00000000000E+00 -0.10672416122E+04  0.10672416122E+04  0.00000000000E+00 0. -1.
         23    2    1    2    0    0  0.48999173776E+03  0.30334271059E+03 -0.50664352963E+02  0.58360803536E+03  0.76959464204E+02 0.  0.
        254    2    1    2    0    0 -0.48999173776E+03 -0.30334271059E+03 -0.39077023497E+03  0.11094406011E+04  0.86374091470E+03 0.  0.
         24    2    4    4    0    0 -0.68857052003E+03 -0.23501628501E+03 -0.35755722011E+03  0.81405144350E+03  0.73963313371E+02 0.  0.
         13    1    3    3    0    0  0.21774527725E+03  0.92854438614E+02 -0.33247644793E+02  0.23904049536E+03  0.00000000000E+00 0. -1.
        -13    1    3    3    0    0  0.27224646051E+03  0.21048827197E+03 -0.17416708170E+02  0.34456754000E+03  0.00000000000E+00 0.  1.
          2    1    5    5  502    0 -0.97484564168E+02 -0.45197800487E+02 -0.27345784450E+02  0.11087774054E+03  0.00000000000E+00 0. -1.
          1    1    4    4  503    0 -0.22790377021E+02 -0.66814364785E+02 -0.21115071097E+02  0.73684508914E+02  0.00000000000E+00 0. -1.
         -2    1    4    4    0  503  0.22136915929E+03 -0.15120607927E+01 -0.12097943754E+02  0.22170464870E+03  0.00000000000E+00 0.  1.
         -1    1    5    5    0  502 -0.59108595587E+03 -0.18981848452E+03 -0.33021143566E+03  0.70317370296E+03  0.00000000000E+00 0.  1.
<mgrwt>
<rscale>  0 0.16344874E+04</rscale>
<asrwt>0</asrwt>
<pdfrwt beam="1">  1        2 0.16419102E+00 0.16344874E+04</pdfrwt>
<pdfrwt beam="2">  1       -2 0.96278005E-01 0.16344874E+04</pdfrwt>
<totfact> 0.19728530E+01</totfact>
</mgrwt>
</event>
<event>
11    1  0.2045212E-008  0.1662796E+04  0.7818608E-02  0.8782872E-01
         -1   -1    0    0    0  501 -0.00000000000E+00  0.00000000000E+00  0.12008394574E+04  0.12008394574E+04  0.00000000000E+00 0.  1.
          1   -1    0    0  501    0  0.00000000000E+00 -0.00000000000E+00 -0.57561629890E+03  0.57561629890E+03  0.00000000000E+00 0. -1.
         23    2    1    2    0    0  0.36915946070E+01 -0.23381693592E+03 -0.33441886917E+03  0.41818121397E+03  0.91408753789E+02 0.  0.
        254    2    1    2    0    0 -0.36915946070E+01  0.23381693592E+03  0.95964202770E+03  0.13582745424E+04  0.93236952101E+03 0.  0.
         24    2    4    4    0    0  0.44479684520E+02  0.54650338497E+03  0.54140395570E+03  0.77459309156E+03  0.78941890902E+02 0.  0.
         11    1    3    3    0    0 -0.42476127375E+02 -0.11782525996E+03 -0.18599977427E+03  0.22423855447E+03  0.00000000000E+00 0. -1.
        -11    1    3    3    0    0  0.46167721982E+02 -0.11599167596E+03 -0.14841909490E+03  0.19394265950E+03  0.00000000000E+00 0.  1.
          2    1    5    5  502    0  0.45282783594E+02  0.54738634386E+03  0.53048024292E+03  0.76360436619E+03  0.00000000000E+00 0. -1.
          1    1    4    4  503    0  0.68221743506E+02 -0.25817083580E+03  0.34321708076E+03  0.43486130118E+03  0.00000000000E+00 0. -1.
         -2    1    4    4    0  503 -0.11639302263E+03 -0.54515613247E+02  0.75020991244E+02  0.14882014962E+03  0.00000000000E+00 0.  1.
         -1    1    5    5    0  502 -0.80309907462E+00 -0.88295889231E+00  0.10923712780E+02  0.10988725378E+02  0.00000000000E+00 0.  1.
<mgrwt>
<rscale>  0 0.16627962E+04</rscale>
<asrwt>0</asrwt>
<pdfrwt beam="1">  1        1 0.88556354E-01 0.16627962E+04</pdfrwt>
<pdfrwt beam="2">  1       -1 0.18474453E+00 0.16627962E+04</pdfrwt>
<totfact> 0.66788829E+00</totfact>
</mgrwt>
</event>
<event>
11    1  0.2045212E-008  0.1340176E+04  0.7818608E-02  0.8998298E-01
         -4   -1    0    0    0  501 -0.00000000000E+00  0.00000000000E+00  0.41133960984E+03  0.41133960984E+03  0.00000000000E+00 0.  1.
          4   -1    0    0  501    0  0.00000000000E+00 -0.00000000000E+00 -0.10915992328E+04  0.10915992328E+04  0.00000000000E+00 0. -1.
         23    2    1    2    0    0  0.12677093702E+03  0.20034483198E+03 -0.46988831735E+03  0.53482951328E+03  0.95071842900E+02 0.  0.
        254    2    1    2    0    0 -0.12677093702E+03 -0.20034483198E+03 -0.21037130563E+03  0.96810932938E+03  0.91475169594E+03 0.  0.
         24    2    4    4    0    0  0.20816319228E+03 -0.21599312709E+03  0.28322964866E+02  0.31183540085E+03  0.80337919511E+02 0.  0.
         13    1    3    3    0    0  0.12744821419E+03  0.19178534522E+03 -0.47269217068E+03  0.52579706557E+03  0.00000000000E+00 0. -1.
        -13    1    3    3    0    0 -0.67727717772E+00  0.85594867625E+01  0.28038533285E+01  0.90324477026E+01  0.00000000000E+00 0.  1.
          2    1    5    5  502    0  0.47032239919E+02 -0.81284557652E+02 -0.20704726876E+02  0.96165984732E+02  0.00000000000E+00 0. -1.
          3    1    4    4  503    0 -0.39942552304E+02  0.22967384765E+03 -0.26693173806E+02  0.23464443165E+03  0.00000000000E+00 0. -1.
         -4    1    4    4    0  503 -0.29499157700E+03 -0.21402555255E+03 -0.21200109669E+03  0.42162949688E+03  0.00000000000E+00 0.  1.
         -1    1    5    5    0  502  0.16113095237E+03 -0.13470856943E+03  0.49027691742E+02  0.21566941611E+03  0.00000000000E+00 0.  1.
<mgrwt>
<rscale>  0 0.13401761E+04</rscale>
<asrwt>0</asrwt>
<pdfrwt beam="1">  1        4 0.16793834E+00 0.13401761E+04</pdfrwt>
<pdfrwt beam="2">  1       -4 0.63283017E-01 0.13401761E+04</pdfrwt>
<totfact> 0.99824884E-01</totfact>
</mgrwt>
</event>
<event>
12    1  0.2045212E-008  0.1218358E+04  0.7818608E-02  0.9096938E-01
          1   -1    0    0  501    0  0.00000000000E+00  0.00000000000E+00  0.11836411292E+04  0.11836411292E+04  0.00000000000E+00 0. -1.
         -1   -1    0    0    0  501 -0.00000000000E+00 -0.00000000000E+00 -0.31352304387E+03  0.31352304387E+03  0.00000000000E+00 0.  1.
         23    2    1    2    0    0  0.62695617424E+02  0.26042485853E+03  0.22444146131E+03  0.35963704846E+03  0.84929321697E+02 0.  0.
        254    2    1    2    0    0 -0.62695617424E+02 -0.26042485853E+03  0.64567662398E+03  0.11375271246E+04  0.89739501280E+03 0.  0.
        -24    2    4    4    0    0  0.23561234788E+03  0.72780325095E+02 -0.80369725970E+02  0.28055677736E+03  0.10697036166E+03 0.  0.
         24    2    4    4    0    0 -0.29830796531E+03 -0.33320518363E+03  0.72604634995E+03  0.85697034722E+03  0.85097221867E+02 0.  0.
         11    1    3    3    0    0  0.15641877598E+02  0.13629519709E+03  0.16388844495E+03  0.21372990308E+03  0.00000000000E+00 0. -1.
        -11    1    3    3    0    0  0.47053739825E+02  0.12412966144E+03  0.60553016362E+02  0.14590714538E+03  0.00000000000E+00 0.  1.
          2    1    6    6  502    0 -0.69440431396E+02 -0.12230012018E+03  0.17963022891E+03  0.22813660830E+03  0.00000000000E+00 0. -1.
          1    1    5    5  503    0  0.63095920311E+02  0.66531417244E+02 -0.39746263755E+01  0.91778659258E+02  0.00000000000E+00 0. -1.
         -2    1    5    5    0  503  0.17251642757E+03  0.62489078518E+01 -0.76395099594E+02  0.18877811810E+03  0.00000000000E+00 0.  1.
         -1    1    6    6    0  502 -0.22886753391E+03 -0.21090506345E+03  0.54641612104E+03  0.62883373892E+03  0.00000000000E+00 0.  1.
<mgrwt>
<rscale>  0 0.12183575E+04</rscale>
<asrwt>0</asrwt>
<pdfrwt beam="1">  1        1 0.18209863E+00 0.12183575E+04</pdfrwt>
<pdfrwt beam="2">  1       -1 0.48234315E-01 0.12183575E+04</pdfrwt>
<totfact> 0.46649708E+01</totfact>
</mgrwt>
</event>
<event>
12    1  0.2045212E-008  0.2164693E+04  0.7818608E-02  0.8533269E-01
         -2   -1    0    0    0  501 -0.00000000000E+00  0.00000000000E+00  0.90485747764E+03  0.90485747764E+03  0.00000000000E+00 0. -1.
          2   -1    0    0  501    0  0.00000000000E+00 -0.00000000000E+00 -0.12946497602E+04  0.12946497602E+04  0.00000000000E+00 0.  1.
         23    2    1    2    0    0 -0.76195406414E+03 -0.44691363205E+03 -0.30070469123E+03  0.93557320749E+03  0.67587904805E+02 0.  0.
        254    2    1    2    0    0  0.76195406414E+03  0.44691363205E+03 -0.89087591317E+02  0.12639340303E+04  0.89960371482E+03 0.  0.
        -24    2    4    4    0    0  0.60558612391E+03 -0.85971086432E+01 -0.35787082133E+03  0.70670858943E+03  0.67505865407E+02 0.  0.
         24    2    4    4    0    0  0.15636794023E+03  0.45551074069E+03  0.26878323002E+03  0.55722544090E+03  0.79465713516E+02 0.  0.
         13    1    3    3    0    0 -0.66135048015E+03 -0.40041569453E+03 -0.28326057275E+03  0.82337946178E+03  0.00000000000E+00 0.  1.
        -13    1    3    3    0    0 -0.10060358399E+03 -0.46497937524E+02 -0.17444118481E+02  0.11219374571E+03  0.00000000000E+00 0. -1.
          4    1    6    6  502    0  0.76497267945E+01  0.29531884947E+01  0.15916376029E+02  0.17904487377E+02  0.00000000000E+00 0. -1.
          1    1    5    5  503    0  0.41458057128E+02 -0.17351654907E+02 -0.21142703557E+02  0.49667538117E+02  0.00000000000E+00 0. -1.
         -2    1    5    5    0  503  0.56412806678E+03  0.87545462636E+01 -0.33672811778E+03  0.65704105132E+03  0.00000000000E+00 0.  1.
         -3    1    6    6    0  502  0.14871821343E+03  0.45255755220E+03  0.25286685399E+03  0.53932095352E+03  0.00000000000E+00 0.  1.
<mgrwt>
<rscale>  0 0.21646926E+04</rscale>
<asrwt>0</asrwt>
<pdfrwt beam="1">  1        2 0.19917688E+00 0.21646926E+04</pdfrwt>
<pdfrwt beam="2">  1       -2 0.13920884E+00 0.21646926E+04</pdfrwt>
<totfact> 0.55643116E+00</totfact>
</mgrwt>
</event>
<event>
12    1  0.2045212E-008  0.2390625E+04  0.7818608E-02  0.8443022E-01
         -1   -1    0    0    0  501 -0.00000000000E+00  0.00000000000E+00  0.12046329825E+04  0.12046329825E+04  0.00000000000E+00 0.  1.
          1   -1    0    0  501    0  0.00000000000E+00 -0.00000000000E+00 -0.11860644929E+04  0.11860644929E+04  0.00000000000E+00 0. -1.
         23    2    1    2    0    0 -0.84296041670E+03 -0.41061909991E+03 -0.38958806357E+03  0.10194251261E+04  0.90875844240E+02 0.  0.
        254    2    1    2    0    0  0.84296041670E+03  0.41061909991E+03  0.40815655326E+03  0.13712723493E+04  0.91356760818E+03 0.  0.
        -24    2    4    4    0    0  0.62748754196E+03  0.62374465440E+03  0.53178464495E+03  0.10345639998E+04  0.68773190948E+02 0.  0.
         24    2    4    4    0    0  0.21547287474E+03 -0.21312555450E+03 -0.12362809170E+03  0.33670834955E+03  0.78978135434E+02 0.  0.
         11    1    3    3    0    0 -0.38687450395E+03 -0.14006444183E+03 -0.18298837690E+03  0.45030509186E+03  0.00000000000E+00 0.  1.
        -11    1    3    3    0    0 -0.45608591275E+03 -0.27055465808E+03 -0.20659968667E+03  0.56912003422E+03  0.00000000000E+00 0. -1.
          4    1    6    6  502    0  0.31592048787E+02 -0.62170793227E+02 -0.25978582240E+01  0.69785485199E+02  0.00000000000E+00 0. -1.
          1    1    5    5  503    0  0.70275519646E+02  0.52468926871E+02  0.72669826126E+02  0.11389706132E+03  0.00000000000E+00 0. -1.
         -2    1    5    5    0  503  0.55721202232E+03  0.57127572753E+03  0.45911481883E+03  0.92066693845E+03  0.00000000000E+00 0.  1.
         -3    1    6    6    0  502  0.18388082595E+03 -0.15095476127E+03 -0.12103023347E+03  0.26692286436E+03  0.00000000000E+00 0.  1.
<mgrwt>
<rscale>  0 0.23906254E+04</rscale>
<asrwt>0</asrwt>
<pdfrwt beam="1">  1        1 0.18247146E+00 0.23906254E+04</pdfrwt>
<pdfrwt beam="2">  1       -1 0.18532815E+00 0.23906254E+04</pdfrwt>
<totfact> 0.18706363E+00</totfact>
</mgrwt>
</event>
<event>
11    1  0.2045212E-008  0.1704929E+04  0.7818608E-02  0.8758558E-01
         -2   -1    0    0    0  501 -0.00000000000E+00  0.00000000000E+00  0.66297029710E+03  0.66297029710E+03  0.00000000000E+00 0.  1.
          2   -1    0    0  501    0  0.00000000000E+00 -0.00000000000E+00 -0.10961209315E+04  0.10961209315E+04  0.00000000000E+00 0. -1.
         23    2    1    2    0    0 -0.44976127106E+01 -0.37475251916E+03  0.33576431073E+03  0.51194085092E+03  0.94266024343E+02 0.  0.
        254    2    1    2    0    0  0.44976127106E+01  0.37475251916E+03 -0.76891494512E+03  0.12471503777E+04  0.90757599825E+03 0.  0.
         24    2    4    4    0    0  0.39161372791E+03  0.39655995371E+03 -0.41324807243E+03  0.69851439756E+03  0.80791617502E+02 0.  0.
         11    1    3    3    0    0 -0.30035486070E+02 -0.29415665553E+03  0.29644357046E+03  0.41869924634E+03  0.00000000000E+00 0.  1.
        -11    1    3    3    0    0  0.25537873360E+02 -0.80595863626E+02  0.39320740264E+02  0.93241604578E+02  0.00000000000E+00 0. -1.
          4    1    5    5  502    0  0.30585676971E+03  0.34825582586E+03 -0.35788420709E+03  0.58558653461E+03  0.00000000000E+00 0. -1.
          1    1    4    4  503    0 -0.80701322346E+02 -0.47269361692E+02 -0.24378174676E+02  0.96650873683E+02  0.00000000000E+00 0. -1.
         -2    1    4    4    0  503 -0.30641479285E+03  0.25461927136E+02 -0.33128869802E+03  0.45198510644E+03  0.00000000000E+00 0.  1.
         -3    1    5    5    0  502  0.85756958198E+02  0.48304127850E+02 -0.55363865337E+02  0.11292786296E+03  0.00000000000E+00 0.  1.
<mgrwt>
<rscale>  0 0.17049289E+04</rscale>
<asrwt>0</asrwt>
<pdfrwt beam="1">  1        2 0.16863399E+00 0.17049289E+04</pdfrwt>
<pdfrwt beam="2">  1       -2 0.10199543E+00 0.17049289E+04</pdfrwt>
<totfact> 0.16423399E+01</totfact>
</mgrwt>
</event>
<event>
11    1  0.2045212E-008  0.1364354E+04  0.7818608E-02  0.8980033E-01
          1   -1    0    0  501    0  0.00000000000E+00  0.00000000000E+00  0.39751950547E+03  0.39751950547E+03  0.00000000000E+00 0. -1.
         -1   -1    0    0    0  501 -0.00000000000E+00 -0.00000000000E+00 -0.11706735845E+04  0.11706735845E+04  0.00000000000E+00 0.  1.
         23    2    1    2    0    0 -0.14624360476E+02 -0.32687046966E+03 -0.10678283270E+00  0.33967032799E+03  0.91201669182E+02 0.  0.
        254    2    1    2    0    0  0.14624360476E+02  0.32687046966E+03 -0.77304729616E+03  0.12285227619E+04  0.89699937494E+03 0.  0.
         24    2    4    4    0    0 -0.10823399895E+03  0.46735801899E+03 -0.79054314031E+03  0.92822964458E+03  0.80707496171E+02 0.  0.
         11    1    3    3    0    0 -0.46833221821E+01 -0.32159472931E+03 -0.13825703601E+02  0.32192585095E+03  0.00000000000E+00 0.  1.
        -11    1    3    3    0    0 -0.99410382937E+01 -0.52757403476E+01  0.13718920769E+02  0.17744477046E+02  0.00000000000E+00 0. -1.
          4    1    5    5  502    0 -0.95563519887E+02  0.46308857702E+03 -0.76350870078E+03  0.89806957006E+03  0.00000000000E+00 0. -1.
          3    1    4    4  503    0  0.44114807452E+02 -0.36447487733E+02  0.12093242232E+03  0.13378784088E+03  0.00000000000E+00 0. -1.
         -4    1    4    4    0  503  0.78743551970E+02 -0.10404006160E+03 -0.10343657817E+03  0.16650527648E+03  0.00000000000E+00 0.  1.
         -3    1    5    5    0  502 -0.12670479059E+02  0.42694419752E+01 -0.27034439531E+02  0.30160074521E+02  0.00000000000E+00 0.  1.
<mgrwt>
<rscale>  0 0.13643542E+04</rscale>
<asrwt>0</asrwt>
<pdfrwt beam="1">  1        1 0.61156848E-01 0.13643542E+04</pdfrwt>
<pdfrwt beam="2">  1       -1 0.18010362E+00 0.13643542E+04</pdfrwt>
<totfact> 0.12287470E+01</totfact>
</mgrwt>
</event>
<event>
12    1  0.2045212E-008  0.2096471E+04  0.7818608E-02  0.8562799E-01
         -2   -1    0    0    0  501 -0.00000000000E+00  0.00000000000E+00  0.10572134905E+04  0.10572134905E+04  0.00000000000E+00 0.  1.
          2   -1    0    0  501    0  0.00000000000E+00 -0.00000000000E+00 -0.10393339527E+04  0.10393339527E+04  0.00000000000E+00 0. -1.
         23    2    1    2    0    0 -0.13706239161E+02 -0.26066902686E+03  0.81873890596E+03  0.86358441116E+03  0.85489394089E+02 0.  0.
        254    2    1    2    0    0  0.13706239161E+02  0.26066902686E+03 -0.80085936817E+03  0.12329630321E+04  0.90038097958E+03 0.  0.
        -24    2    4    4    0    0  0.27042862357E+03  0.41232604398E+03 -0.77060917028E+03  0.92115022257E+03  0.10740033624E+03 0.  0.
         24    2    4    4    0    0 -0.25672238441E+03 -0.15165701712E+03 -0.30250197886E+02  0.31181280953E+03  0.86057656329E+02 0.  0.
         13    1    3    3    0    0  0.11725057927E+02 -0.14503592072E+03  0.56731490759E+03  0.58567832439E+03  0.00000000000E+00 0.  1.
        -13    1    3    3    0    0 -0.25431297088E+02 -0.11563310614E+03  0.25142399837E+03  0.27790608677E+03  0.00000000000E+00 0. -1.
          4    1    6    6  502    0 -0.12419217656E+03 -0.51603952853E+02  0.25030493382E+02  0.13679616320E+03  0.00000000000E+00 0. -1.
          1    1    5    5  503    0  0.27537721425E+03  0.41572030246E+03 -0.76112261391E+03  0.90992505923E+03  0.00000000000E+00 0. -1.
         -2    1    5    5    0  503 -0.49485906736E+01 -0.33942584793E+01 -0.94865563669E+01  0.11225163339E+02  0.00000000000E+00 0.  1.
         -3    1    6    6    0  502 -0.13253020786E+03 -0.10005306427E+03 -0.55280691268E+02  0.17501664633E+03  0.00000000000E+00 0.  1.
<mgrwt>
<rscale>  0 0.20964712E+04</rscale>
<asrwt>0</asrwt>
<pdfrwt beam="1">  1        2 0.15989753E+00 0.20964712E+04</pdfrwt>
<pdfrwt beam="2">  1       -2 0.16264823E+00 0.20964712E+04</pdfrwt>
<totfact> 0.52774404E+00</totfact>
</mgrwt>
</event>
<event>
12    1  0.2045212E-008  0.3278908E+04  0.7818608E-02  0.8168283E-01
          2   -1    0    0  501    0  0.00000000000E+00  0.00000000000E+00  0.19013281320E+04  0.19013281320E+04  0.00000000000E+00 0. -1.
         -2   -1    0    0    0  501 -0.00000000000E+00 -0.00000000000E+00 -0.14136481161E+04  0.14136481161E+04  0.00000000000E+00 0.  1.
         23    2    1    2    0    0 -0.11028169414E+04  0.36242923818E+03  0.12108124862E+04  0.16799204074E+04  0.92225483054E+02 0.  0.
        254    2    1    2    0    0  0.11028169414E+04 -0.36242923818E+03 -0.72313247023E+03  0.16350558406E+04  0.89606186928E+03 0.  0.
        -24    2    4    4    0    0  0.38353105616E+02 -0.14940955265E+03  0.16179693513E+03  0.23220937525E+03  0.62839244129E+02 0.  0.
         24    2    4    4    0    0  0.10644638358E+04 -0.21301968552E+03 -0.88492940536E+03  0.14028464654E+04  0.80109355758E+02 0.  0.
         13    1    3    3    0    0 -0.15526241777E+02  0.18414263888E+02  0.25290365502E+02  0.34924946464E+02  0.00000000000E+00 0.  1.
        -13    1    3    3    0    0 -0.10872906996E+04  0.34401497429E+03  0.11855221207E+04  0.16449954610E+04  0.00000000000E+00 0. -1.
          4    1    6    6  502    0  0.78510746341E+01 -0.61535919307E+01 -0.17811961426E+02  0.20414995381E+02  0.00000000000E+00 0. -1.
          1    1    5    5  503    0  0.32105502985E+02 -0.21928749357E+02  0.40176940783E+02  0.55909032731E+02  0.00000000000E+00 0. -1.
         -2    1    5    5    0  503  0.62476026309E+01 -0.12748080330E+03  0.12161999435E+03  0.17630034252E+03  0.00000000000E+00 0.  1.
         -3    1    6    6    0  502  0.10566127611E+04 -0.20686609359E+03 -0.86711744393E+03  0.13824314700E+04  0.00000000000E+00 0.  1.
<mgrwt>
<rscale>  0 0.32789077E+04</rscale>
<asrwt>0</asrwt>
<pdfrwt beam="1">  1        2 0.29251202E+00 0.32789077E+04</pdfrwt>
<pdfrwt beam="2">  1       -2 0.21748433E+00 0.32789077E+04</pdfrwt>
<totfact> 0.65038420E-01</totfact>
</mgrwt>
</event>
