<event>
12    1  0.3127365E-008  0.6204486E+03  0.7818608E-02  0.9863867E-01
          2   -1    0    0  501    0  0.00000000000E+00  0.00000000000E+00  0.59979597294E+03  0.59979597294E+03  0.00000000000E+00 0.  1.
         -2   -1    0    0    0  501 -0.00000000000E+00 -0.00000000000E+00 -0.70331409738E+03  0.70331409738E+03  0.00000000000E+00 0. -1.
         23    2    1    2    0    0 -0.17123716842E+03  0.46924292786E+03  0.37090379495E+02  0.50978235661E+03  0.94822263562E+02 0.  0.
    5000000    2    1    2    0    0  0.17123716842E+03 -0.46924292786E+03 -0.14060850394E+03  0.79332771371E+03  0.60007250959E+03 0.  0.
         23    2    4    4    0    0  0.31849101743E+03 -0.47274903139E+03 -0.19918880274E+03  0.61125742391E+03  0.95033069406E+02 0.  0.
         23    2    4    4    0    0 -0.14725384901E+03  0.35061035319E+01  0.58580298801E+02  0.18207028980E+03  0.89565340444E+02 0.  0.
          4    1    3    3  502    0 -0.17612645789E+03  0.38249028033E+03  0.22663315444E+02  0.42170246570E+03  0.00000000000E+00 0.  1.
         -4    1    3    3    0  502  0.48892894684E+01  0.86752647530E+02  0.14427064051E+02  0.88079890907E+02  0.00000000000E+00 0. -1.
         11    1    5    5    0    0  0.23995401848E+03 -0.37501326195E+03 -0.11368399728E+03  0.45949638613E+03  0.00000000000E+00 0. -1.
        -11    1    5    5    0    0  0.78536998951E+02 -0.97735769436E+02 -0.85504805461E+02  0.15176103778E+03  0.00000000000E+00 0.  1.
          5    1    6    6  503    0 -0.42256533146E+02  0.32244764245E+02  0.49410643064E+02  0.72724418614E+02  0.47000000000E+01 0. -1.
         -5    1    6    6    0  503 -0.10499731587E+03 -0.28738660714E+02  0.91696557372E+01  0.10934587118E+03  0.47000000000E+01 0.  1.
<mgrwt>
<rscale>  0 0.62044860E+03</rscale>
<asrwt>0</asrwt>
<pdfrwt beam="1">  1        2 0.92276303E-01 0.62044860E+03</pdfrwt>
<pdfrwt beam="2">  1       -2 0.10820217E+00 0.62044860E+03</pdfrwt>
<totfact> 0.34739842E+01</totfact>
</mgrwt>
</event>
<event>
12    1  0.3127365E-008  0.7433609E+03  0.7818608E-02  0.9645824E-01
          1   -1    0    0  501    0  0.00000000000E+00  0.00000000000E+00  0.14373978829E+04  0.14373978829E+04  0.00000000000E+00 0. -1.
         -1   -1    0    0    0  501 -0.00000000000E+00 -0.00000000000E+00 -0.42018290404E+03  0.42018290404E+03  0.00000000000E+00 0.  1.
         23    2    1    2    0    0 -0.63185839868E+03  0.80223231790E+02  0.63196991314E+03  0.90149910263E+03  0.87371952127E+02 0.  0.
    5000000    2    1    2    0    0  0.63185839868E+03 -0.80223231790E+02  0.38524506572E+03  0.95608168432E+03  0.59999801961E+03 0.  0.
         23    2    4    4    0    0  0.45450449765E+03 -0.31141824525E+03  0.17643457494E+03  0.58572818963E+03  0.91611631531E+02 0.  0.
         23    2    4    4    0    0  0.17735390103E+03  0.23119501346E+03  0.20881049078E+03  0.37035349469E+03  0.93028756361E+02 0.  0.
          2    1    3    3  502    0 -0.29682537377E+03  0.76621914632E+02  0.33049382806E+03  0.45077975853E+03  0.00000000000E+00 0. -1.
         -2    1    3    3    0  502 -0.33503302491E+03  0.36013171583E+01  0.30147608509E+03  0.45071934410E+03  0.00000000000E+00 0.  1.
         13    1    5    5    0    0  0.31834362427E+03 -0.21298623970E+03  0.16583252891E+03  0.41738019726E+03  0.00000000000E+00 0. -1.
        -13    1    5    5    0    0  0.13616087338E+03 -0.98432005553E+02  0.10602046029E+02  0.16834799237E+03  0.00000000000E+00 0.  1.
          5    1    6    6  503    0  0.15679671004E+03  0.18030405468E+03  0.12405838326E+03  0.26927185681E+03  0.47000000000E+01 0. -1.
         -5    1    6    6    0  503  0.20557190990E+02  0.50890958778E+02  0.84752107523E+02  0.10108163788E+03  0.47000000000E+01 0.  1.
<mgrwt>
<rscale>  0 0.74336093E+03</rscale>
<asrwt>0</asrwt>
<pdfrwt beam="1">  1        1 0.22113813E+00 0.74336093E+03</pdfrwt>
<pdfrwt beam="2">  1       -1 0.64643524E-01 0.74336093E+03</pdfrwt>
<totfact> 0.18169512E+01</totfact>
</mgrwt>
</event>
<event>
12    1  0.3127365E-008  0.2512492E+04  0.7818608E-02  0.8398549E-01
         -1   -1    0    0    0  501 -0.00000000000E+00  0.00000000000E+00  0.27330618290E+04  0.27330618290E+04  0.00000000000E+00 0.  1.
          1   -1    0    0  501    0  0.00000000000E+00 -0.00000000000E+00 -0.34791299325E+04  0.34791299325E+04  0.00000000000E+00 0. -1.
         23    2    1    2    0    0  0.55936589939E+03  0.24364826911E+04 -0.21362470964E+04  0.32895216894E+04  0.89795181970E+02 0.  0.
    5000000    2    1    2    0    0 -0.55936589939E+03 -0.24364826911E+04  0.13901789929E+04  0.29226700722E+04  0.60005383539E+03 0.  0.
         23    2    4    4    0    0  0.20780961544E+01 -0.12053637669E+03  0.21966819117E+03  0.26609885309E+03  0.89560866539E+02 0.  0.
         23    2    4    4    0    0 -0.56144399555E+03 -0.23159463144E+04  0.11705108017E+04  0.26565712191E+04  0.91915254567E+02 0.  0.
          4    1    3    3  502    0  0.26538329227E+03  0.10507209282E+04 -0.97570087383E+03  0.14582300765E+04  0.00000000000E+00 0. -1.
         -4    1    3    3    0  502  0.29398260712E+03  0.13857617628E+04 -0.11605462225E+04  0.18312916129E+04  0.00000000000E+00 0.  1.
         13    1    5    5    0    0  0.28454626437E+02 -0.10862079860E+03  0.20479578079E+03  0.23355824858E+03  0.00000000000E+00 0.  1.
        -13    1    5    5    0    0 -0.26376530283E+02 -0.11915578090E+02  0.14872410383E+02  0.32540604505E+02  0.00000000000E+00 0. -1.
          5    1    6    6  503    0 -0.45440695315E+03 -0.17995127889E+04  0.87378800261E+03  0.20514042800E+04  0.47000000000E+01 0. -1.
         -5    1    6    6    0  503 -0.10703704240E+03 -0.51643352554E+03  0.29672279907E+03  0.60516693915E+03  0.47000000000E+01 0.  1.
<mgrwt>
<rscale>  0 0.25124917E+04</rscale>
<asrwt>0</asrwt>
<pdfrwt beam="1">  1        1 0.53525076E+00 0.25124917E+04</pdfrwt>
<pdfrwt beam="2">  1       -1 0.42047105E+00 0.25124917E+04</pdfrwt>
<totfact> 0.11117164E-03</totfact>
</mgrwt>
</event>
<event>
12    1  0.3127365E-008  0.5350696E+03  0.7818608E-02  0.1005010E+00
         -2   -1    0    0    0  501 -0.00000000000E+00  0.00000000000E+00  0.54839139402E+03  0.54839139402E+03  0.00000000000E+00 0.  1.
          2   -1    0    0  501    0  0.00000000000E+00 -0.00000000000E+00 -0.63838263035E+03  0.63838263035E+03  0.00000000000E+00 0. -1.
         23    2    1    2    0    0 -0.33303407118E+03 -0.15754111080E+03 -0.26299153118E+03  0.46201158400E+03  0.92516291110E+02 0.  0.
    5000000    2    1    2    0    0  0.33303407118E+03  0.15754111080E+03  0.17300029485E+03  0.72476244037E+03  0.59968374899E+03 0.  0.
         23    2    4    4    0    0  0.46676954341E+03  0.21730638747E+03  0.16899313592E+03  0.54954894795E+03  0.91375562961E+02 0.  0.
         23    2    4    4    0    0 -0.13373547224E+03 -0.59765276668E+02  0.40071589304E+01  0.17521349243E+03  0.96055430747E+02 0.  0.
          1    1    3    3  502    0 -0.15027689626E+03 -0.12045670187E+03 -0.11882883883E+03  0.22630345891E+03  0.00000000000E+00 0. -1.
         -1    1    3    3    0  502 -0.18275717492E+03 -0.37084408927E+02 -0.14416269235E+03  0.23570812509E+03  0.00000000000E+00 0.  1.
         11    1    5    5    0    0  0.14345588130E+03  0.84471320061E+02  0.96993022188E+02  0.19267236477E+03  0.00000000000E+00 0.  1.
        -11    1    5    5    0    0  0.32331366211E+03  0.13283506741E+03  0.72000113732E+02  0.35687658318E+03  0.00000000000E+00 0. -1.
          5    1    6    6  503    0 -0.47771578964E+02 -0.73578751721E+02  0.52778990001E+01  0.88010810015E+02  0.47000000000E+01 0. -1.
         -5    1    6    6    0  503 -0.85963893271E+02  0.13813475052E+02 -0.12707400697E+01  0.87202682411E+02  0.47000000000E+01 0.  1.
<mgrwt>
<rscale>  0 0.53506960E+03</rscale>
<asrwt>0</asrwt>
<pdfrwt beam="1">  1        2 0.98212713E-01 0.53506960E+03</pdfrwt>
<pdfrwt beam="2">  1       -2 0.84367906E-01 0.53506960E+03</pdfrwt>
<totfact> 0.58059477E+01</totfact>
</mgrwt>
</event>
<event>
12    1  0.3127365E-008  0.5122350E+03  0.7818608E-02  0.1010634E+00
          1   -1    0    0  501    0  0.00000000000E+00  0.00000000000E+00  0.19995878881E+04  0.19995878881E+04  0.00000000000E+00 0. -1.
         -1   -1    0    0    0  501 -0.00000000000E+00 -0.00000000000E+00 -0.47333094934E+03  0.47333094934E+03  0.00000000000E+00 0.  1.
         23    2    1    2    0    0 -0.48063830278E+02 -0.34706026421E+03  0.17145871894E+04  0.17524223874E+04  0.91728048623E+02 0.  0.
    5000000    2    1    2    0    0  0.48063830278E+02  0.34706026421E+03 -0.18833025063E+03  0.72049645009E+03  0.60073779015E+03 0.  0.
         23    2    4    4    0    0 -0.13228265177E+03 -0.10034620346E+03 -0.12581567515E+03  0.22714020637E+03  0.90526397951E+02 0.  0.
         23    2    4    4    0    0  0.18034648205E+03  0.44740646767E+03 -0.62514575478E+02  0.49335624372E+03  0.82431245112E+02 0.  0.
          1    1    3    3  502    0 -0.14904676141E+02 -0.23928898674E+03  0.96150863903E+03  0.99094915686E+03  0.00000000000E+00 0. -1.
         -1    1    3    3    0  502 -0.33159154136E+02 -0.10777127747E+03  0.75307855039E+03  0.76147323053E+03  0.00000000000E+00 0.  1.
         13    1    5    5    0    0  0.99564273019E+01 -0.17954104969E+02 -0.31575756017E+02  0.37663094641E+02  0.00000000000E+00 0. -1.
        -13    1    5    5    0    0 -0.14223907908E+03 -0.82392098490E+02 -0.94239919133E+02  0.18947711173E+03  0.00000000000E+00 0.  1.
          5    1    6    6  503    0  0.13465266503E+03  0.24607906430E+03 -0.59721469572E+02  0.28683617278E+03  0.47000000000E+01 0. -1.
         -5    1    6    6    0  503  0.45693817021E+02  0.20132740337E+03 -0.27931059068E+01  0.20652007094E+03  0.47000000000E+01 0.  1.
<mgrwt>
<rscale>  0 0.51223499E+03</rscale>
<asrwt>0</asrwt>
<pdfrwt beam="1">  1        1 0.30762890E+00 0.51223499E+03</pdfrwt>
<pdfrwt beam="2">  1       -1 0.72820147E-01 0.51223499E+03</pdfrwt>
<totfact> 0.62482054E+00</totfact>
</mgrwt>
</event>
<event>
12    1  0.3127365E-008  0.1113815E+04  0.7818608E-02  0.9191830E-01
          1   -1    0    0  501    0  0.00000000000E+00  0.00000000000E+00  0.97705922965E+03  0.97705922965E+03  0.00000000000E+00 0. -1.
         -1   -1    0    0    0  501 -0.00000000000E+00 -0.00000000000E+00 -0.20272387946E+04  0.20272387946E+04  0.00000000000E+00 0.  1.
         23    2    1    2    0    0  0.96253408448E+03  0.48669221010E+03  0.35019878818E+03  0.11376444071E+04  0.90853918806E+02 0.  0.
    5000000    2    1    2    0    0 -0.96253408448E+03 -0.48669221010E+03 -0.14003783531E+04  0.18666536171E+04  0.59999585284E+03 0.  0.
         23    2    4    4    0    0 -0.89461580205E+03 -0.31347003983E+03 -0.84340245918E+03  0.12722566372E+04  0.93318505625E+02 0.  0.
         23    2    4    4    0    0 -0.67918282424E+02 -0.17322217027E+03 -0.55697589392E+03  0.59439697999E+03  0.92015270742E+02 0.  0.
          4    1    3    3  502    0  0.54812708221E+03  0.22898889324E+03  0.17752377214E+03  0.61999508155E+03  0.00000000000E+00 0. -1.
         -4    1    3    3    0  502  0.41440700227E+03  0.25770331686E+03  0.17267501604E+03  0.51764932553E+03  0.00000000000E+00 0.  1.
         11    1    5    5    0    0 -0.65415382524E+03 -0.25516145544E+03 -0.66628001956E+03  0.96796366661E+03  0.00000000000E+00 0. -1.
        -11    1    5    5    0    0 -0.24046197681E+03 -0.58308584386E+02 -0.17712243961E+03  0.30429297054E+03  0.00000000000E+00 0.  1.
          5    1    6    6  503    0 -0.75515989622E+02 -0.11874643818E+03 -0.29782428903E+03  0.32943099187E+03  0.47000000000E+01 0. -1.
         -5    1    6    6    0  503  0.75977071977E+01 -0.54475732093E+02 -0.25915160489E+03  0.26496598812E+03  0.47000000000E+01 0.  1.
<mgrwt>
<rscale>  0 0.11138153E+04</rscale>
<asrwt>0</asrwt>
<pdfrwt beam="1">  1        1 0.15031681E+00 0.11138153E+04</pdfrwt>
<pdfrwt beam="2">  1       -1 0.31188289E+00 0.11138153E+04</pdfrwt>
<totfact> 0.43525863E-01</totfact>
</mgrwt>
</event>
<event>
12    1  0.3127365E-008  0.6626310E+03  0.7818608E-02  0.9783363E-01
          2   -1    0    0  501    0  0.00000000000E+00  0.00000000000E+00  0.15667180778E+04  0.15667180778E+04  0.00000000000E+00 0. -1.
         -2   -1    0    0    0  501 -0.00000000000E+00 -0.00000000000E+00 -0.30267198829E+03  0.30267198829E+03  0.00000000000E+00 0.  1.
         23    2    1    2    0    0 -0.88622395164E+02  0.51757152052E+03  0.28364236246E+03  0.60568701501E+03  0.10329357477E+03 0.  0.
    5000000    2    1    2    0    0  0.88622395164E+02 -0.51757152052E+03  0.98040372702E+03  0.12637030511E+04  0.60001643772E+03 0.  0.
         23    2    4    4    0    0  0.19000843206E+03  0.46386843392E+02  0.23933617331E+03  0.32225805362E+03  0.91178428226E+02 0.  0.
         23    2    4    4    0    0 -0.10138603689E+03 -0.56395836391E+03  0.74106755371E+03  0.94144499745E+03  0.93858400551E+02 0.  0.
          4    1    3    3  502    0  0.14581466516E+02  0.20114987435E+03  0.92503965992E+02  0.22188031648E+03  0.00000000000E+00 0.  1.
         -4    1    3    3    0  502 -0.10320386168E+03  0.31642164616E+03  0.19113839647E+03  0.38380669853E+03  0.00000000000E+00 0. -1.
         13    1    5    5    0    0  0.38754056777E+02  0.44785365859E+02  0.10201446966E+03  0.11795998445E+03  0.00000000000E+00 0.  1.
        -13    1    5    5    0    0  0.15125437528E+03  0.16014775322E+01  0.13732170365E+03  0.20429806917E+03  0.00000000000E+00 0. -1.
          5    1    6    6  503    0 -0.11424048892E+03 -0.40818951806E+03  0.55598261933E+03  0.69914829254E+03  0.47000000000E+01 0. -1.
         -5    1    6    6    0  503  0.12854452030E+02 -0.15576884585E+03  0.18508493438E+03  0.24229670491E+03  0.47000000000E+01 0.  1.
<mgrwt>
<rscale>  0 0.66263097E+03</rscale>
<asrwt>0</asrwt>
<pdfrwt beam="1">  1        2 0.24103354E+00 0.66263097E+03</pdfrwt>
<pdfrwt beam="2">  1       -2 0.46564922E-01 0.66263097E+03</pdfrwt>
<totfact> 0.52562454E+01</totfact>
</mgrwt>
</event>
<event>
12    1  0.3127365E-008  0.1670158E+04  0.7818608E-02  0.8778570E-01
          1   -1    0    0  501    0  0.00000000000E+00  0.00000000000E+00  0.11188506450E+04  0.11188506450E+04  0.00000000000E+00 0. -1.
         -1   -1    0    0    0  501 -0.00000000000E+00 -0.00000000000E+00 -0.26643507735E+04  0.26643507735E+04  0.00000000000E+00 0.  1.
         23    2    1    2    0    0 -0.12286537971E+04  0.10831123390E+04 -0.37560672649E+03  0.16828734175E+04  0.90884730832E+02 0.  0.
    5000000    2    1    2    0    0  0.12286537971E+04 -0.10831123390E+04 -0.11698934020E+04  0.21003280011E+04  0.60000387328E+03 0.  0.
         23    2    4    4    0    0  0.75106880468E+03 -0.37691290806E+03 -0.80863744984E+03  0.11699535142E+04  0.93429173024E+02 0.  0.
         23    2    4    4    0    0  0.47758499247E+03 -0.70619943091E+03 -0.36125595214E+03  0.93037448691E+03  0.91026159301E+02 0.  0.
          4    1    3    3  502    0 -0.87635682842E+03  0.79680516942E+03 -0.30865961490E+03  0.12239977641E+04  0.00000000000E+00 0. -1.
         -4    1    3    3    0  502 -0.35229696873E+03  0.28630716955E+03 -0.66947111589E+02  0.45887565338E+03  0.00000000000E+00 0.  1.
         13    1    5    5    0    0  0.24852184766E+03 -0.80238275834E+02 -0.27348167006E+03  0.37814483142E+03  0.00000000000E+00 0.  1.
        -13    1    5    5    0    0  0.50254695702E+03 -0.29667463223E+03 -0.53515577978E+03  0.79180868273E+03  0.00000000000E+00 0. -1.
          5    1    6    6  503    0  0.19159532924E+03 -0.20900130518E+03 -0.12905447949E+03  0.31155651884E+03  0.47000000000E+01 0. -1.
         -5    1    6    6    0  503  0.28598966323E+03 -0.49719812573E+03 -0.23220147266E+03  0.61881796807E+03  0.47000000000E+01 0.  1.
<mgrwt>
<rscale>  0 0.16701576E+04</rscale>
<asrwt>0</asrwt>
<pdfrwt beam="1">  1        1 0.17213087E+00 0.16701576E+04</pdfrwt>
<pdfrwt beam="2">  1       -1 0.40990011E+00 0.16701576E+04</pdfrwt>
<totfact> 0.69996858E-02</totfact>
</mgrwt>
</event>
<event>
12    1  0.3127365E-008  0.1060525E+04  0.7818608E-02  0.9244544E-01
         -2   -1    0    0    0  501 -0.00000000000E+00  0.00000000000E+00  0.69314697920E+03  0.69314697920E+03  0.00000000000E+00 0.  1.
          2   -1    0    0  501    0  0.00000000000E+00 -0.00000000000E+00 -0.18682096582E+04  0.18682096582E+04  0.00000000000E+00 0. -1.
         23    2    1    2    0    0  0.60431882859E+03  0.83165636059E+03 -0.27250637233E+03  0.10675101349E+04  0.92003350508E+02 0.  0.
    5000000    2    1    2    0    0 -0.60431882859E+03 -0.83165636059E+03 -0.90255630671E+03  0.14938465025E+04  0.60009660690E+03 0.  0.
         23    2    4    4    0    0 -0.55157073152E+03 -0.46691804261E+03 -0.31365338705E+03  0.79304555627E+03  0.91104756893E+02 0.  0.
         23    2    4    4    0    0 -0.52748097068E+02 -0.36473831798E+03 -0.58890291966E+03  0.70080094625E+03  0.92189560861E+02 0.  0.
          2    1    3    3  502    0  0.12352674906E+03  0.16569949910E+03 -0.93558325362E+02  0.22686635268E+03  0.00000000000E+00 0. -1.
         -2    1    3    3    0  502  0.48079207953E+03  0.66595686149E+03 -0.17894804697E+03  0.84064378224E+03  0.00000000000E+00 0.  1.
         13    1    5    5    0    0 -0.30350621668E+03 -0.22598049502E+03 -0.20615222617E+03  0.43090828265E+03  0.00000000000E+00 0. -1.
        -13    1    5    5    0    0 -0.24806451483E+03 -0.24093754759E+03 -0.10750116087E+03  0.36213727362E+03  0.00000000000E+00 0.  1.
          5    1    6    6  503    0 -0.28160961983E+02 -0.22770495225E+03 -0.44399269563E+03  0.49979414645E+03  0.47000000000E+01 0. -1.
         -5    1    6    6    0  503 -0.24587135086E+02 -0.13703336573E+03 -0.14491022404E+03  0.20100679980E+03  0.47000000000E+01 0.  1.
<mgrwt>
<rscale>  0 0.10605255E+04</rscale>
<asrwt>0</asrwt>
<pdfrwt beam="1">  1        2 0.28741687E+00 0.10605255E+04</pdfrwt>
<pdfrwt beam="2">  1       -2 0.10663800E+00 0.10605255E+04</pdfrwt>
<totfact> 0.55531279E+00</totfact>
</mgrwt>
</event>
<event>
12    1  0.3127365E-008  0.5079296E+03  0.7818608E-02  0.1011730E+00
         -4   -1    0    0    0  501 -0.00000000000E+00  0.00000000000E+00  0.59471612591E+03  0.59471612591E+03  0.00000000000E+00 0.  1.
          4   -1    0    0  501    0  0.00000000000E+00 -0.00000000000E+00 -0.97568808160E+03  0.97568808160E+03  0.00000000000E+00 0. -1.
         23    2    1    2    0    0  0.15341008037E+03  0.35581790372E+03  0.36329612351E+03  0.53884036707E+03  0.90685359706E+02 0.  0.
    5000000    2    1    2    0    0 -0.15341008037E+03 -0.35581790372E+03 -0.74426807920E+03  0.10315638404E+04  0.60003995684E+03 0.  0.
         23    2    4    4    0    0 -0.15715340940E+03 -0.47152413512E+03 -0.72637402818E+03  0.88437988248E+03  0.86465852397E+02 0.  0.
         23    2    4    4    0    0  0.37433290307E+01  0.11570623140E+03 -0.17894051019E+02  0.14718395795E+03  0.89112153595E+02 0.  0.
          1    1    3    3  502    0  0.63068391219E+02  0.70472867574E+02  0.56183387259E+02  0.11000281832E+03  0.00000000000E+00 0. -1.
         -1    1    3    3    0  502  0.90341689149E+02  0.28534503615E+03  0.30711273625E+03  0.42883754875E+03  0.00000000000E+00 0.  1.
         13    1    5    5    0    0 -0.11122357270E+03 -0.19815586678E+03 -0.32090168210E+03  0.39321027484E+03  0.00000000000E+00 0. -1.
        -13    1    5    5    0    0 -0.45929836703E+02 -0.27336826834E+03 -0.40547234608E+03  0.49116960764E+03  0.00000000000E+00 0.  1.
          5    1    6    6  503    0  0.10981287167E+02  0.60438801987E+02 -0.52894199191E+02  0.81199284242E+02  0.47000000000E+01 0. -1.
         -5    1    6    6    0  503 -0.72379581361E+01  0.55267429416E+02  0.35000148172E+02  0.65984673708E+02  0.47000000000E+01 0.  1.
<mgrwt>
<rscale>  0 0.50792962E+03</rscale>
<asrwt>0</asrwt>
<pdfrwt beam="1">  1        4 0.15010586E+00 0.50792962E+03</pdfrwt>
<pdfrwt beam="2">  1       -4 0.91494790E-01 0.50792962E+03</pdfrwt>
<totfact> 0.59401658E-01</totfact>
</mgrwt>
</event>
<event>
12    1  0.3127365E-008  0.3466677E+03  0.7818608E-02  0.1063991E+00
         -1   -1    0    0    0  501 -0.00000000000E+00  0.00000000000E+00  0.11725711265E+03  0.11725711265E+03  0.00000000000E+00 0.  1.
          1   -1    0    0  501    0  0.00000000000E+00 -0.00000000000E+00 -0.13148156070E+04  0.13148156070E+04  0.00000000000E+00 0. -1.
         23    2    1    2    0    0  0.94958876260E+02 -0.95500565743E+02 -0.17644472466E+03  0.24006635109E+03  0.91441597911E+02 0.  0.
    5000000    2    1    2    0    0 -0.94958876260E+02  0.95500565743E+02 -0.10211137697E+04  0.11920063686E+04  0.60005691879E+03 0.  0.
         23    2    4    4    0    0 -0.16458423734E+03 -0.17792690563E+03 -0.73314001968E+03  0.77807619403E+03  0.95720010101E+02 0.  0.
         23    2    4    4    0    0  0.69625361081E+02  0.27342747137E+03 -0.28797375003E+03  0.41393017454E+03  0.93803175233E+02 0.  0.
          4    1    3    3  502    0  0.48021764418E+02 -0.17153210987E+02 -0.12555249971E+03  0.13551292444E+03  0.00000000000E+00 0. -1.
         -4    1    3    3    0  502  0.46937111842E+02 -0.78347354756E+02 -0.50892224943E+02  0.10455342665E+03  0.00000000000E+00 0.  1.
         13    1    5    5    0    0 -0.11988386796E+03 -0.71324880039E+02 -0.47865950101E+03  0.49857225978E+03  0.00000000000E+00 0. -1.
        -13    1    5    5    0    0 -0.44700369385E+02 -0.10660202559E+03 -0.25448051867E+03  0.27950393426E+03  0.00000000000E+00 0.  1.
          5    1    6    6  503    0  0.64805150737E+02  0.83165175022E+02 -0.83749105005E+02  0.13472993909E+03  0.47000000000E+01 0. -1.
         -5    1    6    6    0  503  0.48202103442E+01  0.19026229635E+03 -0.20422464503E+03  0.27920023545E+03  0.47000000000E+01 0.  1.
<mgrwt>
<rscale>  0 0.34666769E+03</rscale>
<asrwt>0</asrwt>
<pdfrwt beam="1">  1        1 0.20227933E+00 0.34666769E+03</pdfrwt>
<pdfrwt beam="2">  1       -1 0.18039555E-01 0.34666769E+03</pdfrwt>
<totfact> 0.22640175E+02</totfact>
</mgrwt>
</event>
<event>
12    1  0.3127365E-008  0.3149155E+03  0.7818608E-02  0.1078013E+00
         -2   -1    0    0    0  501 -0.00000000000E+00  0.00000000000E+00  0.21214259978E+03  0.21214259978E+03  0.00000000000E+00 0.  1.
          2   -1    0    0  501    0  0.00000000000E+00 -0.00000000000E+00 -0.68336721227E+03  0.68336721227E+03  0.00000000000E+00 0. -1.
         23    2    1    2    0    0  0.23394746069E+02  0.11066390551E+03 -0.13806006406E+03  0.20018126098E+03  0.90653967553E+02 0.  0.
    5000000    2    1    2    0    0 -0.23394746069E+02 -0.11066390551E+03 -0.33316454843E+03  0.69532855107E+03  0.59974108036E+03 0.  0.
         23    2    4    4    0    0 -0.23243758563E+03  0.22209543832E+02 -0.35053194750E+03  0.43080822164E+03  0.90568110087E+02 0.  0.
         23    2    4    4    0    0  0.20904283956E+03 -0.13287344935E+03  0.17367399069E+02  0.26452032943E+03  0.91187256885E+02 0.  0.
          4    1    3    3  502    0  0.39608392048E+02  0.26629491632E+02 -0.90388774129E+02  0.10221587467E+03  0.00000000000E+00 0. -1.
         -4    1    3    3    0  502 -0.16213645980E+02  0.84034413881E+02 -0.47671289930E+02  0.97965386315E+02  0.00000000000E+00 0.  1.
         13    1    5    5    0    0 -0.13911280996E+03  0.98842984925E+01 -0.12846776685E+03  0.18961550667E+03  0.00000000000E+00 0. -1.
        -13    1    5    5    0    0 -0.93324775671E+02  0.12325245340E+02 -0.22206418064E+03  0.24119271496E+03  0.00000000000E+00 0.  1.
          5    1    6    6  503    0  0.55127164991E+02 -0.85445933984E+02 -0.46317936613E+01  0.10189973242E+03  0.47000000000E+01 0. -1.
         -5    1    6    6    0  503  0.15391567457E+03 -0.47427515362E+02  0.21999192731E+02  0.16262059701E+03  0.47000000000E+01 0.  1.
<mgrwt>
<rscale>  0 0.31491548E+03</rscale>
<asrwt>0</asrwt>
<pdfrwt beam="1">  1        2 0.10513342E+00 0.31491548E+03</pdfrwt>
<pdfrwt beam="2">  1       -2 0.32637322E-01 0.31491548E+03</pdfrwt>
<totfact> 0.37956766E+02</totfact>
</mgrwt>
</event>
<event>
12    1  0.3127365E-008  0.5702869E+03  0.7818608E-02  0.9969044E-01
          1   -1    0    0  501    0  0.00000000000E+00  0.00000000000E+00  0.32120154678E+03  0.32120154678E+03  0.00000000000E+00 0. -1.
         -1   -1    0    0    0  501 -0.00000000000E+00 -0.00000000000E+00 -0.14502912137E+04  0.14502912137E+04  0.00000000000E+00 0.  1.
         23    2    1    2    0    0  0.26079089585E+03 -0.38394299780E+03 -0.83643965532E+03  0.95842604705E+03  0.59372331535E+02 0.  0.
    5000000    2    1    2    0    0 -0.26079089585E+03  0.38394299780E+03 -0.29265001161E+03  0.81306671344E+03  0.60000777853E+03 0.  0.
         23    2    4    4    0    0  0.37552878602E+02  0.35936443263E+03  0.14161559730E+02  0.37265135354E+03  0.90085888944E+02 0.  0.
         23    2    4    4    0    0 -0.29834377445E+03  0.24578565167E+02 -0.30681157134E+03  0.44041535991E+03  0.10109023352E+03 0.  0.
          3    1    3    3  502    0  0.13189138540E+03 -0.14760923260E+03 -0.32746647005E+03  0.38264619702E+03  0.00000000000E+00 0. -1.
         -3    1    3    3    0  502  0.12889951045E+03 -0.23633376520E+03 -0.50897318527E+03  0.57577985002E+03  0.00000000000E+00 0.  1.
         11    1    5    5    0    0 -0.25372978385E+02  0.13935180713E+03  0.23729853220E+02  0.14361692141E+03  0.00000000000E+00 0. -1.
        -11    1    5    5    0    0  0.62925856987E+02  0.22001262550E+03 -0.95682934898E+01  0.22903443213E+03  0.00000000000E+00 0.  1.
          5    1    6    6  503    0 -0.98054219844E+02  0.29622819193E+02 -0.48370346468E+02  0.11337513777E+03  0.47000000000E+01 0. -1.
         -5    1    6    6    0  503 -0.20028955461E+03 -0.50442540268E+01 -0.25844122488E+03  0.32704022214E+03  0.47000000000E+01 0.  1.
<mgrwt>
<rscale>  0 0.57028686E+03</rscale>
<asrwt>0</asrwt>
<pdfrwt beam="1">  1        1 0.49415623E-01 0.57028686E+03</pdfrwt>
<pdfrwt beam="2">  1       -1 0.22312172E+00 0.57028686E+03</pdfrwt>
<totfact> 0.89176597E+00</totfact>
</mgrwt>
</event>
<event>
12    1  0.3127365E-008  0.9749200E+03  0.7818608E-02  0.9336488E-01
         -1   -1    0    0    0  501 -0.00000000000E+00  0.00000000000E+00  0.19812341051E+04  0.19812341051E+04  0.00000000000E+00 0.  1.
          1   -1    0    0  501    0  0.00000000000E+00 -0.00000000000E+00 -0.93169684474E+03  0.93169684474E+03  0.00000000000E+00 0. -1.
         23    2    1    2    0    0  0.41861274237E+03  0.86423364909E+03 -0.42471106757E+03  0.10539821741E+04  0.91446728782E+02 0.  0.
    5000000    2    1    2    0    0 -0.41861274237E+03 -0.86423364909E+03  0.14742483279E+04  0.18589487757E+04  0.60012164594E+03 0.  0.
         23    2    4    4    0    0 -0.28589327139E+03 -0.43256743000E+03  0.12290625204E+04  0.13369931079E+04  0.90035256193E+02 0.  0.
         23    2    4    4    0    0 -0.13271947098E+03 -0.43166621909E+03  0.24518580755E+03  0.52195566782E+03  0.91495662539E+02 0.  0.
          2    1    3    3  502    0  0.31580251187E+03  0.72573320051E+03 -0.36356676800E+03  0.87097686515E+03  0.00000000000E+00 0. -1.
         -2    1    3    3    0  502  0.10281023050E+03  0.13850044858E+03 -0.61144299577E+02  0.18300530900E+03  0.00000000000E+00 0.  1.
         11    1    5    5    0    0 -0.19535210452E+03 -0.35940174751E+03  0.98628344936E+03  0.10677486143E+04  0.00000000000E+00 0. -1.
        -11    1    5    5    0    0 -0.90541166864E+02 -0.73165682489E+02  0.24277907104E+03  0.26924449358E+03  0.00000000000E+00 0.  1.
          5    1    6    6  503    0 -0.30106913011E+02 -0.24890842275E+03  0.12310772997E+03  0.27935538710E+03  0.47000000000E+01 0. -1.
         -5    1    6    6    0  503 -0.10261255797E+03 -0.18275779635E+03  0.12207807759E+03  0.24260028072E+03  0.47000000000E+01 0.  1.
<mgrwt>
<rscale>  0 0.97491999E+03</rscale>
<asrwt>0</asrwt>
<pdfrwt beam="1">  1        1 0.14333798E+00 0.97491999E+03</pdfrwt>
<pdfrwt beam="2">  1       -1 0.30480525E+00 0.97491999E+03</pdfrwt>
<totfact> 0.53684731E-01</totfact>
</mgrwt>
</event>
<event>
12    1  0.3127365E-008  0.6463976E+03  0.7818608E-02  0.9813562E-01
         -2   -1    0    0    0  501 -0.00000000000E+00  0.00000000000E+00  0.26143375971E+03  0.26143375971E+03  0.00000000000E+00 0.  1.
          2   -1    0    0  501    0  0.00000000000E+00 -0.00000000000E+00 -0.25199142506E+04  0.25199142506E+04  0.00000000000E+00 0. -1.
         23    2    1    2    0    0 -0.53883809179E+03  0.27181371147E+03 -0.37952602149E+03  0.71863779037E+03  0.90394080913E+02 0.  0.
    5000000    2    1    2    0    0  0.53883809179E+03 -0.27181371147E+03 -0.18789544694E+04  0.20627102200E+04  0.60006197217E+03 0.  0.
         23    2    4    4    0    0  0.26366281557E+03 -0.29978633390E+03 -0.47091381430E+03  0.62485048542E+03  0.96376253911E+02 0.  0.
         23    2    4    4    0    0  0.27517527622E+03  0.27972622433E+02 -0.14080406552E+04  0.14378597346E+04  0.91423353005E+02 0.  0.
          4    1    3    3  502    0 -0.35645348335E+03  0.21180641518E+03 -0.29491823398E+03  0.50882001536E+03  0.00000000000E+00 0.  1.
         -4    1    3    3    0  502 -0.18238460844E+03  0.60007296296E+02 -0.84607787508E+02  0.20981777501E+03  0.00000000000E+00 0. -1.
         13    1    5    5    0    0  0.18968255069E+03 -0.19748404869E+03 -0.25196101580E+03  0.37210720633E+03  0.00000000000E+00 0.  1.
        -13    1    5    5    0    0  0.73980264885E+02 -0.10230228522E+03 -0.21895279849E+03  0.25274327908E+03  0.00000000000E+00 0. -1.
          5    1    6    6  503    0  0.14068981625E+03 -0.22123400397E+02 -0.83697756555E+03  0.84902096822E+03  0.47000000000E+01 0. -1.
         -5    1    6    6    0  503  0.13448545996E+03  0.50096022830E+02 -0.57106308960E+03  0.58883876635E+03  0.47000000000E+01 0.  1.
<mgrwt>
<rscale>  0 0.64639755E+03</rscale>
<asrwt>0</asrwt>
<pdfrwt beam="1">  1        2 0.38767911E+00 0.64639755E+03</pdfrwt>
<pdfrwt beam="2">  1       -2 0.40220579E-01 0.64639755E+03</pdfrwt>
<totfact> 0.21102396E+01</totfact>
</mgrwt>
</event>
<event>
12    1  0.3127365E-008  0.3357453E+03  0.7818608E-02  0.1068623E+00
          1   -1    0    0  501    0  0.00000000000E+00  0.00000000000E+00  0.22156441715E+04  0.22156441715E+04  0.00000000000E+00 0. -1.
         -1   -1    0    0    0  501 -0.00000000000E+00 -0.00000000000E+00 -0.69105601434E+02  0.69105601434E+02  0.00000000000E+00 0.  1.
         23    2    1    2    0    0 -0.44754779012E+02  0.12660855027E+03  0.34255608142E+03  0.37887516100E+03  0.90382539566E+02 0.  0.
    5000000    2    1    2    0    0  0.44754779012E+02 -0.12660855027E+03  0.18039824887E+04  0.19058746119E+04  0.59997708442E+03 0.  0.
         23    2    4    4    0    0 -0.14450040794E+03 -0.25165533517E+03  0.14104009249E+04  0.14426077082E+04  0.87609675353E+02 0.  0.
         23    2    4    4    0    0  0.18925518695E+03  0.12504678490E+03  0.39358156375E+03  0.46326690373E+03  0.90860071341E+02 0.  0.
          4    1    3    3  502    0 -0.32968983568E+02  0.11169132121E+03  0.34036703303E+03  0.35973826914E+03  0.00000000000E+00 0. -1.
         -4    1    3    3    0  502 -0.11785795444E+02  0.14917229062E+02  0.21890483896E+01  0.19136891858E+02  0.00000000000E+00 0.  1.
         13    1    5    5    0    0 -0.89451797262E+02 -0.12501930759E+03  0.54522490875E+03  0.56648182003E+03  0.00000000000E+00 0.  1.
        -13    1    5    5    0    0 -0.55048610676E+02 -0.12663602759E+03  0.86517601615E+03  0.87612588818E+03  0.00000000000E+00 0. -1.
          5    1    6    6  503    0  0.10239171563E+03  0.11893716858E+03  0.26051095063E+03  0.30416797810E+03  0.47000000000E+01 0. -1.
         -5    1    6    6    0  503  0.86863471324E+02  0.61096163206E+01  0.13307061312E+03  0.15909892564E+03  0.47000000000E+01 0.  1.
<mgrwt>
<rscale>  0 0.33574528E+03</rscale>
<asrwt>0</asrwt>
<pdfrwt beam="1">  1        1 0.34086828E+00 0.33574528E+03</pdfrwt>
<pdfrwt beam="2">  1       -1 0.10631633E-01 0.33574528E+03</pdfrwt>
<totfact> 0.13350554E+02</totfact>
</mgrwt>
</event>
<event>
12    1  0.3127365E-008  0.4619457E+03  0.7818608E-02  0.1024218E+00
         -1   -1    0    0    0  501 -0.00000000000E+00  0.00000000000E+00  0.65735872753E+03  0.65735872753E+03  0.00000000000E+00 0.  1.
          1   -1    0    0  501    0  0.00000000000E+00 -0.00000000000E+00 -0.40638459630E+03  0.40638459630E+03  0.00000000000E+00 0. -1.
         23    2    1    2    0    0 -0.80713879589E+02 -0.32362710769E+03  0.56956594951E+02  0.35076616639E+03  0.92431675252E+02 0.  0.
    5000000    2    1    2    0    0  0.80713879589E+02  0.32362710769E+03  0.19401753628E+03  0.71297715744E+03  0.59953681076E+03 0.  0.
         23    2    4    4    0    0  0.74392125064E+01 -0.10862094990E+03  0.22249307565E+03  0.26428302106E+03  0.92133022668E+02 0.  0.
         23    2    4    4    0    0  0.73274667082E+02  0.43224805759E+03 -0.28475539379E+02  0.44869413638E+03  0.91148294284E+02 0.  0.
          3    1    3    3  502    0 -0.61323888026E+02 -0.76198261070E+02  0.12062206635E+02  0.98550956675E+02  0.00000000000E+00 0. -1.
         -3    1    3    3    0  502 -0.19389991563E+02 -0.24742884662E+03  0.44894388315E+02  0.25221520972E+03  0.00000000000E+00 0.  1.
         13    1    5    5    0    0 -0.35742086605E+02 -0.67406104588E+02  0.84022919749E+02  0.11349418811E+03  0.00000000000E+00 0. -1.
        -13    1    5    5    0    0  0.43181299112E+02 -0.41214845317E+02  0.13847015591E+03  0.15078883296E+03  0.00000000000E+00 0.  1.
          5    1    6    6  503    0  0.20922607625E+02  0.28035691495E+03  0.16899531576E+02  0.28168322534E+03  0.47000000000E+01 0. -1.
         -5    1    6    6    0  503  0.52352059458E+02  0.15189114264E+03 -0.45375070955E+02  0.16701091104E+03  0.47000000000E+01 0.  1.
<mgrwt>
<rscale>  0 0.46194567E+03</rscale>
<asrwt>0</asrwt>
<pdfrwt beam="1">  1        1 0.62520707E-01 0.46194567E+03</pdfrwt>
<pdfrwt beam="2">  1       -1 0.10113211E+00 0.46194567E+03</pdfrwt>
<totfact> 0.57272022E+01</totfact>
</mgrwt>
</event>
<event>
12    1  0.3127365E-008  0.6839452E+03  0.7818608E-02  0.9745089E-01
          2   -1    0    0  501    0  0.00000000000E+00  0.00000000000E+00  0.15568452018E+04  0.15568452018E+04  0.00000000000E+00 0. -1.
         -2   -1    0    0    0  501 -0.00000000000E+00 -0.00000000000E+00 -0.46121308126E+03  0.46121308126E+03  0.00000000000E+00 0.  1.
         23    2    1    2    0    0  0.57826915060E+03  0.28276520263E+03  0.91064777449E+03  0.11188520908E+04  0.90549773849E+02 0.  0.
    5000000    2    1    2    0    0 -0.57826915060E+03 -0.28276520263E+03  0.18498434606E+03  0.89920619226E+03  0.60000099797E+03 0.  0.
         23    2    4    4    0    0 -0.17608995180E+03 -0.26272933798E+03  0.32586422885E+03  0.46292014146E+03  0.89850907402E+02 0.  0.
         23    2    4    4    0    0 -0.40217919880E+03 -0.20035864644E+02 -0.14087988279E+03  0.43628605080E+03  0.91371948299E+02 0.  0.
          1    1    3    3  502    0  0.10449307907E+03  0.40580867872E+02  0.10660856217E+03  0.15469646388E+03  0.00000000000E+00 0. -1.
         -1    1    3    3    0  502  0.47377607153E+03  0.24218433476E+03  0.80403921232E+03  0.96415562691E+03  0.00000000000E+00 0.  1.
         13    1    5    5    0    0 -0.12581122498E+03 -0.17064559271E+03  0.27235740409E+03  0.34514770490E+03  0.00000000000E+00 0. -1.
        -13    1    5    5    0    0 -0.50278726828E+02 -0.92083745279E+02  0.53506824764E+02  0.11777243656E+03  0.00000000000E+00 0.  1.
          5    1    6    6  503    0 -0.31029229491E+03  0.85161876551E+01 -0.13845490917E+03  0.33992011650E+03  0.47000000000E+01 0. -1.
         -5    1    6    6    0  503 -0.91886903888E+02 -0.28552052299E+02 -0.24249736215E+01  0.96365934301E+02  0.47000000000E+01 0.  1.
<mgrwt>
<rscale>  0 0.68394516E+03</rscale>
<asrwt>0</asrwt>
<pdfrwt beam="1">  1        2 0.23951464E+00 0.68394516E+03</pdfrwt>
<pdfrwt beam="2">  1       -2 0.70955860E-01 0.68394516E+03</pdfrwt>
<totfact> 0.21992592E+01</totfact>
</mgrwt>
</event>
<event>
12    1  0.3127365E-008  0.7099510E+03  0.7818608E-02  0.9700364E-01
          2   -1    0    0  501    0  0.00000000000E+00  0.00000000000E+00  0.29049351749E+04  0.29049351749E+04  0.00000000000E+00 0. -1.
         -2   -1    0    0    0  501 -0.00000000000E+00 -0.00000000000E+00 -0.19423028689E+03  0.19423028689E+03  0.00000000000E+00 0.  1.
         23    2    1    2    0    0  0.37778406954E+03 -0.46622550507E+03  0.76569672643E+03  0.97708134103E+03  0.91156159086E+02 0.  0.
    5000000    2    1    2    0    0 -0.37778406954E+03  0.46622550507E+03  0.19450081616E+04  0.21220841207E+04  0.60008102969E+03 0.  0.
         23    2    4    4    0    0 -0.32283854501E+03  0.57934607928E+03  0.17437938067E+04  0.18682062505E+04  0.97525115940E+02 0.  0.
         23    2    4    4    0    0 -0.54945524526E+02 -0.11312057420E+03  0.20121435485E+03  0.25387787028E+03  0.90285555015E+02 0.  0.
          1    1    3    3  502    0  0.25522247332E+03 -0.25785815851E+03  0.41630095317E+03  0.55220994595E+03  0.00000000000E+00 0. -1.
         -1    1    3    3    0  502  0.12256159622E+03 -0.20836734656E+03  0.34939577326E+03  0.42487139507E+03  0.00000000000E+00 0.  1.
         13    1    5    5    0    0 -0.20474203263E+03  0.28527267278E+03  0.99374275603E+03  0.10539565754E+04  0.00000000000E+00 0.  1.
        -13    1    5    5    0    0 -0.11809651238E+03  0.29407340650E+03  0.75005105068E+03  0.81424967502E+03  0.00000000000E+00 0. -1.
          5    1    6    6  503    0 -0.21880025823E+02  0.63495518381E+01  0.86563331352E+01  0.24820846922E+02  0.47000000000E+01 0. -1.
         -5    1    6    6    0  503 -0.33065498703E+02 -0.11947012604E+03  0.19255802172E+03  0.22905702335E+03  0.47000000000E+01 0.  1.
<mgrwt>
<rscale>  0 0.70995097E+03</rscale>
<asrwt>0</asrwt>
<pdfrwt beam="1">  1        2 0.44691307E+00 0.70995097E+03</pdfrwt>
<pdfrwt beam="2">  1       -2 0.29881585E-01 0.70995097E+03</pdfrwt>
<totfact> 0.21901518E+01</totfact>
</mgrwt>
</event>
<event>
12    1  0.3127365E-008  0.6369559E+03  0.7818608E-02  0.9831568E-01
          1   -1    0    0  501    0  0.00000000000E+00  0.00000000000E+00  0.46319130245E+03  0.46319130245E+03  0.00000000000E+00 0. -1.
         -1   -1    0    0    0  501 -0.00000000000E+00 -0.00000000000E+00 -0.13202226216E+04  0.13202226216E+04  0.00000000000E+00 0.  1.
         23    2    1    2    0    0 -0.49695120763E+03  0.31666458436E+03 -0.71494788357E+03  0.93053119582E+03  0.86607554043E+02 0.  0.
    5000000    2    1    2    0    0  0.49695120763E+03 -0.31666458436E+03 -0.14208343562E+03  0.85288272828E+03  0.59998690300E+03 0.  0.
         23    2    4    4    0    0 -0.18033409391E+02 -0.65227396527E+02  0.16189211988E+03  0.19786348669E+03  0.91438962006E+02 0.  0.
         23    2    4    4    0    0  0.51498461702E+03 -0.25143718783E+03 -0.30397555550E+03  0.65501924160E+03  0.90660097806E+02 0.  0.
          4    1    3    3  502    0 -0.42570688705E+03  0.28673479402E+03 -0.57571841082E+03  0.77129429166E+03  0.00000000000E+00 0. -1.
         -4    1    3    3    0  502 -0.71244320575E+02  0.29929790337E+02 -0.13922947275E+03  0.15923690416E+03  0.00000000000E+00 0.  1.
         13    1    5    5    0    0 -0.53165462956E+02 -0.35053044123E+02  0.67949160696E+02  0.93125564658E+02  0.00000000000E+00 0. -1.
        -13    1    5    5    0    0  0.35132053565E+02 -0.30174352404E+02  0.93942959182E+02  0.10473792203E+03  0.00000000000E+00 0.  1.
          5    1    6    6  503    0  0.24791505719E+03 -0.12969932759E+03 -0.19855858313E+03  0.34312008407E+03  0.47000000000E+01 0. -1.
         -5    1    6    6    0  503  0.26706955983E+03 -0.12173786024E+03 -0.10541697237E+03  0.31189915753E+03  0.47000000000E+01 0.  1.
<mgrwt>
<rscale>  0 0.63695593E+03</rscale>
<asrwt>0</asrwt>
<pdfrwt beam="1">  1        1 0.71260201E-01 0.63695593E+03</pdfrwt>
<pdfrwt beam="2">  1       -1 0.20311117E+00 0.63695593E+03</pdfrwt>
<totfact> 0.74101050E+00</totfact>
</mgrwt>
</event>
<event>
12    1  0.3127365E-008  0.7606233E+03  0.7818608E-02  0.9618830E-01
         -2   -1    0    0    0  501 -0.00000000000E+00  0.00000000000E+00  0.20210455070E+04  0.20210455070E+04  0.00000000000E+00 0.  1.
          2   -1    0    0  501    0  0.00000000000E+00 -0.00000000000E+00 -0.44136821803E+03  0.44136821803E+03  0.00000000000E+00 0. -1.
         23    2    1    2    0    0  0.49016873656E+03  0.43851648774E+03  0.17198845955E+02  0.66413090999E+03  0.90619892847E+02 0.  0.
    5000000    2    1    2    0    0 -0.49016873656E+03 -0.43851648774E+03  0.15624784430E+04  0.17982828150E+04  0.59993341100E+03 0.  0.
         23    2    4    4    0    0  0.91252762586E+02  0.20974892810E+02  0.14244948695E+03  0.19404974355E+03  0.92716955476E+02 0.  0.
         23    2    4    4    0    0 -0.58142149915E+03 -0.45949138055E+03  0.14200289561E+04  0.16042330715E+04  0.88871947779E+02 0.  0.
          3    1    3    3  502    0  0.19798970940E+03  0.14614291904E+03  0.43726674312E+02  0.24993939237E+03  0.00000000000E+00 0. -1.
         -3    1    3    3    0  502  0.29217902716E+03  0.29237356871E+03 -0.26527828357E+02  0.41419151762E+03  0.00000000000E+00 0.  1.
         11    1    5    5    0    0  0.10293814137E+03  0.21066114266E+02  0.14768222755E+03  0.18124591706E+03  0.00000000000E+00 0. -1.
        -11    1    5    5    0    0 -0.11685378781E+02 -0.91221456708E-01 -0.52327405978E+01  0.12803826490E+02  0.00000000000E+00 0.  1.
          5    1    6    6  503    0 -0.19480717021E+03 -0.20112237762E+03  0.58046921390E+03  0.64448944338E+03  0.47000000000E+01 0. -1.
         -5    1    6    6    0  503 -0.38661432893E+03 -0.25836900293E+03  0.83955974217E+03  0.95974362810E+03  0.47000000000E+01 0.  1.
<mgrwt>
<rscale>  0 0.76062332E+03</rscale>
<asrwt>0</asrwt>
<pdfrwt beam="1">  1        2 0.67902804E-01 0.76062332E+03</pdfrwt>
<pdfrwt beam="2">  1       -2 0.31093007E+00 0.76062332E+03</pdfrwt>
<totfact> 0.20181551E+00</totfact>
</mgrwt>
</event>
<event>
12    1  0.3127365E-008  0.6637103E+03  0.7818608E-02  0.9781388E-01
         -1   -1    0    0    0  501 -0.00000000000E+00  0.00000000000E+00  0.40556290487E+03  0.40556290487E+03  0.00000000000E+00 0.  1.
          1   -1    0    0  501    0  0.00000000000E+00 -0.00000000000E+00 -0.19929208786E+04  0.19929208786E+04  0.00000000000E+00 0. -1.
         23    2    1    2    0    0 -0.19873457160E+03 -0.50109172193E+03 -0.14884785946E+04  0.15857051861E+04  0.91126651490E+02 0.  0.
    5000000    2    1    2    0    0  0.19873457160E+03  0.50109172193E+03 -0.98879379073E+02  0.81277859740E+03  0.60020294322E+03 0.  0.
         23    2    4    4    0    0 -0.51049404823E+02  0.51808185047E+03  0.95897786315E+00  0.52827847292E+03  0.89790755628E+02 0.  0.
         23    2    4    4    0    0  0.24978397643E+03 -0.16990128539E+02 -0.99838356937E+02  0.28450012448E+03  0.91060002014E+02 0.  0.
          1    1    3    3  502    0 -0.84303124424E+02 -0.25565387302E+03 -0.61821651463E+03  0.67428301072E+03  0.00000000000E+00 0. -1.
         -1    1    3    3    0  502 -0.11443144718E+03 -0.24543784892E+03 -0.87026208001E+03  0.91142217534E+03  0.00000000000E+00 0.  1.
         11    1    5    5    0    0 -0.44371660132E+02  0.19826592331E+03 -0.35755868731E+02  0.20629275973E+03  0.00000000000E+00 0. -1.
        -11    1    5    5    0    0 -0.66777446908E+01  0.31981592716E+03  0.36714846594E+02  0.32198571319E+03  0.00000000000E+00 0.  1.
          5    1    6    6  503    0  0.84604974949E+02  0.34194717235E+02 -0.51470096079E+02  0.10487393033E+03  0.47000000000E+01 0. -1.
         -5    1    6    6    0  503  0.16517900148E+03 -0.51184845774E+02 -0.48368260857E+02  0.17962619415E+03  0.47000000000E+01 0.  1.
<mgrwt>
<rscale>  0 0.66371026E+03</rscale>
<asrwt>0</asrwt>
<pdfrwt beam="1">  1        1 0.30660321E+00 0.66371026E+03</pdfrwt>
<pdfrwt beam="2">  1       -1 0.62394294E-01 0.66371026E+03</pdfrwt>
<totfact> 0.83430919E+00</totfact>
</mgrwt>
</event>
<event>
12    1  0.3127365E-008  0.1153729E+04  0.7818608E-02  0.9154351E-01
         -2   -1    0    0    0  501 -0.00000000000E+00  0.00000000000E+00  0.86596848368E+03  0.86596848368E+03  0.00000000000E+00 0.  1.
          2   -1    0    0  501    0  0.00000000000E+00 -0.00000000000E+00 -0.18241668513E+04  0.18241668513E+04  0.00000000000E+00 0. -1.
         23    2    1    2    0    0  0.10232422634E+04  0.42323929803E+03 -0.50661905680E+01  0.11106249822E+04  0.85474861369E+02 0.  0.
    5000000    2    1    2    0    0 -0.10232422634E+04 -0.42323929803E+03 -0.95313217708E+03  0.15795103528E+04  0.60019644669E+03 0.  0.
         23    2    4    4    0    0 -0.63003080513E+03 -0.48091458608E+03 -0.83489422145E+03  0.11550548540E+04  0.94263992151E+02 0.  0.
         23    2    4    4    0    0 -0.39321145824E+03  0.57675288053E+02 -0.11823795564E+03  0.42445549879E+03  0.90777566364E+02 0.  0.
          3    1    3    3  502    0  0.24123235694E+03  0.61661686337E+02  0.40480270279E+01  0.24902128447E+03  0.00000000000E+00 0. -1.
         -3    1    3    3    0  502  0.78200990643E+03  0.36157761169E+03 -0.91142175959E+01  0.86160369776E+03  0.00000000000E+00 0.  1.
         13    1    5    5    0    0 -0.54748786836E+03 -0.40030845408E+03 -0.75397567973E+03  0.10141346804E+04  0.00000000000E+00 0.  1.
        -13    1    5    5    0    0 -0.82542936767E+02 -0.80606132004E+02 -0.80918541721E+02  0.14092017358E+03  0.00000000000E+00 0. -1.
          5    1    6    6  503    0 -0.69594113592E+02 -0.15594271971E+02  0.19997201792E+01  0.71502523353E+02  0.47000000000E+01 0. -1.
         -5    1    6    6    0  503 -0.32361734465E+03  0.73269560024E+02 -0.12023767582E+03  0.35295297544E+03  0.47000000000E+01 0.  1.
<mgrwt>
<rscale>  0 0.11537286E+04</rscale>
<asrwt>0</asrwt>
<pdfrwt beam="1">  1        2 0.28064105E+00 0.11537286E+04</pdfrwt>
<pdfrwt beam="2">  1       -2 0.13322592E+00 0.11537286E+04</pdfrwt>
<totfact> 0.33414615E+00</totfact>
</mgrwt>
</event>
<event>
12    1  0.3127365E-008  0.1190923E+04  0.7818608E-02  0.9120839E-01
         -2   -1    0    0    0  501 -0.00000000000E+00  0.00000000000E+00  0.12532764041E+04  0.12532764041E+04  0.00000000000E+00 0.  1.
          2   -1    0    0  501    0  0.00000000000E+00 -0.00000000000E+00 -0.12591371146E+04  0.12591371146E+04  0.00000000000E+00 0. -1.
         23    2    1    2    0    0 -0.94931490493E+03 -0.64517203572E+03  0.28250897251E+03  0.11855993155E+04  0.91589698460E+02 0.  0.
    5000000    2    1    2    0    0  0.94931490493E+03  0.64517203572E+03 -0.28836968297E+03  0.13268142032E+04  0.59986091002E+03 0.  0.
         23    2    4    4    0    0  0.33275498187E+03 -0.39157496697E+01  0.80399143571E+02  0.35428059194E+03  0.91156483511E+02 0.  0.
         23    2    4    4    0    0  0.61655992307E+03  0.64908778539E+03 -0.36876882654E+03  0.97253361127E+03  0.91488172669E+02 0.  0.
          1    1    3    3  502    0 -0.28504420816E+03 -0.22252474136E+03  0.52850362328E+02  0.36545946686E+03  0.00000000000E+00 0. -1.
         -1    1    3    3    0  502 -0.66427069678E+03 -0.42264729437E+03  0.22965861019E+03  0.82013984860E+03  0.00000000000E+00 0.  1.
         13    1    5    5    0    0  0.29119817569E+03  0.11927415339E+01  0.10020985361E+03  0.30796073600E+03  0.00000000000E+00 0. -1.
        -13    1    5    5    0    0  0.41556806175E+02 -0.51084912036E+01 -0.19810710039E+02  0.46319855938E+02  0.00000000000E+00 0.  1.
          5    1    6    6  503    0  0.30772917838E+03  0.25882166422E+03 -0.17108819689E+03  0.43701162709E+03  0.47000000000E+01 0. -1.
         -5    1    6    6    0  503  0.30883074469E+03  0.39026612117E+03 -0.19768062964E+03  0.53552198418E+03  0.47000000000E+01 0.  1.
<mgrwt>
<rscale>  0 0.11909234E+04</rscale>
<asrwt>0</asrwt>
<pdfrwt beam="1">  1        2 0.19371340E+00 0.11909234E+04</pdfrwt>
<pdfrwt beam="2">  1       -2 0.19281176E+00 0.11909234E+04</pdfrwt>
<totfact> 0.25194460E+00</totfact>
</mgrwt>
</event>
<event>
12    1  0.3127365E-008  0.6139236E+03  0.7818608E-02  0.9876933E-01
         -1   -1    0    0    0  501 -0.00000000000E+00  0.00000000000E+00  0.56562820500E+03  0.56562820500E+03  0.00000000000E+00 0.  1.
          1   -1    0    0  501    0  0.00000000000E+00 -0.00000000000E+00 -0.94990934766E+03  0.94990934766E+03  0.00000000000E+00 0. -1.
         23    2    1    2    0    0 -0.54948505780E+03 -0.59146151780E+02 -0.41772736499E+03  0.69904290393E+03  0.93449098751E+02 0.  0.
    5000000    2    1    2    0    0  0.54948505780E+03  0.59146151780E+02  0.33446222323E+02  0.81649464873E+03  0.60009396397E+03 0.  0.
         23    2    4    4    0    0  0.17228530329E+03 -0.14547976311E+03 -0.20395340168E+03  0.31813934462E+03  0.93643287732E+02 0.  0.
         23    2    4    4    0    0  0.37719975451E+03  0.20462591489E+03  0.23739962400E+03  0.49835530411E+03  0.88588982422E+02 0.  0.
          2    1    3    3  502    0 -0.48902259844E+03 -0.81909657843E+02 -0.36617544164E+03  0.61639009393E+03  0.00000000000E+00 0. -1.
         -2    1    3    3    0  502 -0.60462459365E+02  0.22763506063E+02 -0.51551923342E+02  0.82652810000E+02  0.00000000000E+00 0.  1.
         13    1    5    5    0    0  0.14874739541E+03 -0.84179561523E+02 -0.10907455354E+03  0.20275414780E+03  0.00000000000E+00 0. -1.
        -13    1    5    5    0    0  0.23537907878E+02 -0.61300201586E+02 -0.94878848139E+02  0.11538519682E+03  0.00000000000E+00 0.  1.
          5    1    6    6  503    0  0.91592578607E+02  0.68100272390E+02  0.10511044779E+03  0.15523254745E+03  0.47000000000E+01 0. -1.
         -5    1    6    6    0  503  0.28560717591E+03  0.13652564250E+03  0.13228917621E+03  0.34312275665E+03  0.47000000000E+01 0.  1.
<mgrwt>
<rscale>  0 0.61392360E+03</rscale>
<asrwt>0</asrwt>
<pdfrwt beam="1">  1        1 0.14613990E+00 0.61392360E+03</pdfrwt>
<pdfrwt beam="2">  1       -1 0.87019724E-01 0.61392360E+03</pdfrwt>
<totfact> 0.22565445E+01</totfact>
</mgrwt>
</event>
<event>
12    1  0.3127365E-008  0.7081083E+03  0.7818608E-02  0.9703465E-01
          2   -1    0    0  501    0  0.00000000000E+00  0.00000000000E+00  0.21134564964E+04  0.21134564964E+04  0.00000000000E+00 0. -1.
         -2   -1    0    0    0  501 -0.00000000000E+00 -0.00000000000E+00 -0.48567075732E+03  0.48567075732E+03  0.00000000000E+00 0.  1.
         23    2    1    2    0    0 -0.52748638097E+03 -0.32315099049E+03 -0.13244167520E+03  0.63923119257E+03  0.91691196216E+02 0.  0.
    5000000    2    1    2    0    0  0.52748638097E+03  0.32315099049E+03  0.17602274143E+04  0.19598960612E+04  0.60010297098E+03 0.  0.
         23    2    4    4    0    0  0.23318154024E+03  0.41948805849E+03  0.71619041930E+03  0.86691615153E+03  0.90945231701E+02 0.  0.
         23    2    4    4    0    0  0.29430484073E+03 -0.96337067999E+02  0.10440369950E+04  0.10929799096E+04  0.93250554944E+02 0.  0.
          1    1    3    3  502    0 -0.28403469013E+03 -0.21892318286E+03 -0.51359267040E+02  0.36227177575E+03  0.00000000000E+00 0. -1.
         -1    1    3    3    0  502 -0.24345169083E+03 -0.10422780763E+03 -0.81082408161E+02  0.27695941682E+03  0.00000000000E+00 0.  1.
         13    1    5    5    0    0  0.22689604358E+03  0.37891452229E+03  0.68630895584E+03  0.81613602584E+03  0.00000000000E+00 0.  1.
        -13    1    5    5    0    0  0.62854966581E+01  0.40573536192E+02  0.29881463460E+02  0.50780125698E+02  0.00000000000E+00 0. -1.
          5    1    6    6  503    0  0.74639178569E+02 -0.19290926358E+02  0.14505233221E+03  0.16433324647E+03  0.47000000000E+01 0.  1.
         -5    1    6    6    0  503  0.21966566216E+03 -0.77046141640E+02  0.89898466280E+03  0.92864666317E+03  0.47000000000E+01 0.  1.
<mgrwt>
<rscale>  0 0.70810833E+03</rscale>
<asrwt>0</asrwt>
<pdfrwt beam="1">  1        2 0.32514715E+00 0.70810833E+03</pdfrwt>
<pdfrwt beam="2">  1       -2 0.74718579E-01 0.70810833E+03</pdfrwt>
<totfact> 0.97192336E+00</totfact>
</mgrwt>
</event>
<event>
12    1  0.3127365E-008  0.1119616E+04  0.7818608E-02  0.9186281E-01
          1   -1    0    0  501    0  0.00000000000E+00  0.00000000000E+00  0.14641160578E+04  0.14641160578E+04  0.00000000000E+00 0. -1.
         -1   -1    0    0    0  501 -0.00000000000E+00 -0.00000000000E+00 -0.12766700107E+04  0.12766700107E+04  0.00000000000E+00 0.  1.
         23    2    1    2    0    0 -0.28223938566E+03 -0.10027087439E+04 -0.68977213746E+03  0.12526901892E+04  0.91450601930E+02 0.  0.
    5000000    2    1    2    0    0  0.28223938566E+03  0.10027087439E+04  0.87721818453E+03  0.14880958794E+04  0.59986140649E+03 0.  0.
         23    2    4    4    0    0  0.43425803151E+03  0.52722338943E+03  0.57417983001E+03  0.89721600209E+03  0.93645805722E+02 0.  0.
         23    2    4    4    0    0 -0.15201864585E+03  0.47548535445E+03  0.30303835452E+03  0.59087987726E+03  0.90059947008E+02 0.  0.
          3    1    3    3  502    0 -0.18555990753E+03 -0.49406979619E+03 -0.35942227321E+03  0.63853098066E+03  0.00000000000E+00 0. -1.
         -3    1    3    3    0  502 -0.96679478122E+02 -0.50863894769E+03 -0.33034986426E+03  0.61415920852E+03  0.00000000000E+00 0.  1.
         11    1    5    5    0    0  0.19560150374E+03  0.31058607903E+03  0.29954858135E+03  0.47376472361E+03  0.00000000000E+00 0.  1.
        -11    1    5    5    0    0  0.23865652777E+03  0.21663731040E+03  0.27463124866E+03  0.42345127848E+03  0.00000000000E+00 0. -1.
          5    1    6    6  503    0 -0.10620515947E+03  0.21518961955E+03  0.17579821660E+03  0.29751169930E+03  0.47000000000E+01 0. -1.
         -5    1    6    6    0  503 -0.45813486380E+02  0.26029573490E+03  0.12724013792E+03  0.29336817796E+03  0.47000000000E+01 0.  1.
<mgrwt>
<rscale>  0 0.11196162E+04</rscale>
<asrwt>0</asrwt>
<pdfrwt beam="1">  1        1 0.22524862E+00 0.11196162E+04</pdfrwt>
<pdfrwt beam="2">  1       -1 0.19641077E+00 0.11196162E+04</pdfrwt>
<totfact> 0.10931345E+00</totfact>
</mgrwt>
</event>
<event>
12    1  0.3127365E-008  0.1253843E+04  0.7818608E-02  0.9066991E-01
         -2   -1    0    0    0  501 -0.00000000000E+00  0.00000000000E+00  0.74537786283E+03  0.74537786283E+03  0.00000000000E+00 0.  1.
          2   -1    0    0  501    0  0.00000000000E+00 -0.00000000000E+00 -0.25047554783E+04  0.25047554783E+04  0.00000000000E+00 0. -1.
         23    2    1    2    0    0  0.11906824382E+04  0.10383903774E+03 -0.23360353302E+03  0.12212310958E+04  0.91255489398E+02 0.  0.
    5000000    2    1    2    0    0 -0.11906824382E+04 -0.10383903774E+03 -0.15257740825E+04  0.20289022453E+04  0.59995879536E+03 0.  0.
         23    2    4    4    0    0 -0.72571996009E+02 -0.16267332341E+03 -0.13738999327E+03  0.24293537025E+03  0.91718477491E+02 0.  0.
         23    2    4    4    0    0 -0.11181104422E+04  0.58834285671E+02 -0.13883840892E+04  0.17859668751E+04  0.91841525341E+02 0.  0.
          3    1    3    3  502    0  0.79051325932E+03  0.11205307965E+03 -0.15306656560E+03  0.81295539812E+03  0.00000000000E+00 0. -1.
         -3    1    3    3    0  502  0.40016917886E+03 -0.82140419088E+01 -0.80536967424E+02  0.40827569768E+03  0.00000000000E+00 0.  1.
         13    1    5    5    0    0 -0.47776129073E+02 -0.15385036749E+03 -0.14369479400E+03  0.21587192478E+03  0.00000000000E+00 0. -1.
        -13    1    5    5    0    0 -0.24795866936E+02 -0.88229559239E+01  0.63048007332E+01  0.27063445468E+02  0.00000000000E+00 0.  1.
          5    1    6    6  503    0 -0.58750145822E+03  0.63568017744E+02 -0.68068891662E+03  0.90142018365E+03  0.47000000000E+01 0. -1.
         -5    1    6    6    0  503 -0.53060898395E+03 -0.47337320725E+01 -0.70769517257E+03  0.88454669145E+03  0.47000000000E+01 0.  1.
<mgrwt>
<rscale>  0 0.12538428E+04</rscale>
<asrwt>0</asrwt>
<pdfrwt beam="1">  1        2 0.38534700E+00 0.12538428E+04</pdfrwt>
<pdfrwt beam="2">  1       -2 0.11467352E+00 0.12538428E+04</pdfrwt>
<totfact> 0.20030590E+00</totfact>
</mgrwt>
</event>
<event>
12    1  0.3127365E-008  0.9385060E+03  0.7818608E-02  0.9378687E-01
         -2   -1    0    0    0  501 -0.00000000000E+00  0.00000000000E+00  0.24934606299E+03  0.24934606299E+03  0.00000000000E+00 0.  1.
          2   -1    0    0  501    0  0.00000000000E+00 -0.00000000000E+00 -0.40400007134E+04  0.40400007134E+04  0.00000000000E+00 0. -1.
         23    2    1    2    0    0  0.28058330912E+03  0.80649065288E+03 -0.10474603528E+04  0.13543798579E+04  0.89540170523E+02 0.  0.
    5000000    2    1    2    0    0 -0.28058330912E+03 -0.80649065288E+03 -0.27431942976E+04  0.29349669185E+04  0.59980137705E+03 0.  0.
         23    2    4    4    0    0  0.48479465622E+02 -0.64864880340E+03 -0.15336888377E+04  0.16683508396E+04  0.89986356404E+02 0.  0.
         23    2    4    4    0    0 -0.32906277474E+03 -0.15784184948E+03 -0.12095054598E+04  0.12666160789E+04  0.90644772193E+02 0.  0.
          4    1    3    3  502    0  0.57850842393E+02  0.29500461278E+03 -0.37595066918E+03  0.48136612592E+03  0.00000000000E+00 0. -1.
         -4    1    3    3    0  502  0.22273246672E+03  0.51148604010E+03 -0.67150968363E+03  0.87301373194E+03  0.00000000000E+00 0.  1.
         11    1    5    5    0    0  0.20524960621E+02 -0.54916623535E+03 -0.12194818999E+04  0.13375877288E+04  0.00000000000E+00 0.  1.
        -11    1    5    5    0    0  0.27954505000E+02 -0.99482568042E+02 -0.31420693786E+03  0.33076311084E+03  0.00000000000E+00 0. -1.
          5    1    6    6  503    0 -0.26755980549E+03 -0.12013144015E+03 -0.10701558760E+04  0.11096285421E+04  0.47000000000E+01 0. -1.
         -5    1    6    6    0  503 -0.61502969244E+02 -0.37710409328E+02 -0.13934958381E+03  0.15698753678E+03  0.47000000000E+01 0.  1.
<mgrwt>
<rscale>  0 0.93850599E+03</rscale>
<asrwt>0</asrwt>
<pdfrwt beam="1">  1        2 0.62153860E+00 0.93850599E+03</pdfrwt>
<pdfrwt beam="2">  1       -2 0.38360931E-01 0.93850599E+03</pdfrwt>
<totfact> 0.21752281E+00</totfact>
</mgrwt>
</event>
<event>
12    1  0.3127365E-008  0.2986671E+03  0.7818608E-02  0.1085909E+00
         -1   -1    0    0    0  501 -0.00000000000E+00  0.00000000000E+00  0.65855769768E+03  0.65855769768E+03  0.00000000000E+00 0.  1.
          1   -1    0    0  501    0  0.00000000000E+00 -0.00000000000E+00 -0.26308397911E+04  0.26308397911E+04  0.00000000000E+00 0. -1.
         23    2    1    2    0    0 -0.21402824385E+03 -0.39971429225E+02  0.59695638527E+03  0.64206064027E+03  0.92082221638E+02 0.  0.
    5000000    2    1    2    0    0  0.21402824385E+03  0.39971429225E+02 -0.25692384787E+04  0.26473368485E+04  0.60000018734E+03 0.  0.
         23    2    4    4    0    0  0.18183390025E+03 -0.10183895054E+03 -0.32758223792E+03  0.39910742983E+03  0.92422285253E+02 0.  0.
         23    2    4    4    0    0  0.32194343594E+02  0.14181037977E+03 -0.22416562408E+04  0.22482294187E+04  0.91466702809E+02 0.  0.
          2    1    3    3  502    0 -0.10575364948E+03  0.72748573357E+01  0.18203941414E+03  0.21065399646E+03  0.00000000000E+00 0. -1.
         -2    1    3    3    0  502 -0.10827459437E+03 -0.47246286561E+02  0.41491697114E+03  0.43140664380E+03  0.00000000000E+00 0.  1.
         11    1    5    5    0    0  0.26755145941E+02 -0.41167822507E+02 -0.28444819156E+02  0.56742710379E+02  0.00000000000E+00 0. -1.
        -11    1    5    5    0    0  0.15507875431E+03 -0.60671128033E+02 -0.29913741877E+03  0.34236471945E+03  0.00000000000E+00 0.  1.
          5    1    6    6  503    0  0.29588326592E+02  0.20863776687E+02 -0.10046020622E+04  0.10052652185E+04  0.47000000000E+01 0. -1.
         -5    1    6    6    0  503  0.26060170026E+01  0.12094660308E+03 -0.12370541786E+04  0.12429642002E+04  0.47000000000E+01 0.  1.
<mgrwt>
<rscale>  0 0.29866714E+03</rscale>
<asrwt>0</asrwt>
<pdfrwt beam="1">  1        1 0.40474458E+00 0.29866714E+03</pdfrwt>
<pdfrwt beam="2">  1       -1 0.10131657E+00 0.29866714E+03</pdfrwt>
<totfact> 0.12718080E+00</totfact>
</mgrwt>
</event>
<event>
12    1  0.3127365E-008  0.1260261E+04  0.7818608E-02  0.9061686E-01
         -2   -1    0    0    0  501 -0.00000000000E+00  0.00000000000E+00  0.16872143116E+04  0.16872143116E+04  0.00000000000E+00 0.  1.
          2   -1    0    0  501    0  0.00000000000E+00 -0.00000000000E+00 -0.11389188770E+04  0.11389188770E+04  0.00000000000E+00 0. -1.
         23    2    1    2    0    0  0.28198414584E+03  0.11767683680E+04 -0.27081468155E+03  0.12464857647E+04  0.12683579778E+03 0.  0.
    5000000    2    1    2    0    0 -0.28198414584E+03 -0.11767683680E+04  0.81911011613E+03  0.15796474238E+04  0.60003812461E+03 0.  0.
         23    2    4    4    0    0 -0.26937822120E+03 -0.22454646359E+03  0.81538912001E+02  0.37162258674E+03  0.92027237457E+02 0.  0.
         23    2    4    4    0    0 -0.12605924639E+02 -0.95222190437E+03  0.73757120413E+03  0.12080248371E+04  0.91800116656E+02 0.  0.
          1    1    3    3  502    0  0.30660553798E+02  0.28314436271E+03 -0.23240425429E+02  0.28574624594E+03  0.00000000000E+00 0. -1.
         -1    1    3    3    0  502  0.25132359204E+03  0.89362400525E+03 -0.24757425612E+03  0.96073951879E+03  0.00000000000E+00 0.  1.
         13    1    5    5    0    0 -0.48638545601E+02 -0.43647319913E+02  0.54233646310E+02  0.84923995701E+02  0.00000000000E+00 0.  1.
        -13    1    5    5    0    0 -0.22073967560E+03 -0.18089914368E+03  0.27305265692E+02  0.28669859104E+03  0.00000000000E+00 0. -1.
          5    1    6    6  503    0 -0.46022311920E+02 -0.76825210618E+03  0.58914238140E+03  0.96924722719E+03  0.47000000000E+01 0.  1.
         -5    1    6    6    0  503  0.33416387281E+02 -0.18396979818E+03  0.14842882273E+03  0.23877760992E+03  0.47000000000E+01 0. -1.
<mgrwt>
<rscale>  0 0.12602609E+04</rscale>
<asrwt>0</asrwt>
<pdfrwt beam="1">  1        2 0.17521829E+00 0.12602609E+04</pdfrwt>
<pdfrwt beam="2">  1       -2 0.25957143E+00 0.12602609E+04</pdfrwt>
<totfact> 0.11195177E+00</totfact>
</mgrwt>
</event>
<event>
12    1  0.3127365E-008  0.5700306E+03  0.7818608E-02  0.9969611E-01
         -2   -1    0    0    0  501 -0.00000000000E+00  0.00000000000E+00  0.95193755032E+03  0.95193755032E+03  0.00000000000E+00 0.  1.
          2   -1    0    0  501    0  0.00000000000E+00 -0.00000000000E+00 -0.13855242030E+04  0.13855242030E+04  0.00000000000E+00 0. -1.
         23    2    1    2    0    0 -0.42706638662E+03 -0.31393345404E+03 -0.11458930071E+04  0.12659245370E+04  0.92489120406E+02 0.  0.
    5000000    2    1    2    0    0  0.42706638662E+03  0.31393345404E+03  0.71230635441E+03  0.10715372164E+04  0.59989311664E+03 0.  0.
         23    2    4    4    0    0  0.25881216014E+03  0.32131032143E+03  0.76432944281E+03  0.87312945261E+03  0.89058896160E+02 0.  0.
         23    2    4    4    0    0  0.16825422648E+03 -0.73768673859E+01 -0.52023088394E+02  0.19840776376E+03  0.91078735698E+02 0.  0.
          1    1    3    3  502    0 -0.32321019248E+03 -0.19808112450E+03 -0.87386332213E+03  0.95254294715E+03  0.00000000000E+00 0. -1.
         -1    1    3    3    0  502 -0.10385619414E+03 -0.11585232955E+03 -0.27202968499E+03  0.31338158982E+03  0.00000000000E+00 0.  1.
         13    1    5    5    0    0  0.11580258397E+03  0.11373781857E+03  0.22126963050E+03  0.27442080681E+03  0.00000000000E+00 0.  1.
        -13    1    5    5    0    0  0.14300957617E+03  0.20757250285E+03  0.54305981230E+03  0.59870864580E+03  0.00000000000E+00 0. -1.
          5    1    6    6  503    0  0.23375633209E+02  0.32836502906E+02 -0.55162294826E+01  0.40953326345E+02  0.47000000000E+01 0. -1.
         -5    1    6    6    0  503  0.14487859327E+03 -0.40213370291E+02 -0.46506858911E+02  0.15745443742E+03  0.47000000000E+01 0.  1.
<mgrwt>
<rscale>  0 0.57003059E+03</rscale>
<asrwt>0</asrwt>
<pdfrwt beam="1">  1        2 0.21315757E+00 0.57003059E+03</pdfrwt>
<pdfrwt beam="2">  1       -2 0.14645193E+00 0.57003059E+03</pdfrwt>
<totfact> 0.49724542E+00</totfact>
</mgrwt>
</event>
<event>
12    1  0.3127365E-008  0.9111565E+03  0.7818608E-02  0.9411742E-01
          2   -1    0    0  501    0  0.00000000000E+00  0.00000000000E+00  0.15255270597E+04  0.15255270597E+04  0.00000000000E+00 0. -1.
         -2   -1    0    0    0  501 -0.00000000000E+00 -0.00000000000E+00 -0.92062763876E+03  0.92062763876E+03  0.00000000000E+00 0.  1.
         23    2    1    2    0    0  0.16052808175E+03 -0.86928241211E+03 -0.40440686883E+03  0.97643498551E+03  0.91973845990E+02 0.  0.
    5000000    2    1    2    0    0 -0.16052808175E+03  0.86928241211E+03  0.10093062898E+04  0.14697197129E+04  0.59996305803E+03 0.  0.
         23    2    4    4    0    0  0.79083396948E+02  0.26814799451E+03  0.33335483427E+02  0.29521382765E+03  0.88782987965E+02 0.  0.
         23    2    4    4    0    0 -0.23961147870E+03  0.60113441760E+03  0.97597080633E+03  0.11745058853E+04  0.90381474818E+02 0.  0.
          4    1    3    3  502    0  0.16349015804E+03 -0.79067154003E+03 -0.34577824634E+03  0.87832403566E+03  0.00000000000E+00 0. -1.
         -4    1    3    3    0  502 -0.29620762884E+01 -0.78610872082E+02 -0.58628622486E+02  0.98110949848E+02  0.00000000000E+00 0.  1.
         11    1    5    5    0    0  0.21346011622E+01  0.13266176484E+03 -0.11228987998E+02  0.13315325961E+03  0.00000000000E+00 0. -1.
        -11    1    5    5    0    0  0.76948795786E+02  0.13548622966E+03  0.44564471425E+02  0.16206056804E+03  0.00000000000E+00 0.  1.
          5    1    6    6  503    0 -0.67674978041E+02  0.13948098284E+03  0.30407310669E+03  0.34134643903E+03  0.47000000000E+01 0. -1.
         -5    1    6    6    0  503 -0.17193650066E+03  0.46165343477E+03  0.67189769964E+03  0.83315944625E+03  0.47000000000E+01 0.  1.
<mgrwt>
<rscale>  0 0.91115648E+03</rscale>
<asrwt>0</asrwt>
<pdfrwt beam="1">  1        2 0.23469647E+00 0.91115648E+03</pdfrwt>
<pdfrwt beam="2">  1       -2 0.14163502E+00 0.91115648E+03</pdfrwt>
<totfact> 0.42950336E+00</totfact>
</mgrwt>
</event>
<event>
12    1  0.3127365E-008  0.9089609E+03  0.7818608E-02  0.9414449E-01
         -2   -1    0    0    0  501 -0.00000000000E+00  0.00000000000E+00  0.64707945748E+03  0.64707945748E+03  0.00000000000E+00 0.  1.
          2   -1    0    0  501    0  0.00000000000E+00 -0.00000000000E+00 -0.16341345149E+04  0.16341345149E+04  0.00000000000E+00 0. -1.
         23    2    1    2    0    0 -0.53225604382E+03 -0.71794983442E+03 -0.76976690205E+03  0.11830842552E+04  0.91645024547E+02 0.  0.
    5000000    2    1    2    0    0  0.53225604382E+03  0.71794983442E+03 -0.21728815534E+03  0.10981297171E+04  0.59993855708E+03 0.  0.
         23    2    4    4    0    0  0.17153990912E+03  0.15217644081E+03 -0.32943022369E+03  0.41179328817E+03  0.92009946990E+02 0.  0.
         23    2    4    4    0    0  0.36071613469E+03  0.56577339360E+03  0.11214206834E+03  0.68633642896E+03  0.90918576127E+02 0.  0.
          2    1    3    3  502    0 -0.36184897779E+03 -0.55247207068E+03 -0.54930439294E+03  0.85900837465E+03  0.00000000000E+00 0. -1.
         -2    1    3    3    0  502 -0.17040706602E+03 -0.16547776374E+03 -0.22046250911E+03  0.32407588056E+03  0.00000000000E+00 0.  1.
         13    1    5    5    0    0 -0.10265612008E+02  0.19070834495E+02 -0.25669054686E+02  0.33585411814E+02  0.00000000000E+00 0. -1.
        -13    1    5    5    0    0  0.18180552113E+03  0.13310560632E+03 -0.30376116900E+03  0.37820787636E+03  0.00000000000E+00 0.  1.
          5    1    6    6  503    0  0.31413576667E+03  0.45710757785E+03  0.12091640911E+03  0.56768960324E+03  0.47000000000E+01 0. -1.
         -5    1    6    6    0  503  0.46580368020E+02  0.10866581575E+03 -0.87743407610E+01  0.11864682572E+03  0.47000000000E+01 0.  1.
<mgrwt>
<rscale>  0 0.90896091E+03</rscale>
<asrwt>0</asrwt>
<pdfrwt beam="1">  1        2 0.25140531E+00 0.90896091E+03</pdfrwt>
<pdfrwt beam="2">  1       -2 0.99550686E-01 0.90896091E+03</pdfrwt>
<totfact> 0.89688982E+00</totfact>
</mgrwt>
</event>
<event>
12    1  0.3127365E-008  0.1094785E+04  0.7818608E-02  0.9210290E-01
          2   -1    0    0  501    0  0.00000000000E+00  0.00000000000E+00  0.22252755877E+04  0.22252755877E+04  0.00000000000E+00 0. -1.
         -2   -1    0    0    0  501 -0.00000000000E+00 -0.00000000000E+00 -0.10998077157E+04  0.10998077157E+04  0.00000000000E+00 0.  1.
         23    2    1    2    0    0 -0.96799870451E+03  0.35460001548E+03  0.17085804406E+04  0.19974560669E+04  0.88436159477E+02 0.  0.
    5000000    2    1    2    0    0  0.96799870451E+03 -0.35460001548E+03 -0.58311256856E+03  0.13276272366E+04  0.59984260333E+03 0.  0.
         23    2    4    4    0    0  0.51791238999E+03  0.84848329503E+02 -0.13350401241E+03  0.54885377937E+03  0.89356964351E+02 0.  0.
         23    2    4    4    0    0  0.45008631452E+03 -0.43944834499E+03 -0.44960855615E+03  0.77877345720E+03  0.92993039766E+02 0.  0.
          3    1    3    3  502    0 -0.61431988049E+03  0.19339731373E+03  0.10051328158E+04  0.11937685764E+04  0.00000000000E+00 0. -1.
         -3    1    3    3    0  502 -0.35367882402E+03  0.16120270175E+03  0.70344762477E+03  0.80368749051E+03  0.00000000000E+00 0.  1.
         11    1    5    5    0    0  0.25006798181E+03  0.22156016367E+02 -0.21928125622E+02  0.25200342712E+03  0.00000000000E+00 0.  1.
        -11    1    5    5    0    0  0.26784440818E+03  0.62692313136E+02 -0.11157588678E+03  0.29685035225E+03  0.00000000000E+00 0. -1.
          5    1    6    6  503    0  0.49498271063E+02 -0.69169938919E+02 -0.29211458446E+02  0.90055308521E+02  0.47000000000E+01 0.  1.
         -5    1    6    6    0  503  0.40058804346E+03 -0.37027840607E+03 -0.42039709771E+03  0.68871814868E+03  0.47000000000E+01 0. -1.
<mgrwt>
<rscale>  0 0.10947851E+04</rscale>
<asrwt>0</asrwt>
<pdfrwt beam="1">  1        2 0.34235009E+00 0.10947851E+04</pdfrwt>
<pdfrwt beam="2">  1       -2 0.16920119E+00 0.10947851E+04</pdfrwt>
<totfact> 0.10653982E+00</totfact>
</mgrwt>
</event>
<event>
12    1  0.3127365E-008  0.5126886E+03  0.7818608E-02  0.1010519E+00
         -1   -1    0    0    0  501 -0.00000000000E+00  0.00000000000E+00  0.19093052936E+03  0.19093052936E+03  0.00000000000E+00 0.  1.
          1   -1    0    0  501    0  0.00000000000E+00 -0.00000000000E+00 -0.14238893365E+04  0.14238893365E+04  0.00000000000E+00 0. -1.
         23    2    1    2    0    0  0.34027641090E+03  0.19683021514E+02 -0.42631984182E+03  0.55327506161E+03  0.90494359611E+02 0.  0.
    5000000    2    1    2    0    0 -0.34027641090E+03 -0.19683021514E+02 -0.80663896532E+03  0.10615448042E+04  0.60002957751E+03 0.  0.
         23    2    4    4    0    0 -0.25974737850E+03 -0.28588005415E+03 -0.48505708132E+03  0.62677997984E+03  0.91524122414E+02 0.  0.
         23    2    4    4    0    0 -0.80529032396E+02  0.26619703264E+03 -0.32158188400E+03  0.43476482440E+03  0.90883217232E+02 0.  0.
          3    1    3    3  502    0  0.15746874896E+03 -0.32793292368E+01 -0.26556726850E+03  0.30876064354E+03  0.00000000000E+00 0. -1.
         -3    1    3    3    0  502  0.18280766194E+03  0.22962350750E+02 -0.16075257331E+03  0.24451441807E+03  0.00000000000E+00 0.  1.
         13    1    5    5    0    0 -0.68605300193E+02 -0.12081909400E+03 -0.22374102546E+03  0.26337043714E+03  0.00000000000E+00 0. -1.
        -13    1    5    5    0    0 -0.19114207831E+03 -0.16506096016E+03 -0.26131605586E+03  0.36340954269E+03  0.00000000000E+00 0.  1.
          5    1    6    6  503    0  0.68911133072E+01  0.12980206146E+03 -0.13137666800E+03  0.18487287929E+03  0.47000000000E+01 0. -1.
         -5    1    6    6    0  503 -0.87420145703E+02  0.13639497118E+03 -0.19020521599E+03  0.24989194510E+03  0.47000000000E+01 0.  1.
<mgrwt>
<rscale>  0 0.51268863E+03</rscale>
<asrwt>0</asrwt>
<pdfrwt beam="1">  1        1 0.21905990E+00 0.51268863E+03</pdfrwt>
<pdfrwt beam="2">  1       -1 0.29373927E-01 0.51268863E+03</pdfrwt>
<totfact> 0.82324251E+01</totfact>
</mgrwt>
</event>
<event>
12    1  0.3127365E-008  0.7733763E+03  0.7818608E-02  0.9599374E-01
          2   -1    0    0  501    0  0.00000000000E+00  0.00000000000E+00  0.37490358518E+04  0.37490358518E+04  0.00000000000E+00 0. -1.
         -2   -1    0    0    0  501 -0.00000000000E+00 -0.00000000000E+00 -0.26883427055E+03  0.26883427055E+03  0.00000000000E+00 0.  1.
         23    2    1    2    0    0  0.60888186620E+03 -0.27947432514E+03  0.28259442286E+04  0.29057591304E+04  0.92910253812E+02 0.  0.
    5000000    2    1    2    0    0 -0.60888186620E+03  0.27947432514E+03  0.65425735264E+03  0.11121109920E+04  0.59991261827E+03 0.  0.
         23    2    4    4    0    0  0.75346856922E+02 -0.29490650571E+02  0.18963585674E+03  0.22508522292E+03  0.90303666026E+02 0.  0.
         23    2    4    4    0    0 -0.68422872313E+03  0.30896497571E+03  0.46462149590E+03  0.88702576904E+03  0.85517709996E+02 0.  0.
          3    1    3    3  502    0  0.31136964048E+03 -0.16039112275E+03  0.12873429869E+04  0.13341395471E+04  0.00000000000E+00 0. -1.
         -3    1    3    3    0  502  0.29751222573E+03 -0.11908320239E+03  0.15386012417E+04  0.15716195832E+04  0.00000000000E+00 0.  1.
         13    1    5    5    0    0  0.47925576991E+02 -0.61916592210E+02  0.11310520890E+03  0.13756203547E+03  0.00000000000E+00 0.  1.
        -13    1    5    5    0    0  0.27421279931E+02  0.32425941638E+02  0.76530647834E+02  0.87523187454E+02  0.00000000000E+00 0. -1.
          5    1    6    6  503    0 -0.15107997681E+03  0.10675380545E+03  0.10267705334E+03  0.21162750685E+03  0.47000000000E+01 0. -1.
         -5    1    6    6    0  503 -0.53314874631E+03  0.20221117026E+03  0.36194444256E+03  0.67539826219E+03  0.47000000000E+01 0.  1.
<mgrwt>
<rscale>  0 0.77337634E+03</rscale>
<asrwt>0</asrwt>
<pdfrwt beam="1">  1        2 0.57677471E+00 0.77337634E+03</pdfrwt>
<pdfrwt beam="2">  1       -2 0.41359121E-01 0.77337634E+03</pdfrwt>
<totfact> 0.32408783E+00</totfact>
</mgrwt>
</event>
<event>
12    1  0.3127365E-008  0.1204351E+04  0.7818608E-02  0.9109057E-01
         -2   -1    0    0    0  501 -0.00000000000E+00  0.00000000000E+00  0.76417224149E+03  0.76417224149E+03  0.00000000000E+00 0. -1.
          2   -1    0    0  501    0  0.00000000000E+00 -0.00000000000E+00 -0.19841416689E+04  0.19841416689E+04  0.00000000000E+00 0.  1.
         23    2    1    2    0    0 -0.87380475657E+03  0.71694414793E+03 -0.30245510211E+03  0.11737738713E+04  0.93393513225E+02 0.  0.
    5000000    2    1    2    0    0  0.87380475657E+03 -0.71694414793E+03 -0.91751432528E+03  0.15745400391E+04  0.59983342159E+03 0.  0.
         23    2    4    4    0    0  0.48492512666E+03 -0.43161876030E+02 -0.33332213793E+03  0.59769225664E+03  0.95483296999E+02 0.  0.
         23    2    4    4    0    0  0.38887962991E+03 -0.67378227190E+03 -0.58419218736E+03  0.97684778243E+03  0.87983872239E+02 0.  0.
          4    1    3    3  502    0 -0.50585157054E+03  0.45081014604E+03 -0.21872152231E+03  0.71200751647E+03  0.00000000000E+00 0. -1.
         -4    1    3    3    0  502 -0.36795318603E+03  0.26613400189E+03 -0.83733579803E+02  0.46176635484E+03  0.00000000000E+00 0.  1.
         11    1    5    5    0    0  0.12346200587E+03  0.27330055237E+02 -0.10520106981E+03  0.16449031553E+03  0.00000000000E+00 0. -1.
        -11    1    5    5    0    0  0.36146312079E+03 -0.70491931268E+02 -0.22812106811E+03  0.43320194111E+03  0.00000000000E+00 0.  1.
          5    1    6    6  503    0  0.23204827783E+03 -0.47818067094E+03 -0.37854197553E+03  0.65254829288E+03  0.47000000000E+01 0. -1.
         -5    1    6    6    0  503  0.15683135209E+03 -0.19560160096E+03 -0.20565021183E+03  0.32429948955E+03  0.47000000000E+01 0.  1.
<mgrwt>
<rscale>  0 0.12043507E+04</rscale>
<asrwt>0</asrwt>
<pdfrwt beam="1">  1        2 0.30525256E+00 0.12043507E+04</pdfrwt>
<pdfrwt beam="2">  1       -2 0.11756496E+00 0.12043507E+04</pdfrwt>
<totfact> 0.37178731E+00</totfact>
</mgrwt>
</event>
<event>
12    1  0.3127365E-008  0.8730981E+03  0.7818608E-02  0.9459849E-01
         -2   -1    0    0    0  501 -0.00000000000E+00  0.00000000000E+00  0.93728901643E+03  0.93728901643E+03  0.00000000000E+00 0.  1.
          2   -1    0    0  501    0  0.00000000000E+00 -0.00000000000E+00 -0.15862924779E+04  0.15862924779E+04  0.00000000000E+00 0. -1.
         23    2    1    2    0    0  0.21096056960E+03 -0.80944185393E+03 -0.11123344925E+04  0.13947014712E+04  0.90574244908E+02 0.  0.
    5000000    2    1    2    0    0 -0.21096056960E+03  0.80944185393E+03  0.46333103098E+03  0.11288800231E+04  0.59999498795E+03 0.  0.
         23    2    4    4    0    0  0.52707327488E+02  0.69394719708E+02  0.29298516037E+03  0.32030636676E+03  0.95719250391E+02 0.  0.
         23    2    4    4    0    0 -0.26366789708E+03  0.74004713422E+03  0.17034587061E+03  0.80857365638E+03  0.87081119276E+02 0.  0.
          4    1    3    3  502    0  0.13737166554E+03 -0.35235952478E+03 -0.51569590814E+03  0.63950799750E+03  0.00000000000E+00 0.  1.
         -4    1    3    3    0  502  0.73588904057E+02 -0.45708232915E+03 -0.59663858433E+03  0.75519347371E+03  0.00000000000E+00 0. -1.
         11    1    5    5    0    0  0.41899512612E+02  0.86692988667E+02  0.28008163874E+03  0.29617050461E+03  0.00000000000E+00 0. -1.
        -11    1    5    5    0    0  0.10807814875E+02 -0.17298268959E+02  0.12903521634E+02  0.24135862154E+02  0.00000000000E+00 0.  1.
          5    1    6    6  503    0 -0.85276830807E+02  0.33540210945E+03  0.10388611480E+03  0.36136010812E+03  0.47000000000E+01 0. -1.
         -5    1    6    6    0  503 -0.17839106628E+03  0.40464502478E+03  0.66459755811E+02  0.44721354826E+03  0.47000000000E+01 0.  1.
<mgrwt>
<rscale>  0 0.87309809E+03</rscale>
<asrwt>0</asrwt>
<pdfrwt beam="1">  1        2 0.24404500E+00 0.87309809E+03</pdfrwt>
<pdfrwt beam="2">  1       -2 0.14419831E+00 0.87309809E+03</pdfrwt>
<totfact> 0.38098449E+00</totfact>
</mgrwt>
</event>
<event>
12    1  0.3127365E-008  0.1845840E+04  0.7818608E-02  0.8682295E-01
         -1   -1    0    0    0  501 -0.00000000000E+00  0.00000000000E+00  0.97768317570E+03  0.97768317570E+03  0.00000000000E+00 0.  1.
          1   -1    0    0  501    0  0.00000000000E+00 -0.00000000000E+00 -0.37694643119E+04  0.37694643119E+04  0.00000000000E+00 0. -1.
         23    2    1    2    0    0  0.13757364522E+04 -0.11874819449E+04 -0.19141619942E+04  0.26417375968E+04  0.10953188897E+03 0.  0.
    5000000    2    1    2    0    0 -0.13757364522E+04  0.11874819449E+04 -0.87761914200E+03  0.21054098908E+04  0.59980938188E+03 0.  0.
         23    2    4    4    0    0 -0.12840937895E+04  0.89166972212E+03 -0.59467248751E+03  0.16751946868E+04  0.93113465601E+02 0.  0.
         23    2    4    4    0    0 -0.91642662630E+02  0.29581222282E+03 -0.28294665448E+03  0.43021520406E+03  0.95514730469E+02 0.  0.
          1    1    3    3  502    0  0.26694774827E+03 -0.23050224171E+03 -0.43652245363E+03  0.56119892753E+03  0.00000000000E+00 0. -1.
         -1    1    3    3    0  502  0.11087887039E+04 -0.95697970323E+03 -0.14776395406E+04  0.20805386692E+04  0.00000000000E+00 0.  1.
         13    1    5    5    0    0 -0.58435799910E+03  0.40490483212E+03 -0.22093556786E+03  0.74446942135E+03  0.00000000000E+00 0.  1.
        -13    1    5    5    0    0 -0.69973579045E+03  0.48676489000E+03 -0.37373691965E+03  0.93072526542E+03  0.00000000000E+00 0. -1.
          5    1    6    6  503    0 -0.73191108439E+02  0.19338892967E+03 -0.12711766123E+03  0.24276986278E+03  0.47000000000E+01 0. -1.
         -5    1    6    6    0  503 -0.18451554191E+02  0.10242329314E+03 -0.15582899325E+03  0.18744534128E+03  0.47000000000E+01 0.  1.
<mgrwt>
<rscale>  0 0.18458398E+04</rscale>
<asrwt>0</asrwt>
<pdfrwt beam="1">  1        1 0.57991759E+00 0.18458398E+04</pdfrwt>
<pdfrwt beam="2">  1       -1 0.15041280E+00 0.18458398E+04</pdfrwt>
<totfact> 0.48058377E-02</totfact>
</mgrwt>
</event>
<event>
12    1  0.3127365E-008  0.7447942E+03  0.7818608E-02  0.9643553E-01
         -4   -1    0    0    0  501 -0.00000000000E+00  0.00000000000E+00  0.10859898117E+04  0.10859898117E+04  0.00000000000E+00 0.  1.
          4   -1    0    0  501    0  0.00000000000E+00 -0.00000000000E+00 -0.73535417229E+03  0.73535417229E+03  0.00000000000E+00 0. -1.
         23    2    1    2    0    0 -0.58623779710E+03  0.44806005717E+03 -0.13179081974E+03  0.75495296482E+03  0.90291690351E+02 0.  0.
    5000000    2    1    2    0    0  0.58623779710E+03 -0.44806005717E+03  0.48242645917E+03  0.10663910192E+04  0.60001828951E+03 0.  0.
         23    2    4    4    0    0  0.24570754242E+03 -0.19729982052E+03 -0.97308252876E+02  0.34274985475E+03  0.93322833621E+02 0.  0.
         23    2    4    4    0    0  0.34053025467E+03 -0.25076023665E+03  0.57973471204E+03  0.72364116445E+03  0.93395117098E+02 0.  0.
          1    1    3    3  502    0 -0.49305395283E+03  0.33153303416E+03 -0.10645993462E+03  0.60361417381E+03  0.00000000000E+00 0. -1.
         -1    1    3    3    0  502 -0.93183844263E+02  0.11652702301E+03 -0.25330885112E+02  0.15133879101E+03  0.00000000000E+00 0.  1.
         11    1    5    5    0    0  0.14927455284E+03 -0.13675720053E+03 -0.10606615822E+03  0.22855076885E+03  0.00000000000E+00 0. -1.
        -11    1    5    5    0    0  0.96432989588E+02 -0.60542619986E+02  0.87579053421E+01  0.11419908591E+03  0.00000000000E+00 0.  1.
          5    1    6    6  503    0  0.63407718579E+02 -0.87791717730E+02  0.18627474805E+03  0.21551866795E+03  0.47000000000E+01 0. -1.
         -5    1    6    6    0  503  0.27712253609E+03 -0.16296851892E+03  0.39345996400E+03  0.50812249649E+03  0.47000000000E+01 0.  1.
<mgrwt>
<rscale>  0 0.74479425E+03</rscale>
<asrwt>0</asrwt>
<pdfrwt beam="1">  1        4 0.11313141E+00 0.74479425E+03</pdfrwt>
<pdfrwt beam="2">  1       -4 0.16707536E+00 0.74479425E+03</pdfrwt>
<totfact> 0.26534577E-01</totfact>
</mgrwt>
</event>
<event>
12    1  0.3127365E-008  0.1221306E+04  0.7818608E-02  0.9094409E-01
         -2   -1    0    0    0  501 -0.00000000000E+00  0.00000000000E+00  0.21220978052E+04  0.21220978052E+04  0.00000000000E+00 0.  1.
          2   -1    0    0  501    0  0.00000000000E+00 -0.00000000000E+00 -0.24711073756E+04  0.24711073756E+04  0.00000000000E+00 0. -1.
         23    2    1    2    0    0  0.74919172152E+03  0.95037790069E+03  0.17304529092E+04  0.21135502837E+04  0.90117372290E+02 0.  0.
    5000000    2    1    2    0    0 -0.74919172152E+03 -0.95037790069E+03 -0.20794624796E+04  0.24796548971E+04  0.60001484547E+03 0.  0.
         23    2    4    4    0    0 -0.37759681077E+03 -0.60762907609E+03 -0.16831975780E+04  0.18308212504E+04  0.83426127304E+02 0.  0.
         23    2    4    4    0    0 -0.37159491075E+03 -0.34274882460E+03 -0.39626490167E+03  0.64883364674E+03  0.91649846579E+02 0.  0.
          1    1    3    3  502    0  0.34983641552E+02  0.20063221170E+02  0.66954859450E+02  0.78162274941E+02  0.00000000000E+00 0. -1.
         -1    1    3    3    0  502  0.71420807997E+03  0.93031467952E+03  0.16634980498E+04  0.20353880087E+04  0.00000000000E+00 0.  1.
         13    1    5    5    0    0 -0.30512533096E+03 -0.50537729229E+03 -0.13028984268E+04  0.14304027355E+04  0.00000000000E+00 0.  1.
        -13    1    5    5    0    0 -0.72471479808E+02 -0.10225178380E+03 -0.38029915113E+03  0.40041851484E+03  0.00000000000E+00 0. -1.
          5    1    6    6  503    0 -0.97436911260E+02 -0.14870268325E+03 -0.13516106402E+03  0.22337646006E+03  0.47000000000E+01 0. -1.
         -5    1    6    6    0  503 -0.27415799949E+03 -0.19404614135E+03 -0.26110383765E+03  0.42545718668E+03  0.47000000000E+01 0.  1.
<mgrwt>
<rscale>  0 0.12213065E+04</rscale>
<asrwt>0</asrwt>
<pdfrwt beam="1">  1        2 0.38017037E+00 0.12213065E+04</pdfrwt>
<pdfrwt beam="2">  1       -2 0.32647658E+00 0.12213065E+04</pdfrwt>
<totfact> 0.77392963E-02</totfact>
</mgrwt>
</event>
<event>
12    1  0.3127365E-008  0.8360174E+03  0.7818608E-02  0.9509298E-01
          2   -1    0    0  501    0  0.00000000000E+00  0.00000000000E+00  0.10692620711E+04  0.10692620711E+04  0.00000000000E+00 0. -1.
         -2   -1    0    0    0  501 -0.00000000000E+00 -0.00000000000E+00 -0.69037445336E+03  0.69037445336E+03  0.00000000000E+00 0.  1.
         23    2    1    2    0    0 -0.71007933361E+03 -0.20298446800E+03  0.25770290770E+02  0.74472886876E+03  0.92420916512E+02 0.  0.
    5000000    2    1    2    0    0  0.71007933361E+03  0.20298446800E+03  0.35311732699E+03  0.10149076557E+04  0.59994195448E+03 0.  0.
         23    2    4    4    0    0  0.58812530256E+03  0.37664361873E+03  0.34340837908E+03  0.78348940558E+03  0.90413200287E+02 0.  0.
         23    2    4    4    0    0  0.12195403105E+03 -0.17365915073E+03  0.97089479041E+01  0.23141825014E+03  0.91814250010E+02 0.  0.
          1    1    3    3  502    0 -0.43248533139E+03 -0.13109180239E+03 -0.28786865691E+02  0.45283253654E+03  0.00000000000E+00 0. -1.
         -1    1    3    3    0  502 -0.27759400223E+03 -0.71892665615E+02  0.54557156461E+02  0.29189633222E+03  0.00000000000E+00 0.  1.
         13    1    5    5    0    0  0.44005698179E+03  0.32561735126E+03  0.27431697530E+03  0.61231250975E+03  0.00000000000E+00 0. -1.
        -13    1    5    5    0    0  0.14806832077E+03  0.51026267477E+02  0.69091403789E+02  0.17117689583E+03  0.00000000000E+00 0.  1.
          5    1    6    6  503    0  0.13121126927E+03 -0.13119200210E+03  0.19466792506E+02  0.18662471596E+03  0.47000000000E+01 0. -1.
         -5    1    6    6    0  503 -0.92572382190E+01 -0.42467148637E+02 -0.97578446014E+01  0.44793534177E+02  0.47000000000E+01 0.  1.
<mgrwt>
<rscale>  0 0.83601743E+03</rscale>
<asrwt>0</asrwt>
<pdfrwt beam="1">  1        2 0.16450186E+00 0.83601743E+03</pdfrwt>
<pdfrwt beam="2">  1       -2 0.10621145E+00 0.83601743E+03</pdfrwt>
<totfact> 0.16416033E+01</totfact>
</mgrwt>
</event>
<event>
12    1  0.3127365E-008  0.1073983E+04  0.7818608E-02  0.9230928E-01
          1   -1    0    0  501    0  0.00000000000E+00  0.00000000000E+00  0.25967507265E+04  0.25967507265E+04  0.00000000000E+00 0. -1.
         -1   -1    0    0    0  501 -0.00000000000E+00 -0.00000000000E+00 -0.51846641545E+03  0.51846641545E+03  0.00000000000E+00 0.  1.
         23    2    1    2    0    0 -0.95914886042E+03  0.37583263198E+03  0.53296177480E+03  0.11634577549E+04  0.91482185576E+02 0.  0.
    5000000    2    1    2    0    0  0.95914886042E+03 -0.37583263198E+03  0.15453225363E+04  0.19517593871E+04  0.60010520770E+03 0.  0.
         23    2    4    4    0    0  0.60188921411E+03 -0.42694582756E+03  0.13251737010E+04  0.15196174367E+04  0.92727829907E+02 0.  0.
         23    2    4    4    0    0  0.35725964631E+03  0.51113195587E+02  0.22014883530E+03  0.43214195039E+03  0.89633375273E+02 0.  0.
          1    1    3    3  502    0 -0.29092779337E+03  0.15575525985E+03  0.15062258995E+03  0.36274763476E+03  0.00000000000E+00 0. -1.
         -1    1    3    3    0  502 -0.66822106705E+03  0.22007737213E+03  0.38233918485E+03  0.80071012011E+03  0.00000000000E+00 0.  1.
         13    1    5    5    0    0  0.24932286031E+03 -0.22843034587E+03  0.56454167333E+03  0.65806505188E+03  0.00000000000E+00 0. -1.
        -13    1    5    5    0    0  0.35256635381E+03 -0.19851548170E+03  0.76063202766E+03  0.86155238484E+03  0.00000000000E+00 0.  1.
          5    1    6    6  503    0  0.24606130450E+02 -0.19300513100E+02  0.22588793476E+02  0.38862772062E+02  0.47000000000E+01 0. -1.
         -5    1    6    6    0  503  0.33265351586E+03  0.70413708687E+02  0.19756004182E+03  0.39327917833E+03  0.47000000000E+01 0.  1.
<mgrwt>
<rscale>  0 0.10739829E+04</rscale>
<asrwt>0</asrwt>
<pdfrwt beam="1">  1        1 0.39950011E+00 0.10739829E+04</pdfrwt>
<pdfrwt beam="2">  1       -1 0.79764065E-01 0.10739829E+04</pdfrwt>
<totfact> 0.18381839E+00</totfact>
</mgrwt>
</event>
<event>
12    1  0.3127365E-008  0.6130635E+03  0.7818608E-02  0.9878668E-01
          2   -1    0    0  501    0  0.00000000000E+00  0.00000000000E+00  0.29547018088E+04  0.29547018088E+04  0.00000000000E+00 0. -1.
         -2   -1    0    0    0  501 -0.00000000000E+00 -0.00000000000E+00 -0.16386876815E+03  0.16386876815E+03  0.00000000000E+00 0.  1.
         23    2    1    2    0    0  0.28358249362E+03  0.44079964294E+03  0.68766134836E+03  0.86952060974E+03  0.92003287052E+02 0.  0.
    5000000    2    1    2    0    0 -0.28358249362E+03 -0.44079964294E+03  0.21031716923E+04  0.22490499672E+04  0.60014267620E+03 0.  0.
         23    2    4    4    0    0  0.65799066233E+02  0.47574754044E+02  0.82272640770E+03  0.83185312807E+03  0.92238876928E+02 0.  0.
         23    2    4    4    0    0 -0.34938155985E+03 -0.48837439699E+03  0.12804452846E+04  0.14171968391E+04  0.91267343563E+02 0.  0.
          4    1    3    3  502    0  0.14386074112E+03  0.19034176930E+03  0.38191423449E+03  0.45031587190E+03  0.00000000000E+00 0. -1.
         -4    1    3    3    0  502  0.13972175250E+03  0.25045787364E+03  0.30574711387E+03  0.41920473784E+03  0.00000000000E+00 0.  1.
         13    1    5    5    0    0  0.46355698522E+02 -0.13752195904E+01  0.64024950595E+03  0.64192692098E+03  0.00000000000E+00 0. -1.
        -13    1    5    5    0    0  0.19443367712E+02  0.48949973634E+02  0.18247690175E+03  0.18992620709E+03  0.00000000000E+00 0.  1.
          5    1    6    6  503    0 -0.24535711396E+03 -0.37063478227E+03  0.10254579809E+04  0.11176566628E+04  0.47000000000E+01 0. -1.
         -5    1    6    6    0  503 -0.10402444589E+03 -0.11773961472E+03  0.25498730362E+03  0.29954017631E+03  0.47000000000E+01 0.  1.
<mgrwt>
<rscale>  0 0.61306350E+03</rscale>
<asrwt>0</asrwt>
<pdfrwt beam="1">  1        2 0.45456947E+00 0.61306350E+03</pdfrwt>
<pdfrwt beam="2">  1       -2 0.25210582E-01 0.61306350E+03</pdfrwt>
<totfact> 0.28379534E+01</totfact>
</mgrwt>
</event>
<event>
12    1  0.3127365E-008  0.8145429E+03  0.7818608E-02  0.9539202E-01
         -2   -1    0    0    0  501 -0.00000000000E+00  0.00000000000E+00  0.95466993064E+03  0.95466993064E+03  0.00000000000E+00 0.  1.
          2   -1    0    0  501    0  0.00000000000E+00 -0.00000000000E+00 -0.91246884703E+03  0.91246884703E+03  0.00000000000E+00 0. -1.
         23    2    1    2    0    0 -0.77829943351E+03 -0.16523689814E+03 -0.23062435726E+03  0.83396545110E+03  0.96216104440E+02 0.  0.
    5000000    2    1    2    0    0  0.77829943351E+03  0.16523689814E+03  0.27282544087E+03  0.10331733266E+04  0.59996679978E+03 0.  0.
         23    2    4    4    0    0  0.13083268910E+03  0.12175764352E+03 -0.15213247465E+03  0.25196909343E+03  0.91662521831E+02 0.  0.
         23    2    4    4    0    0  0.64746674441E+03  0.43479254620E+02  0.42495791552E+03  0.78120423313E+03  0.92667109615E+02 0.  0.
          4    1    3    3  502    0 -0.46194843702E+03 -0.12308709621E+03 -0.17999565059E+03  0.51082798078E+03  0.00000000000E+00 0. -1.
         -4    1    3    3    0  502 -0.31635099649E+03 -0.42149801925E+02 -0.50628706675E+02  0.32313747032E+03  0.00000000000E+00 0.  1.
         13    1    5    5    0    0  0.21482504142E+02  0.45767652267E+01 -0.66951869506E+02  0.70462739050E+02  0.00000000000E+00 0. -1.
        -13    1    5    5    0    0  0.10935018496E+03  0.11718087829E+03 -0.85180605147E+02  0.18150635438E+03  0.00000000000E+00 0.  1.
          5    1    6    6  503    0  0.25099478909E+03  0.28440422029E+01  0.21593573733E+03  0.33114468950E+03  0.47000000000E+01 0. -1.
         -5    1    6    6    0  503  0.39647195532E+03  0.40635212417E+02  0.20902217819E+03  0.45005954364E+03  0.47000000000E+01 0.  1.
<mgrwt>
<rscale>  0 0.81454288E+03</rscale>
<asrwt>0</asrwt>
<pdfrwt beam="1">  1        2 0.14037982E+00 0.81454288E+03</pdfrwt>
<pdfrwt beam="2">  1       -2 0.14687230E+00 0.81454288E+03</pdfrwt>
<totfact> 0.91993165E+00</totfact>
</mgrwt>
</event>
<event>
12    1  0.3127365E-008  0.3050210E+03  0.7818608E-02  0.1082757E+00
          2   -1    0    0  501    0  0.00000000000E+00  0.00000000000E+00  0.76318693950E+03  0.76318693950E+03  0.00000000000E+00 0.  1.
         -2   -1    0    0    0  501 -0.00000000000E+00 -0.00000000000E+00 -0.54954785966E+03  0.54954785966E+03  0.00000000000E+00 0. -1.
         23    2    1    2    0    0  0.12423840287E+03 -0.18795541844E+03 -0.37212608592E+03  0.44434363678E+03  0.90559503397E+02 0.  0.
    5000000    2    1    2    0    0 -0.12423840287E+03  0.18795541844E+03  0.58576516576E+03  0.86839116239E+03  0.60018327320E+03 0.  0.
         23    2    4    4    0    0  0.36413590867E+02  0.17463433447E+03 -0.49077751468E+02  0.20717582877E+03  0.93220694913E+02 0.  0.
         23    2    4    4    0    0 -0.16065199374E+03  0.13321083970E+02  0.63484291723E+03  0.66121533362E+03  0.90518912336E+02 0.  0.
          4    1    3    3  502    0  0.64260711975E+02 -0.16752114108E+03 -0.27155768335E+03  0.32547864323E+03  0.00000000000E+00 0.  1.
         -4    1    3    3    0  502  0.59977690897E+02 -0.20434277366E+02 -0.10056840257E+03  0.11886499355E+03  0.00000000000E+00 0. -1.
         13    1    5    5    0    0  0.50717595971E+02  0.90918507274E+02  0.86782721795E+01  0.10446895191E+03  0.00000000000E+00 0. -1.
        -13    1    5    5    0    0 -0.14304005104E+02  0.83715827201E+02 -0.57756023647E+02  0.10270687686E+03  0.00000000000E+00 0.  1.
          5    1    6    6  503    0 -0.10371403714E+03  0.44702616228E+02  0.31167690841E+03  0.33154111454E+03  0.47000000000E+01 0. -1.
         -5    1    6    6    0  503 -0.56937956602E+02 -0.31381532258E+02  0.32316600881E+03  0.32967421907E+03  0.47000000000E+01 0.  1.
<mgrwt>
<rscale>  0 0.30502096E+03</rscale>
<asrwt>0</asrwt>
<pdfrwt beam="1">  1        2 0.11741337E+00 0.30502096E+03</pdfrwt>
<pdfrwt beam="2">  1       -2 0.84545825E-01 0.30502096E+03</pdfrwt>
<totfact> 0.47788301E+01</totfact>
</mgrwt>
</event>
<event>
12    1  0.3127365E-008  0.6879023E+03  0.7818608E-02  0.9738147E-01
          2   -1    0    0  501    0  0.00000000000E+00  0.00000000000E+00  0.29026943663E+04  0.29026943663E+04  0.00000000000E+00 0. -1.
         -2   -1    0    0    0  501 -0.00000000000E+00 -0.00000000000E+00 -0.18127989229E+03  0.18127989229E+03  0.00000000000E+00 0.  1.
         23    2    1    2    0    0 -0.51378083318E+03  0.23886652317E+03  0.73106497516E+03  0.92933308942E+03  0.90421417588E+02 0.  0.
    5000000    2    1    2    0    0  0.51378083318E+03 -0.23886652317E+03  0.19903494988E+04  0.21546411691E+04  0.59996623225E+03 0.  0.
         23    2    4    4    0    0  0.61957515024E+03 -0.21482250539E+03  0.14190288724E+04  0.15660685885E+04  0.94370586686E+02 0.  0.
         23    2    4    4    0    0 -0.10579431706E+03 -0.24044017784E+02  0.57132062643E+03  0.58857258062E+03  0.90773741582E+02 0.  0.
          4    1    3    3  502    0 -0.33406149116E+03  0.10973503804E+03  0.47290238021E+03  0.58930087362E+03  0.00000000000E+00 0. -1.
         -4    1    3    3    0  502 -0.17971934202E+03  0.12913148513E+03  0.25816259495E+03  0.34003221580E+03  0.00000000000E+00 0.  1.
         13    1    5    5    0    0  0.12953499975E+03 -0.86956395539E+02  0.34270953499E+03  0.37655086809E+03  0.00000000000E+00 0. -1.
        -13    1    5    5    0    0  0.49004015049E+03 -0.12786610985E+03  0.10763193374E+04  0.11895177204E+04  0.00000000000E+00 0.  1.
          5    1    6    6  503    0 -0.41720900669E+02 -0.54926919412E+02  0.24573927054E+03  0.25527921794E+03  0.47000000000E+01 0. -1.
         -5    1    6    6    0  503 -0.64073416393E+02  0.30882901628E+02  0.32558135589E+03  0.33329336268E+03  0.47000000000E+01 0.  1.
<mgrwt>
<rscale>  0 0.68790234E+03</rscale>
<asrwt>0</asrwt>
<pdfrwt beam="1">  1        2 0.44656833E+00 0.68790234E+03</pdfrwt>
<pdfrwt beam="2">  1       -2 0.27889216E-01 0.68790234E+03</pdfrwt>
<totfact> 0.25044286E+01</totfact>
</mgrwt>
</event>
<event>
12    1  0.3524253E-008  0.1401172E+04  0.7818608E-02  0.8952970E-01
          1   -1    0    0  501    0  0.00000000000E+00  0.00000000000E+00  0.19342884379E+04  0.19342884379E+04  0.00000000000E+00 0. -1.
         -1   -1    0    0    0  501 -0.00000000000E+00 -0.00000000000E+00 -0.12631748384E+04  0.12631748384E+04  0.00000000000E+00 0.  1.
         23    2    1    2    0    0  0.42986867946E+03 -0.12952313652E+04 -0.32306435937E+03  0.14055960204E+04  0.94436334624E+02 0.  0.
    5000000    2    1    2    0    0 -0.42986867946E+03  0.12952313652E+04  0.99417795881E+03  0.17918672559E+04  0.59998923146E+03 0.  0.
         23    2    4    4    0    0 -0.37459911094E+03  0.12720580797E+04  0.10214360620E+04  0.16763309377E+04  0.91090789145E+02 0.  0.
         23    2    4    4    0    0 -0.55269568520E+02  0.23173285582E+02 -0.27258103179E+02  0.11553631824E+03  0.94941615078E+02 0.  0.
          1    1    3    3  502    0  0.13679846938E+03 -0.49610628019E+03 -0.16024062353E+03  0.53899194790E+03  0.00000000000E+00 0. -1.
         -1    1    3    3    0  502  0.29307021008E+03 -0.79912508505E+03 -0.16282373584E+03  0.86660407254E+03  0.00000000000E+00 0.  1.
         11    1    5    5    0    0 -0.18827758144E+03  0.72411260862E+03  0.62401856503E+03  0.97426212445E+03  0.00000000000E+00 0. -1.
        -11    1    5    5    0    0 -0.18632152950E+03  0.54794547103E+03  0.39741749696E+03  0.70206881320E+03  0.00000000000E+00 0.  1.
          5    1    6    6  503    0 -0.87573476177E+01 -0.34190282830E+02 -0.20844976042E+02  0.41258570061E+02  0.47000000000E+01 0. -1.
         -5    1    6    6    0  503 -0.46512220902E+02  0.57363568412E+02 -0.64131271372E+01  0.74277748175E+02  0.47000000000E+01 0.  1.
<mgrwt>
<rscale>  0 0.14011723E+04</rscale>
<asrwt>0</asrwt>
<pdfrwt beam="1">  1        1 0.29758284E+00 0.14011723E+04</pdfrwt>
<pdfrwt beam="2">  1       -1 0.19433459E+00 0.14011723E+04</pdfrwt>
<totfact> 0.52052082E-01</totfact>
</mgrwt>
</event>
<event>
12    1  0.3127365E-008  0.7256324E+03  0.7818608E-02  0.9674374E-01
         -2   -1    0    0    0  501 -0.00000000000E+00  0.00000000000E+00  0.93394475141E+03  0.93394475141E+03  0.00000000000E+00 0.  1.
          2   -1    0    0  501    0  0.00000000000E+00 -0.00000000000E+00 -0.19987564608E+04  0.19987564608E+04  0.00000000000E+00 0. -1.
         23    2    1    2    0    0 -0.69110278708E+03  0.12115707273E+03  0.66571632131E+03  0.97142453505E+03  0.90472693404E+02 0.  0.
    5000000    2    1    2    0    0  0.69110278708E+03 -0.12115707273E+03 -0.17305280307E+04  0.19612766772E+04  0.59964726363E+03 0.  0.
         23    2    4    4    0    0  0.53608680316E+03 -0.17275965058E+03 -0.16682375300E+04  0.17631150377E+04  0.91231694763E+02 0.  0.
         23    2    4    4    0    0  0.15501598391E+03  0.51602577856E+02 -0.62290500742E+02  0.19816163954E+03  0.93247775273E+02 0.  0.
          1    1    3    3  502    0 -0.21075607892E+03  0.24127329792E+02  0.14865373228E+03  0.25903317348E+03  0.00000000000E+00 0. -1.
         -1    1    3    3    0  502 -0.48034670816E+03  0.97029742934E+02  0.51706258904E+03  0.71239136156E+03  0.00000000000E+00 0.  1.
         11    1    5    5    0    0  0.33511455993E+03 -0.10194037492E+03 -0.11677958062E+04  0.12191967246E+04  0.00000000000E+00 0. -1.
        -11    1    5    5    0    0  0.20097224323E+03 -0.70819275662E+02 -0.50044172382E+03  0.54391831307E+03  0.00000000000E+00 0.  1.
          5    1    6    6  503    0  0.95715318791E+02  0.75111110909E+02 -0.55589109554E+02  0.13384819885E+03  0.47000000000E+01 0. -1.
         -5    1    6    6    0  503  0.59300665124E+02 -0.23508533054E+02 -0.67013911881E+01  0.64313440697E+02  0.47000000000E+01 0.  1.
<mgrwt>
<rscale>  0 0.72563244E+03</rscale>
<asrwt>0</asrwt>
<pdfrwt beam="1">  1        2 0.30750099E+00 0.72563244E+03</pdfrwt>
<pdfrwt beam="2">  1       -2 0.14368381E+00 0.72563244E+03</pdfrwt>
<totfact> 0.23405858E+00</totfact>
</mgrwt>
</event>
<event>
12    1  0.3127365E-008  0.1186784E+04  0.7818608E-02  0.9124504E-01
          2   -1    0    0  501    0  0.00000000000E+00  0.00000000000E+00  0.13538040751E+04  0.13538040751E+04  0.00000000000E+00 0. -1.
         -2   -1    0    0    0  501 -0.00000000000E+00 -0.00000000000E+00 -0.14246073695E+04  0.14246073695E+04  0.00000000000E+00 0.  1.
         23    2    1    2    0    0 -0.11126384450E+04 -0.31012730364E+03  0.61018216640E+03  0.13094570286E+04  0.90621078096E+02 0.  0.
    5000000    2    1    2    0    0  0.11126384450E+04  0.31012730364E+03 -0.68098546085E+03  0.14689544160E+04  0.59995218529E+03 0.  0.
         23    2    4    4    0    0  0.10764229045E+04  0.37272130853E+03 -0.71544881812E+03  0.13478864452E+04  0.85576952389E+02 0.  0.
         23    2    4    4    0    0  0.36215540492E+02 -0.62594004884E+02  0.34463357269E+02  0.12106797074E+03  0.90775303498E+02 0.  0.
          1    1    3    3  502    0 -0.36661270362E+03 -0.14101782679E+03  0.18342879448E+03  0.43351704070E+03  0.00000000000E+00 0. -1.
         -1    1    3    3    0  502 -0.74602574135E+03 -0.16910947685E+03  0.42675337193E+03  0.87593998788E+03  0.00000000000E+00 0.  1.
         11    1    5    5    0    0  0.82122982240E+03  0.31901145193E+03 -0.53450517067E+03  0.10304768339E+04  0.00000000000E+00 0. -1.
        -11    1    5    5    0    0  0.25519308207E+03  0.53709856596E+02 -0.18094364744E+03  0.31740961136E+03  0.00000000000E+00 0.  1.
          5    1    6    6  503    0  0.30997477382E+01 -0.13345202543E+02  0.55935954348E+02  0.57780826022E+02  0.47000000000E+01 0. -1.
         -5    1    6    6    0  503  0.33115792754E+02 -0.49248802341E+02 -0.21472597079E+02  0.63287144722E+02  0.47000000000E+01 0.  1.
<mgrwt>
<rscale>  0 0.11867836E+04</rscale>
<asrwt>0</asrwt>
<pdfrwt beam="1">  1        2 0.20827755E+00 0.11867836E+04</pdfrwt>
<pdfrwt beam="2">  1       -2 0.21917036E+00 0.11867836E+04</pdfrwt>
<totfact> 0.14959733E+00</totfact>
</mgrwt>
</event>
<event>
12    1  0.3127365E-008  0.5400825E+03  0.7818608E-02  0.1003816E+00
         -1   -1    0    0    0  501 -0.00000000000E+00  0.00000000000E+00  0.52680508384E+03  0.52680508384E+03  0.00000000000E+00 0.  1.
          1   -1    0    0  501    0  0.00000000000E+00 -0.00000000000E+00 -0.60295295986E+03  0.60295295986E+03  0.00000000000E+00 0. -1.
         23    2    1    2    0    0  0.39574044889E+03 -0.11485540614E+02  0.16694406263E+01  0.40677235359E+03  0.93373122930E+02 0.  0.
    5000000    2    1    2    0    0 -0.39574044889E+03  0.11485540614E+02 -0.77817316646E+02  0.72298569010E+03  0.59992528934E+03 0.  0.
         23    2    4    4    0    0 -0.21356644451E+03  0.27017129555E+03 -0.14916770374E+03  0.38536311663E+03  0.87467552049E+02 0.  0.
         23    2    4    4    0    0 -0.18217400438E+03 -0.25868575494E+03  0.71350387091E+02  0.33762257347E+03  0.93767993992E+02 0.  0.
          3    1    3    3  502    0  0.19388806863E+03 -0.43047236699E+02 -0.27107568235E+02  0.20045066226E+03  0.00000000000E+00 0. -1.
         -3    1    3    3    0  502  0.20185238026E+03  0.31561696085E+02  0.28777008861E+02  0.20632169134E+03  0.00000000000E+00 0.  1.
         13    1    5    5    0    0 -0.16547147793E+03  0.14088457388E+03 -0.94588482525E+02  0.23701530371E+03  0.00000000000E+00 0. -1.
        -13    1    5    5    0    0 -0.48094966579E+02  0.12928672167E+03 -0.54579221212E+02  0.14834781292E+03  0.00000000000E+00 0.  1.
          5    1    6    6  503    0 -0.64878724041E+02 -0.48137491747E+02  0.51110931946E+02  0.95712508635E+02  0.47000000000E+01 0. -1.
         -5    1    6    6    0  503 -0.11729528034E+03 -0.21054826319E+03  0.20239455145E+02  0.24191006483E+03  0.47000000000E+01 0.  1.
<mgrwt>
<rscale>  0 0.54008249E+03</rscale>
<asrwt>0</asrwt>
<pdfrwt beam="1">  1        1 0.92761994E-01 0.54008249E+03</pdfrwt>
<pdfrwt beam="2">  1       -1 0.81046936E-01 0.54008249E+03</pdfrwt>
<totfact> 0.53830519E+01</totfact>
</mgrwt>
</event>
<event>
12    1  0.3127365E-008  0.1468531E+04  0.7818608E-02  0.8905654E-01
         -1   -1    0    0    0  501 -0.00000000000E+00  0.00000000000E+00  0.29981079327E+04  0.29981079327E+04  0.00000000000E+00 0.  1.
          1   -1    0    0  501    0  0.00000000000E+00 -0.00000000000E+00 -0.72973608422E+03  0.72973608422E+03  0.00000000000E+00 0. -1.
         23    2    1    2    0    0  0.11267667675E+03 -0.14121527624E+04  0.11114364433E+04  0.18029255313E+04  0.91531665869E+02 0.  0.
    5000000    2    1    2    0    0 -0.11267667675E+03  0.14121527624E+04  0.11569354052E+04  0.19249184857E+04  0.59995015364E+03 0.  0.
         23    2    4    4    0    0 -0.32792374952E+02 -0.16209781445E+02  0.59745298828E+02  0.11965183007E+03  0.96999808439E+02 0.  0.
         23    2    4    4    0    0 -0.79884301794E+02  0.14283625439E+04  0.10971901064E+04  0.18052666556E+04  0.92523024089E+02 0.  0.
          1    1    3    3  502    0  0.63175357547E+01 -0.51822565480E+03  0.37215852676E+03  0.63804365806E+03  0.00000000000E+00 0. -1.
         -1    1    3    3    0  502  0.10635914099E+03 -0.89392710763E+03  0.73927791654E+03  0.11648818732E+04  0.00000000000E+00 0.  1.
         11    1    5    5    0    0 -0.31895230194E+02  0.28176569785E+02  0.61997676740E+02  0.75199313262E+02  0.00000000000E+00 0. -1.
        -11    1    5    5    0    0 -0.89714475796E+00 -0.44386351230E+02 -0.22523779119E+01  0.44452516807E+02  0.00000000000E+00 0.  1.
          5    1    6    6  503    0 -0.25690164890E+02  0.91536404664E+03  0.74685542875E+03  0.11816795013E+04  0.47000000000E+01 0. -1.
         -5    1    6    6    0  503 -0.54194136904E+02  0.51299849724E+03  0.35033467764E+03  0.62358715430E+03  0.47000000000E+01 0.  1.
<mgrwt>
<rscale>  0 0.14685307E+04</rscale>
<asrwt>0</asrwt>
<pdfrwt beam="1">  1        1 0.11226709E+00 0.14685307E+04</pdfrwt>
<pdfrwt beam="2">  1       -1 0.46124737E+00 0.14685307E+04</pdfrwt>
<totfact> 0.66366651E-02</totfact>
</mgrwt>
</event>
<event>
12    1  0.3127365E-008  0.7998401E+03  0.7818608E-02  0.9560249E-01
         -2   -1    0    0    0  501 -0.00000000000E+00  0.00000000000E+00  0.83335615580E+03  0.83335615580E+03  0.00000000000E+00 0.  1.
          2   -1    0    0  501    0  0.00000000000E+00 -0.00000000000E+00 -0.10437893046E+04  0.10437893046E+04  0.00000000000E+00 0. -1.
         23    2    1    2    0    0  0.54821656125E+03  0.47611164448E+03 -0.50687757570E+03  0.88974483473E+03  0.86586939785E+02 0.  0.
    5000000    2    1    2    0    0 -0.54821656125E+03 -0.47611164448E+03  0.29644442692E+03  0.98740062567E+03  0.59988082258E+03 0.  0.
         23    2    4    4    0    0 -0.23794993624E+03  0.64808994227E+02 -0.46130420924E+02  0.27000556892E+03  0.99772810048E+02 0.  0.
         23    2    4    4    0    0 -0.31026662501E+03 -0.54092063871E+03  0.34257484784E+03  0.71739505675E+03  0.91856546356E+02 0.  0.
          2    1    3    3  502    0  0.39526552365E+03  0.30111019282E+03 -0.37499300008E+03  0.62251259627E+03  0.00000000000E+00 0. -1.
         -2    1    3    3    0  502  0.15295103760E+03  0.17500145165E+03 -0.13188457563E+03  0.26723223846E+03  0.00000000000E+00 0.  1.
         11    1    5    5    0    0 -0.66796417120E+02  0.18696835305E+02 -0.60671010759E+02  0.92153700614E+02  0.00000000000E+00 0. -1.
        -11    1    5    5    0    0 -0.17115351912E+03  0.46112158922E+02  0.14540589835E+02  0.17785186830E+03  0.00000000000E+00 0.  1.
          5    1    6    6  503    0 -0.23899937297E+03 -0.42365656724E+03  0.22217225984E+03  0.53477863672E+03  0.47000000000E+01 0. -1.
         -5    1    6    6    0  503 -0.71267252042E+02 -0.11726407146E+03  0.12040258800E+03  0.18261642003E+03  0.47000000000E+01 0.  1.
<mgrwt>
<rscale>  0 0.79984009E+03</rscale>
<asrwt>0</asrwt>
<pdfrwt beam="1">  1        2 0.16058297E+00 0.79984009E+03</pdfrwt>
<pdfrwt beam="2">  1       -2 0.12820864E+00 0.79984009E+03</pdfrwt>
<totfact> 0.10752510E+01</totfact>
</mgrwt>
</event>
<event>
12    1  0.3127365E-008  0.9741113E+03  0.7818608E-02  0.9337404E-01
          2   -1    0    0  501    0  0.00000000000E+00  0.00000000000E+00  0.88661582259E+03  0.88661582259E+03  0.00000000000E+00 0.  1.
         -2   -1    0    0    0  501 -0.00000000000E+00 -0.00000000000E+00 -0.13257195349E+04  0.13257195349E+04  0.00000000000E+00 0. -1.
         23    2    1    2    0    0  0.83595880853E+03 -0.49207853083E+03  0.40028123203E+02  0.97520870542E+03  0.91985642490E+02 0.  0.
    5000000    2    1    2    0    0 -0.83595880853E+03  0.49207853083E+03 -0.47913183549E+03  0.12371266520E+04  0.59995552115E+03 0.  0.
         23    2    4    4    0    0 -0.26826176151E+03  0.16125663333E+03 -0.47217639815E+03  0.57419692676E+03  0.93720249991E+02 0.  0.
         23    2    4    4    0    0 -0.56769704702E+03  0.33082189750E+03 -0.69554373413E+01  0.66292972528E+03  0.87774583401E+02 0.  0.
          4    1    3    3  502    0  0.74896996297E+03 -0.46052463341E+03  0.57236267025E+02  0.88108735870E+03  0.00000000000E+00 0. -1.
         -4    1    3    3    0  502  0.86988845563E+02 -0.31553897424E+02 -0.17208143821E+02  0.94121346722E+02  0.00000000000E+00 0.  1.
         13    1    5    5    0    0 -0.66376502830E+02  0.49618998100E+02 -0.20550893371E+03  0.22158927531E+03  0.00000000000E+00 0. -1.
        -13    1    5    5    0    0 -0.20188525868E+03  0.11163763523E+03 -0.26666746444E+03  0.35260765145E+03  0.00000000000E+00 0.  1.
          5    1    6    6  503    0 -0.31876160559E+02 -0.16914202130E+01 -0.17457812026E+00  0.32265631744E+02  0.47000000000E+01 0. -1.
         -5    1    6    6    0  503 -0.53582088646E+03  0.33251331772E+03 -0.67808592210E+01  0.63066409354E+03  0.47000000000E+01 0. -1.
<mgrwt>
<rscale>  0 0.97411134E+03</rscale>
<asrwt>0</asrwt>
<pdfrwt beam="1">  1        2 0.13640243E+00 0.97411134E+03</pdfrwt>
<pdfrwt beam="2">  1       -2 0.20395685E+00 0.97411134E+03</pdfrwt>
<totfact> 0.37349610E+00</totfact>
</mgrwt>
</event>
<event>
12    1  0.3127365E-008  0.9249338E+03  0.7818608E-02  0.9394939E-01
          2   -1    0    0  501    0  0.00000000000E+00  0.00000000000E+00  0.69936375034E+03  0.69936375034E+03  0.00000000000E+00 0. -1.
         -2   -1    0    0    0  501 -0.00000000000E+00 -0.00000000000E+00 -0.15409163546E+04  0.15409163546E+04  0.00000000000E+00 0.  1.
         23    2    1    2    0    0 -0.66558708521E+03  0.57954791779E+03 -0.76362278060E+03  0.11702245698E+04  0.86161683969E+02 0.  0.
    5000000    2    1    2    0    0  0.66558708521E+03 -0.57954791779E+03 -0.77929823636E+02  0.10700555351E+04  0.60005319242E+03 0.  0.
         23    2    4    4    0    0  0.63020203699E+02  0.23743971378E+02  0.14232697468E+03  0.18507450002E+03  0.97263973733E+02 0.  0.
         23    2    4    4    0    0  0.60256688151E+03 -0.60329188917E+03 -0.22025679832E+03  0.88498103506E+03  0.87352303773E+02 0.  0.
          3    1    3    3  502    0 -0.32510946467E+03  0.28645351421E+03 -0.43172096379E+03  0.61166557071E+03  0.00000000000E+00 0. -1.
         -3    1    3    3    0  502 -0.34047762054E+03  0.29309440358E+03 -0.33190181681E+03  0.55855899912E+03  0.00000000000E+00 0.  1.
         11    1    5    5    0    0  0.39768810350E+02  0.59720780809E+02  0.11032344052E+03  0.13160315902E+03  0.00000000000E+00 0. -1.
        -11    1    5    5    0    0  0.23251393349E+02 -0.35976809431E+02  0.32003534162E+02  0.53471341000E+02  0.00000000000E+00 0.  1.
          5    1    6    6  503    0  0.27873870641E+03 -0.27911575329E+03 -0.14668837986E+03  0.42088055428E+03  0.47000000000E+01 0. -1.
         -5    1    6    6    0  503  0.32382817510E+03 -0.32417613587E+03 -0.73568418458E+02  0.46410048077E+03  0.47000000000E+01 0.  1.
<mgrwt>
<rscale>  0 0.92493380E+03</rscale>
<asrwt>0</asrwt>
<pdfrwt beam="1">  1        2 0.10759442E+00 0.92493380E+03</pdfrwt>
<pdfrwt beam="2">  1       -2 0.23706405E+00 0.92493380E+03</pdfrwt>
<totfact> 0.31846614E+00</totfact>
</mgrwt>
</event>
<event>
12    1  0.3127365E-008  0.5994408E+03  0.7818608E-02  0.9906567E-01
          1   -1    0    0  501    0  0.00000000000E+00  0.00000000000E+00  0.19102292867E+04  0.19102292867E+04  0.00000000000E+00 0. -1.
         -1   -1    0    0    0  501 -0.00000000000E+00 -0.00000000000E+00 -0.24607464017E+03  0.24607464017E+03  0.00000000000E+00 0.  1.
         23    2    1    2    0    0 -0.21945346869E+03  0.49927458158E+03  0.79138974771E+03  0.96499086596E+03  0.86456381350E+02 0.  0.
    5000000    2    1    2    0    0  0.21945346869E+03 -0.49927458158E+03  0.87276489885E+03  0.11913130609E+04  0.60006108670E+03 0.  0.
         23    2    4    4    0    0 -0.47660566387E+02 -0.29540769187E+03  0.76941283644E+03  0.83054268426E+03  0.90927462792E+02 0.  0.
         23    2    4    4    0    0  0.26711403507E+03 -0.20386688971E+03  0.10335206241E+03  0.36077037668E+03  0.81006169117E+02 0.  0.
          2    1    3    3  502    0 -0.14879309977E+03  0.23782695624E+03  0.37634062653E+03  0.46939675631E+03  0.00000000000E+00 0. -1.
         -2    1    3    3    0  502 -0.70660368913E+02  0.26144762533E+03  0.41504912118E+03  0.49559410965E+03  0.00000000000E+00 0.  1.
         11    1    5    5    0    0  0.22879455537E+01 -0.12185528207E+03  0.21120285558E+03  0.24384542372E+03  0.00000000000E+00 0.  1.
        -11    1    5    5    0    0 -0.49948511941E+02 -0.17355240980E+03  0.55820998086E+03  0.58669726054E+03  0.00000000000E+00 0. -1.
          5    1    6    6  503    0  0.14720702633E+03 -0.63538623008E+02  0.37401350933E+02  0.16470584770E+03  0.47000000000E+01 0. -1.
         -5    1    6    6    0  503  0.11990700874E+03 -0.14032826670E+03  0.65950711479E+02  0.19606452898E+03  0.47000000000E+01 0.  1.
<mgrwt>
<rscale>  0 0.59944076E+03</rscale>
<asrwt>0</asrwt>
<pdfrwt beam="1">  1        1 0.29388142E+00 0.59944076E+03</pdfrwt>
<pdfrwt beam="2">  1       -1 0.37857638E-01 0.59944076E+03</pdfrwt>
<totfact> 0.24524225E+01</totfact>
</mgrwt>
</event>
<event>
12    1  0.3127365E-008  0.1248684E+04  0.7818608E-02  0.9071280E-01
          1   -1    0    0  501    0  0.00000000000E+00  0.00000000000E+00  0.23089678895E+04  0.23089678895E+04  0.00000000000E+00 0. -1.
         -1   -1    0    0    0  501 -0.00000000000E+00 -0.00000000000E+00 -0.74698842824E+03  0.74698842824E+03  0.00000000000E+00 0.  1.
         23    2    1    2    0    0 -0.10684482137E+04  0.62348245774E+03  0.59983910568E+03  0.13778866798E+04  0.91939050738E+02 0.  0.
    5000000    2    1    2    0    0  0.10684482137E+04 -0.62348245774E+03  0.96214035554E+03  0.16780696380E+04  0.59990973119E+03 0.  0.
         23    2    4    4    0    0  0.53560329351E+03 -0.40477171625E+03  0.84601480502E+03  0.10834265330E+04  0.85796105823E+02 0.  0.
         23    2    4    4    0    0  0.53284492020E+03 -0.21871074149E+03  0.11612555052E+03  0.59464310497E+03  0.91417620722E+02 0.  0.
          3    1    3    3  502    0 -0.68421970429E+03  0.35306192198E+03  0.35032605504E+03  0.84589459706E+03  0.00000000000E+00 0. -1.
         -3    1    3    3    0  502 -0.38422850942E+03  0.27042053576E+03  0.24951305064E+03  0.53199208270E+03  0.00000000000E+00 0.  1.
         11    1    5    5    0    0  0.13609952042E+03 -0.58709349619E+02  0.19021015870E+03  0.24114263759E+03  0.00000000000E+00 0. -1.
        -11    1    5    5    0    0  0.39950377309E+03 -0.34606236663E+03  0.65580464632E+03  0.84228389540E+03  0.00000000000E+00 0.  1.
          5    1    6    6  503    0  0.53067224300E+03 -0.21012065987E+03  0.12104696250E+03  0.58347080331E+03  0.47000000000E+01 0. -1.
         -5    1    6    6    0  503  0.21726772048E+01 -0.85900816203E+01 -0.49214119747E+01  0.11172301657E+02  0.47000000000E+01 0.  1.
<mgrwt>
<rscale>  0 0.12486836E+04</rscale>
<asrwt>0</asrwt>
<pdfrwt beam="1">  1        1 0.35522583E+00 0.12486836E+04</pdfrwt>
<pdfrwt beam="2">  1       -1 0.11492130E+00 0.12486836E+04</pdfrwt>
<totfact> 0.12379029E+00</totfact>
</mgrwt>
</event>
<event>
12    1  0.3127365E-008  0.7310090E+03  0.7818608E-02  0.9665625E-01
         -1   -1    0    0    0  501 -0.00000000000E+00  0.00000000000E+00  0.70769512254E+03  0.70769512254E+03  0.00000000000E+00 0.  1.
          1   -1    0    0  501    0  0.00000000000E+00 -0.00000000000E+00 -0.11773757454E+04  0.11773757454E+04  0.00000000000E+00 0. -1.
         23    2    1    2    0    0 -0.71955629376E+03  0.42770556188E+02  0.17443784305E+03  0.74732927617E+03  0.92097261491E+02 0.  0.
    5000000    2    1    2    0    0  0.71955629376E+03 -0.42770556188E+02 -0.64411846592E+03  0.11377415918E+04  0.59998062564E+03 0.  0.
         23    2    4    4    0    0  0.40000171666E+03 -0.79423738934E+02 -0.77596552578E+01  0.41846122334E+03  0.93488392570E+02 0.  0.
         23    2    4    4    0    0  0.31955457709E+03  0.36653182747E+02 -0.63635881066E+03  0.71928036844E+03  0.94620975280E+02 0.  0.
          3    1    3    3  502    0 -0.83306852907E+02 -0.20151912629E+01 -0.85678877703E+01  0.83770528457E+02  0.00000000000E+00 0. -1.
         -3    1    3    3    0  502 -0.63624944085E+03  0.44785747451E+02  0.18300573082E+03  0.66355874772E+03  0.00000000000E+00 0.  1.
         11    1    5    5    0    0  0.89793957171E+02 -0.36947941761E+02  0.33362212183E+02  0.10267006548E+03  0.00000000000E+00 0.  1.
        -11    1    5    5    0    0  0.31020775949E+03 -0.42475797173E+02 -0.41121867441E+02  0.31579115785E+03  0.00000000000E+00 0. -1.
          5    1    6    6  503    0  0.26797518606E+03  0.58704616102E+02 -0.47711202430E+03  0.55037705805E+03  0.47000000000E+01 0. -1.
         -5    1    6    6    0  503  0.51579391029E+02 -0.22051433355E+02 -0.15924678637E+03  0.16890331039E+03  0.47000000000E+01 0.  1.
<mgrwt>
<rscale>  0 0.73100896E+03</rscale>
<asrwt>0</asrwt>
<pdfrwt beam="1">  1        1 0.18113473E+00 0.73100896E+03</pdfrwt>
<pdfrwt beam="2">  1       -1 0.10887617E+00 0.73100896E+03</pdfrwt>
<totfact> 0.90095942E+00</totfact>
</mgrwt>
</event>
<event>
12    1  0.3127365E-008  0.5456388E+03  0.7818608E-02  0.1002508E+00
          1   -1    0    0  501    0  0.00000000000E+00  0.00000000000E+00  0.19881050056E+03  0.19881050056E+03  0.00000000000E+00 0. -1.
         -1   -1    0    0    0  501 -0.00000000000E+00 -0.00000000000E+00 -0.19445675318E+04  0.19445675318E+04  0.00000000000E+00 0.  1.
         23    2    1    2    0    0 -0.43178738848E+03 -0.67897416681E+02 -0.36744124102E+03  0.57788539399E+03  0.88814722516E+02 0.  0.
    5000000    2    1    2    0    0  0.43178738848E+03  0.67897416681E+02 -0.13783157902E+04  0.15654926384E+04  0.59996864516E+03 0.  0.
         23    2    4    4    0    0  0.43307289845E+03 -0.10074361036E+03 -0.12608068999E+04  0.13399492064E+04  0.90157787269E+02 0.  0.
         23    2    4    4    0    0 -0.12855099649E+01  0.16864102704E+03 -0.11750889035E+03  0.22554343195E+03  0.92844234335E+02 0.  0.
          2    1    3    3  502    0 -0.18938580305E+03 -0.73445548696E+02 -0.15487611539E+03  0.25543657166E+03  0.00000000000E+00 0. -1.
         -2    1    3    3    0  502 -0.24240158543E+03  0.55481320150E+01 -0.21256512563E+03  0.32244882233E+03  0.00000000000E+00 0.  1.
         13    1    5    5    0    0  0.27482000728E+03 -0.10757330972E+03 -0.80331223166E+03  0.85580873734E+03  0.00000000000E+00 0.  1.
        -13    1    5    5    0    0  0.15825289117E+03  0.68296993615E+01 -0.45749466821E+03  0.48414046908E+03  0.00000000000E+00 0. -1.
          5    1    6    6  503    0  0.29026244393E+02  0.15638954751E+03 -0.92006266747E+02  0.18381364627E+03  0.47000000000E+01 0. -1.
         -5    1    6    6    0  503 -0.30311754358E+02  0.12251479536E+02 -0.25502623598E+02  0.41729785687E+02  0.47000000000E+01 0.  1.
<mgrwt>
<rscale>  0 0.54563883E+03</rscale>
<asrwt>0</asrwt>
<pdfrwt beam="1">  1        1 0.30586230E-01 0.54563883E+03</pdfrwt>
<pdfrwt beam="2">  1       -1 0.29916425E+00 0.54563883E+03</pdfrwt>
<totfact> 0.54121053E+00</totfact>
</mgrwt>
</event>
<event>
12    1  0.3127365E-008  0.1025627E+04  0.7818608E-02  0.9280876E-01
          1   -1    0    0  501    0  0.00000000000E+00  0.00000000000E+00  0.26862820291E+04  0.26862820291E+04  0.00000000000E+00 0. -1.
         -1   -1    0    0    0  501 -0.00000000000E+00 -0.00000000000E+00 -0.42045164209E+03  0.42045164209E+03  0.00000000000E+00 0.  1.
         23    2    1    2    0    0 -0.89818708962E+03 -0.28900691028E+03  0.68083717840E+03  0.11670192010E+04  0.90163795220E+02 0.  0.
    5000000    2    1    2    0    0  0.89818708962E+03  0.28900691028E+03  0.15849932086E+04  0.19397144701E+04  0.60001975983E+03 0.  0.
         23    2    4    4    0    0  0.37965989022E+03  0.41274005752E+03  0.94007775719E+03  0.10983029620E+04  0.89594751425E+02 0.  0.
         23    2    4    4    0    0  0.51852719940E+03 -0.12373314724E+03  0.64491545139E+03  0.84141150810E+03  0.88752680442E+02 0.  0.
          4    1    3    3  502    0 -0.37290799867E+03 -0.16366592022E+03  0.31274464345E+03  0.51347455723E+03  0.00000000000E+00 0. -1.
         -4    1    3    3    0  502 -0.52527909095E+03 -0.12534099007E+03  0.36809253495E+03  0.65354464382E+03  0.00000000000E+00 0.  1.
         11    1    5    5    0    0  0.13333195524E+03  0.97281130879E+02  0.22829338731E+03  0.28170711635E+03  0.00000000000E+00 0. -1.
        -11    1    5    5    0    0  0.24632793498E+03  0.31545892664E+03  0.71178436988E+03  0.81659584566E+03  0.00000000000E+00 0.  1.
          5    1    6    6  503    0  0.62056334999E+02  0.99602557919E+01  0.55325407767E+02  0.83864093351E+02  0.47000000000E+01 0. -1.
         -5    1    6    6    0  503  0.45647086440E+03 -0.13369340303E+03  0.58959004362E+03  0.75754741475E+03  0.47000000000E+01 0.  1.
<mgrwt>
<rscale>  0 0.10256267E+04</rscale>
<asrwt>0</asrwt>
<pdfrwt beam="1">  1        1 0.41327415E+00 0.10256267E+04</pdfrwt>
<pdfrwt beam="2">  1       -1 0.64684870E-01 0.10256267E+04</pdfrwt>
<totfact> 0.24763482E+00</totfact>
</mgrwt>
</event>
<event>
12    1  0.3127365E-008  0.7762236E+03  0.7818608E-02  0.9595085E-01
         -2   -1    0    0    0  501 -0.00000000000E+00  0.00000000000E+00  0.37532634303E+03  0.37532634303E+03  0.00000000000E+00 0.  1.
          2   -1    0    0  501    0  0.00000000000E+00 -0.00000000000E+00 -0.20500636907E+04  0.20500636907E+04  0.00000000000E+00 0. -1.
         23    2    1    2    0    0 -0.56941749687E+02  0.74686023765E+03 -0.48503217615E+03  0.89686546216E+03  0.89826877252E+02 0.  0.
    5000000    2    1    2    0    0  0.56941749687E+02 -0.74686023765E+03 -0.11897051715E+04  0.15285245716E+04  0.59995532610E+03 0.  0.
         23    2    4    4    0    0 -0.70953033247E+02 -0.10543302984E+03  0.14111347437E+02  0.15553974716E+03  0.88560861061E+02 0.  0.
         23    2    4    4    0    0  0.12789478293E+03 -0.64142720781E+03 -0.12038165190E+04  0.13729848244E+04  0.90150864272E+02 0.  0.
          3    1    3    3  502    0 -0.45647337287E+02  0.30118976569E+03 -0.24239790241E+03  0.38930155080E+03  0.00000000000E+00 0. -1.
         -3    1    3    3    0  502 -0.11294412400E+02  0.44567047196E+03 -0.24263427374E+03  0.50756391136E+03  0.00000000000E+00 0.  1.
         13    1    5    5    0    0  0.91886626677E+01  0.11792820312E+01  0.19993160763E+02  0.22035169730E+02  0.00000000000E+00 0. -1.
        -13    1    5    5    0    0 -0.80141695914E+02 -0.10661231187E+03 -0.58818133265E+01  0.13350457743E+03  0.00000000000E+00 0.  1.
          5    1    6    6  503    0  0.11253498841E+03 -0.62913831673E+03 -0.11531220756E+04  0.13184050047E+04  0.47000000000E+01 0. -1.
         -5    1    6    6    0  503  0.15359794521E+02 -0.12288891079E+02 -0.50694443386E+02  0.54579819731E+02  0.47000000000E+01 0.  1.
<mgrwt>
<rscale>  0 0.77622363E+03</rscale>
<asrwt>0</asrwt>
<pdfrwt beam="1">  1        2 0.31539441E+00 0.77622363E+03</pdfrwt>
<pdfrwt beam="2">  1       -2 0.57742515E-01 0.77622363E+03</pdfrwt>
<totfact> 0.18151478E+01</totfact>
</mgrwt>
</event>
<event>
12    1  0.3127365E-008  0.1298225E+04  0.7818608E-02  0.9030974E-01
          1   -1    0    0  501    0  0.00000000000E+00  0.00000000000E+00  0.28420434235E+04  0.28420434235E+04  0.00000000000E+00 0. -1.
         -1   -1    0    0    0  501 -0.00000000000E+00 -0.00000000000E+00 -0.62324613540E+03  0.62324613540E+03  0.00000000000E+00 0.  1.
         23    2    1    2    0    0  0.16375510494E+03  0.12444883391E+04  0.88663063647E+03  0.15390890314E+04  0.84345721046E+02 0.  0.
    5000000    2    1    2    0    0 -0.16375510494E+03 -0.12444883391E+04  0.13321666516E+04  0.19262005275E+04  0.60001126973E+03 0.  0.
         23    2    4    4    0    0  0.14728643595E+03 -0.63046953054E+03  0.88432096984E+03  0.10998842427E+04  0.92393974491E+02 0.  0.
         23    2    4    4    0    0 -0.31104154090E+03 -0.61401880853E+03  0.44784568180E+03  0.82631628475E+03  0.92015815751E+02 0.  0.
          3    1    3    3  502    0  0.16243237224E+03  0.10379307839E+04  0.71868002862E+03  0.12728651033E+04  0.00000000000E+00 0. -1.
         -3    1    3    3    0  502  0.13227327023E+01  0.20655755521E+03  0.16795060785E+03  0.26622392814E+03  0.00000000000E+00 0.  1.
         13    1    5    5    0    0  0.92371558990E+02 -0.46222152929E+03  0.70393085790E+03  0.84717170618E+03  0.00000000000E+00 0. -1.
        -13    1    5    5    0    0  0.54914876964E+02 -0.16824800126E+03  0.18039011195E+03  0.25271253655E+03  0.00000000000E+00 0.  1.
          5    1    6    6  503    0 -0.16165697524E+03 -0.38402558012E+03  0.30987228276E+03  0.51927983348E+03  0.47000000000E+01 0. -1.
         -5    1    6    6    0  503 -0.14938456565E+03 -0.22999322841E+03  0.13797339903E+03  0.30703645127E+03  0.47000000000E+01 0.  1.
<mgrwt>
<rscale>  0 0.12982248E+04</rscale>
<asrwt>0</asrwt>
<pdfrwt beam="1">  1        1 0.43723744E+00 0.12982248E+04</pdfrwt>
<pdfrwt beam="2">  1       -1 0.95884022E-01 0.12982248E+04</pdfrwt>
<totfact> 0.80049578E-01</totfact>
</mgrwt>
</event>
<event>
12    1  0.3127365E-008  0.1193779E+04  0.7818608E-02  0.9118319E-01
         -2   -1    0    0    0  501 -0.00000000000E+00  0.00000000000E+00  0.90823304636E+03  0.90823304636E+03  0.00000000000E+00 0.  1.
          2   -1    0    0  501    0  0.00000000000E+00 -0.00000000000E+00 -0.19073721061E+04  0.19073721061E+04  0.00000000000E+00 0. -1.
         23    2    1    2    0    0 -0.73911762894E+03  0.85074668599E+03  0.94383177447E+02  0.11344289319E+04  0.89196548714E+02 0.  0.
    5000000    2    1    2    0    0  0.73911762894E+03 -0.85074668599E+03 -0.10935222372E+04  0.16811762205E+04  0.60041469679E+03 0.  0.
         23    2    4    4    0    0  0.43620166538E+03 -0.85084268399E+03 -0.83280895375E+03  0.12711958065E+04  0.90348543459E+02 0.  0.
         23    2    4    4    0    0  0.30291596356E+03  0.95998000513E-01 -0.26071328346E+03  0.40998041402E+03  0.91402590280E+02 0.  0.
          3    1    3    3  502    0 -0.47932542180E+02  0.77190881703E+02 -0.11881090949E+02  0.91635807084E+02  0.00000000000E+00 0. -1.
         -3    1    3    3    0  502 -0.69118508676E+03  0.77355580428E+03  0.10626426840E+03  0.10427931249E+04  0.00000000000E+00 0.  1.
         13    1    5    5    0    0  0.77875595124E+02 -0.16366977642E+03 -0.11363744818E+03  0.21392959977E+03  0.00000000000E+00 0.  1.
        -13    1    5    5    0    0  0.35832607025E+03 -0.68717290756E+03 -0.71917150557E+03  0.10572662067E+04  0.00000000000E+00 0. -1.
          5    1    6    6  503    0  0.15675899838E+03 -0.21130060638E+01 -0.19334082928E+03  0.24895906216E+03  0.47000000000E+01 0. -1.
         -5    1    6    6    0  503  0.14615696519E+03  0.22090040644E+01 -0.67372454182E+02  0.16102135186E+03  0.47000000000E+01 0.  1.
<mgrwt>
<rscale>  0 0.11937794E+04</rscale>
<asrwt>0</asrwt>
<pdfrwt beam="1">  1        2 0.29344186E+00 0.11937794E+04</pdfrwt>
<pdfrwt beam="2">  1       -2 0.13972816E+00 0.11937794E+04</pdfrwt>
<totfact> 0.26458011E+00</totfact>
</mgrwt>
</event>
<event>
12    1  0.3127365E-008  0.8215335E+03  0.7818608E-02  0.9529361E-01
          2   -1    0    0  501    0  0.00000000000E+00  0.00000000000E+00  0.21691354255E+04  0.21691354255E+04  0.00000000000E+00 0. -1.
         -2   -1    0    0    0  501 -0.00000000000E+00 -0.00000000000E+00 -0.37508691276E+03  0.37508691276E+03  0.00000000000E+00 0.  1.
         23    2    1    2    0    0 -0.18257464563E+03  0.69349346385E+03  0.12978874497E+04  0.14857284275E+04  0.92792469987E+02 0.  0.
    5000000    2    1    2    0    0  0.18257464563E+03 -0.69349346385E+03  0.49616106309E+03  0.10584939108E+04  0.59997239362E+03 0.  0.
         23    2    4    4    0    0 -0.15302741528E+03 -0.32630572528E+02  0.14891399651E+03  0.23504124196E+03  0.92665327790E+02 0.  0.
         23    2    4    4    0    0  0.33560206091E+03 -0.66086289132E+03  0.34724706658E+03  0.82345266887E+03  0.90140269642E+02 0.  0.
          4    1    3    3  502    0 -0.17553507734E+03  0.53797152980E+03  0.10561521921E+04  0.11982000597E+04  0.00000000000E+00 0. -1.
         -4    1    3    3    0  502 -0.70395682904E+01  0.15552193405E+03  0.24173525759E+03  0.28752836774E+03  0.00000000000E+00 0.  1.
         11    1    5    5    0    0 -0.51818976732E+02 -0.50179830440E+02  0.94241334748E+02  0.11867877193E+03  0.00000000000E+00 0.  1.
        -11    1    5    5    0    0 -0.10120843855E+03  0.17549257912E+02  0.54672661764E+02  0.11636247003E+03  0.00000000000E+00 0. -1.
          5    1    6    6  503    0  0.31518309140E+03 -0.55089908291E+03  0.29639869394E+03  0.70050300244E+03  0.47000000000E+01 0. -1.
         -5    1    6    6    0  503  0.20418969512E+02 -0.10996380841E+03  0.50848372636E+02  0.12294966643E+03  0.47000000000E+01 0.  1.
<mgrwt>
<rscale>  0 0.82153348E+03</rscale>
<asrwt>0</asrwt>
<pdfrwt beam="1">  1        2 0.33371313E+00 0.82153348E+03</pdfrwt>
<pdfrwt beam="2">  1       -2 0.57705680E-01 0.82153348E+03</pdfrwt>
<totfact> 0.15538212E+01</totfact>
</mgrwt>
</event>
<event>
12    1  0.3127365E-008  0.1001675E+04  0.7818608E-02  0.9306709E-01
          3   -1    0    0  501    0  0.00000000000E+00  0.00000000000E+00  0.18677739034E+04  0.18677739034E+04  0.00000000000E+00 0. -1.
         -3   -1    0    0    0  501 -0.00000000000E+00 -0.00000000000E+00 -0.55648069991E+03  0.55648069991E+03  0.00000000000E+00 0.  1.
         23    2    1    2    0    0  0.13543333157E+03 -0.90248285861E+03  0.39485046623E+03  0.99855676898E+03  0.91603672405E+02 0.  0.
    5000000    2    1    2    0    0 -0.13543333157E+03  0.90248285861E+03  0.91644273731E+03  0.14256978344E+04  0.59994126945E+03 0.  0.
         23    2    4    4    0    0 -0.33971409870E+03  0.72711541845E+03  0.68474270993E+03  0.10586699353E+04  0.88356961038E+02 0.  0.
         23    2    4    4    0    0  0.20428076713E+03  0.17536744016E+03  0.23170002738E+03  0.36702789905E+03  0.92413230120E+02 0.  0.
          3    1    3    3  502    0  0.12284799474E+03 -0.55045912790E+03  0.26477077527E+03  0.62305733664E+03  0.00000000000E+00 0. -1.
         -3    1    3    3    0  502  0.12585336830E+02 -0.35202373071E+03  0.13007969097E+03  0.37549943234E+03  0.00000000000E+00 0.  1.
         11    1    5    5    0    0 -0.13540217124E+03  0.21848822494E+03  0.25601808295E+03  0.36278934826E+03  0.00000000000E+00 0. -1.
        -11    1    5    5    0    0 -0.20431192746E+03  0.50862719350E+03  0.42872462698E+03  0.69588058706E+03  0.00000000000E+00 0.  1.
          5    1    6    6  503    0  0.93211809958E+02  0.28207782882E+02  0.10490124158E+03  0.14321480725E+03  0.47000000000E+01 0. -1.
         -5    1    6    6    0  503  0.11106895717E+03  0.14715965728E+03  0.12679878580E+03  0.22381309179E+03  0.47000000000E+01 0.  1.
<mgrwt>
<rscale>  0 0.10016751E+04</rscale>
<asrwt>0</asrwt>
<pdfrwt beam="1">  1        3 0.28734983E+00 0.10016751E+04</pdfrwt>
<pdfrwt beam="2">  1       -3 0.85612416E-01 0.10016751E+04</pdfrwt>
<totfact> 0.14593407E-01</totfact>
</mgrwt>
</event>
<event>
12    1  0.3127365E-008  0.6063672E+03  0.7818608E-02  0.9892283E-01
          1   -1    0    0  501    0  0.00000000000E+00  0.00000000000E+00  0.40377553080E+04  0.40377553080E+04  0.00000000000E+00 0. -1.
         -1   -1    0    0    0  501 -0.00000000000E+00 -0.00000000000E+00 -0.94521598843E+02  0.94521598843E+02  0.00000000000E+00 0.  1.
         23    2    1    2    0    0  0.26643369603E+03  0.38105599728E+03  0.16391731415E+04  0.17062989863E+04  0.91526255510E+02 0.  0.
    5000000    2    1    2    0    0 -0.26643369603E+03 -0.38105599728E+03  0.23040605677E+04  0.24259779206E+04  0.60040251833E+03 0.  0.
         23    2    4    4    0    0  0.95990305895E+02 -0.35748713384E+03  0.10627428325E+04  0.11290829000E+04  0.91622471750E+02 0.  0.
         23    2    4    4    0    0 -0.36242400193E+03 -0.23568863436E+02  0.12413177351E+04  0.12968950205E+04  0.95709592980E+02 0.  0.
          4    1    3    3  502    0  0.18261250373E+03  0.32566246431E+03  0.12816905365E+04  0.13349659166E+04  0.00000000000E+00 0. -1.
         -4    1    3    3    0  502  0.83821192302E+02  0.55393532961E+02  0.35748260502E+03  0.37133306972E+03  0.00000000000E+00 0.  1.
         11    1    5    5    0    0  0.21021678336E+02 -0.13839034610E+03  0.53030278256E+03  0.54846589688E+03  0.00000000000E+00 0. -1.
        -11    1    5    5    0    0  0.74968627559E+02 -0.21909678774E+03  0.53244004999E+03  0.58061700315E+03  0.00000000000E+00 0.  1.
          5    1    6    6  503    0 -0.24049875303E+03 -0.41262235347E+02  0.94374775336E+03  0.97479440614E+03  0.47000000000E+01 0. -1.
         -5    1    6    6    0  503 -0.12192524889E+03  0.17693371910E+02  0.29756998178E+03  0.32210061438E+03  0.47000000000E+01 0.  1.
<mgrwt>
<rscale>  0 0.60636721E+03</rscale>
<asrwt>0</asrwt>
<pdfrwt beam="1">  1        1 0.62119299E+00 0.60636721E+03</pdfrwt>
<pdfrwt beam="2">  1       -1 0.14541788E-01 0.60636721E+03</pdfrwt>
<totfact> 0.34879111E+00</totfact>
</mgrwt>
</event>
<event>
12    1  0.3127365E-008  0.1025753E+04  0.7818608E-02  0.9280742E-01
         -2   -1    0    0    0  501 -0.00000000000E+00  0.00000000000E+00  0.89375985943E+03  0.89375985943E+03  0.00000000000E+00 0.  1.
          2   -1    0    0  501    0  0.00000000000E+00 -0.00000000000E+00 -0.12891111400E+04  0.12891111400E+04  0.00000000000E+00 0. -1.
         23    2    1    2    0    0  0.92113187785E+03  0.24357812948E+03  0.79354295827E+02  0.96072322762E+03  0.94221941545E+02 0.  0.
    5000000    2    1    2    0    0 -0.92113187785E+03 -0.24357812948E+03 -0.47470557640E+03  0.12221477718E+04  0.60040448894E+03 0.  0.
         23    2    4    4    0    0 -0.17020365136E+03 -0.29153991978E+03 -0.25742215548E+03  0.43382923401E+03  0.89313103111E+02 0.  0.
         23    2    4    4    0    0 -0.75092822649E+03  0.47961790300E+02 -0.21728342091E+03  0.78831853781E+03  0.89668820524E+02 0.  0.
          4    1    3    3  502    0  0.58536070271E+03  0.16609538869E+03  0.94659398355E+02  0.61578830138E+03  0.00000000000E+00 0. -1.
         -4    1    3    3    0  502  0.33577117514E+03  0.77482740784E+02 -0.15305102528E+02  0.34493492624E+03  0.00000000000E+00 0.  1.
         13    1    5    5    0    0 -0.95436426380E+01 -0.56744717964E+02 -0.79982687419E+02  0.98530576058E+02  0.00000000000E+00 0. -1.
        -13    1    5    5    0    0 -0.16066000872E+03 -0.23479520181E+03 -0.17743946807E+03  0.33529865795E+03  0.00000000000E+00 0.  1.
          5    1    6    6  503    0 -0.18079459595E+02  0.12890152793E+02 -0.15127566240E+02  0.27275559731E+02  0.47000000000E+01 0. -1.
         -5    1    6    6    0  503 -0.73284876690E+03  0.35071637507E+02 -0.20215585467E+03  0.76104297808E+03  0.47000000000E+01 0.  1.
<mgrwt>
<rscale>  0 0.10257525E+04</rscale>
<asrwt>0</asrwt>
<pdfrwt beam="1">  1        2 0.19832479E+00 0.10257525E+04</pdfrwt>
<pdfrwt beam="2">  1       -2 0.13750152E+00 0.10257525E+04</pdfrwt>
<totfact> 0.62464140E+00</totfact>
</mgrwt>
</event>
<event>
12    1  0.3127365E-008  0.7563603E+03  0.7818608E-02  0.9625425E-01
          2   -1    0    0  501    0  0.00000000000E+00  0.00000000000E+00  0.21090326704E+04  0.21090326704E+04  0.00000000000E+00 0. -1.
         -2   -1    0    0    0  501 -0.00000000000E+00 -0.00000000000E+00 -0.36706485055E+03  0.36706485055E+03  0.00000000000E+00 0.  1.
         23    2    1    2    0    0 -0.54671558979E+03  0.36555386200E+03  0.19649084916E+03  0.69253551509E+03  0.92028385422E+02 0.  0.
    5000000    2    1    2    0    0  0.54671558979E+03 -0.36555386200E+03  0.15454769707E+04  0.17835620059E+04  0.60005566384E+03 0.  0.
         23    2    4    4    0    0  0.65161690029E+03 -0.28094411587E+03  0.13603173743E+04  0.15369886419E+04  0.91304685476E+02 0.  0.
         23    2    4    4    0    0 -0.10490131050E+03 -0.84609746130E+02  0.18515959642E+03  0.24657336398E+03  0.91385193495E+02 0.  0.
          2    1    3    3  502    0 -0.11172392979E+03  0.12093704400E+03  0.38726796274E+02  0.16913831574E+03  0.00000000000E+00 0. -1.
         -2    1    3    3    0  502 -0.43499165999E+03  0.24461681799E+03  0.15776405288E+03  0.52339719935E+03  0.00000000000E+00 0.  1.
         13    1    5    5    0    0  0.20057763813E+03 -0.48771435132E+02  0.34620595981E+03  0.40307394906E+03  0.00000000000E+00 0.  1.
        -13    1    5    5    0    0  0.45103926216E+03 -0.23217268073E+03  0.10141114145E+04  0.11339146929E+04  0.00000000000E+00 0. -1.
          5    1    6    6  503    0 -0.85586718889E+02 -0.68995381155E+02  0.19118431506E+03  0.22058780881E+03  0.47000000000E+01 0. -1.
         -5    1    6    6    0  503 -0.19314591613E+02 -0.15614364975E+02 -0.60247186354E+01  0.25985555168E+02  0.47000000000E+01 0.  1.
<mgrwt>
<rscale>  0 0.75636027E+03</rscale>
<asrwt>0</asrwt>
<pdfrwt beam="1">  1        2 0.32446656E+00 0.75636027E+03</pdfrwt>
<pdfrwt beam="2">  1       -2 0.56471517E-01 0.75636027E+03</pdfrwt>
<totfact> 0.17702072E+01</totfact>
</mgrwt>
</event>
<event>
12    1  0.3127365E-008  0.7053162E+03  0.7818608E-02  0.9708184E-01
          2   -1    0    0  501    0  0.00000000000E+00  0.00000000000E+00  0.23027468659E+04  0.23027468659E+04  0.00000000000E+00 0.  1.
         -2   -1    0    0    0  501 -0.00000000000E+00 -0.00000000000E+00 -0.35715470843E+03  0.35715470843E+03  0.00000000000E+00 0. -1.
         23    2    1    2    0    0 -0.38011397629E+03 -0.44977535928E+03  0.16732432893E+04  0.17761949635E+04  0.91328717276E+02 0.  0.
    5000000    2    1    2    0    0  0.38011397629E+03  0.44977535928E+03  0.27234886817E+03  0.88370661077E+03  0.59998246569E+03 0.  0.
         23    2    4    4    0    0 -0.13286236878E+03  0.20397496005E+03  0.13657344279E+03  0.29186232488E+03  0.85282577598E+02 0.  0.
         23    2    4    4    0    0  0.51297634507E+03  0.24580039923E+03  0.13577542538E+03  0.59184428589E+03  0.91006185162E+02 0.  0.
          1    1    3    3  502    0 -0.16754667380E+03 -0.19449393253E+03  0.59707971008E+03  0.64992611725E+03  0.00000000000E+00 0. -1.
         -1    1    3    3    0  502 -0.21256730249E+03 -0.25528142674E+03  0.10761635792E+04  0.11262688463E+04  0.00000000000E+00 0.  1.
         11    1    5    5    0    0 -0.56882191559E+02  0.39600941458E+02  0.71131105572E+02  0.99314915601E+02  0.00000000000E+00 0. -1.
        -11    1    5    5    0    0 -0.75980177222E+02  0.16437401859E+03  0.65442337219E+02  0.19254740927E+03  0.00000000000E+00 0.  1.
          5    1    6    6  503    0  0.22943091262E+03  0.13906429388E+03  0.10159485457E+03  0.28691640938E+03  0.47000000000E+01 0. -1.
         -5    1    6    6    0  503  0.28354543246E+03  0.10673610535E+03  0.34180570811E+02  0.30492787651E+03  0.47000000000E+01 0.  1.
<mgrwt>
<rscale>  0 0.70531623E+03</rscale>
<asrwt>0</asrwt>
<pdfrwt beam="1">  1        2 0.35426874E+00 0.70531623E+03</pdfrwt>
<pdfrwt beam="2">  1       -2 0.54946880E-01 0.70531623E+03</pdfrwt>
<totfact> 0.14769230E+01</totfact>
</mgrwt>
</event>
<event>
12    1  0.3127365E-008  0.9019065E+03  0.7818608E-02  0.9423201E-01
          2   -1    0    0  501    0  0.00000000000E+00  0.00000000000E+00  0.19605220098E+04  0.19605220098E+04  0.00000000000E+00 0.  1.
         -2   -1    0    0    0  501 -0.00000000000E+00 -0.00000000000E+00 -0.50136082883E+03  0.50136082883E+03  0.00000000000E+00 0. -1.
         23    2    1    2    0    0 -0.81288820275E+03  0.37845182650E+02  0.11359474199E+04  0.14003555903E+04  0.91650152440E+02 0.  0.
    5000000    2    1    2    0    0  0.81288820275E+03 -0.37845182650E+02  0.32321376105E+03  0.10615272483E+04  0.60012788267E+03 0.  0.
         23    2    4    4    0    0  0.14842980902E+03  0.22459544926E+03  0.36496388474E+02  0.28642677458E+03  0.90740215948E+02 0.  0.
         23    2    4    4    0    0  0.66445839373E+03 -0.26244063191E+03  0.28671737258E+03  0.77510047373E+03  0.90519889327E+02 0.  0.
          4    1    3    3  502    0 -0.50159059021E+03  0.30777306755E+02  0.77487715092E+03  0.92356643606E+03  0.00000000000E+00 0. -1.
         -4    1    3    3    0  502 -0.31129761255E+03  0.70678758950E+01  0.36107026896E+03  0.47678915421E+03  0.00000000000E+00 0.  1.
         13    1    5    5    0    0  0.61130714124E+02  0.59186636816E+02 -0.26419527743E+02  0.89095530937E+02  0.00000000000E+00 0.  1.
        -13    1    5    5    0    0  0.87299094896E+02  0.16540881245E+03  0.62915916216E+02  0.19733124364E+03  0.00000000000E+00 0. -1.
          5    1    6    6  503    0  0.36665659518E+03 -0.10788667337E+03  0.18377568267E+03  0.42411341009E+03  0.47000000000E+01 0. -1.
         -5    1    6    6    0  503  0.29780179855E+03 -0.15455395854E+03  0.10294168990E+03  0.35098706364E+03  0.47000000000E+01 0.  1.
<mgrwt>
<rscale>  0 0.90190649E+03</rscale>
<asrwt>0</asrwt>
<pdfrwt beam="1">  1        2 0.30161877E+00 0.90190649E+03</pdfrwt>
<pdfrwt beam="2">  1       -2 0.77132436E-01 0.90190649E+03</pdfrwt>
<totfact> 0.10683751E+01</totfact>
</mgrwt>
</event>
<event>
12    1  0.3127365E-008  0.3801535E+03  0.7818608E-02  0.1050877E+00
         -2   -1    0    0    0  501 -0.00000000000E+00  0.00000000000E+00  0.50681572548E+03  0.50681572548E+03  0.00000000000E+00 0.  1.
          2   -1    0    0  501    0  0.00000000000E+00 -0.00000000000E+00 -0.39230378281E+03  0.39230378281E+03  0.00000000000E+00 0. -1.
         23    2    1    2    0    0 -0.21970982901E+03 -0.67824013372E+02  0.27400687356E+02  0.25073557812E+03  0.96151061960E+02 0.  0.
    5000000    2    1    2    0    0  0.21970982901E+03  0.67824013372E+02  0.87111255318E+02  0.64838393017E+03  0.59995070160E+03 0.  0.
         23    2    4    4    0    0  0.33027246998E+03 -0.39197599383E+02 -0.12896231923E+03  0.36794329679E+03  0.90192203934E+02 0.  0.
         23    2    4    4    0    0 -0.11056264097E+03  0.10702161276E+03  0.21607357455E+03  0.28044063337E+03  0.91002395862E+02 0.  0.
          4    1    3    3  502    0 -0.68194797525E+02  0.11848480825E+02 -0.21889260698E+02  0.72595155769E+02  0.00000000000E+00 0. -1.
         -4    1    3    3    0  502 -0.15151503148E+03 -0.79672494196E+02  0.49289948054E+02  0.17814042235E+03  0.00000000000E+00 0.  1.
         13    1    5    5    0    0  0.15890160174E+03  0.25259428787E+02 -0.71289255363E+02  0.17598271423E+03  0.00000000000E+00 0. -1.
        -13    1    5    5    0    0  0.17137086824E+03 -0.64457028170E+02 -0.57673063869E+02  0.19196058256E+03  0.00000000000E+00 0.  1.
          5    1    6    6  503    0 -0.59076299955E+02  0.10911871280E+03  0.12828986814E+03  0.17854210419E+03  0.47000000000E+01 0. -1.
         -5    1    6    6    0  503 -0.51486341019E+02 -0.20971000428E+01  0.87783706407E+02  0.10189852919E+03  0.47000000000E+01 0.  1.
<mgrwt>
<rscale>  0 0.38015348E+03</rscale>
<asrwt>0</asrwt>
<pdfrwt beam="1">  1        2 0.60354428E-01 0.38015348E+03</pdfrwt>
<pdfrwt beam="2">  1       -2 0.77971650E-01 0.38015348E+03</pdfrwt>
<totfact> 0.12290743E+02</totfact>
</mgrwt>
</event>
<event>
12    1  0.3127365E-008  0.5030973E+03  0.7818608E-02  0.1012974E+00
         -3   -1    0    0    0  501 -0.00000000000E+00  0.00000000000E+00  0.84227456023E+03  0.84227456023E+03  0.00000000000E+00 0.  1.
          3   -1    0    0  501    0  0.00000000000E+00 -0.00000000000E+00 -0.53462488546E+03  0.53462488546E+03  0.00000000000E+00 0. -1.
         23    2    1    2    0    0 -0.96252008392E+02  0.45479731308E+03  0.38977121387E+03  0.61346480705E+03  0.91172502559E+02 0.  0.
    5000000    2    1    2    0    0  0.96252008392E+02 -0.45479731308E+03 -0.82121539090E+02  0.76343463864E+03  0.59998621250E+03 0.  0.
         23    2    4    4    0    0  0.13530479195E+03 -0.44543247270E+03  0.16056214031E+03  0.50117745883E+03  0.93172795796E+02 0.  0.
         23    2    4    4    0    0 -0.39052783561E+02 -0.93648403831E+01 -0.24268367940E+03  0.26225717982E+03  0.90943058998E+02 0.  0.
          4    1    3    3  502    0  0.84390961950E+01  0.16069273156E+03  0.14773436738E+03  0.21844636785E+03  0.00000000000E+00 0. -1.
         -4    1    3    3    0  502 -0.10469110459E+03  0.29410458152E+03  0.24203684649E+03  0.39501843920E+03  0.00000000000E+00 0.  1.
         11    1    5    5    0    0  0.14977759609E+03 -0.40758207865E+03  0.14765547703E+03  0.45864868803E+03  0.00000000000E+00 0.  1.
        -11    1    5    5    0    0 -0.14472804138E+02 -0.37850394044E+02  0.12906663276E+02  0.42528770800E+02  0.00000000000E+00 0. -1.
          5    1    6    6  503    0 -0.37722837620E+02  0.92296081028E+01 -0.31566974123E+02  0.50266907594E+02  0.47000000000E+01 0. -1.
         -5    1    6    6    0  503 -0.13299459416E+01 -0.18594448486E+02 -0.21111670528E+03  0.21199027222E+03  0.47000000000E+01 0.  1.
<mgrwt>
<rscale>  0 0.50309725E+03</rscale>
<asrwt>0</asrwt>
<pdfrwt beam="1">  1        3 0.82249983E-01 0.50309725E+03</pdfrwt>
<pdfrwt beam="2">  1       -3 0.12958070E+00 0.50309725E+03</pdfrwt>
<totfact> 0.16767208E+00</totfact>
</mgrwt>
</event>
<event>
12    1  0.3127365E-008  0.1615893E+04  0.7818608E-02  0.8810843E-01
          2   -1    0    0  501    0  0.00000000000E+00  0.00000000000E+00  0.23925005545E+04  0.23925005545E+04  0.00000000000E+00 0. -1.
         -2   -1    0    0    0  501 -0.00000000000E+00 -0.00000000000E+00 -0.12423030148E+04  0.12423030148E+04  0.00000000000E+00 0.  1.
         23    2    1    2    0    0  0.36590831735E+03  0.15306224240E+04 -0.32532901081E+02  0.15767187587E+04  0.91048079280E+02 0.  0.
    5000000    2    1    2    0    0 -0.36590831735E+03 -0.15306224240E+04  0.11827304408E+04  0.20580848107E+04  0.60013989278E+03 0.  0.
         23    2    4    4    0    0 -0.46822553092E+03 -0.88204865060E+03  0.85887095324E+03  0.13202062635E+04  0.89667686598E+02 0.  0.
         23    2    4    4    0    0  0.10231721356E+03 -0.64857377340E+03  0.32385948754E+03  0.73787854720E+03  0.91994733637E+02 0.  0.
          1    1    3    3  502    0  0.46058638894E+02  0.32385450251E+03  0.14037243649E+02  0.32741438762E+03  0.00000000000E+00 0. -1.
         -1    1    3    3    0  502  0.31984967846E+03  0.12067679215E+04 -0.46570144730E+02  0.12493043710E+04  0.00000000000E+00 0.  1.
         11    1    5    5    0    0 -0.28858752767E+03 -0.58647396961E+03  0.61040289982E+03  0.89433001642E+03  0.00000000000E+00 0. -1.
        -11    1    5    5    0    0 -0.17963800324E+03 -0.29557468099E+03  0.24846805341E+03  0.42587624707E+03  0.00000000000E+00 0.  1.
          5    1    6    6  503    0  0.43706346079E+02 -0.24997779950E+03  0.76478212728E+02  0.26508517867E+03  0.47000000000E+01 0. -1.
         -5    1    6    6    0  503  0.58610867486E+02 -0.39859597390E+03  0.24738127481E+03  0.47279336853E+03  0.47000000000E+01 0.  1.
<mgrwt>
<rscale>  0 0.16158929E+04</rscale>
<asrwt>0</asrwt>
<pdfrwt beam="1">  1        2 0.36807701E+00 0.16158929E+04</pdfrwt>
<pdfrwt beam="2">  1       -2 0.19112354E+00 0.16158929E+04</pdfrwt>
<totfact> 0.56815627E-01</totfact>
</mgrwt>
</event>
<event>
12    1  0.3127365E-008  0.5369512E+03  0.7818608E-02  0.1004560E+00
          1   -1    0    0  501    0  0.00000000000E+00  0.00000000000E+00  0.16214350867E+04  0.16214350867E+04  0.00000000000E+00 0. -1.
         -1   -1    0    0    0  501 -0.00000000000E+00 -0.00000000000E+00 -0.19570536930E+03  0.19570536930E+03  0.00000000000E+00 0.  1.
         23    2    1    2    0    0  0.36598631775E+03  0.10953443157E+03  0.34492935969E+03  0.52329120170E+03  0.94412086718E+02 0.  0.
    5000000    2    1    2    0    0 -0.36598631775E+03 -0.10953443157E+03  0.10808003577E+04  0.12938492543E+04  0.59997725218E+03 0.  0.
         23    2    4    4    0    0  0.14611098557E+03  0.25287765506E+02  0.26115860658E+03  0.31355869825E+03  0.90151806784E+02 0.  0.
         23    2    4    4    0    0 -0.51209730333E+03 -0.13482219708E+03  0.81964175117E+03  0.98029055608E+03  0.93468182746E+02 0.  0.
          1    1    3    3  502    0  0.56075079379E+02  0.32020142041E+02  0.10696179601E+03  0.12494210591E+03  0.00000000000E+00 0. -1.
         -1    1    3    3    0  502  0.30991123837E+03  0.77514289533E+02  0.23796756368E+03  0.39834909579E+03  0.00000000000E+00 0.  1.
         13    1    5    5    0    0  0.25553441108E+02  0.25292301321E+02  0.14034239576E+02  0.38595838365E+02  0.00000000000E+00 0.  1.
        -13    1    5    5    0    0  0.12055754446E+03 -0.45358152968E-02  0.24712436700E+03  0.27496285988E+03  0.00000000000E+00 0. -1.
          5    1    6    6  503    0 -0.29339095847E+03 -0.44908141681E+02  0.51741851717E+03  0.59652242843E+03  0.47000000000E+01 0. -1.
         -5    1    6    6    0  503 -0.21870634485E+03 -0.89914055398E+02  0.30222323400E+03  0.38376812766E+03  0.47000000000E+01 0.  1.
<mgrwt>
<rscale>  0 0.53695118E+03</rscale>
<asrwt>0</asrwt>
<pdfrwt beam="1">  1        1 0.24945154E+00 0.53695118E+03</pdfrwt>
<pdfrwt beam="2">  1       -1 0.30108519E-01 0.53695118E+03</pdfrwt>
<totfact> 0.57783025E+01</totfact>
</mgrwt>
</event>
<event>
12    1  0.3127365E-008  0.9808152E+03  0.7818608E-02  0.9329840E-01
          2   -1    0    0  501    0  0.00000000000E+00  0.00000000000E+00  0.10241635365E+04  0.10241635365E+04  0.00000000000E+00 0. -1.
         -2   -1    0    0    0  501 -0.00000000000E+00 -0.00000000000E+00 -0.10346505315E+04  0.10346505315E+04  0.00000000000E+00 0.  1.
         23    2    1    2    0    0 -0.25082949366E+03  0.86552435824E+03 -0.27072166051E+03  0.94532170359E+03  0.91077199177E+02 0.  0.
    5000000    2    1    2    0    0  0.25082949366E+03 -0.86552435824E+03  0.26023466558E+03  0.11134923644E+04  0.60007942379E+03 0.  0.
         23    2    4    4    0    0  0.16630381010E+03 -0.30085174819E+01  0.13378301429E+03  0.23312271218E+03  0.93713902861E+02 0.  0.
         23    2    4    4    0    0  0.84525683557E+02 -0.86251584076E+03  0.12645165130E+03  0.88036965225E+03  0.89345048747E+02 0.  0.
          3    1    3    3  502    0 -0.55133174169E+02  0.20852249333E+03 -0.10577765569E+03  0.24022949353E+03  0.00000000000E+00 0. -1.
         -3    1    3    3    0  502 -0.19569631949E+03  0.65700186491E+03 -0.16494400482E+03  0.70509221006E+03  0.00000000000E+00 0.  1.
         11    1    5    5    0    0  0.17155446169E+03 -0.19946356752E+02  0.11627770476E+03  0.20820493534E+03  0.00000000000E+00 0. -1.
        -11    1    5    5    0    0 -0.52506515870E+01  0.16937839270E+02  0.17505309523E+02  0.24917776841E+02  0.00000000000E+00 0.  1.
          5    1    6    6  503    0  0.71453536630E+02 -0.34913930461E+03  0.75201573275E+02  0.36425434595E+03  0.47000000000E+01 0. -1.
         -5    1    6    6    0  503  0.13072146927E+02 -0.51337653615E+03  0.51250078023E+02  0.51611530630E+03  0.47000000000E+01 0.  1.
<mgrwt>
<rscale>  0 0.98081523E+03</rscale>
<asrwt>0</asrwt>
<pdfrwt beam="1">  1        2 0.15756362E+00 0.98081523E+03</pdfrwt>
<pdfrwt beam="2">  1       -2 0.15917700E+00 0.98081523E+03</pdfrwt>
<totfact> 0.61659885E+00</totfact>
</mgrwt>
</event>
<event>
12    1  0.3127365E-008  0.8544299E+03  0.7818608E-02  0.9484410E-01
          2   -1    0    0  501    0  0.00000000000E+00  0.00000000000E+00  0.85082690004E+03  0.85082690004E+03  0.00000000000E+00 0. -1.
         -2   -1    0    0    0  501 -0.00000000000E+00 -0.00000000000E+00 -0.11865345777E+04  0.11865345777E+04  0.00000000000E+00 0.  1.
         23    2    1    2    0    0 -0.59189793030E+03  0.52501321388E+03  0.30845262881E+03  0.85383852541E+03  0.88967233420E+02 0.  0.
    5000000    2    1    2    0    0  0.59189793030E+03 -0.52501321388E+03 -0.64416030645E+03  0.11835229523E+04  0.59983501366E+03 0.  0.
         23    2    4    4    0    0  0.28289674895E+03 -0.53343927307E+03 -0.21578712003E+03  0.64762130417E+03  0.90891384717E+02 0.  0.
         23    2    4    4    0    0  0.30900118135E+03  0.84260591951E+01 -0.42837318641E+03  0.53590164815E+03  0.90190138600E+02 0.  0.
          1    1    3    3  502    0 -0.34133056084E+03  0.33790427460E+03  0.14941717941E+03  0.50300233007E+03  0.00000000000E+00 0. -1.
         -1    1    3    3    0  502 -0.25056736946E+03  0.18710893928E+03  0.15903544940E+03  0.35083619534E+03  0.00000000000E+00 0.  1.
         11    1    5    5    0    0  0.35166204667E+02 -0.50174435144E+02  0.48235578222E+01  0.61460577631E+02  0.00000000000E+00 0. -1.
        -11    1    5    5    0    0  0.24773054428E+03 -0.48326483793E+03 -0.22061067786E+03  0.58616072654E+03  0.00000000000E+00 0.  1.
          5    1    6    6  503    0  0.24492871401E+03  0.21615645629E+02 -0.27402300578E+03  0.36819561212E+03  0.47000000000E+01 0. -1.
         -5    1    6    6    0  503  0.64072467339E+02 -0.13189586434E+02 -0.15435018063E+03  0.16770603603E+03  0.47000000000E+01 0.  1.
<mgrwt>
<rscale>  0 0.85442993E+03</rscale>
<asrwt>0</asrwt>
<pdfrwt beam="1">  1        2 0.13089645E+00 0.85442993E+03</pdfrwt>
<pdfrwt beam="2">  1       -2 0.18254378E+00 0.85442993E+03</pdfrwt>
<totfact> 0.55591975E+00</totfact>
</mgrwt>
</event>
<event>
12    1  0.3127365E-008  0.6992714E+03  0.7818608E-02  0.9718479E-01
          1   -1    0    0  501    0  0.00000000000E+00  0.00000000000E+00  0.13080343369E+04  0.13080343369E+04  0.00000000000E+00 0. -1.
         -1   -1    0    0    0  501 -0.00000000000E+00 -0.00000000000E+00 -0.65790482362E+03  0.65790482362E+03  0.00000000000E+00 0.  1.
         23    2    1    2    0    0  0.23238088410E+03  0.52733238646E+03  0.92136571872E+03  0.10909313232E+04  0.95582650728E+02 0.  0.
    5000000    2    1    2    0    0 -0.23238088410E+03 -0.52733238646E+03 -0.27123620543E+03  0.87500783737E+03  0.59999109595E+03 0.  0.
         23    2    4    4    0    0 -0.20667714336E+03  0.63971716453E+02 -0.86134139274E+02  0.24831334535E+03  0.86212559608E+02 0.  0.
         23    2    4    4    0    0 -0.25703740735E+02 -0.59130410291E+03 -0.18510206616E+03  0.62669449203E+03  0.90454336710E+02 0.  0.
          1    1    3    3  502    0  0.15395856503E+03  0.29432858987E+03  0.60597203942E+03  0.69103883474E+03  0.00000000000E+00 0. -1.
         -1    1    3    3    0  502  0.78422319065E+02  0.23300379659E+03  0.31539367930E+03  0.39989248842E+03  0.00000000000E+00 0.  1.
         11    1    5    5    0    0 -0.12669733731E+03  0.74919317960E+02 -0.79569405988E+02  0.16732127735E+03  0.00000000000E+00 0. -1.
        -11    1    5    5    0    0 -0.79979806056E+02 -0.10947601507E+02 -0.65647332861E+01  0.80992067998E+02  0.00000000000E+00 0.  1.
          5    1    6    6  503    0 -0.37963690847E+01 -0.39356928989E+03 -0.16458371599E+03  0.42663929487E+03  0.47000000000E+01 0. -1.
         -5    1    6    6    0  503 -0.21907371650E+02 -0.19773481302E+03 -0.20518350175E+02  0.20005519715E+03  0.47000000000E+01 0.  1.
<mgrwt>
<rscale>  0 0.69927141E+03</rscale>
<asrwt>0</asrwt>
<pdfrwt beam="1">  1        1 0.20123605E+00 0.69927141E+03</pdfrwt>
<pdfrwt beam="2">  1       -1 0.10121613E+00 0.69927141E+03</pdfrwt>
<totfact> 0.86460385E+00</totfact>
</mgrwt>
</event>
<event>
12    1  0.3127365E-008  0.4300020E+03  0.7818608E-02  0.1033859E+00
         -1   -1    0    0    0  501 -0.00000000000E+00  0.00000000000E+00  0.26444248094E+03  0.26444248094E+03  0.00000000000E+00 0.  1.
          1   -1    0    0  501    0  0.00000000000E+00 -0.00000000000E+00 -0.10439319764E+04  0.10439319764E+04  0.00000000000E+00 0. -1.
         23    2    1    2    0    0 -0.34056850830E+03  0.10037798458E+02 -0.18620454202E+03  0.39841715738E+03  0.89310881638E+02 0.  0.
    5000000    2    1    2    0    0  0.34056850830E+03 -0.10037798458E+02 -0.59328495345E+03  0.90995729997E+03  0.59995631969E+03 0.  0.
         23    2    4    4    0    0  0.50819833888E+02  0.15698526857E+03 -0.52514120576E+03  0.55808990730E+03  0.92000155282E+02 0.  0.
         23    2    4    4    0    0  0.28974867441E+03 -0.16702306703E+03 -0.68143747683E+02  0.35186739267E+03  0.85534159460E+02 0.  0.
          1    1    3    3  502    0 -0.31135930062E+03  0.14754303128E+02 -0.13587682698E+03  0.34003649165E+03  0.00000000000E+00 0. -1.
         -1    1    3    3    0  502 -0.29209207679E+02 -0.47165046695E+01 -0.50327715036E+02  0.58380665723E+02  0.00000000000E+00 0.  1.
         13    1    5    5    0    0  0.44895533661E+02  0.53415855661E+02 -0.32778723823E+03  0.33513181903E+03  0.00000000000E+00 0. -1.
        -13    1    5    5    0    0  0.59243002273E+01  0.10356941291E+03 -0.19735396753E+03  0.22295808827E+03  0.00000000000E+00 0.  1.
          5    1    6    6  503    0  0.14166769315E+02 -0.38077730328E+02 -0.90986244083E+01  0.41898518660E+02  0.47000000000E+01 0. -1.
         -5    1    6    6    0  503  0.27558190510E+03 -0.12894533670E+03 -0.59045123274E+02  0.30996887401E+03  0.47000000000E+01 0.  1.
<mgrwt>
<rscale>  0 0.43000205E+03</rscale>
<asrwt>0</asrwt>
<pdfrwt beam="1">  1        1 0.16060492E+00 0.43000205E+03</pdfrwt>
<pdfrwt beam="2">  1       -1 0.40683459E-01 0.43000205E+03</pdfrwt>
<totfact> 0.87378464E+01</totfact>
</mgrwt>
</event>
<event>
12    1  0.3127365E-008  0.8486947E+03  0.7818608E-02  0.9492091E-01
         -2   -1    0    0    0  501 -0.00000000000E+00  0.00000000000E+00  0.26867793934E+03  0.26867793934E+03  0.00000000000E+00 0.  1.
          2   -1    0    0  501    0  0.00000000000E+00 -0.00000000000E+00 -0.30276439562E+04  0.30276439562E+04  0.00000000000E+00 0. -1.
         23    2    1    2    0    0  0.53812215365E+03  0.52335939439E+03 -0.17319308460E+04  0.18898041565E+04  0.91075717712E+02 0.  0.
    5000000    2    1    2    0    0 -0.53812215365E+03 -0.52335939439E+03 -0.10270351708E+04  0.14065177390E+04  0.60000866684E+03 0.  0.
         23    2    4    4    0    0 -0.51205195809E+03 -0.12206518219E+03 -0.69807404994E+03  0.87913962593E+03  0.92097699202E+02 0.  0.
         23    2    4    4    0    0 -0.26070195565E+02 -0.40129421220E+03 -0.32896112082E+03  0.52737811310E+03  0.90529306437E+02 0.  0.
          3    1    3    3  502    0  0.19487612833E+03  0.24861621347E+03 -0.76167907565E+03  0.82458579983E+03  0.00000000000E+00 0. -1.
         -3    1    3    3    0  502  0.34324602532E+03  0.27474318092E+03 -0.97025177040E+03  0.10652183566E+04  0.00000000000E+00 0.  1.
         11    1    5    5    0    0 -0.13392409654E+03 -0.13921913229E+01 -0.22243368265E+03  0.25964272570E+03  0.00000000000E+00 0. -1.
        -11    1    5    5    0    0 -0.37812786154E+03 -0.12067299086E+03 -0.47564036730E+03  0.61949690023E+03  0.00000000000E+00 0.  1.
          5    1    6    6  503    0  0.30995735758E+02 -0.13120405521E+03 -0.89308351737E+02  0.16178167828E+03  0.47000000000E+01 0. -1.
         -5    1    6    6    0  503 -0.57065931322E+02 -0.27009015699E+03 -0.23965276908E+03  0.36559643481E+03  0.47000000000E+01 0.  1.
<mgrwt>
<rscale>  0 0.84869469E+03</rscale>
<asrwt>0</asrwt>
<pdfrwt beam="1">  1        2 0.46579135E+00 0.84869469E+03</pdfrwt>
<pdfrwt beam="2">  1       -2 0.41335070E-01 0.84869469E+03</pdfrwt>
<totfact> 0.97061241E+00</totfact>
</mgrwt>
</event>
<event>
12    1  0.3127365E-008  0.7905690E+03  0.7818608E-02  0.9573769E-01
         -2   -1    0    0    0  501 -0.00000000000E+00  0.00000000000E+00  0.77522709228E+03  0.77522709228E+03  0.00000000000E+00 0.  1.
          2   -1    0    0  501    0  0.00000000000E+00 -0.00000000000E+00 -0.19557557723E+04  0.19557557723E+04  0.00000000000E+00 0. -1.
         23    2    1    2    0    0  0.73544522894E+03 -0.26285343296E+02 -0.15452727868E+04  0.17138085342E+04  0.87755923244E+02 0.  0.
    5000000    2    1    2    0    0 -0.73544522894E+03  0.26285343296E+02  0.36474410684E+03  0.10171743304E+04  0.60002895835E+03 0.  0.
         23    2    4    4    0    0 -0.14553883772E+03  0.17174726472E+03 -0.83694236589E+02  0.25662618800E+03  0.90407958191E+02 0.  0.
         23    2    4    4    0    0 -0.58990639122E+03 -0.14546192142E+03  0.44843834343E+03  0.76054814238E+03  0.90486507496E+02 0.  0.
          1    1    3    3  502    0  0.18787950123E+03  0.25374930315E+02 -0.34934721950E+03  0.39747462037E+03  0.00000000000E+00 0. -1.
         -1    1    3    3    0  502  0.54756572770E+03 -0.51660273612E+02 -0.11959255673E+04  0.13163339138E+04  0.00000000000E+00 0.  1.
         11    1    5    5    0    0 -0.44576546142E+02  0.86619930830E+02 -0.77388644865E+02  0.12441496388E+03  0.00000000000E+00 0.  1.
        -11    1    5    5    0    0 -0.10096229158E+03  0.85127333887E+02 -0.63055917237E+01  0.13221122412E+03  0.00000000000E+00 0. -1.
          5    1    6    6  503    0 -0.36914351525E+03 -0.54125159651E+02  0.24163878843E+03  0.44453105834E+03  0.47000000000E+01 0. -1.
         -5    1    6    6    0  503 -0.22076287597E+03 -0.91336761769E+02  0.20679955500E+03  0.31601708404E+03  0.47000000000E+01 0.  1.
<mgrwt>
<rscale>  0 0.79056903E+03</rscale>
<asrwt>0</asrwt>
<pdfrwt beam="1">  1        2 0.30088550E+00 0.79056903E+03</pdfrwt>
<pdfrwt beam="2">  1       -2 0.11926571E+00 0.79056903E+03</pdfrwt>
<totfact> 0.39207067E+00</totfact>
</mgrwt>
</event>
<event>
12    1  0.3127365E-008  0.9536552E+03  0.7818608E-02  0.9360888E-01
          2   -1    0    0  501    0  0.00000000000E+00  0.00000000000E+00  0.20420677872E+04  0.20420677872E+04  0.00000000000E+00 0. -1.
         -2   -1    0    0    0  501 -0.00000000000E+00 -0.00000000000E+00 -0.47416483011E+03  0.47416483011E+03  0.00000000000E+00 0.  1.
         23    2    1    2    0    0  0.87820806668E+03 -0.98954188838E+02  0.84685522174E+03  0.12274547144E+04  0.91869305930E+02 0.  0.
    5000000    2    1    2    0    0 -0.87820806668E+03  0.98954188838E+02  0.72104773533E+03  0.12887779029E+04  0.59999775546E+03 0.  0.
         23    2    4    4    0    0 -0.36067004940E+03  0.28853682890E+03  0.16109885612E+03  0.49780982249E+03  0.92333048063E+02 0.  0.
         23    2    4    4    0    0 -0.51753801728E+03 -0.18958264006E+03  0.55994887921E+03  0.79096808042E+03  0.91107519895E+02 0.  0.
          2    1    3    3  502    0  0.79437738059E+03 -0.10480658360E+03  0.79484676995E+03  0.11286280302E+04  0.00000000000E+00 0. -1.
         -2    1    3    3    0  502  0.83830686095E+02  0.58523947638E+01  0.52008451794E+02  0.98826684219E+02  0.00000000000E+00 0.  1.
         11    1    5    5    0    0 -0.31711751100E+03  0.20824255347E+03  0.13677375783E+03  0.40328096619E+03  0.00000000000E+00 0. -1.
        -11    1    5    5    0    0 -0.43552538396E+02  0.80294275428E+02  0.24325098286E+02  0.94528856303E+02  0.00000000000E+00 0.  1.
          5    1    6    6  503    0 -0.40877456626E+03 -0.14953394924E+03  0.38538711688E+03  0.58137971056E+03  0.47000000000E+01 0. -1.
         -5    1    6    6    0  503 -0.10876345102E+03 -0.40048690821E+02  0.17456176233E+03  0.20958836986E+03  0.47000000000E+01 0.  1.
<mgrwt>
<rscale>  0 0.95365521E+03</rscale>
<asrwt>0</asrwt>
<pdfrwt beam="1">  1        2 0.31416427E+00 0.95365521E+03</pdfrwt>
<pdfrwt beam="2">  1       -2 0.72948436E-01 0.95365521E+03</pdfrwt>
<totfact> 0.10840968E+01</totfact>
</mgrwt>
</event>
<event>
12    1  0.3127365E-008  0.5470100E+03  0.7818608E-02  0.1002188E+00
          1   -1    0    0  501    0  0.00000000000E+00  0.00000000000E+00  0.11203663800E+04  0.11203663800E+04  0.00000000000E+00 0. -1.
         -1   -1    0    0    0  501 -0.00000000000E+00 -0.00000000000E+00 -0.42378231296E+03  0.42378231296E+03  0.00000000000E+00 0.  1.
         23    2    1    2    0    0 -0.44862096758E+03 -0.45486301977E+02 -0.76504394624E+02  0.46667194449E+03  0.92736212740E+02 0.  0.
    5000000    2    1    2    0    0  0.44862096758E+03  0.45486301977E+02  0.77308846163E+03  0.10774767484E+04  0.59996716384E+03 0.  0.
         23    2    4    4    0    0  0.45487031168E+03 -0.86681677722E+02  0.25916458773E+03  0.53856596718E+03  0.92012519622E+02 0.  0.
         23    2    4    4    0    0 -0.62493440999E+01  0.13216797970E+03  0.51392387389E+03  0.53891078125E+03  0.93806464776E+02 0.  0.
          2    1    3    3  502    0 -0.16652024794E+03  0.27818253159E+02 -0.24398372030E+02  0.17058173625E+03  0.00000000000E+00 0.  1.
         -2    1    3    3    0  502 -0.28210071964E+03 -0.73304555136E+02 -0.52106022594E+02  0.29609020824E+03  0.00000000000E+00 0. -1.
         13    1    5    5    0    0  0.38245632394E+03 -0.37694002972E+02  0.21931720700E+03  0.44248583578E+03  0.00000000000E+00 0. -1.
        -13    1    5    5    0    0  0.72413987739E+02 -0.48987674750E+02  0.39847380738E+02  0.96080131397E+02  0.00000000000E+00 0.  1.
          5    1    6    6  503    0 -0.38540028543E+02  0.17178541998E+02  0.14703673871E+03  0.15304355143E+03  0.47000000000E+01 0.  1.
         -5    1    6    6    0  503  0.32290684443E+02  0.11498943770E+03  0.36688713519E+03  0.38586722982E+03  0.47000000000E+01 0. -1.
<mgrwt>
<rscale>  0 0.54700999E+03</rscale>
<asrwt>0</asrwt>
<pdfrwt beam="1">  1        1 0.17236406E+00 0.54700999E+03</pdfrwt>
<pdfrwt beam="2">  1       -1 0.65197279E-01 0.54700999E+03</pdfrwt>
<totfact> 0.30835139E+01</totfact>
</mgrwt>
</event>
<event>
12    1  0.3127365E-008  0.5323743E+03  0.7818608E-02  0.1005658E+00
         -2   -1    0    0    0  501 -0.00000000000E+00  0.00000000000E+00  0.22175953570E+04  0.22175953570E+04  0.00000000000E+00 0.  1.
          2   -1    0    0  501    0  0.00000000000E+00 -0.00000000000E+00 -0.98824026301E+03  0.98824026301E+03  0.00000000000E+00 0. -1.
         23    2    1    2    0    0 -0.32178964273E+02 -0.40330400975E+03  0.20618254778E+04  0.21031351392E+04  0.91452189170E+02 0.  0.
    5000000    2    1    2    0    0  0.32178964273E+02  0.40330400975E+03 -0.83247038381E+03  0.11027004808E+04  0.59937617602E+03 0.  0.
         23    2    4    4    0    0  0.18603512774E+03  0.43635489850E+03 -0.77253676180E+03  0.91117588872E+03  0.91726689982E+02 0.  0.
         23    2    4    4    0    0 -0.15385616347E+03 -0.33050888745E+02 -0.59933622011E+02  0.19152459207E+03  0.91244452075E+02 0.  0.
          1    1    3    3  502    0 -0.31394591126E+02 -0.11891914533E+03  0.81928946312E+03  0.82847004041E+03  0.00000000000E+00 0. -1.
         -1    1    3    3    0  502 -0.78437314725E+00 -0.28438486442E+03  0.12425360146E+04  0.12746650988E+04  0.00000000000E+00 0.  1.
         11    1    5    5    0    0  0.56521037574E+02  0.49593906706E+02 -0.11432991876E+03  0.13684119846E+03  0.00000000000E+00 0. -1.
        -11    1    5    5    0    0  0.12951409017E+03  0.38676099179E+03 -0.65820684304E+03  0.77433469026E+03  0.00000000000E+00 0.  1.
          5    1    6    6  503    0 -0.12943105972E+03  0.41174507025E+01 -0.19133233827E+02  0.13098672932E+03  0.47000000000E+01 0. -1.
         -5    1    6    6    0  503 -0.24425103752E+02 -0.37168339447E+02 -0.40800388184E+02  0.60537862751E+02  0.47000000000E+01 0.  1.
<mgrwt>
<rscale>  0 0.53237434E+03</rscale>
<asrwt>0</asrwt>
<pdfrwt beam="1">  1        2 0.15203696E+00 0.53237434E+03</pdfrwt>
<pdfrwt beam="2">  1       -2 0.34116852E+00 0.53237434E+03</pdfrwt>
<totfact> 0.50596615E-01</totfact>
</mgrwt>
</event>
<event>
12    1  0.3127365E-008  0.3112767E+03  0.7818608E-02  0.1079736E+00
          2   -1    0    0  501    0  0.00000000000E+00  0.00000000000E+00  0.17959757259E+04  0.17959757259E+04  0.00000000000E+00 0. -1.
         -2   -1    0    0    0  501 -0.00000000000E+00 -0.00000000000E+00 -0.92876227318E+02  0.92876227318E+02  0.00000000000E+00 0.  1.
         23    2    1    2    0    0  0.15453907429E+03 -0.74516714361E+02  0.38257012231E+03  0.42827132402E+03  0.87300414039E+02 0.  0.
    5000000    2    1    2    0    0 -0.15453907429E+03  0.74516714361E+02  0.13205293763E+04  0.14605806292E+04  0.60005239321E+03 0.  0.
         23    2    4    4    0    0 -0.69155091298E+02 -0.16363014065E+03  0.12681911238E+03  0.23687254563E+03  0.92023182005E+02 0.  0.
         23    2    4    4    0    0 -0.85383982993E+02  0.23814685501E+03  0.11937102639E+04  0.12237080836E+04  0.92265543858E+02 0.  0.
          3    1    3    3  502    0  0.10665789623E+03 -0.88499145021E+02  0.23892704197E+03  0.27621393318E+03  0.00000000000E+00 0. -1.
         -3    1    3    3    0  502  0.47881178059E+02  0.13982430660E+02  0.14364308034E+03  0.15205739084E+03  0.00000000000E+00 0.  1.
         13    1    5    5    0    0 -0.24950248231E+02 -0.10141061892E+03  0.12171494924E+03  0.16037816992E+03  0.00000000000E+00 0. -1.
        -13    1    5    5    0    0 -0.44204843067E+02 -0.62219521725E+02  0.51041631430E+01  0.76494375713E+02  0.00000000000E+00 0.  1.
          5    1    6    6  503    0 -0.71249456796E+02  0.19346170913E+03  0.10960656105E+04  0.11152962972E+04  0.47000000000E+01 0. -1.
         -5    1    6    6    0  503 -0.14134526196E+02  0.44685145876E+02  0.97644653427E+02  0.10841178642E+03  0.47000000000E+01 0.  1.
<mgrwt>
<rscale>  0 0.31127671E+03</rscale>
<asrwt>0</asrwt>
<pdfrwt beam="1">  1        2 0.27630393E+00 0.31127671E+03</pdfrwt>
<pdfrwt beam="2">  1       -2 0.14288652E-01 0.31127671E+03</pdfrwt>
<totfact> 0.35194027E+02</totfact>
</mgrwt>
</event>
<event>
12    1  0.3127365E-008  0.7921331E+03  0.7818608E-02  0.9571474E-01
          2   -1    0    0  501    0  0.00000000000E+00  0.00000000000E+00  0.39801463737E+04  0.39801463737E+04  0.00000000000E+00 0.  1.
         -2   -1    0    0    0  501 -0.00000000000E+00 -0.00000000000E+00 -0.25745619813E+03  0.25745619813E+03  0.00000000000E+00 0. -1.
         23    2    1    2    0    0  0.19563373723E+03 -0.65434624926E+03  0.40765593303E+03  0.80019780901E+03  0.87701771600E+02 0.  0.
    5000000    2    1    2    0    0 -0.19563373723E+03  0.65434624926E+03  0.33150342425E+04  0.34374047628E+04  0.59988157259E+03 0.  0.
         23    2    4    4    0    0  0.38880318483E+02 -0.83162279848E+02  0.44208011959E+03  0.46062777710E+03  0.91189215038E+02 0.  0.
         23    2    4    4    0    0 -0.23451405572E+03  0.73750852911E+03  0.28729541229E+04  0.29767769857E+04  0.91761415040E+02 0.  0.
          1    1    3    3  502    0  0.15738757098E+03 -0.39671389001E+03  0.27703634488E+03  0.50882403089E+03  0.00000000000E+00 0. -1.
         -1    1    3    3    0  502  0.38246166249E+02 -0.25763235925E+03  0.13061958814E+03  0.29137377812E+03  0.00000000000E+00 0.  1.
         11    1    5    5    0    0  0.17449764716E+01 -0.81404351179E+02  0.37686206294E+03  0.38555768417E+03  0.00000000000E+00 0. -1.
        -11    1    5    5    0    0  0.37135342011E+02 -0.17579286689E+01  0.65218056651E+02  0.75070092932E+02  0.00000000000E+00 0.  1.
          5    1    6    6  503    0 -0.16737433445E+03  0.38958511663E+03  0.16359991092E+04  0.16900609179E+04  0.47000000000E+01 0. -1.
         -5    1    6    6    0  503 -0.67139721263E+02  0.34792341248E+03  0.12369550137E+04  0.12867160678E+04  0.47000000000E+01 0.  1.
<mgrwt>
<rscale>  0 0.79213309E+03</rscale>
<asrwt>0</asrwt>
<pdfrwt beam="1">  1        2 0.61233017E+00 0.79213309E+03</pdfrwt>
<pdfrwt beam="2">  1       -2 0.39608649E-01 0.79213309E+03</pdfrwt>
<totfact> 0.23486625E+00</totfact>
</mgrwt>
</event>
<event>
12    1  0.3127365E-008  0.2066257E+04  0.7818608E-02  0.8576255E-01
         -2   -1    0    0    0  501 -0.00000000000E+00  0.00000000000E+00  0.13608525186E+04  0.13608525186E+04  0.00000000000E+00 0.  1.
          2   -1    0    0  501    0  0.00000000000E+00 -0.00000000000E+00 -0.35488756547E+04  0.35488756547E+04  0.00000000000E+00 0. -1.
         23    2    1    2    0    0 -0.14268589253E+04  0.14851147751E+04 -0.36365340543E+03  0.20935327330E+04  0.95620168427E+02 0.  0.
    5000000    2    1    2    0    0  0.14268589253E+04 -0.14851147751E+04 -0.18243697306E+04  0.28161954403E+04  0.60094887983E+03 0.  0.
         23    2    4    4    0    0  0.80576767497E+03 -0.97685099610E+03 -0.75780257717E+03  0.14784010413E+04  0.88912757119E+02 0.  0.
         23    2    4    4    0    0  0.62109125036E+03 -0.50826377903E+03 -0.10665671534E+04  0.13377943990E+04  0.89676925375E+02 0.  0.
          2    1    3    3  502    0 -0.11937914508E+04  0.12600523252E+04 -0.27305631373E+03  0.17571083179E+04  0.00000000000E+00 0. -1.
         -2    1    3    3    0  502 -0.23306747450E+03  0.22506244997E+03 -0.90597091692E+02  0.33642441511E+03  0.00000000000E+00 0.  1.
         11    1    5    5    0    0  0.56313150859E+03 -0.66794227159E+03 -0.56874394979E+03  0.10424651815E+04  0.00000000000E+00 0. -1.
        -11    1    5    5    0    0  0.24263616638E+03 -0.30890872452E+03 -0.18905862738E+03  0.43593585985E+03  0.00000000000E+00 0.  1.
          5    1    6    6  503    0  0.13482298226E+03 -0.15349876517E+03 -0.23881797461E+03  0.31431707312E+03  0.47000000000E+01 0. -1.
         -5    1    6    6    0  503  0.48626826810E+03 -0.35476501385E+03 -0.82774917883E+03  0.10234773259E+04  0.47000000000E+01 0.  1.
<mgrwt>
<rscale>  0 0.20662573E+04</rscale>
<asrwt>0</asrwt>
<pdfrwt beam="1">  1        2 0.54598086E+00 0.20662573E+04</pdfrwt>
<pdfrwt beam="2">  1       -2 0.20936193E+00 0.20662573E+04</pdfrwt>
<totfact> 0.76995780E-02</totfact>
</mgrwt>
</event>
<event>
12    1  0.3127365E-008  0.4717666E+03  0.7818608E-02  0.1021423E+00
          2   -1    0    0  501    0  0.00000000000E+00  0.00000000000E+00  0.14554194715E+04  0.14554194715E+04  0.00000000000E+00 0. -1.
         -2   -1    0    0    0  501 -0.00000000000E+00 -0.00000000000E+00 -0.24092846827E+03  0.24092846827E+03  0.00000000000E+00 0.  1.
         23    2    1    2    0    0  0.24338131402E+03  0.23160862885E+03  0.84876087671E+03  0.91744979240E+03  0.91880763881E+02 0.  0.
    5000000    2    1    2    0    0 -0.24338131402E+03 -0.23160862885E+03  0.36573012654E+03  0.77889814738E+03  0.60003898003E+03 0.  0.
         23    2    4    4    0    0  0.12969325342E+03  0.29157220709E+02  0.25455004938E+03  0.30125894179E+03  0.91053494533E+02 0.  0.
         23    2    4    4    0    0 -0.37307456745E+03 -0.26076584956E+03  0.11118007717E+03  0.47763920559E+03  0.92707820516E+02 0.  0.
          1    1    3    3  502    0  0.45368463661E+02  0.75869048096E+02  0.14346347814E+03  0.16851165987E+03  0.00000000000E+00 0. -1.
         -1    1    3    3    0  502  0.19801285036E+03  0.15573958075E+03  0.70529739857E+03  0.74893813253E+03  0.00000000000E+00 0.  1.
         13    1    5    5    0    0  0.11869392184E+03  0.41914567286E+02  0.15209472693E+03  0.19742817426E+03  0.00000000000E+00 0. -1.
        -13    1    5    5    0    0  0.10999331581E+02 -0.12757346577E+02  0.10245532245E+03  0.10383076753E+03  0.00000000000E+00 0.  1.
          5    1    6    6  503    0 -0.20947400709E+03 -0.10424028749E+03  0.25110889153E+02  0.23536789063E+03  0.47000000000E+01 0. -1.
         -5    1    6    6    0  503 -0.16360056035E+03 -0.15652556206E+03  0.86069188012E+02  0.24227131496E+03  0.47000000000E+01 0.  1.
<mgrwt>
<rscale>  0 0.47176660E+03</rscale>
<asrwt>0</asrwt>
<pdfrwt beam="1">  1        2 0.22391068E+00 0.47176660E+03</pdfrwt>
<pdfrwt beam="2">  1       -2 0.37065919E-01 0.47176660E+03</pdfrwt>
<totfact> 0.96957455E+01</totfact>
</mgrwt>
</event>
<event>
12    1  0.3127365E-008  0.4115844E+03  0.7818608E-02  0.1039841E+00
          2   -1    0    0  501    0  0.00000000000E+00  0.00000000000E+00  0.55288563657E+04  0.55288563657E+04  0.00000000000E+00 0. -1.
         -2   -1    0    0    0  501 -0.00000000000E+00 -0.00000000000E+00 -0.78891476147E+02  0.78891476147E+02  0.00000000000E+00 0.  1.
         23    2    1    2    0    0  0.30417953992E+03  0.17179252386E+03  0.38070532787E+04  0.38241287209E+04  0.90928231151E+02 0.  0.
    5000000    2    1    2    0    0 -0.30417953992E+03 -0.17179252386E+03  0.16429116108E+04  0.17836191209E+04  0.60008394733E+03 0.  0.
         23    2    4    4    0    0 -0.27560680972E+03 -0.24100537364E+03  0.47032871740E+03  0.60478977436E+03  0.10256151851E+03 0.  0.
         23    2    4    4    0    0 -0.28572730199E+02  0.69212849780E+02  0.11725828934E+04  0.11788293465E+04  0.95295156852E+02 0.  0.
          1    1    3    3  502    0  0.27776575650E+02  0.42835795690E+01  0.64238013588E+03  0.64299465486E+03  0.00000000000E+00 0. -1.
         -1    1    3    3    0  502  0.27640296427E+03  0.16750894429E+03  0.31646731428E+04  0.31811340660E+04  0.00000000000E+00 0.  1.
         13    1    5    5    0    0 -0.15134389544E+03 -0.18588192341E+03  0.25360143820E+03  0.34895666435E+03  0.00000000000E+00 0. -1.
        -13    1    5    5    0    0 -0.12426291428E+03 -0.55123450229E+02  0.21672727920E+03  0.25583311001E+03  0.00000000000E+00 0.  1.
          5    1    6    6  503    0 -0.25690640086E+02  0.79974001675E+02  0.57480627386E+03  0.58093045402E+03  0.47000000000E+01 0. -1.
         -5    1    6    6    0  503 -0.28820901134E+01 -0.10761151895E+02  0.59777661953E+03  0.59789889253E+03  0.47000000000E+01 0.  1.
<mgrwt>
<rscale>  0 0.41158440E+03</rscale>
<asrwt>0</asrwt>
<pdfrwt beam="1">  1        2 0.85059298E+00 0.41158440E+03</pdfrwt>
<pdfrwt beam="2">  1       -2 0.12137155E-01 0.41158440E+03</pdfrwt>
<totfact> 0.37691093E-01</totfact>
</mgrwt>
</event>
<event>
12    1  0.3127365E-008  0.5598585E+03  0.7818608E-02  0.9992375E-01
          2   -1    0    0  501    0  0.00000000000E+00  0.00000000000E+00  0.23800520805E+04  0.23800520805E+04  0.00000000000E+00 0. -1.
         -2   -1    0    0    0  501 -0.00000000000E+00 -0.00000000000E+00 -0.11546408758E+04  0.11546408758E+04  0.00000000000E+00 0.  1.
         23    2    1    2    0    0  0.14734647316E+03  0.42440455763E+03 -0.10464215322E+04  0.11423771105E+04  0.90538543793E+02 0.  0.
    5000000    2    1    2    0    0 -0.14734647316E+03 -0.42440455763E+03  0.22718327369E+04  0.23923158458E+04  0.60010074956E+03 0.  0.
         23    2    4    4    0    0  0.12859501137E+03  0.97597313798E+01  0.19555068069E+03  0.25132078374E+03  0.91050196672E+02 0.  0.
         23    2    4    4    0    0 -0.27594148453E+03 -0.43416428901E+03  0.20762820562E+04  0.21409950620E+04  0.90941441769E+02 0.  0.
          3    1    3    3  502    0  0.19540140489E+02  0.19252721985E+03 -0.43943800789E+03  0.48016071294E+03  0.00000000000E+00 0. -1.
         -3    1    3    3    0  502  0.12780633267E+03  0.23187733778E+03 -0.60698352428E+03  0.66221639756E+03  0.00000000000E+00 0.  1.
         11    1    5    5    0    0  0.97537940636E+02  0.36367765500E+02  0.17927205534E+03  0.20730348299E+03  0.00000000000E+00 0.  1.
        -11    1    5    5    0    0  0.31057070734E+02 -0.26608034121E+02  0.16278625349E+02  0.44017300753E+02  0.00000000000E+00 0. -1.
          5    1    6    6  503    0 -0.57742272743E+02 -0.60914412424E+02  0.23360509467E+03  0.24827034853E+03  0.47000000000E+01 0. -1.
         -5    1    6    6    0  503 -0.21819921179E+03 -0.37324987659E+03  0.18426769616E+04  0.18927247135E+04  0.47000000000E+01 0.  1.
<mgrwt>
<rscale>  0 0.55985849E+03</rscale>
<asrwt>0</asrwt>
<pdfrwt beam="1">  1        2 0.36616186E+00 0.55985849E+03</pdfrwt>
<pdfrwt beam="2">  1       -2 0.17763706E+00 0.55985849E+03</pdfrwt>
<totfact> 0.84794153E-01</totfact>
</mgrwt>
</event>
<event>
12    1  0.3127365E-008  0.1056838E+04  0.7818608E-02  0.9248313E-01
          2   -1    0    0  501    0  0.00000000000E+00  0.00000000000E+00  0.20399738166E+04  0.20399738166E+04  0.00000000000E+00 0. -1.
         -2   -1    0    0    0  501 -0.00000000000E+00 -0.00000000000E+00 -0.68074896663E+03  0.68074896663E+03  0.00000000000E+00 0.  1.
         23    2    1    2    0    0 -0.10334124901E+04 -0.19536428826E+03  0.26548371890E+03  0.10890025499E+04  0.96624888249E+02 0.  0.
    5000000    2    1    2    0    0  0.10334124901E+04  0.19536428826E+03  0.10937411311E+04  0.16317202333E+04  0.60011055494E+03 0.  0.
         23    2    4    4    0    0  0.51467378294E+03  0.57418095676E+02  0.92136586209E+03  0.10608112185E+04  0.90661175947E+02 0.  0.
         23    2    4    4    0    0  0.51873870714E+03  0.13794619258E+03  0.17237526898E+03  0.57090901483E+03  0.90027059980E+02 0.  0.
          4    1    3    3  502    0 -0.41794022096E+03 -0.78374400066E+02  0.58653390730E+02  0.42925143579E+03  0.00000000000E+00 0. -1.
         -4    1    3    3    0  502 -0.61547226911E+03 -0.11698988819E+03  0.20683032817E+03  0.65975111416E+03  0.00000000000E+00 0.  1.
         13    1    5    5    0    0  0.33159842206E+03  0.70045398780E+02  0.53917214704E+03  0.63684415327E+03  0.00000000000E+00 0.  1.
        -13    1    5    5    0    0  0.18307536087E+03 -0.12627303105E+02  0.38219371504E+03  0.42396706519E+03  0.00000000000E+00 0. -1.
          5    1    6    6  503    0  0.41841834709E+03  0.88980140465E+02  0.10522581595E+03  0.44055185951E+03  0.47000000000E+01 0. -1.
         -5    1    6    6    0  503  0.10032036005E+03  0.48966052118E+02  0.67149453032E+02  0.13035715532E+03  0.47000000000E+01 0.  1.
<mgrwt>
<rscale>  0 0.10568380E+04</rscale>
<asrwt>0</asrwt>
<pdfrwt beam="1">  1        2 0.31384212E+00 0.10568380E+04</pdfrwt>
<pdfrwt beam="2">  1       -2 0.10473061E+00 0.10568380E+04</pdfrwt>
<totfact> 0.46657947E+00</totfact>
</mgrwt>
</event>
<event>
12    1  0.3127365E-008  0.1330042E+04  0.7818608E-02  0.9006075E-01
          1   -1    0    0  501    0  0.00000000000E+00  0.00000000000E+00  0.18179346402E+04  0.18179346402E+04  0.00000000000E+00 0. -1.
         -1   -1    0    0    0  501 -0.00000000000E+00 -0.00000000000E+00 -0.99320568972E+03  0.99320568972E+03  0.00000000000E+00 0.  1.
         23    2    1    2    0    0 -0.56162579031E+03  0.11368057600E+04  0.53210984654E+03  0.13781459840E+04  0.91622050279E+02 0.  0.
    5000000    2    1    2    0    0  0.56162579031E+03 -0.11368057600E+04  0.29261910396E+03  0.14329943460E+04  0.60007998753E+03 0.  0.
         23    2    4    4    0    0  0.38886794538E+03 -0.22175531775E+03  0.13702992025E+02  0.45705366104E+03  0.91195269525E+02 0.  0.
         23    2    4    4    0    0  0.17275784492E+03 -0.91505044220E+03  0.27891611194E+03  0.97594068495E+03  0.86622389051E+02 0.  0.
          3    1    3    3  502    0 -0.44678487577E+03  0.85776353380E+03  0.36914397710E+03  0.10352015654E+04  0.00000000000E+00 0. -1.
         -3    1    3    3    0  502 -0.11484091454E+03  0.27904222616E+03  0.16296586944E+03  0.34294441858E+03  0.00000000000E+00 0.  1.
         13    1    5    5    0    0  0.27776700087E+02  0.79240074917E+01 -0.45263596264E-01  0.28884892440E+02  0.00000000000E+00 0. -1.
        -13    1    5    5    0    0  0.36109124529E+03 -0.22967932524E+03  0.13748255622E+02  0.42816876860E+03  0.00000000000E+00 0.  1.
          5    1    6    6  503    0  0.66275484483E+02 -0.55185716579E+03  0.18669305346E+03  0.58635753384E+03  0.47000000000E+01 0. -1.
         -5    1    6    6    0  503  0.10648236044E+03 -0.36319327641E+03  0.92223058479E+02  0.38958315111E+03  0.47000000000E+01 0.  1.
<mgrwt>
<rscale>  0 0.13300416E+04</rscale>
<asrwt>0</asrwt>
<pdfrwt beam="1">  1        1 0.27968225E+00 0.13300416E+04</pdfrwt>
<pdfrwt beam="2">  1       -1 0.15280088E+00 0.13300416E+04</pdfrwt>
<totfact> 0.12710720E+00</totfact>
</mgrwt>
</event>
<event>
12    1  0.3127365E-008  0.9619341E+03  0.7818608E-02  0.9351309E-01
         -2   -1    0    0    0  501 -0.00000000000E+00  0.00000000000E+00  0.57192570270E+03  0.57192570270E+03  0.00000000000E+00 0.  1.
          2   -1    0    0  501    0  0.00000000000E+00 -0.00000000000E+00 -0.20591223716E+04  0.20591223716E+04  0.00000000000E+00 0. -1.
         23    2    1    2    0    0 -0.89279602511E+03 -0.13420106922E+03 -0.16645636994E+03  0.92237422933E+03  0.89285085055E+02 0.  0.
    5000000    2    1    2    0    0  0.89279602511E+03  0.13420106922E+03 -0.13207402990E+04  0.17086738450E+04  0.60009724360E+03 0.  0.
         23    2    4    4    0    0  0.99449583912E+02  0.19566101449E+03 -0.11733076776E+03  0.26314089836E+03  0.85458592270E+02 0.  0.
         23    2    4    4    0    0  0.79334644120E+03 -0.61459945266E+02 -0.12034095312E+04  0.14455329466E+04  0.90526788009E+02 0.  0.
          3    1    3    3  502    0 -0.16859041652E+03 -0.56075327716E+02 -0.14312096633E+02  0.17824703933E+03  0.00000000000E+00 0. -1.
         -3    1    3    3    0  502 -0.72420560859E+03 -0.78125741508E+02 -0.15214427331E+03  0.74412719000E+03  0.00000000000E+00 0.  1.
         11    1    5    5    0    0  0.75092828275E+02  0.17335172630E+03 -0.12826839439E+03  0.22834739952E+03  0.00000000000E+00 0. -1.
        -11    1    5    5    0    0  0.24356755637E+02  0.22309288188E+02  0.10937626630E+02  0.34793498831E+02  0.00000000000E+00 0.  1.
          5    1    6    6  503    0  0.24558203444E+03 -0.14738155532E+02 -0.30023150317E+03  0.38818654583E+03  0.47000000000E+01 0. -1.
         -5    1    6    6    0  503  0.54776440676E+03 -0.46721789733E+02 -0.90317802802E+03  0.10573464008E+04  0.47000000000E+01 0.  1.
<mgrwt>
<rscale>  0 0.96193407E+03</rscale>
<asrwt>0</asrwt>
<pdfrwt beam="1">  1        2 0.31678806E+00 0.96193407E+03</pdfrwt>
<pdfrwt beam="2">  1       -2 0.87988569E-01 0.96193407E+03</pdfrwt>
<totfact> 0.69424522E+00</totfact>
</mgrwt>
</event>
<event>
12    1  0.3127365E-008  0.8109905E+03  0.7818608E-02  0.9544244E-01
          2   -1    0    0  501    0  0.00000000000E+00  0.00000000000E+00  0.20049290855E+04  0.20049290855E+04  0.00000000000E+00 0.  1.
         -2   -1    0    0    0  501 -0.00000000000E+00 -0.00000000000E+00 -0.35088406273E+03  0.35088406273E+03  0.00000000000E+00 0. -1.
         23    2    1    2    0    0  0.40682126500E+03 -0.57572795141E+03  0.97955258758E+03  0.12104447765E+04  0.93204450285E+02 0.  0.
    5000000    2    1    2    0    0 -0.40682126500E+03  0.57572795141E+03  0.67449243518E+03  0.11453683717E+04  0.59996870418E+03 0.  0.
         23    2    4    4    0    0  0.13755601213E+03  0.11081523234E+03  0.10147274948E+03  0.22418871162E+03  0.93606556069E+02 0.  0.
         23    2    4    4    0    0 -0.54437727714E+03  0.46491271906E+03  0.57301968570E+03  0.92117966004E+03  0.87920132263E+02 0.  0.
          2    1    3    3  502    0  0.25742121038E+03 -0.31881043655E+03  0.50253248666E+03  0.64841705264E+03  0.00000000000E+00 0. -1.
         -2    1    3    3    0  502  0.14940005463E+03 -0.25691751486E+03  0.47702010092E+03  0.56202772391E+03  0.00000000000E+00 0.  1.
         11    1    5    5    0    0  0.10283872609E+03  0.12471703285E+03  0.73978046264E+02  0.17777202591E+03  0.00000000000E+00 0. -1.
        -11    1    5    5    0    0  0.34717286045E+02 -0.13901800509E+02  0.27494703213E+02  0.46416685712E+02  0.00000000000E+00 0.  1.
          5    1    6    6  503    0 -0.23280143310E+03  0.20284292253E+03  0.30288414278E+03  0.43255364109E+03  0.47000000000E+01 0. -1.
         -5    1    6    6    0  503 -0.31157584404E+03  0.26206979654E+03  0.27013554292E+03  0.48862601895E+03  0.47000000000E+01 0.  1.
<mgrwt>
<rscale>  0 0.81099049E+03</rscale>
<asrwt>0</asrwt>
<pdfrwt beam="1">  1        2 0.30845062E+00 0.81099049E+03</pdfrwt>
<pdfrwt beam="2">  1       -2 0.53982164E-01 0.81099049E+03</pdfrwt>
<totfact> 0.22006905E+01</totfact>
</mgrwt>
</event>
<event>
12    1  0.3127365E-008  0.7946570E+03  0.7818608E-02  0.9567783E-01
          1   -1    0    0  501    0  0.00000000000E+00  0.00000000000E+00  0.10487675000E+04  0.10487675000E+04  0.00000000000E+00 0. -1.
         -1   -1    0    0    0  501 -0.00000000000E+00 -0.00000000000E+00 -0.12359611029E+04  0.12359611029E+04  0.00000000000E+00 0.  1.
         23    2    1    2    0    0  0.64831713256E+02 -0.73082038694E+03  0.67674834163E+03  0.10023970799E+04  0.92249654783E+02 0.  0.
    5000000    2    1    2    0    0 -0.64831713256E+02  0.73082038694E+03 -0.86394194455E+03  0.12823315230E+04  0.59973065812E+03 0.  0.
         23    2    4    4    0    0  0.17383495519E+03  0.23976590623E+03 -0.58893281444E+03  0.66430405867E+03  0.82168978432E+02 0.  0.
         23    2    4    4    0    0 -0.23866666844E+03  0.49105448071E+03 -0.27500913011E+03  0.61802746431E+03  0.90728404324E+02 0.  0.
          1    1    3    3  502    0 -0.56738596352E+01 -0.21089950127E+03  0.14954284643E+03  0.25859979744E+03  0.00000000000E+00 0. -1.
         -1    1    3    3    0  502  0.70505572892E+02 -0.51992088566E+03  0.52720549520E+03  0.74379728241E+03  0.00000000000E+00 0.  1.
         13    1    5    5    0    0  0.50902066163E+02  0.25491591699E+02 -0.15291064226E+03  0.16316404660E+03  0.00000000000E+00 0.  1.
        -13    1    5    5    0    0  0.12293288902E+03  0.21427431453E+03 -0.43602217218E+03  0.50114001207E+03  0.00000000000E+00 0. -1.
          5    1    6    6  503    0 -0.12467107303E+03  0.32590503869E+03 -0.13937759913E+03  0.37577277154E+03  0.47000000000E+01 0. -1.
         -5    1    6    6    0  503 -0.11399559541E+03  0.16514944202E+03 -0.13563153098E+03  0.24225469277E+03  0.47000000000E+01 0.  1.
<mgrwt>
<rscale>  0 0.79465702E+03</rscale>
<asrwt>0</asrwt>
<pdfrwt beam="1">  1        1 0.16134885E+00 0.79465702E+03</pdfrwt>
<pdfrwt beam="2">  1       -1 0.19014786E+00 0.79465702E+03</pdfrwt>
<totfact> 0.25285370E+00</totfact>
</mgrwt>
</event>
<event>
12    1  0.3127365E-008  0.2262258E+04  0.7818608E-02  0.8492953E-01
          2   -1    0    0  501    0  0.00000000000E+00  0.00000000000E+00  0.29583422328E+04  0.29583422328E+04  0.00000000000E+00 0. -1.
         -2   -1    0    0    0  501 -0.00000000000E+00 -0.00000000000E+00 -0.18242601536E+04  0.18242601536E+04  0.00000000000E+00 0.  1.
         23    2    1    2    0    0  0.16200194506E+04  0.15330067585E+04  0.54144678023E+02  0.22329024554E+04  0.91372794007E+02 0.  0.
    5000000    2    1    2    0    0 -0.16200194506E+04 -0.15330067585E+04  0.10799374011E+04  0.25496999310E+04  0.60011016137E+03 0.  0.
         23    2    4    4    0    0 -0.11075519675E+04 -0.13528544471E+04  0.72834163346E+03  0.18962078096E+04  0.90752443817E+02 0.  0.
         23    2    4    4    0    0 -0.51246748303E+03 -0.18015231138E+03  0.35159576766E+03  0.65349212142E+03  0.91403459761E+02 0.  0.
          1    1    3    3  502    0  0.11971455091E+04  0.11640672124E+04  0.79748366438E+01  0.16698123975E+04  0.00000000000E+00 0. -1.
         -1    1    3    3    0  502  0.42287394149E+03  0.36893954616E+03  0.46169841379E+02  0.56309005796E+03  0.00000000000E+00 0.  1.
         13    1    5    5    0    0 -0.72263733253E+03 -0.83329313504E+03  0.42583554179E+03  0.11823358541E+04  0.00000000000E+00 0. -1.
        -13    1    5    5    0    0 -0.38491463501E+03 -0.51956131210E+03  0.30250609167E+03  0.71387195545E+03  0.00000000000E+00 0.  1.
          5    1    6    6  503    0 -0.11136721298E+03 -0.28117164780E+02  0.34435483026E+02  0.12000468146E+03  0.47000000000E+01 0. -1.
         -5    1    6    6    0  503 -0.40110027005E+03 -0.15203514660E+03  0.31716028463E+03  0.53348743995E+03  0.47000000000E+01 0.  1.
<mgrwt>
<rscale>  0 0.22622578E+04</rscale>
<asrwt>0</asrwt>
<pdfrwt beam="1">  1        2 0.45512957E+00 0.22622578E+04</pdfrwt>
<pdfrwt beam="2">  1       -2 0.28065541E+00 0.22622578E+04</pdfrwt>
<totfact> 0.66624757E-02</totfact>
</mgrwt>
</event>
<event>
12    1  0.3127365E-008  0.7726559E+03  0.7818608E-02  0.9600462E-01
         -1   -1    0    0    0  501 -0.00000000000E+00  0.00000000000E+00  0.13105313122E+04  0.13105313122E+04  0.00000000000E+00 0.  1.
          1   -1    0    0  501    0  0.00000000000E+00 -0.00000000000E+00 -0.62843532442E+03  0.62843532442E+03  0.00000000000E+00 0. -1.
         23    2    1    2    0    0  0.72994545147E+02 -0.65960848655E+03  0.79227808509E+03  0.10376062562E+04  0.92253019938E+02 0.  0.
    5000000    2    1    2    0    0 -0.72994545147E+02  0.65960848655E+03 -0.11018209734E+03  0.90136038036E+03  0.59991572871E+03 0.  0.
         23    2    4    4    0    0  0.17990365500E+03  0.39788326033E+02 -0.90979237656E+02  0.22545359496E+03  0.92755947653E+02 0.  0.
         23    2    4    4    0    0 -0.25289820015E+03  0.61982016052E+03 -0.19202859686E+02  0.67590678540E+03  0.91360285173E+02 0.  0.
          1    1    3    3  502    0  0.51897327022E+02 -0.19128091698E+03  0.28186223196E+03  0.34456935377E+03  0.00000000000E+00 0. -1.
         -1    1    3    3    0  502  0.21097218125E+02 -0.46832756958E+03  0.51041585313E+03  0.69303690245E+03  0.00000000000E+00 0.  1.
         13    1    5    5    0    0  0.63067474429E+02 -0.28998052550E+02 -0.19086853733E+02  0.71990981158E+02  0.00000000000E+00 0. -1.
        -13    1    5    5    0    0  0.11683618057E+03  0.68786378583E+02 -0.71892383924E+02  0.15346261380E+03  0.00000000000E+00 0.  1.
          5    1    6    6  503    0 -0.10517261360E+03  0.17122343164E+03  0.19850050151E+02  0.20197736676E+03  0.47000000000E+01 0. -1.
         -5    1    6    6    0  503 -0.14772558655E+03  0.44859672889E+03 -0.39052909838E+02  0.47392941864E+03  0.47000000000E+01 0.  1.
<mgrwt>
<rscale>  0 0.77265588E+03</rscale>
<asrwt>0</asrwt>
<pdfrwt beam="1">  1        1 0.96682358E-01 0.77265588E+03</pdfrwt>
<pdfrwt beam="2">  1       -1 0.20162020E+00 0.77265588E+03</pdfrwt>
<totfact> 0.48509476E+00</totfact>
</mgrwt>
</event>
<event>
12    1  0.3127365E-008  0.1658604E+04  0.7818608E-02  0.8785332E-01
          1   -1    0    0  501    0  0.00000000000E+00  0.00000000000E+00  0.37451607545E+04  0.37451607545E+04  0.00000000000E+00 0. -1.
         -1   -1    0    0    0  501 -0.00000000000E+00 -0.00000000000E+00 -0.91899397675E+03  0.91899397675E+03  0.00000000000E+00 0.  1.
         23    2    1    2    0    0  0.90587573998E+03  0.13329052893E+04  0.35376627244E+03  0.16525257060E+04  0.91887250886E+02 0.  0.
    5000000    2    1    2    0    0 -0.90587573998E+03 -0.13329052893E+04  0.24724005054E+04  0.30116290253E+04  0.59991479465E+03 0.  0.
         23    2    4    4    0    0 -0.35796060990E+03 -0.14490909080E+03  0.72764527368E+03  0.82893677737E+03  0.92380158752E+02 0.  0.
         23    2    4    4    0    0 -0.54791513009E+03 -0.11879961985E+04  0.17447552317E+04  0.21826922480E+04  0.91807807197E+02 0.  0.
          1    1    3    3  502    0  0.55881297494E+03  0.87685782203E+03  0.26021537260E+03  0.10718505592E+04  0.00000000000E+00 0. -1.
         -1    1    3    3    0  502  0.34706276504E+03  0.45604746725E+03  0.93550899837E+02  0.58067514681E+03  0.00000000000E+00 0.  1.
         13    1    5    5    0    0 -0.12938304217E+03 -0.91484574399E+01  0.20558051766E+03  0.24307820782E+03  0.00000000000E+00 0.  1.
        -13    1    5    5    0    0 -0.22857756773E+03 -0.13576063336E+03  0.52206475602E+03  0.58585856955E+03  0.00000000000E+00 0. -1.
          5    1    6    6  503    0 -0.45358682240E+03 -0.95066511137E+03  0.14576320385E+04  0.17983932854E+04  0.47000000000E+01 0. -1.
         -5    1    6    6    0  503 -0.94328307690E+02 -0.23733108712E+03  0.28712319320E+03  0.38429896255E+03  0.47000000000E+01 0.  1.
<mgrwt>
<rscale>  0 0.16586043E+04</rscale>
<asrwt>0</asrwt>
<pdfrwt beam="1">  1        1 0.57617857E+00 0.16586043E+04</pdfrwt>
<pdfrwt beam="2">  1       -1 0.14138369E+00 0.16586043E+04</pdfrwt>
<totfact> 0.60812859E-02</totfact>
</mgrwt>
</event>
<event>
12    1  0.3127365E-008  0.7583824E+03  0.7818608E-02  0.9622291E-01
         -3   -1    0    0    0  501 -0.00000000000E+00  0.00000000000E+00  0.89056320135E+03  0.89056320135E+03  0.00000000000E+00 0.  1.
          3   -1    0    0  501    0  0.00000000000E+00 -0.00000000000E+00 -0.12724086988E+04  0.12724086988E+04  0.00000000000E+00 0. -1.
         23    2    1    2    0    0  0.66214324759E+03  0.16240474825E+03  0.53593550776E+03  0.87175525492E+03  0.89002097912E+02 0.  0.
    5000000    2    1    2    0    0 -0.66214324759E+03 -0.16240474825E+03 -0.91778100521E+03  0.12912166452E+04  0.60009121707E+03 0.  0.
         23    2    4    4    0    0 -0.14612916230E+03 -0.25912206606E+03 -0.58618037341E+03  0.66354842753E+03  0.90504741913E+02 0.  0.
         23    2    4    4    0    0 -0.51601408528E+03  0.96717317812E+02 -0.33160063179E+03  0.62766821769E+03  0.91562201375E+02 0.  0.
          2    1    3    3  502    0  0.37150822782E+03  0.54388814684E+02  0.32668061478E+03  0.49769140094E+03  0.00000000000E+00 0.  1.
         -2    1    3    3    0  502  0.29063501977E+03  0.10801593357E+03  0.20925489298E+03  0.37406385398E+03  0.00000000000E+00 0. -1.
         13    1    5    5    0    0 -0.55003880537E+02 -0.62399792069E+02 -0.25043582083E+03  0.26388872897E+03  0.00000000000E+00 0.  1.
        -13    1    5    5    0    0 -0.91125281767E+02 -0.19672227399E+03 -0.33574455258E+03  0.39965969856E+03  0.00000000000E+00 0. -1.
          5    1    6    6  503    0 -0.77487807603E+00  0.66506671185E+01  0.29232963849E+00  0.81857965875E+01  0.47000000000E+01 0. -1.
         -5    1    6    6    0  503 -0.51523920720E+03  0.90066650693E+02 -0.33189296143E+03  0.61948242110E+03  0.47000000000E+01 0.  1.
<mgrwt>
<rscale>  0 0.75838238E+03</rscale>
<asrwt>0</asrwt>
<pdfrwt beam="1">  1        3 0.19575518E+00 0.75838238E+03</pdfrwt>
<pdfrwt beam="2">  1       -3 0.13700972E+00 0.75838238E+03</pdfrwt>
<totfact> 0.16505842E-01</totfact>
</mgrwt>
</event>
<event>
12    1  0.3127365E-008  0.6088693E+03  0.7818608E-02  0.9887174E-01
         -2   -1    0    0    0  501 -0.00000000000E+00  0.00000000000E+00  0.22284072265E+03  0.22284072265E+03  0.00000000000E+00 0.  1.
          2   -1    0    0  501    0  0.00000000000E+00 -0.00000000000E+00 -0.21085774394E+04  0.21085774394E+04  0.00000000000E+00 0. -1.
         23    2    1    2    0    0 -0.47334401596E+03 -0.25712946546E+03 -0.58183453018E+03  0.79823565975E+03  0.92079468630E+02 0.  0.
    5000000    2    1    2    0    0  0.47334401596E+03  0.25712946546E+03 -0.13039021866E+04  0.15331825023E+04  0.60026456983E+03 0.  0.
         23    2    4    4    0    0  0.26078942021E+02  0.21947442392E+03 -0.12766644802E+03  0.27095314542E+03  0.90927174635E+02 0.  0.
         23    2    4    4    0    0  0.44726507394E+03  0.37655041533E+02 -0.11762357386E+04  0.12622293569E+04  0.90711014971E+02 0.  0.
          2    1    3    3  502    0 -0.35855233869E+03 -0.15012735486E+03 -0.39401314872E+03  0.55348384224E+03  0.00000000000E+00 0. -1.
         -2    1    3    3    0  502 -0.11479167727E+03 -0.10700211060E+03 -0.18782138146E+03  0.24475181751E+03  0.00000000000E+00 0.  1.
         13    1    5    5    0    0 -0.24601011403E+01  0.22478053524E+02  0.14035649239E+02  0.26614177376E+02  0.00000000000E+00 0. -1.
        -13    1    5    5    0    0  0.28539043161E+02  0.19699637040E+03 -0.14170209726E+03  0.24433896804E+03  0.00000000000E+00 0.  1.
          5    1    6    6  503    0  0.96773027948E+02  0.23116458301E+02 -0.17570294501E+03  0.20197278150E+03  0.47000000000E+01 0. -1.
         -5    1    6    6    0  503  0.35049204599E+03  0.14538583232E+02 -0.10005327936E+04  0.10602565754E+04  0.47000000000E+01 0.  1.
<mgrwt>
<rscale>  0 0.60886928E+03</rscale>
<asrwt>0</asrwt>
<pdfrwt beam="1">  1        2 0.32439653E+00 0.60886928E+03</pdfrwt>
<pdfrwt beam="2">  1       -2 0.34283188E-01 0.60886928E+03</pdfrwt>
<totfact> 0.48742523E+01</totfact>
</mgrwt>
</event>
<event>
12    1  0.3127365E-008  0.9598129E+03  0.7818608E-02  0.9353754E-01
         -1   -1    0    0    0  501 -0.00000000000E+00  0.00000000000E+00  0.15043272231E+04  0.15043272231E+04  0.00000000000E+00 0.  1.
          1   -1    0    0  501    0  0.00000000000E+00 -0.00000000000E+00 -0.15507913935E+04  0.15507913935E+04  0.00000000000E+00 0. -1.
         23    2    1    2    0    0 -0.88793011696E+03  0.19924966259E+03 -0.11731946787E+04  0.14873731836E+04  0.88164121450E+02 0.  0.
    5000000    2    1    2    0    0  0.88793011696E+03 -0.19924966259E+03  0.11267305084E+04  0.15677454330E+04  0.60015313342E+03 0.  0.
         23    2    4    4    0    0  0.89185762908E+03 -0.13395030105E+03  0.11389512574E+04  0.14555696713E+04  0.90113192958E+02 0.  0.
         23    2    4    4    0    0 -0.39275121246E+01 -0.65299361540E+02 -0.12220748994E+02  0.11217576174E+03  0.90302950373E+02 0.  0.
          2    1    3    3  502    0 -0.31916195622E+03  0.32025693337E+02 -0.38507027221E+03  0.50116775023E+03  0.00000000000E+00 0.  1.
         -2    1    3    3    0  502 -0.56876816074E+03  0.16722396925E+03 -0.78812440653E+03  0.98620543333E+03  0.00000000000E+00 0. -1.
         11    1    5    5    0    0  0.61595412650E+03 -0.10202841329E+03  0.85135398907E+03  0.10557522900E+04  0.00000000000E+00 0.  1.
        -11    1    5    5    0    0  0.27590350258E+03 -0.31921887754E+02  0.28759726833E+03  0.39981738132E+03  0.00000000000E+00 0. -1.
          5    1    6    6  503    0  0.15229799099E+02 -0.78559614094E+02  0.85446290763E+01  0.80614269415E+02  0.47000000000E+01 0. -1.
         -5    1    6    6    0  503 -0.19157311224E+02  0.13260252554E+02 -0.20765378070E+02  0.31561492321E+02  0.47000000000E+01 0.  1.
<mgrwt>
<rscale>  0 0.95981285E+03</rscale>
<asrwt>0</asrwt>
<pdfrwt beam="1">  1        1 0.23858329E+00 0.95981285E+03</pdfrwt>
<pdfrwt beam="2">  1       -1 0.23143496E+00 0.95981285E+03</pdfrwt>
<totfact> 0.56647361E-01</totfact>
</mgrwt>
</event>
<event>
12    1  0.4150912E-008  0.1045513E+04  0.7818608E-02  0.9259989E-01
          1   -1    0    0  501    0  0.00000000000E+00  0.00000000000E+00  0.14390452404E+04  0.14390452404E+04  0.00000000000E+00 0. -1.
         -1   -1    0    0    0  501 -0.00000000000E+00 -0.00000000000E+00 -0.10740961450E+04  0.10740961450E+04  0.00000000000E+00 0.  1.
         23    2    1    2    0    0 -0.96225347157E+03  0.34090180584E+03 -0.40363359603E+03  0.11014586100E+04  0.90250789441E+02 0.  0.
    5000000    2    1    2    0    0  0.96225347157E+03 -0.34090180584E+03  0.76858269141E+03  0.14116827753E+04  0.59998593303E+03 0.  0.
         23    2    4    4    0    0  0.52739749677E+03 -0.29612040425E+02  0.90963534342E+02  0.54376991360E+03  0.91577081315E+02 0.  0.
         23    2    4    4    0    0  0.43485597480E+03 -0.31128976541E+03  0.67761915707E+03  0.86791286172E+03  0.90022089758E+02 0.  0.
          4    1    3    3  502    0 -0.64833361215E+03  0.18929486234E+03 -0.28702304857E+03  0.73386050988E+03  0.00000000000E+00 0.  1.
         -4    1    3    3    0  502 -0.31391985942E+03  0.15160694350E+03 -0.11661054746E+03  0.36759810016E+03  0.00000000000E+00 0. -1.
         11    1    5    5    0    0  0.10068106272E+03 -0.30433320036E+02 -0.87941763919E+01  0.10554715011E+03  0.00000000000E+00 0.  1.
        -11    1    5    5    0    0  0.42671643405E+03  0.82127961059E+00  0.99757710734E+02  0.43822276349E+03  0.00000000000E+00 0. -1.
          5    1    6    6  503    0  0.29472514184E+03 -0.21985696064E+03  0.39681016554E+03  0.54099943609E+03  0.47000000000E+01 0. -1.
         -5    1    6    6    0  503  0.14013083297E+03 -0.91432804774E+02  0.28080899153E+03  0.32691342564E+03  0.47000000000E+01 0.  1.
<mgrwt>
<rscale>  0 0.10455128E+04</rscale>
<asrwt>0</asrwt>
<pdfrwt beam="1">  1        1 0.22139158E+00 0.10455128E+04</pdfrwt>
<pdfrwt beam="2">  1       -1 0.16524556E+00 0.10455128E+04</pdfrwt>
<totfact> 0.19232293E+00</totfact>
</mgrwt>
</event>
<event>
12    1  0.3127365E-008  0.1324405E+04  0.7818608E-02  0.9010433E-01
         -1   -1    0    0    0  501 -0.00000000000E+00  0.00000000000E+00  0.82838330506E+03  0.82838330506E+03  0.00000000000E+00 0.  1.
          1   -1    0    0  501    0  0.00000000000E+00 -0.00000000000E+00 -0.22899183646E+04  0.22899183646E+04  0.00000000000E+00 0. -1.
         23    2    1    2    0    0  0.12455461387E+04 -0.32187227388E+03 -0.97970610171E+03  0.16193097936E+04  0.85750905172E+02 0.  0.
    5000000    2    1    2    0    0 -0.12455461387E+04  0.32187227388E+03 -0.48182895785E+03  0.14989918761E+04  0.59985877980E+03 0.  0.
         23    2    4    4    0    0 -0.76397467922E+03 -0.29667388115E+02 -0.79561771669E+02  0.77409849725E+03  0.91438195083E+02 0.  0.
         23    2    4    4    0    0 -0.48157145944E+03  0.35153966200E+03 -0.40226718618E+03  0.72489337883E+03  0.90334473452E+02 0.  0.
          1    1    3    3  502    0  0.46171868928E+03 -0.11432077561E+03 -0.31114411042E+03  0.56838723174E+03  0.00000000000E+00 0. -1.
         -1    1    3    3    0  502  0.78382744938E+03 -0.20755149828E+03 -0.66856199129E+03  0.10509225619E+04  0.00000000000E+00 0.  1.
         13    1    5    5    0    0 -0.63328609837E+03 -0.34260632569E+02 -0.98999485608E+02  0.64189249215E+03  0.00000000000E+00 0.  1.
        -13    1    5    5    0    0 -0.13068858085E+03  0.45932444541E+01  0.19437713939E+02  0.13220600510E+03  0.00000000000E+00 0. -1.
          5    1    6    6  503    0 -0.29498712294E+03  0.23611401565E+03 -0.30148137123E+03  0.48340494234E+03  0.47000000000E+01 0. -1.
         -5    1    6    6    0  503 -0.18658433650E+03  0.11542564635E+03 -0.10078581496E+03  0.24148843649E+03  0.47000000000E+01 0.  1.
<mgrwt>
<rscale>  0 0.13244047E+04</rscale>
<asrwt>0</asrwt>
<pdfrwt beam="1">  1        1 0.35229512E+00 0.13244047E+04</pdfrwt>
<pdfrwt beam="2">  1       -1 0.12744359E+00 0.13244047E+04</pdfrwt>
<totfact> 0.97908735E-01</totfact>
</mgrwt>
</event>
<event>
12    1  0.3127365E-008  0.1157521E+04  0.7818608E-02  0.9150873E-01
          2   -1    0    0  501    0  0.00000000000E+00  0.00000000000E+00  0.13849599778E+04  0.13849599778E+04  0.00000000000E+00 0. -1.
         -2   -1    0    0    0  501 -0.00000000000E+00 -0.00000000000E+00 -0.12001787798E+04  0.12001787798E+04  0.00000000000E+00 0.  1.
         23    2    1    2    0    0  0.74347567784E+03 -0.83409377827E+03  0.57307268500E+03  0.12586723100E+04  0.85878794096E+02 0.  0.
    5000000    2    1    2    0    0 -0.74347567784E+03  0.83409377827E+03 -0.38829148697E+03  0.13264664476E+04  0.60022865914E+03 0.  0.
         23    2    4    4    0    0  0.86695430770E+01  0.19026951053E+03  0.83157888497E+02  0.22597026086E+03  0.88711198615E+02 0.  0.
         23    2    4    4    0    0 -0.75214522092E+03  0.64382426773E+03 -0.47144937547E+03  0.11004961867E+04  0.92710421752E+02 0.  0.
          3    1    3    3  502    0  0.43848841582E+03 -0.43518620837E+03  0.33850274109E+03  0.70444533677E+03  0.00000000000E+00 0. -1.
         -3    1    3    3    0  502  0.30498726202E+03 -0.39890756990E+03  0.23456994390E+03  0.55422697327E+03  0.00000000000E+00 0.  1.
         13    1    5    5    0    0 -0.27462988184E+02  0.72133457403E+02  0.65392133455E+02  0.10116117098E+03  0.00000000000E+00 0.  1.
        -13    1    5    5    0    0  0.36132531261E+02  0.11813605313E+03  0.17765755042E+02  0.12480908988E+03  0.00000000000E+00 0. -1.
          5    1    6    6  503    0 -0.55022282310E+03  0.41511746549E+03 -0.32518135451E+03  0.76212378820E+03  0.47000000000E+01 0.  1.
         -5    1    6    6    0  503 -0.20192239782E+03  0.22870680224E+03 -0.14626802096E+03  0.33837239853E+03  0.47000000000E+01 0. -1.
<mgrwt>
<rscale>  0 0.11575207E+04</rscale>
<asrwt>0</asrwt>
<pdfrwt beam="1">  1        2 0.21307077E+00 0.11575207E+04</pdfrwt>
<pdfrwt beam="2">  1       -2 0.18464289E+00 0.11575207E+04</pdfrwt>
<totfact> 0.24243331E+00</totfact>
</mgrwt>
</event>
<event>
12    1  0.3127365E-008  0.1611102E+04  0.7818608E-02  0.8813757E-01
          1   -1    0    0  501    0  0.00000000000E+00  0.00000000000E+00  0.20925073293E+04  0.20925073293E+04  0.00000000000E+00 0. -1.
         -1   -1    0    0    0  501 -0.00000000000E+00 -0.00000000000E+00 -0.14832207120E+04  0.14832207120E+04  0.00000000000E+00 0.  1.
         23    2    1    2    0    0 -0.14799404517E+04  0.60405415014E+03 -0.31929150320E+03  0.16322418202E+04  0.84623510175E+02 0.  0.
    5000000    2    1    2    0    0  0.14799404517E+04 -0.60405415014E+03  0.92857812043E+03  0.19434862212E+04  0.59981347858E+03 0.  0.
         23    2    4    4    0    0  0.53181644875E+03 -0.78142936523E+02  0.53701281885E+02  0.54734797403E+03  0.88152840600E+02 0.  0.
         23    2    4    4    0    0  0.94812400298E+03 -0.52591121362E+03  0.87487683855E+03  0.13961382471E+04  0.90943899305E+02 0.  0.
          2    1    3    3  502    0 -0.10004765608E+04  0.44202294236E+03 -0.19373348331E+03  0.11107971430E+04  0.00000000000E+00 0. -1.
         -2    1    3    3    0  502 -0.47946389093E+03  0.16203120778E+03 -0.12555801989E+03  0.52144467718E+03  0.00000000000E+00 0.  1.
         11    1    5    5    0    0  0.22767897441E+03 -0.22310080633E+02 -0.19445396327E+02  0.22959437826E+03  0.00000000000E+00 0.  1.
        -11    1    5    5    0    0  0.30413747433E+03 -0.55832855890E+02  0.73146678213E+02  0.31775359577E+03  0.00000000000E+00 0. -1.
          5    1    6    6  503    0  0.39699776413E+03 -0.22779100951E+03  0.42646203436E+03  0.62561004267E+03  0.47000000000E+01 0. -1.
         -5    1    6    6    0  503  0.55112623885E+03 -0.29812020410E+03  0.44841480418E+03  0.77052820445E+03  0.47000000000E+01 0.  1.
<mgrwt>
<rscale>  0 0.16111018E+04</rscale>
<asrwt>0</asrwt>
<pdfrwt beam="1">  1        1 0.32192421E+00 0.16111018E+04</pdfrwt>
<pdfrwt beam="2">  1       -1 0.22818780E+00 0.16111018E+04</pdfrwt>
<totfact> 0.23322040E-01</totfact>
</mgrwt>
</event>
<event>
12    1  0.3127365E-008  0.7061455E+03  0.7818608E-02  0.9706780E-01
          2   -1    0    0  501    0  0.00000000000E+00  0.00000000000E+00  0.13406064913E+04  0.13406064913E+04  0.00000000000E+00 0. -1.
         -2   -1    0    0    0  501 -0.00000000000E+00 -0.00000000000E+00 -0.50183471502E+03  0.50183471502E+03  0.00000000000E+00 0.  1.
         23    2    1    2    0    0 -0.61057369613E+03  0.19702106159E+02 -0.35553804096E+02  0.61862879938E+03  0.90824594932E+02 0.  0.
    5000000    2    1    2    0    0  0.61057369613E+03 -0.19702106159E+02  0.87432558040E+03  0.12238124070E+04  0.60006930890E+03 0.  0.
         23    2    4    4    0    0 -0.70406565429E+02  0.63986162076E+02  0.28368853051E+03  0.31337509611E+03  0.93131386364E+02 0.  0.
         23    2    4    4    0    0  0.68098026156E+03 -0.83688268235E+02  0.59063704989E+03  0.91043731084E+03  0.96468281831E+02 0.  0.
          4    1    3    3  502    0 -0.24057318995E+02  0.15951765018E+02  0.94589427121E+01  0.30375730471E+02  0.00000000000E+00 0. -1.
         -4    1    3    3    0  502 -0.58651637714E+03  0.37503411410E+01 -0.45012746808E+02  0.58825306891E+03  0.00000000000E+00 0.  1.
         13    1    5    5    0    0  0.56578088900E+01 -0.13051002130E+01  0.12846799290E+03  0.12859914187E+03  0.00000000000E+00 0.  1.
        -13    1    5    5    0    0 -0.76064374319E+02  0.65291262289E+02  0.15522053761E+03  0.18477595425E+03  0.00000000000E+00 0. -1.
          5    1    6    6  503    0  0.27775677889E+03  0.55016372897E+01  0.20394338082E+03  0.34466518364E+03  0.47000000000E+01 0. -1.
         -5    1    6    6    0  503  0.40322348267E+03 -0.89189905525E+02  0.38669366906E+03  0.56577212720E+03  0.47000000000E+01 0.  1.
<mgrwt>
<rscale>  0 0.70614555E+03</rscale>
<asrwt>0</asrwt>
<pdfrwt beam="1">  1        2 0.20624715E+00 0.70614555E+03</pdfrwt>
<pdfrwt beam="2">  1       -2 0.77205342E-01 0.70614555E+03</pdfrwt>
<totfact> 0.24054507E+01</totfact>
</mgrwt>
</event>
<event>
12    1  0.3127365E-008  0.7828095E+03  0.7818608E-02  0.9585238E-01
         -2   -1    0    0    0  501 -0.00000000000E+00  0.00000000000E+00  0.72916929323E+03  0.72916929323E+03  0.00000000000E+00 0.  1.
          2   -1    0    0  501    0  0.00000000000E+00 -0.00000000000E+00 -0.11730833086E+04  0.11730833086E+04  0.00000000000E+00 0. -1.
         23    2    1    2    0    0 -0.48785318835E+03  0.46330117907E+03  0.29180050981E+03  0.73876981052E+03  0.89356474261E+02 0.  0.
    5000000    2    1    2    0    0  0.48785318835E+03 -0.46330117907E+03 -0.73571452522E+03  0.11634827913E+04  0.59980632474E+03 0.  0.
         23    2    4    4    0    0 -0.52693965896E+02 -0.31261699639E+03 -0.31628399332E+03  0.45717005539E+03  0.91993775020E+02 0.  0.
         23    2    4    4    0    0  0.54054715425E+03 -0.15068418268E+03 -0.41943053190E+03  0.70631273594E+03  0.89770602049E+02 0.  0.
          1    1    3    3  502    0 -0.38458529126E+03  0.35299253378E+03  0.26453896660E+03  0.58522682783E+03  0.00000000000E+00 0. -1.
         -1    1    3    3    0  502 -0.10326789710E+03  0.11030864529E+03  0.27261543215E+02  0.15354298270E+03  0.00000000000E+00 0.  1.
         13    1    5    5    0    0 -0.75397254939E+02 -0.21862528320E+03 -0.19841385993E+03  0.30471268486E+03  0.00000000000E+00 0. -1.
        -13    1    5    5    0    0  0.22703289044E+02 -0.93991713196E+02 -0.11787013340E+03  0.15245737053E+03  0.00000000000E+00 0.  1.
          5    1    6    6  503    0  0.13550543429E+03 -0.10895407631E+02 -0.67734409097E+02  0.15195549613E+03  0.47000000000E+01 0. -1.
         -5    1    6    6    0  503  0.40504171996E+03 -0.13978877505E+03 -0.35169612280E+03  0.55435723981E+03  0.47000000000E+01 0.  1.
<mgrwt>
<rscale>  0 0.78280954E+03</rscale>
<asrwt>0</asrwt>
<pdfrwt beam="1">  1        2 0.18047436E+00 0.78280954E+03</pdfrwt>
<pdfrwt beam="2">  1       -2 0.11217989E+00 0.78280954E+03</pdfrwt>
<totfact> 0.12503707E+01</totfact>
</mgrwt>
</event>
<event>
12    1  0.3127365E-008  0.8474207E+03  0.7818608E-02  0.9493805E-01
          1   -1    0    0  501    0  0.00000000000E+00  0.00000000000E+00  0.43462101327E+03  0.43462101327E+03  0.00000000000E+00 0. -1.
         -1   -1    0    0    0  501 -0.00000000000E+00 -0.00000000000E+00 -0.17874706065E+04  0.17874706065E+04  0.00000000000E+00 0.  1.
         23    2    1    2    0    0 -0.34658340878E+03  0.68748677141E+03 -0.47733572063E+03  0.91075091166E+03  0.94126047381E+02 0.  0.
    5000000    2    1    2    0    0  0.34658340878E+03 -0.68748677141E+03 -0.87551387262E+03  0.13113407081E+04  0.60027642925E+03 0.  0.
         23    2    4    4    0    0  0.22912236658E+03 -0.21054205006E+02 -0.42289927316E+03  0.49192117446E+03  0.10100647618E+03 0.  0.
         23    2    4    4    0    0  0.11746104220E+03 -0.66643256641E+03 -0.45261459946E+03  0.81941953366E+03  0.93053395929E+02 0.  0.
          1    1    3    3  502    0 -0.19722197379E+03  0.33595366879E+03 -0.19409121346E+03  0.43523875478E+03  0.00000000000E+00 0. -1.
         -1    1    3    3    0  502 -0.14936143499E+03  0.35153310262E+03 -0.28324450717E+03  0.47551215689E+03  0.00000000000E+00 0.  1.
         11    1    5    5    0    0  0.13737802819E+03 -0.53056171481E+02 -0.30834937340E+03  0.34171189040E+03  0.00000000000E+00 0.  1.
        -11    1    5    5    0    0  0.91744338393E+02  0.32001966474E+02 -0.11454989975E+03  0.15020928406E+03  0.00000000000E+00 0. -1.
          5    1    6    6  503    0  0.70542583523E+02 -0.52662828306E+03 -0.31526132267E+03  0.61783929641E+03  0.47000000000E+01 0. -1.
         -5    1    6    6    0  503  0.46918458675E+02 -0.13980428334E+03 -0.13735327679E+03  0.20158023725E+03  0.47000000000E+01 0.  1.
<mgrwt>
<rscale>  0 0.84742074E+03</rscale>
<asrwt>0</asrwt>
<pdfrwt beam="1">  1        1 0.66864773E-01 0.84742074E+03</pdfrwt>
<pdfrwt beam="2">  1       -1 0.27499547E+00 0.84742074E+03</pdfrwt>
<totfact> 0.26546378E+00</totfact>
</mgrwt>
</event>
<event>
12    1  0.3127365E-008  0.2004735E+04  0.7818608E-02  0.8604410E-01
         -1   -1    0    0    0  501 -0.00000000000E+00  0.00000000000E+00  0.26724844616E+04  0.26724844616E+04  0.00000000000E+00 0. -1.
          1   -1    0    0  501    0  0.00000000000E+00 -0.00000000000E+00 -0.21154822735E+04  0.21154822735E+04  0.00000000000E+00 0.  1.
         23    2    1    2    0    0 -0.10415331823E+04  0.17088110591E+04  0.14931832186E+04  0.24985879396E+04  0.92298224690E+02 0.  0.
    5000000    2    1    2    0    0  0.10415331823E+04 -0.17088110591E+04 -0.93618103053E+03  0.22893787955E+04  0.59999478485E+03 0.  0.
         23    2    4    4    0    0  0.69668806799E+03 -0.12351789474E+04 -0.36617516400E+03  0.14669878174E+04  0.83232863428E+02 0.  0.
         23    2    4    4    0    0  0.34484511433E+03 -0.47363211169E+03 -0.57000586653E+03  0.82239097809E+03  0.90414063385E+02 0.  0.
          3    1    3    3  502    0 -0.62939165445E+03  0.95038854963E+03  0.82970377320E+03  0.14098867335E+04  0.00000000000E+00 0. -1.
         -3    1    3    3    0  502 -0.41214152787E+03  0.75842250942E+03  0.66347944541E+03  0.10887012062E+04  0.00000000000E+00 0.  1.
         13    1    5    5    0    0  0.17424865038E+03 -0.37964403978E+03 -0.12343541461E+03  0.43557834046E+03  0.00000000000E+00 0.  1.
        -13    1    5    5    0    0  0.52243941760E+03 -0.85553490759E+03 -0.24273974939E+03  0.10314094769E+04  0.00000000000E+00 0. -1.
          5    1    6    6  503    0  0.26468277737E+03 -0.37561039182E+03 -0.39271560461E+03  0.60447313851E+03  0.47000000000E+01 0. -1.
         -5    1    6    6    0  503  0.80162336966E+02 -0.98021719876E+02 -0.17729026192E+03  0.21791783958E+03  0.47000000000E+01 0.  1.
<mgrwt>
<rscale>  0 0.20047352E+04</rscale>
<asrwt>0</asrwt>
<pdfrwt beam="1">  1        1 0.32545881E+00 0.20047352E+04</pdfrwt>
<pdfrwt beam="2">  1       -1 0.41115146E+00 0.20047352E+04</pdfrwt>
<totfact> 0.13207093E-02</totfact>
</mgrwt>
</event>
<event>
12    1  0.3127365E-008  0.1080585E+04  0.7818608E-02  0.9224324E-01
          2   -1    0    0  501    0  0.00000000000E+00  0.00000000000E+00  0.13351389804E+04  0.13351389804E+04  0.00000000000E+00 0. -1.
         -2   -1    0    0    0  501 -0.00000000000E+00 -0.00000000000E+00 -0.93907695642E+03  0.93907695642E+03  0.00000000000E+00 0.  1.
         23    2    1    2    0    0  0.12190626490E+03 -0.99338481838E+03 -0.93431352603E+02  0.10088359360E+04  0.85708770838E+02 0.  0.
    5000000    2    1    2    0    0 -0.12190626490E+03  0.99338481838E+03  0.48949337662E+03  0.12653800008E+04  0.59992353336E+03 0.  0.
         23    2    4    4    0    0  0.21303578022E+03  0.25089076901E+03  0.91174327189E+02  0.35416587885E+03  0.93756547383E+02 0.  0.
         23    2    4    4    0    0 -0.33494204511E+03  0.74249404938E+03  0.39831904943E+03  0.91121412196E+03  0.90385419045E+02 0.  0.
          3    1    3    3  502    0  0.80697555057E+02 -0.36893970479E+03 -0.57367504808E+02  0.38199428238E+03  0.00000000000E+00 0. -1.
         -3    1    3    3    0  502  0.41208709840E+02 -0.62444511359E+03 -0.36063847795E+02  0.62684165366E+03  0.00000000000E+00 0.  1.
         11    1    5    5    0    0  0.17987253118E+03  0.24674077580E+03  0.96699435456E+02  0.32029036628E+03  0.00000000000E+00 0. -1.
        -11    1    5    5    0    0  0.33163249042E+02  0.41499932090E+01 -0.55251082667E+01  0.33875512572E+02  0.00000000000E+00 0.  1.
          5    1    6    6  503    0 -0.95268067271E+02  0.13028321759E+03  0.64768548865E+02  0.17397349323E+03  0.47000000000E+01 0. -1.
         -5    1    6    6    0  503 -0.23967397784E+03  0.61221083179E+03  0.33355050056E+03  0.73724062872E+03  0.47000000000E+01 0.  1.
<mgrwt>
<rscale>  0 0.10805850E+04</rscale>
<asrwt>0</asrwt>
<pdfrwt beam="1">  1        2 0.20540600E+00 0.10805850E+04</pdfrwt>
<pdfrwt beam="2">  1       -2 0.14447338E+00 0.10805850E+04</pdfrwt>
<totfact> 0.51327934E+00</totfact>
</mgrwt>
</event>
<event>
12    1  0.3127365E-008  0.1073279E+04  0.7818608E-02  0.9231634E-01
         -1   -1    0    0    0  501 -0.00000000000E+00  0.00000000000E+00  0.50875807975E+03  0.50875807975E+03  0.00000000000E+00 0.  1.
          1   -1    0    0  501    0  0.00000000000E+00 -0.00000000000E+00 -0.24567628256E+04  0.24567628256E+04  0.00000000000E+00 0. -1.
         23    2    1    2    0    0  0.14495557754E+03 -0.10072246917E+04 -0.65536852383E+03  0.12144167993E+04  0.98927049933E+02 0.  0.
    5000000    2    1    2    0    0 -0.14495557754E+03  0.10072246917E+04 -0.12926362220E+04  0.17511041061E+04  0.59995290549E+03 0.  0.
         23    2    4    4    0    0 -0.53690125364E+02 -0.33950009528E+02 -0.42209393412E+02  0.11920770387E+03  0.91616652755E+02 0.  0.
         23    2    4    4    0    0 -0.91265452178E+02  0.10411747013E+04 -0.12504268286E+04  0.16318964022E+04  0.84524981962E+02 0.  0.
          4    1    3    3  502    0  0.15750646705E+03 -0.83831845614E+03 -0.55081002902E+03  0.10153707742E+04  0.00000000000E+00 0. -1.
         -4    1    3    3    0  502 -0.12550889504E+02 -0.16890623558E+03 -0.10455849481E+03  0.19904602504E+03  0.00000000000E+00 0.  1.
         13    1    5    5    0    0 -0.20816132641E+01  0.85333374990E+01 -0.51032406357E+02  0.51782791169E+02  0.00000000000E+00 0.  1.
        -13    1    5    5    0    0 -0.51608512100E+02 -0.42483347027E+02  0.88230129448E+01  0.67424912705E+02  0.00000000000E+00 0. -1.
          5    1    6    6  503    0 -0.10715650321E+03  0.86679333037E+03 -0.10438973442E+04  0.13610866794E+04  0.47000000000E+01 0. -1.
         -5    1    6    6    0  503  0.15891051035E+02  0.17438137088E+03 -0.20652948439E+03  0.27080972275E+03  0.47000000000E+01 0.  1.
<mgrwt>
<rscale>  0 0.10732793E+04</rscale>
<asrwt>0</asrwt>
<pdfrwt beam="1">  1        1 0.37796350E+00 0.10732793E+04</pdfrwt>
<pdfrwt beam="2">  1       -1 0.78270476E-01 0.10732793E+04</pdfrwt>
<totfact> 0.23903185E+00</totfact>
</mgrwt>
</event>
<event>
12    1  0.3127365E-008  0.1918358E+04  0.7818608E-02  0.8645772E-01
         -2   -1    0    0    0  501 -0.00000000000E+00  0.00000000000E+00  0.10193555668E+04  0.10193555668E+04  0.00000000000E+00 0.  1.
          2   -1    0    0  501    0  0.00000000000E+00 -0.00000000000E+00 -0.38003159117E+04  0.38003159117E+04  0.00000000000E+00 0. -1.
         23    2    1    2    0    0  0.12422794857E+04  0.14248453880E+04 -0.93795928446E+03  0.21122358863E+04  0.91269489405E+02 0.  0.
    5000000    2    1    2    0    0 -0.12422794857E+04 -0.14248453880E+04 -0.18430010605E+04  0.27074355922E+04  0.60009322344E+03 0.  0.
         23    2    4    4    0    0 -0.12061781578E+04 -0.11801514615E+04 -0.14141959035E+04  0.22038068066E+04  0.95870574125E+02 0.  0.
         23    2    4    4    0    0 -0.36101327876E+02 -0.24469392646E+03 -0.42880515695E+03  0.50362878555E+03  0.92680459054E+02 0.  0.
          1    1    3    3  502    0  0.11257065761E+04  0.12491031056E+04 -0.84195636240E+03  0.18805223689E+04  0.00000000000E+00 0. -1.
         -1    1    3    3    0  502  0.11657290961E+03  0.17574228239E+03 -0.96002922062E+02  0.23171351734E+03  0.00000000000E+00 0.  1.
         13    1    5    5    0    0 -0.67173162930E+03 -0.71604120487E+03 -0.84995839303E+03  0.12986021942E+04  0.00000000000E+00 0. -1.
        -13    1    5    5    0    0 -0.53444652854E+03 -0.46411025662E+03 -0.56423751049E+03  0.90520461246E+03  0.00000000000E+00 0.  1.
          5    1    6    6  503    0  0.16789858684E+02 -0.65697175817E+02 -0.61819653573E+02  0.91879147977E+02  0.47000000000E+01 0. -1.
         -5    1    6    6    0  503 -0.52891186560E+02 -0.17899675065E+03 -0.36698550337E+03  0.41174963758E+03  0.47000000000E+01 0.  1.
<mgrwt>
<rscale>  0 0.19183584E+04</rscale>
<asrwt>0</asrwt>
<pdfrwt beam="1">  1        2 0.58466397E+00 0.19183584E+04</pdfrwt>
<pdfrwt beam="2">  1       -2 0.15682394E+00 0.19183584E+04</pdfrwt>
<totfact> 0.11883869E-01</totfact>
</mgrwt>
</event>
<event>
12    1  0.3127365E-008  0.9818065E+03  0.7818608E-02  0.9328727E-01
         -2   -1    0    0    0  501 -0.00000000000E+00  0.00000000000E+00  0.35234813535E+03  0.35234813535E+03  0.00000000000E+00 0. -1.
          2   -1    0    0  501    0  0.00000000000E+00 -0.00000000000E+00 -0.38419304495E+04  0.38419304495E+04  0.00000000000E+00 0.  1.
         23    2    1    2    0    0  0.90820622637E+03  0.15010721960E+03 -0.59941275821E+03  0.11022901876E+04  0.91527459764E+02 0.  0.
    5000000    2    1    2    0    0 -0.90820622637E+03 -0.15010721960E+03 -0.28901695560E+04  0.30919883973E+04  0.59995121455E+03 0.  0.
         23    2    4    4    0    0 -0.90133894366E+03 -0.19861549125E+02 -0.26777988627E+04  0.28270539114E+04  0.93918563921E+02 0.  0.
         23    2    4    4    0    0 -0.68672827146E+01 -0.13024567048E+03 -0.21237069330E+03  0.26493448589E+03  0.89877005916E+02 0.  0.
          1    1    3    3  502    0  0.49379999246E+03  0.11030461286E+03 -0.28614597421E+03  0.58127881324E+03  0.00000000000E+00 0. -1.
         -1    1    3    3    0  502  0.41440623391E+03  0.39802606748E+02 -0.31326678400E+03  0.52101137432E+03  0.00000000000E+00 0.  1.
         13    1    5    5    0    0 -0.39067093790E+03  0.34367774048E+02 -0.12155030258E+04  0.12772049684E+04  0.00000000000E+00 0. -1.
        -13    1    5    5    0    0 -0.51066800576E+03 -0.54229323173E+02 -0.14622958368E+04  0.15498489430E+04  0.00000000000E+00 0.  1.
          5    1    6    6  503    0  0.14788003474E+02 -0.58321626486E+02 -0.16577207746E+03  0.17641589733E+03  0.47000000000E+01 0. -1.
         -5    1    6    6    0  503 -0.21655286189E+02 -0.71924043993E+02 -0.46598615839E+02  0.88518588569E+02  0.47000000000E+01 0.  1.
<mgrwt>
<rscale>  0 0.98180653E+03</rscale>
<asrwt>0</asrwt>
<pdfrwt beam="1">  1        2 0.59106629E+00 0.98180653E+03</pdfrwt>
<pdfrwt beam="2">  1       -2 0.54207400E-01 0.98180653E+03</pdfrwt>
<totfact> 0.15375955E+00</totfact>
</mgrwt>
</event>
<event>
12    1  0.3127365E-008  0.8780326E+03  0.7818608E-02  0.9453466E-01
         -2   -1    0    0    0  501 -0.00000000000E+00  0.00000000000E+00  0.67168992967E+03  0.67168992967E+03  0.00000000000E+00 0.  1.
          2   -1    0    0  501    0  0.00000000000E+00 -0.00000000000E+00 -0.16802514452E+04  0.16802514452E+04  0.00000000000E+00 0. -1.
         23    2    1    2    0    0  0.48347715421E+03 -0.61421557978E+03  0.18071357178E+03  0.80746554838E+03  0.91281321789E+02 0.  0.
    5000000    2    1    2    0    0 -0.48347715421E+03  0.61421557978E+03 -0.11892750873E+04  0.15444758265E+04  0.60001617329E+03 0.  0.
         23    2    4    4    0    0 -0.50509063177E+03  0.18248144535E+03 -0.65877081912E+03  0.85457954255E+03  0.88944804354E+02 0.  0.
         23    2    4    4    0    0  0.21613477553E+02  0.43173413443E+03 -0.53050426819E+03  0.68989628394E+03  0.87524846645E+02 0.  0.
          2    1    3    3  502    0  0.43297182910E+03 -0.50399696672E+03  0.16944789806E+03  0.68570411798E+03  0.00000000000E+00 0.  1.
         -2    1    3    3    0  502  0.50505325117E+02 -0.11021861306E+03  0.11265673726E+02  0.12176143041E+03  0.00000000000E+00 0. -1.
         11    1    5    5    0    0 -0.24156364017E+03  0.71357798486E+02 -0.24339153173E+03  0.35026328008E+03  0.00000000000E+00 0.  1.
        -11    1    5    5    0    0 -0.26352699159E+03  0.11112364687E+03 -0.41537928739E+03  0.50431626246E+03  0.00000000000E+00 0. -1.
          5    1    6    6  503    0  0.13866040024E+01  0.10463514267E+03 -0.19200735112E+03  0.21872208081E+03  0.47000000000E+01 0. -1.
         -5    1    6    6    0  503  0.20226873550E+02  0.32709899176E+03 -0.33849691708E+03  0.47117420313E+03  0.47000000000E+01 0.  1.
<mgrwt>
<rscale>  0 0.87803257E+03</rscale>
<asrwt>0</asrwt>
<pdfrwt beam="1">  1        2 0.25850022E+00 0.87803257E+03</pdfrwt>
<pdfrwt beam="2">  1       -2 0.10333691E+00 0.87803257E+03</pdfrwt>
<totfact> 0.77656091E+00</totfact>
</mgrwt>
</event>
<event>
12    1  0.3127365E-008  0.6479106E+03  0.7818608E-02  0.9810708E-01
         -1   -1    0    0    0  501 -0.00000000000E+00  0.00000000000E+00  0.13619302725E+04  0.13619302725E+04  0.00000000000E+00 0.  1.
          1   -1    0    0  501    0  0.00000000000E+00 -0.00000000000E+00 -0.52203219674E+03  0.52203219674E+03  0.00000000000E+00 0. -1.
         23    2    1    2    0    0  0.59828892419E+03 -0.22725586681E+03  0.76816378916E+03  0.10037785846E+04  0.88887423373E+02 0.  0.
    5000000    2    1    2    0    0 -0.59828892419E+03  0.22725586681E+03  0.71734286556E+02  0.88018388463E+03  0.59998583074E+03 0.  0.
         23    2    4    4    0    0 -0.33794369412E+03  0.12952136802E+03  0.32442638092E+03  0.49329149087E+03  0.84275104024E+02 0.  0.
         23    2    4    4    0    0 -0.26034523007E+03  0.97734498792E+02 -0.25269209437E+03  0.38689239376E+03  0.92199559216E+02 0.  0.
          1    1    3    3  502    0  0.47314108589E+03 -0.17000952681E+03  0.54402187057E+03  0.74076009748E+03  0.00000000000E+00 0. -1.
         -1    1    3    3    0  502  0.12514783830E+03 -0.57246340003E+02  0.22414191859E+03  0.26301848708E+03  0.00000000000E+00 0.  1.
         13    1    5    5    0    0 -0.74624938116E+02  0.62077916548E+02  0.11271722866E+03  0.14875389994E+03  0.00000000000E+00 0. -1.
        -13    1    5    5    0    0 -0.26331875601E+03  0.67443451475E+02  0.21170915226E+03  0.34453759093E+03  0.00000000000E+00 0.  1.
          5    1    6    6  503    0 -0.12120497950E+03  0.82081133256E+02 -0.16928429153E+03  0.22384642246E+03  0.47000000000E+01 0. -1.
         -5    1    6    6    0  503 -0.13914025057E+03  0.15653365536E+02 -0.83407802838E+02  0.16304597129E+03  0.47000000000E+01 0.  1.
<mgrwt>
<rscale>  0 0.64791065E+03</rscale>
<asrwt>0</asrwt>
<pdfrwt beam="1">  1        1 0.80312646E-01 0.64791065E+03</pdfrwt>
<pdfrwt beam="2">  1       -1 0.20952773E+00 0.64791065E+03</pdfrwt>
<totfact> 0.56875320E+00</totfact>
</mgrwt>
</event>
<event>
12    1  0.3127365E-008  0.1775844E+04  0.7818608E-02  0.8719252E-01
          2   -1    0    0  501    0  0.00000000000E+00  0.00000000000E+00  0.36554589989E+04  0.36554589989E+04  0.00000000000E+00 0. -1.
         -2   -1    0    0    0  501 -0.00000000000E+00 -0.00000000000E+00 -0.94737376591E+03  0.94737376591E+03  0.00000000000E+00 0.  1.
         23    2    1    2    0    0  0.16685075784E+04 -0.51131175092E+03  0.71927873677E+03  0.18897581970E+04  0.92015739409E+02 0.  0.
    5000000    2    1    2    0    0 -0.16685075784E+04  0.51131175092E+03  0.19888064962E+04  0.27130745678E+04  0.60005423537E+03 0.  0.
         23    2    4    4    0    0 -0.12597751584E+04  0.56791417010E+03  0.12666038730E+04  0.18762107854E+04  0.79508402146E+02 0.  0.
         23    2    4    4    0    0 -0.40873241997E+03 -0.56602419183E+02  0.72220262324E+03  0.83686378238E+03  0.92186421160E+02 0.  0.
          1    1    3    3  502    0  0.11907827248E+04 -0.32566927146E+03  0.48804784766E+03  0.13274843402E+04  0.00000000000E+00 0. -1.
         -1    1    3    3    0  502  0.47772485359E+03 -0.18564247946E+03  0.23123088912E+03  0.56227385676E+03  0.00000000000E+00 0.  1.
         11    1    5    5    0    0 -0.23815043668E+03  0.11148499945E+03  0.20025197022E+03  0.33052289961E+03  0.00000000000E+00 0. -1.
        -11    1    5    5    0    0 -0.10216247217E+04  0.45642917066E+03  0.10663519028E+04  0.15456878858E+04  0.00000000000E+00 0.  1.
          5    1    6    6  503    0 -0.28007005521E+03 -0.81259968443E+02  0.49174983519E+03  0.57173631047E+03  0.47000000000E+01 0. -1.
         -5    1    6    6    0  503 -0.12866236476E+03  0.24657549260E+02  0.23045278805E+03  0.26512747191E+03  0.47000000000E+01 0.  1.
<mgrwt>
<rscale>  0 0.17758443E+04</rscale>
<asrwt>0</asrwt>
<pdfrwt beam="1">  1        2 0.56237830E+00 0.17758443E+04</pdfrwt>
<pdfrwt beam="2">  1       -2 0.14574981E+00 0.17758443E+04</pdfrwt>
<totfact> 0.18823706E-01</totfact>
</mgrwt>
</event>
<event>
12    1  0.3127365E-008  0.1645277E+04  0.7818608E-02  0.8793206E-01
          2   -1    0    0  501    0  0.00000000000E+00  0.00000000000E+00  0.14111843342E+04  0.14111843342E+04  0.00000000000E+00 0. -1.
         -2   -1    0    0    0  501 -0.00000000000E+00 -0.00000000000E+00 -0.20366426361E+04  0.20366426361E+04  0.00000000000E+00 0.  1.
         23    2    1    2    0    0 -0.15777392329E+04 -0.23881397006E+03 -0.69216383565E+03  0.17417554219E+04  0.91257739032E+02 0.  0.
    5000000    2    1    2    0    0  0.15777392329E+04  0.23881397006E+03  0.66705533719E+02  0.17060715484E+04  0.59994774822E+03 0.  0.
         23    2    4    4    0    0  0.10308184792E+04  0.42290480471E+03  0.86221310942E+02  0.11208483990E+04  0.86207935206E+02 0.  0.
         23    2    4    4    0    0  0.54692075373E+03 -0.18409083466E+03 -0.19515777223E+02  0.58522314943E+03  0.95359964372E+02 0.  0.
          1    1    3    3  502    0 -0.10849066109E+03 -0.25286118790E+02 -0.25581071371E+02  0.11429786770E+03  0.00000000000E+00 0. -1.
         -1    1    3    3    0  502 -0.14692485718E+04 -0.21352785127E+03 -0.66658276427E+03  0.16274575542E+04  0.00000000000E+00 0.  1.
         13    1    5    5    0    0  0.12345799057E+03  0.46264076856E+02 -0.17347344989E+02  0.13297808323E+03  0.00000000000E+00 0. -1.
        -13    1    5    5    0    0  0.90736048863E+03  0.37664072786E+03  0.10356865593E+03  0.98787031573E+03  0.00000000000E+00 0.  1.
          5    1    6    6  503    0  0.37577729065E+03 -0.97026413160E+02  0.21853649056E+02  0.38874460639E+03  0.47000000000E+01 0. -1.
         -5    1    6    6    0  503  0.17114346307E+03 -0.87064421496E+02 -0.41369426280E+02  0.19647854304E+03  0.47000000000E+01 0.  1.
<mgrwt>
<rscale>  0 0.16452769E+04</rscale>
<asrwt>0</asrwt>
<pdfrwt beam="1">  1        2 0.21710528E+00 0.16452769E+04</pdfrwt>
<pdfrwt beam="2">  1       -2 0.31332964E+00 0.16452769E+04</pdfrwt>
<totfact> 0.34842827E-01</totfact>
</mgrwt>
</event>
<event>
12    1  0.3127365E-008  0.5667892E+03  0.7818608E-02  0.9976809E-01
          1   -1    0    0  501    0  0.00000000000E+00  0.00000000000E+00  0.24958447002E+03  0.24958447002E+03  0.00000000000E+00 0. -1.
         -1   -1    0    0    0  501 -0.00000000000E+00 -0.00000000000E+00 -0.18566525284E+04  0.18566525284E+04  0.00000000000E+00 0.  1.
         23    2    1    2    0    0 -0.52097490130E+03 -0.11928079184E+03 -0.49335825935E+03  0.73280823172E+03  0.89234395373E+02 0.  0.
    5000000    2    1    2    0    0  0.52097490130E+03  0.11928079184E+03 -0.11137097990E+04  0.13734287667E+04  0.60026186421E+03 0.  0.
         23    2    4    4    0    0  0.49816309484E+03  0.94867385815E+02 -0.11588513693E+04  0.12682032983E+04  0.90756925841E+02 0.  0.
         23    2    4    4    0    0  0.22811806464E+02  0.24413406022E+02  0.45141570342E+02  0.10522546839E+03  0.88984520656E+02 0.  0.
          2    1    3    3  502    0 -0.58033535071E+02  0.14675471452E+02 -0.51107585553E+02  0.78709884743E+02  0.00000000000E+00 0. -1.
         -2    1    3    3    0  502 -0.46294136623E+03 -0.13395626329E+03 -0.44225067379E+03  0.65409834697E+03  0.00000000000E+00 0.  1.
         11    1    5    5    0    0  0.37604447441E+03  0.63774022648E+02 -0.76723512968E+03  0.85681171614E+03  0.00000000000E+00 0. -1.
        -11    1    5    5    0    0  0.12211862043E+03  0.31093363167E+02 -0.39161623965E+03  0.41139158213E+03  0.00000000000E+00 0.  1.
          5    1    6    6  503    0  0.41756072291E+02  0.41025343216E+02  0.68172694235E+01  0.59120330864E+02  0.47000000000E+01 0. -1.
         -5    1    6    6    0  503 -0.18944265827E+02 -0.16611937194E+02  0.38324300919E+02  0.46105137522E+02  0.47000000000E+01 0.  1.
<mgrwt>
<rscale>  0 0.56678917E+03</rscale>
<asrwt>0</asrwt>
<pdfrwt beam="1">  1        1 0.38397611E-01 0.56678917E+03</pdfrwt>
<pdfrwt beam="2">  1       -1 0.28563885E+00 0.56678917E+03</pdfrwt>
<totfact> 0.49018005E+00</totfact>
</mgrwt>
</event>
<event>
12    1  0.3127365E-008  0.1067602E+04  0.7818608E-02  0.9237358E-01
          1   -1    0    0  501    0  0.00000000000E+00  0.00000000000E+00  0.22277278025E+04  0.22277278025E+04  0.00000000000E+00 0. -1.
         -1   -1    0    0    0  501 -0.00000000000E+00 -0.00000000000E+00 -0.62168919372E+03  0.62168919372E+03  0.00000000000E+00 0.  1.
         23    2    1    2    0    0 -0.77222942650E+03  0.68958782756E+03  0.11969120474E+04  0.15849837993E+04  0.87781180714E+02 0.  0.
    5000000    2    1    2    0    0  0.77222942650E+03 -0.68958782756E+03  0.40912656144E+03  0.12644331970E+04  0.59961413202E+03 0.  0.
         23    2    4    4    0    0  0.33846310084E+03 -0.52482168403E+03 -0.12062442797E+02  0.63130942463E+03  0.91711593838E+02 0.  0.
         23    2    4    4    0    0  0.43376632566E+03 -0.16476614354E+03  0.42118900424E+03  0.63312377237E+03  0.90246476466E+02 0.  0.
          3    1    3    3  502    0 -0.19546242888E+03  0.20439445301E+03  0.27883228633E+03  0.39715248636E+03  0.00000000000E+00 0. -1.
         -3    1    3    3    0  502 -0.57676699762E+03  0.48519337455E+03  0.91807976104E+03  0.11878313129E+04  0.00000000000E+00 0.  1.
         11    1    5    5    0    0  0.18389862968E+03 -0.34077861729E+03  0.25425376357E+02  0.38806600181E+03  0.00000000000E+00 0.  1.
        -11    1    5    5    0    0  0.15456447116E+03 -0.18404306674E+03 -0.37487819154E+02  0.24324342282E+03  0.00000000000E+00 0. -1.
          5    1    6    6  503    0  0.11291148619E+03 -0.61812207241E+01  0.12407435217E+03  0.16793970963E+03  0.47000000000E+01 0. -1.
         -5    1    6    6    0  503  0.32085483947E+03 -0.15858492281E+03  0.29711465207E+03  0.46518406274E+03  0.47000000000E+01 0.  1.
<mgrwt>
<rscale>  0 0.10676015E+04</rscale>
<asrwt>0</asrwt>
<pdfrwt beam="1">  1        1 0.34272735E+00 0.10676015E+04</pdfrwt>
<pdfrwt beam="2">  1       -1 0.95644492E-01 0.10676015E+04</pdfrwt>
<totfact> 0.22100301E+00</totfact>
</mgrwt>
</event>
<event>
12    1  0.3127365E-008  0.1454875E+04  0.7818608E-02  0.8915027E-01
          2   -1    0    0  501    0  0.00000000000E+00  0.00000000000E+00  0.34642469643E+04  0.34642469643E+04  0.00000000000E+00 0. -1.
         -2   -1    0    0    0  501 -0.00000000000E+00 -0.00000000000E+00 -0.86677748148E+03  0.86677748148E+03  0.00000000000E+00 0.  1.
         23    2    1    2    0    0 -0.11469821775E+04 -0.89146880681E+03  0.20656360653E+03  0.14697798214E+04  0.85436822807E+02 0.  0.
    5000000    2    1    2    0    0  0.11469821775E+04  0.89146880681E+03  0.23909058763E+04  0.28612446244E+04  0.60000428526E+03 0.  0.
         23    2    4    4    0    0  0.52734751598E+03  0.40462843684E+03  0.16269725915E+04  0.17595019022E+04  0.83591601651E+02 0.  0.
         23    2    4    4    0    0  0.61963466155E+03  0.48684036997E+03  0.76393328486E+03  0.11017427223E+04  0.96344707757E+02 0.  0.
          3    1    3    3  502    0 -0.45878674258E+03 -0.35581968260E+03  0.40361390050E+02  0.58199825042E+03  0.00000000000E+00 0. -1.
         -3    1    3    3    0  502 -0.68819543495E+03 -0.53564912421E+03  0.16620221648E+03  0.88778157095E+03  0.00000000000E+00 0.  1.
         13    1    5    5    0    0  0.30318356057E+03  0.27696679043E+03  0.10521998997E+04  0.11294934720E+04  0.00000000000E+00 0.  1.
        -13    1    5    5    0    0  0.22416395541E+03  0.12766164641E+03  0.57477269174E+03  0.63000843014E+03  0.00000000000E+00 0. -1.
          5    1    6    6  503    0  0.43999088590E+03  0.33146549193E+03  0.59075821488E+03  0.80776154307E+03  0.47000000000E+01 0. -1.
         -5    1    6    6    0  503  0.17964377565E+03  0.15537487805E+03  0.17317506998E+03  0.29398117919E+03  0.47000000000E+01 0.  1.
<mgrwt>
<rscale>  0 0.14548754E+04</rscale>
<asrwt>0</asrwt>
<pdfrwt beam="1">  1        2 0.53296106E+00 0.14548754E+04</pdfrwt>
<pdfrwt beam="2">  1       -2 0.13335038E+00 0.14548754E+04</pdfrwt>
<totfact> 0.33672581E-01</totfact>
</mgrwt>
</event>
<event>
12    1  0.3127365E-008  0.7915749E+03  0.7818608E-02  0.9572293E-01
         -2   -1    0    0    0  501 -0.00000000000E+00  0.00000000000E+00  0.26785075515E+03  0.26785075515E+03  0.00000000000E+00 0.  1.
          2   -1    0    0  501    0  0.00000000000E+00 -0.00000000000E+00 -0.29394814513E+04  0.29394814513E+04  0.00000000000E+00 0. -1.
         23    2    1    2    0    0  0.45376018423E+03  0.56458200265E+03 -0.64942742724E+03  0.97707194744E+03  0.90898100768E+02 0.  0.
    5000000    2    1    2    0    0 -0.45376018423E+03 -0.56458200265E+03 -0.20222032690E+04  0.22302602590E+04  0.60008634349E+03 0.  0.
         23    2    4    4    0    0 -0.26544263513E+03 -0.20589184802E+02 -0.11296679986E+04  0.11641682780E+04  0.90853096883E+02 0.  0.
         23    2    4    4    0    0 -0.18831754909E+03 -0.54399281785E+03 -0.89253527033E+03  0.10660919811E+04  0.92418711340E+02 0.  0.
          2    1    3    3  502    0  0.57496065613E+02  0.31723526260E+02 -0.66559978683E+02  0.93500857973E+02  0.00000000000E+00 0.  1.
         -2    1    3    3    0  502  0.39626411861E+03  0.53285847639E+03 -0.58286744856E+03  0.88357108947E+03  0.00000000000E+00 0. -1.
         11    1    5    5    0    0 -0.18306123570E+03 -0.42062470799E+02 -0.63386776338E+03  0.66111194886E+03  0.00000000000E+00 0. -1.
        -11    1    5    5    0    0 -0.82381399432E+02  0.21473285997E+02 -0.49580023524E+03  0.50305632910E+03  0.00000000000E+00 0.  1.
          5    1    6    6  503    0 -0.69774040449E+02 -0.10834805982E+03 -0.24212583764E+03  0.27432595583E+03  0.47000000000E+01 0. -1.
         -5    1    6    6    0  503 -0.11854350864E+03 -0.43564475802E+03 -0.65040943269E+03  0.79176602527E+03  0.47000000000E+01 0.  1.
<mgrwt>
<rscale>  0 0.79157487E+03</rscale>
<asrwt>0</asrwt>
<pdfrwt beam="1">  1        2 0.45222787E+00 0.79157487E+03</pdfrwt>
<pdfrwt beam="2">  1       -2 0.41207813E-01 0.79157487E+03</pdfrwt>
<totfact> 0.11159410E+01</totfact>
</mgrwt>
</event>
<event>
12    1  0.3127365E-008  0.4212326E+03  0.7818608E-02  0.1036666E+00
          1   -1    0    0  501    0  0.00000000000E+00  0.00000000000E+00  0.12807897163E+04  0.12807897163E+04  0.00000000000E+00 0. -1.
         -1   -1    0    0    0  501 -0.00000000000E+00 -0.00000000000E+00 -0.15028185703E+03  0.15028185703E+03  0.00000000000E+00 0.  1.
         23    2    1    2    0    0  0.21479613480E+03 -0.12481696214E+02  0.38317578218E+03  0.44887550066E+03  0.91500616262E+02 0.  0.
    5000000    2    1    2    0    0 -0.21479613480E+03  0.12481696214E+02  0.74733207707E+03  0.98219607266E+03  0.59992559494E+03 0.  0.
         23    2    4    4    0    0 -0.14653825938E+03 -0.27669449028E+03  0.37124790301E+03  0.49431636099E+03  0.92143132353E+02 0.  0.
         23    2    4    4    0    0 -0.68257875422E+02  0.28917618649E+03  0.37608417407E+03  0.48787971168E+03  0.91133433448E+02 0.  0.
          2    1    3    3  502    0  0.43992175091E+02  0.28142248768E+02  0.13608394778E+03  0.14576055186E+03  0.00000000000E+00 0. -1.
         -2    1    3    3    0  502  0.17080395971E+03 -0.40623944982E+02  0.24709183440E+03  0.30311494880E+03  0.00000000000E+00 0.  1.
         13    1    5    5    0    0 -0.22568385919E+02 -0.80381546978E+02  0.47931745429E+02  0.96270334774E+02  0.00000000000E+00 0. -1.
        -13    1    5    5    0    0 -0.12396987346E+03 -0.19631294330E+03  0.32331615758E+03  0.39804602621E+03  0.00000000000E+00 0.  1.
          5    1    6    6  503    0 -0.41374312018E+02  0.10738475573E+03  0.83193836665E+02  0.14207963935E+03  0.47000000000E+01 0. -1.
         -5    1    6    6    0  503 -0.26883563404E+02  0.18179143076E+03  0.29289033740E+03  0.34580007233E+03  0.47000000000E+01 0.  1.
<mgrwt>
<rscale>  0 0.42123264E+03</rscale>
<asrwt>0</asrwt>
<pdfrwt beam="1">  1        1 0.19704456E+00 0.42123264E+03</pdfrwt>
<pdfrwt beam="2">  1       -1 0.23120287E-01 0.42123264E+03</pdfrwt>
<totfact> 0.15716677E+02</totfact>
</mgrwt>
</event>
<event>
12    1  0.3127365E-008  0.8330386E+03  0.7818608E-02  0.9513389E-01
          2   -1    0    0  501    0  0.00000000000E+00  0.00000000000E+00  0.23080274906E+04  0.23080274906E+04  0.00000000000E+00 0. -1.
         -2   -1    0    0    0  501 -0.00000000000E+00 -0.00000000000E+00 -0.34055226668E+03  0.34055226668E+03  0.00000000000E+00 0.  1.
         23    2    1    2    0    0  0.75116230179E+03  0.11521701124E+03  0.59955161692E+03  0.97263261860E+03  0.95038445369E+02 0.  0.
    5000000    2    1    2    0    0 -0.75116230179E+03 -0.11521701124E+03  0.13679236070E+04  0.16759471387E+04  0.60005337576E+03 0.  0.
         23    2    4    4    0    0 -0.32344592766E+03 -0.29364644409E+03  0.40048739039E+03  0.59932136417E+03  0.89165270408E+02 0.  0.
         23    2    4    4    0    0 -0.42771637413E+03  0.17842943285E+03  0.96743621663E+03  0.10766257745E+04  0.91716224938E+02 0.  0.
          2    1    3    3  502    0  0.56913623788E+03  0.60371943353E+02  0.48854577469E+03  0.75248774261E+03  0.00000000000E+00 0. -1.
         -2    1    3    3    0  502  0.18202606391E+03  0.54845067891E+02  0.11100584224E+03  0.22014487599E+03  0.00000000000E+00 0.  1.
         11    1    5    5    0    0 -0.10629954054E+03 -0.10478312296E+03  0.19561967712E+03  0.24606127947E+03  0.00000000000E+00 0. -1.
        -11    1    5    5    0    0 -0.21714638711E+03 -0.18886332113E+03  0.20486771327E+03  0.35326008470E+03  0.00000000000E+00 0.  1.
          5    1    6    6  503    0 -0.30331112873E+03  0.99798123599E+02  0.73633689537E+03  0.80260290292E+03  0.47000000000E+01 0. -1.
         -5    1    6    6    0  503 -0.12440524541E+03  0.78631309252E+02  0.23109932126E+03  0.27402287161E+03  0.47000000000E+01 0.  1.
<mgrwt>
<rscale>  0 0.83303859E+03</rscale>
<asrwt>0</asrwt>
<pdfrwt beam="1">  1        2 0.35508114E+00 0.83303859E+03</pdfrwt>
<pdfrwt beam="2">  1       -2 0.52392658E-01 0.83303859E+03</pdfrwt>
<totfact> 0.15880669E+01</totfact>
</mgrwt>
</event>
<event>
12    1  0.3127365E-008  0.1395033E+04  0.7818608E-02  0.8957422E-01
         -2   -1    0    0    0  501 -0.00000000000E+00  0.00000000000E+00  0.12011811373E+04  0.12011811373E+04  0.00000000000E+00 0.  1.
          2   -1    0    0  501    0  0.00000000000E+00 -0.00000000000E+00 -0.17470452133E+04  0.17470452133E+04  0.00000000000E+00 0. -1.
         23    2    1    2    0    0  0.96926971984E+03  0.98932760227E+03 -0.25695524781E+03  0.14114544813E+04  0.89021676522E+02 0.  0.
    5000000    2    1    2    0    0 -0.96926971984E+03 -0.98932760227E+03 -0.28890882823E+03  0.15367718694E+04  0.59995547588E+03 0.  0.
         23    2    4    4    0    0 -0.29941341211E+03 -0.43180925552E+03  0.15550886658E+03  0.55426367883E+03  0.83172072102E+02 0.  0.
         23    2    4    4    0    0 -0.66985630774E+03 -0.55751834675E+03 -0.44441769481E+03  0.98250819054E+03  0.91000423340E+02 0.  0.
          2    1    3    3  502    0  0.37112798144E+03  0.40030595603E+03 -0.59835474938E+02  0.54914581042E+03  0.00000000000E+00 0. -1.
         -2    1    3    3    0  502  0.59814173841E+03  0.58902164624E+03 -0.19711977287E+03  0.86230867085E+03  0.00000000000E+00 0.  1.
         11    1    5    5    0    0 -0.44739279092E+02 -0.12774101215E+03  0.37436096999E+02  0.14043087494E+03  0.00000000000E+00 0.  1.
        -11    1    5    5    0    0 -0.25467413301E+03 -0.30406824338E+03  0.11807276958E+03  0.41383280389E+03  0.00000000000E+00 0. -1.
          5    1    6    6  503    0 -0.22982982196E+03 -0.16388482713E+03 -0.10322441249E+03  0.30059499823E+03  0.47000000000E+01 0. -1.
         -5    1    6    6    0  503 -0.44002648577E+03 -0.39363351962E+03 -0.34119328232E+03  0.68191319231E+03  0.47000000000E+01 0.  1.
<mgrwt>
<rscale>  0 0.13950328E+04</rscale>
<asrwt>0</asrwt>
<pdfrwt beam="1">  1        2 0.26877619E+00 0.13950328E+04</pdfrwt>
<pdfrwt beam="2">  1       -2 0.18479710E+00 0.13950328E+04</pdfrwt>
<totfact> 0.14758464E+00</totfact>
</mgrwt>
</event>
<event>
12    1  0.3127365E-008  0.7963927E+03  0.7818608E-02  0.9565253E-01
          2   -1    0    0  501    0  0.00000000000E+00  0.00000000000E+00  0.42775546062E+03  0.42775546062E+03  0.00000000000E+00 0. -1.
         -2   -1    0    0    0  501 -0.00000000000E+00 -0.00000000000E+00 -0.15146461871E+04  0.15146461871E+04  0.00000000000E+00 0.  1.
         23    2    1    2    0    0  0.68805899953E+03 -0.37309478225E+02 -0.43816756599E+03  0.82181340766E+03  0.92570390194E+02 0.  0.
    5000000    2    1    2    0    0 -0.68805899953E+03  0.37309478225E+02 -0.64872316053E+03  0.11205882401E+04  0.60004923202E+03 0.  0.
         23    2    4    4    0    0 -0.26314100518E+03 -0.25965511792E+03 -0.33757058530E+03  0.50887923318E+03  0.91324723004E+02 0.  0.
         23    2    4    4    0    0 -0.42491799434E+03  0.29696459615E+03 -0.31115257523E+03  0.61170900692E+03  0.92890854176E+02 0.  0.
          1    1    3    3  502    0  0.17379662302E+03  0.28471738587E+02 -0.95338776350E+02  0.20026329755E+03  0.00000000000E+00 0. -1.
         -1    1    3    3    0  502  0.51426237651E+03 -0.65781216812E+02 -0.34282878964E+03  0.62155011011E+03  0.00000000000E+00 0.  1.
         13    1    5    5    0    0 -0.20712415485E+03 -0.22716807393E+03 -0.23242233595E+03  0.38539057017E+03  0.00000000000E+00 0. -1.
        -13    1    5    5    0    0 -0.56016850333E+02 -0.32487043996E+02 -0.10514824935E+03  0.12348866301E+03  0.00000000000E+00 0.  1.
          5    1    6    6  503    0 -0.11818091181E+03  0.13379666893E+03 -0.91746638507E+02  0.20076805575E+03  0.47000000000E+01 0. -1.
         -5    1    6    6    0  503 -0.30673708254E+03  0.16316792721E+03 -0.21940593673E+03  0.41094095117E+03  0.47000000000E+01 0.  1.
<mgrwt>
<rscale>  0 0.79639267E+03</rscale>
<asrwt>0</asrwt>
<pdfrwt beam="1">  1        2 0.65808532E-01 0.79639267E+03</pdfrwt>
<pdfrwt beam="2">  1       -2 0.23302249E+00 0.79639267E+03</pdfrwt>
<totfact> 0.61495697E+00</totfact>
</mgrwt>
</event>
<event>
12    1  0.3127365E-008  0.8574946E+03  0.7818608E-02  0.9480333E-01
          2   -1    0    0  501    0  0.00000000000E+00  0.00000000000E+00  0.15282203369E+04  0.15282203369E+04  0.00000000000E+00 0. -1.
         -2   -1    0    0    0  501 -0.00000000000E+00 -0.00000000000E+00 -0.51679396100E+03  0.51679396100E+03  0.00000000000E+00 0.  1.
         23    2    1    2    0    0 -0.24307211449E+03  0.71615440701E+03  0.68952864604E+03  0.10274470551E+04  0.90755218724E+02 0.  0.
    5000000    2    1    2    0    0  0.24307211449E+03 -0.71615440701E+03  0.32189772983E+03  0.10175672428E+04  0.59988645394E+03 0.  0.
         23    2    4    4    0    0  0.55335169062E+02  0.81124734466E+02  0.90075878162E+02  0.16113650919E+03  0.90598605340E+02 0.  0.
         23    2    4    4    0    0  0.18773694543E+03 -0.79727914148E+03  0.23182185167E+03  0.85643073361E+03  0.93984256395E+02 0.  0.
          3    1    3    3  502    0 -0.63962438376E+02  0.23762876849E+03  0.17234513401E+03  0.30043546787E+03  0.00000000000E+00 0. -1.
         -3    1    3    3    0  502 -0.17910967612E+03  0.47852563852E+03  0.51718351203E+03  0.72701158719E+03  0.00000000000E+00 0.  1.
         11    1    5    5    0    0  0.80469313280E+02  0.66712838478E+02  0.67804259526E+02  0.12459265953E+03  0.00000000000E+00 0.  1.
        -11    1    5    5    0    0 -0.25134144219E+02  0.14411895988E+02  0.22271618635E+02  0.36543849663E+02  0.00000000000E+00 0. -1.
          5    1    6    6  503    0  0.75204844037E+02 -0.51586226283E+03  0.14539794266E+03  0.54123220017E+03  0.47000000000E+01 0. -1.
         -5    1    6    6    0  503  0.11253210139E+03 -0.28141687865E+03  0.86423909015E+02  0.31519853344E+03  0.47000000000E+01 0.  1.
<mgrwt>
<rscale>  0 0.85749457E+03</rscale>
<asrwt>0</asrwt>
<pdfrwt beam="1">  1        2 0.23511082E+00 0.85749457E+03</pdfrwt>
<pdfrwt beam="2">  1       -2 0.79506764E-01 0.85749457E+03</pdfrwt>
<totfact> 0.17354047E+01</totfact>
</mgrwt>
</event>
<event>
12    1  0.3127365E-008  0.8433345E+03  0.7818608E-02  0.9499327E-01
          2   -1    0    0  501    0  0.00000000000E+00  0.00000000000E+00  0.95263638158E+03  0.95263638158E+03  0.00000000000E+00 0. -1.
         -2   -1    0    0    0  501 -0.00000000000E+00 -0.00000000000E+00 -0.85948893989E+03  0.85948893989E+03  0.00000000000E+00 0.  1.
         23    2    1    2    0    0 -0.91028925212E+01  0.80228249896E+03  0.65677604337E+02  0.80991493766E+03  0.88930240828E+02 0.  0.
    5000000    2    1    2    0    0  0.91028925212E+01 -0.80228249896E+03  0.27469837345E+02  0.10022103838E+04  0.59994248946E+03 0.  0.
         23    2    4    4    0    0 -0.14190291635E+03 -0.50320574197E+03  0.25068819362E+03  0.58764366067E+03  0.95540803258E+02 0.  0.
         23    2    4    4    0    0  0.15100580887E+03 -0.29907675699E+03 -0.22321835627E+03  0.41456672314E+03  0.98941763048E+02 0.  0.
          1    1    3    3  502    0 -0.47121034995E+02  0.49420279913E+03  0.52600098311E+02  0.49922296516E+03  0.00000000000E+00 0. -1.
         -1    1    3    3    0  502  0.38018142474E+02  0.30807969984E+03  0.13077506026E+02  0.31069197249E+03  0.00000000000E+00 0.  1.
         13    1    5    5    0    0 -0.95099548523E+01  0.96023424161E+00  0.82814210604E+00  0.95941185337E+01  0.00000000000E+00 0.  1.
        -13    1    5    5    0    0 -0.13239296150E+03 -0.50416597621E+03  0.24986005151E+03  0.57804954214E+03  0.00000000000E+00 0. -1.
          5    1    6    6  503    0  0.54618411133E+02 -0.21212341506E+03 -0.13110463730E+03  0.25532338313E+03  0.47000000000E+01 0. -1.
         -5    1    6    6    0  503  0.96387397736E+02 -0.86953341934E+02 -0.92113718968E+02  0.15924334001E+03  0.47000000000E+01 0.  1.
<mgrwt>
<rscale>  0 0.84333455E+03</rscale>
<asrwt>0</asrwt>
<pdfrwt beam="1">  1        2 0.14655944E+00 0.84333455E+03</pdfrwt>
<pdfrwt beam="2">  1       -2 0.13222907E+00 0.84333455E+03</pdfrwt>
<totfact> 0.11322213E+01</totfact>
</mgrwt>
</event>
<event>
12    1  0.3127365E-008  0.5745540E+03  0.7818608E-02  0.9959652E-01
          2   -1    0    0  501    0  0.00000000000E+00  0.00000000000E+00  0.22380444904E+04  0.22380444904E+04  0.00000000000E+00 0. -1.
         -2   -1    0    0    0  501 -0.00000000000E+00 -0.00000000000E+00 -0.18030181140E+03  0.18030181140E+03  0.00000000000E+00 0.  1.
         23    2    1    2    0    0  0.43374337993E+03 -0.21886298115E+02  0.12293147796E+04  0.13069047647E+04  0.90404131339E+02 0.  0.
    5000000    2    1    2    0    0 -0.43374337993E+03  0.21886298115E+02  0.82842789936E+03  0.11114415371E+04  0.60033088891E+03 0.  0.
         23    2    4    4    0    0 -0.55795892564E+03 -0.42600949929E+02  0.69221223617E+03  0.89467084193E+03  0.90250384216E+02 0.  0.
         23    2    4    4    0    0  0.12421554571E+03  0.64487248044E+02  0.13621566318E+03  0.21677069513E+03  0.94057006189E+02 0.  0.
          3    1    3    3  502    0  0.10575328126E+03  0.88162303443E+01  0.41801782635E+03  0.43127762005E+03  0.00000000000E+00 0. -1.
         -3    1    3    3    0  502  0.32799009866E+03 -0.30702528459E+02  0.81129695329E+03  0.87562714468E+03  0.00000000000E+00 0.  1.
         11    1    5    5    0    0 -0.23335674172E+03 -0.10920123633E+02  0.22088081127E+03  0.32150108988E+03  0.00000000000E+00 0. -1.
        -11    1    5    5    0    0 -0.32460218392E+03 -0.31680826296E+02  0.47133142491E+03  0.57316975205E+03  0.00000000000E+00 0.  1.
          5    1    6    6  503    0  0.76438284824E+02  0.41414828105E+01  0.23523992455E+02  0.80221141152E+02  0.47000000000E+01 0. -1.
         -5    1    6    6    0  503  0.47777260886E+02  0.60345765234E+02  0.11269167073E+03  0.13654955398E+03  0.47000000000E+01 0.  1.
<mgrwt>
<rscale>  0 0.57455399E+03</rscale>
<asrwt>0</asrwt>
<pdfrwt beam="1">  1        2 0.34431452E+00 0.57455399E+03</pdfrwt>
<pdfrwt beam="2">  1       -2 0.27738742E-01 0.57455399E+03</pdfrwt>
<totfact> 0.61722667E+01</totfact>
</mgrwt>
</event>
<event>
12    1  0.3127365E-008  0.3766463E+03  0.7818608E-02  0.1052180E+00
         -1   -1    0    0    0  501 -0.00000000000E+00  0.00000000000E+00  0.13013154147E+03  0.13013154147E+03  0.00000000000E+00 0. -1.
          1   -1    0    0  501    0  0.00000000000E+00 -0.00000000000E+00 -0.25976615611E+04  0.25976615611E+04  0.00000000000E+00 0.  1.
         23    2    1    2    0    0  0.74181786504E+02  0.31622690902E+03 -0.28655844524E+03  0.44226233117E+03  0.89318707964E+02 0.  0.
    5000000    2    1    2    0    0 -0.74181786504E+02 -0.31622690902E+03 -0.21809715744E+04  0.22855307714E+04  0.60125826671E+03 0.  0.
         23    2    4    4    0    0 -0.12367630415E+03 -0.31613564302E+02 -0.17595211717E+04  0.17664920671E+04  0.91017712174E+02 0.  0.
         23    2    4    4    0    0  0.49494517650E+02 -0.28461334472E+03 -0.42145040272E+03  0.51903870430E+03  0.91248404566E+02 0.  0.
          2    1    3    3  502    0  0.82897261733E+01  0.20364957698E+03 -0.20104386624E+03  0.28628745329E+03  0.00000000000E+00 0. -1.
         -2    1    3    3    0  502  0.65892060331E+02  0.11257733205E+03 -0.85514579004E+02  0.15597487787E+03  0.00000000000E+00 0.  1.
         13    1    5    5    0    0 -0.76919298961E+02 -0.81115893851E+01 -0.14858915532E+04  0.14879032510E+04  0.00000000000E+00 0.  1.
        -13    1    5    5    0    0 -0.46757005193E+02 -0.23501974917E+02 -0.27362961844E+03  0.27858881609E+03  0.00000000000E+00 0. -1.
          5    1    6    6  503    0  0.22850818084E+02 -0.16986346920E+03 -0.32197951996E+03  0.36478577183E+03  0.47000000000E+01 0. -1.
         -5    1    6    6    0  503  0.26643699566E+02 -0.11474987552E+03 -0.99470882766E+02  0.15425293247E+03  0.47000000000E+01 0.  1.
<mgrwt>
<rscale>  0 0.37664633E+03</rscale>
<asrwt>0</asrwt>
<pdfrwt beam="1">  1        1 0.39964024E+00 0.37664633E+03</pdfrwt>
<pdfrwt beam="2">  1       -1 0.20020237E-01 0.37664633E+03</pdfrwt>
<totfact> 0.26692864E+01</totfact>
</mgrwt>
</event>
<event>
12    1  0.3127365E-008  0.1059214E+04  0.7818608E-02  0.9245883E-01
         -1   -1    0    0    0  501 -0.00000000000E+00  0.00000000000E+00  0.14661793040E+04  0.14661793040E+04  0.00000000000E+00 0.  1.
          1   -1    0    0  501    0  0.00000000000E+00 -0.00000000000E+00 -0.19929626376E+04  0.19929626376E+04  0.00000000000E+00 0. -1.
         23    2    1    2    0    0  0.90124218372E+03 -0.52928534912E+03 -0.15544222123E+04  0.18753435833E+04  0.91130055396E+02 0.  0.
    5000000    2    1    2    0    0 -0.90124218372E+03  0.52928534912E+03  0.10276388787E+04  0.15837983582E+04  0.59999593329E+03 0.  0.
         23    2    4    4    0    0 -0.44031946739E+03  0.39216966278E+03  0.21287585635E+03  0.63339249800E+03  0.90507726406E+02 0.  0.
         23    2    4    4    0    0 -0.46092271633E+03  0.13711568634E+03  0.81476302232E+03  0.95040586020E+03  0.90454710717E+02 0.  0.
          3    1    3    3  502    0  0.68026571452E+03 -0.41497814972E+03 -0.11166481010E+04  0.13718131391E+04  0.00000000000E+00 0. -1.
         -3    1    3    3    0  502  0.22097646920E+03 -0.11430719939E+03 -0.43777411129E+03  0.50353044425E+03  0.00000000000E+00 0.  1.
         13    1    5    5    0    0 -0.16941819523E+03  0.17938219634E+03  0.47488083272E+02  0.25126801486E+03  0.00000000000E+00 0.  1.
        -13    1    5    5    0    0 -0.27090127215E+03  0.21278746644E+03  0.16538777308E+03  0.38212448314E+03  0.00000000000E+00 0. -1.
          5    1    6    6  503    0 -0.34469420366E+03  0.91896342054E+02  0.52326797670E+03  0.63331705895E+03  0.47000000000E+01 0. -1.
         -5    1    6    6    0  503 -0.11622851267E+03  0.45219344284E+02  0.29149504562E+03  0.31708880125E+03  0.47000000000E+01 0.  1.
<mgrwt>
<rscale>  0 0.10592135E+04</rscale>
<asrwt>0</asrwt>
<pdfrwt beam="1">  1        1 0.30660963E+00 0.10592135E+04</pdfrwt>
<pdfrwt beam="2">  1       -1 0.22556605E+00 0.10592135E+04</pdfrwt>
<totfact> 0.30556774E-01</totfact>
</mgrwt>
</event>
<event>
12    1  0.3127365E-008  0.3843560E+03  0.7818608E-02  0.1049335E+00
          1   -1    0    0  501    0  0.00000000000E+00  0.00000000000E+00  0.19153597225E+04  0.19153597225E+04  0.00000000000E+00 0. -1.
         -1   -1    0    0    0  501 -0.00000000000E+00 -0.00000000000E+00 -0.12206855168E+03  0.12206855168E+03  0.00000000000E+00 0.  1.
         23    2    1    2    0    0  0.18709595296E+03  0.13060741558E+02  0.10200677185E+04  0.10410594192E+04  0.89950460934E+02 0.  0.
    5000000    2    1    2    0    0 -0.18709595296E+03 -0.13060741558E+02  0.77322345235E+03  0.99636885500E+03  0.59975070601E+03 0.  0.
         23    2    4    4    0    0 -0.24577366795E+02 -0.26137253582E+03  0.19881703744E+03  0.34373799626E+03  0.98528910766E+02 0.  0.
         23    2    4    4    0    0 -0.16251858616E+03  0.24831179426E+03  0.57440641491E+03  0.65263085873E+03  0.88956563934E+02 0.  0.
          4    1    3    3  502    0  0.95137756173E+02  0.31584905374E+02  0.71213175473E+03  0.71915258116E+03  0.00000000000E+00 0. -1.
         -4    1    3    3    0  502  0.91958196783E+02 -0.18524163816E+02  0.30793596378E+03  0.32190683806E+03  0.00000000000E+00 0.  1.
         13    1    5    5    0    0  0.95654726471E+01 -0.61190226242E+02  0.10065860007E+03  0.11818585289E+03  0.00000000000E+00 0. -1.
        -13    1    5    5    0    0 -0.34142839442E+02 -0.20018230958E+03  0.98158437373E+02  0.22555214338E+03  0.00000000000E+00 0.  1.
          5    1    6    6  503    0 -0.10494262492E+03  0.80992318409E+02  0.25637532368E+03  0.28865742110E+03  0.47000000000E+01 0. -1.
         -5    1    6    6    0  503 -0.57575961243E+02  0.16731947586E+03  0.31803109123E+03  0.36397343763E+03  0.47000000000E+01 0.  1.
<mgrwt>
<rscale>  0 0.38435598E+03</rscale>
<asrwt>0</asrwt>
<pdfrwt beam="1">  1        1 0.29467070E+00 0.38435598E+03</pdfrwt>
<pdfrwt beam="2">  1       -1 0.18779779E-01 0.38435598E+03</pdfrwt>
<totfact> 0.83844770E+01</totfact>
</mgrwt>
</event>
<event>
12    1  0.3127365E-008  0.1761827E+04  0.7818608E-02  0.8726867E-01
         -1   -1    0    0    0  501 -0.00000000000E+00  0.00000000000E+00  0.17077962335E+04  0.17077962335E+04  0.00000000000E+00 0.  1.
          1   -1    0    0  501    0  0.00000000000E+00 -0.00000000000E+00 -0.19463569738E+04  0.19463569738E+04  0.00000000000E+00 0. -1.
         23    2    1    2    0    0 -0.13930083841E+04  0.10437050417E+04 -0.45011014744E+03  0.18009106222E+04  0.10434247582E+03 0.  0.
    5000000    2    1    2    0    0  0.13930083841E+04 -0.10437050417E+04  0.21154940718E+03  0.18532425851E+04  0.59996862861E+03 0.  0.
         23    2    4    4    0    0  0.10367460359E+03 -0.18953539214E+02  0.14622547025E+03  0.20230582450E+03  0.91859122555E+02 0.  0.
         23    2    4    4    0    0  0.12893337805E+04 -0.10247515025E+04  0.65323936923E+02  0.16509367606E+04  0.93956007630E+02 0.  0.
          3    1    3    3  502    0 -0.10075278633E+04  0.71963567660E+03 -0.28052303014E+03  0.12695200167E+04  0.00000000000E+00 0.  1.
         -3    1    3    3    0  502 -0.38548052077E+03  0.32406936508E+03 -0.16958711730E+03  0.53139060552E+03  0.00000000000E+00 0. -1.
         13    1    5    5    0    0  0.11085516882E+03 -0.35796992888E+02  0.14171417687E+03  0.18344808824E+03  0.00000000000E+00 0.  1.
        -13    1    5    5    0    0 -0.71805652316E+01  0.16843453674E+02  0.45112933876E+01  0.18857736257E+02  0.00000000000E+00 0. -1.
          5    1    6    6  503    0  0.28534902020E+03 -0.21700421805E+03 -0.23496393618E+02  0.35928966656E+03  0.47000000000E+01 0. -1.
         -5    1    6    6    0  503  0.10039847603E+04 -0.80774728441E+03  0.88820330541E+02  0.12916470940E+04  0.47000000000E+01 0.  1.
<mgrwt>
<rscale>  0 0.17618270E+04</rscale>
<asrwt>0</asrwt>
<pdfrwt beam="1">  1        1 0.29943953E+00 0.17618270E+04</pdfrwt>
<pdfrwt beam="2">  1       -1 0.26273788E+00 0.17618270E+04</pdfrwt>
<totfact> 0.17099289E-01</totfact>
</mgrwt>
</event>
<event>
12    1  0.3127365E-008  0.1383467E+04  0.7818608E-02  0.8965874E-01
         -1   -1    0    0    0  501 -0.00000000000E+00  0.00000000000E+00  0.76462041005E+03  0.76462041005E+03  0.00000000000E+00 0.  1.
          1   -1    0    0  501    0  0.00000000000E+00 -0.00000000000E+00 -0.27013128198E+04  0.27013128198E+04  0.00000000000E+00 0. -1.
         23    2    1    2    0    0  0.85082277992E+03  0.10264484645E+04 -0.53275190347E+03  0.14390126231E+04  0.97143633572E+02 0.  0.
    5000000    2    1    2    0    0 -0.85082277992E+03 -0.10264484645E+04 -0.14039405063E+04  0.20269206068E+04  0.59988527887E+03 0.  0.
         23    2    4    4    0    0 -0.33773722664E+03 -0.85615998560E+02 -0.52803436613E+03  0.63975090507E+03  0.95207117695E+02 0.  0.
         23    2    4    4    0    0 -0.51308555328E+03 -0.94083246597E+03 -0.87590614013E+03  0.13871697017E+04  0.92766917291E+02 0.  0.
          1    1    3    3  502    0  0.15399081122E+03  0.16528350216E+03 -0.54374115954E+02  0.23235393371E+03  0.00000000000E+00 0. -1.
         -1    1    3    3    0  502  0.69683196870E+03  0.86116496238E+03 -0.47837778752E+03  0.12066586894E+04  0.00000000000E+00 0.  1.
         11    1    5    5    0    0 -0.19305907876E+03 -0.93977141537E+02 -0.28570742718E+03  0.35739648147E+03  0.00000000000E+00 0. -1.
        -11    1    5    5    0    0 -0.14467814787E+03  0.83611429771E+01 -0.24232693895E+03  0.28235442360E+03  0.00000000000E+00 0.  1.
          5    1    6    6  503    0 -0.53047749279E+02 -0.62700384356E+02 -0.91335201908E+02  0.12292115770E+03  0.47000000000E+01 0. -1.
         -5    1    6    6    0  503 -0.46003780400E+03 -0.87813208162E+03 -0.78457093822E+03  0.12642485440E+04  0.47000000000E+01 0.  1.
<mgrwt>
<rscale>  0 0.13834672E+04</rscale>
<asrwt>0</asrwt>
<pdfrwt beam="1">  1        1 0.41558659E+00 0.13834672E+04</pdfrwt>
<pdfrwt beam="2">  1       -1 0.11763391E+00 0.13834672E+04</pdfrwt>
<totfact> 0.61590105E-01</totfact>
</mgrwt>
</event>
<event>
12    1  0.3127365E-008  0.1003390E+04  0.7818608E-02  0.9304835E-01
         -2   -1    0    0    0  501 -0.00000000000E+00  0.00000000000E+00  0.74083444835E+03  0.74083444835E+03  0.00000000000E+00 0. -1.
          2   -1    0    0  501    0  0.00000000000E+00 -0.00000000000E+00 -0.16179017091E+04  0.16179017091E+04  0.00000000000E+00 0.  1.
         23    2    1    2    0    0 -0.95027786234E+03  0.53530133108E+02 -0.39323242677E+02  0.95689560868E+03  0.90605726577E+02 0.  0.
    5000000    2    1    2    0    0  0.95027786234E+03 -0.53530133108E+02 -0.83774401807E+03  0.14018405488E+04  0.59786988012E+03 0.  0.
         23    2    4    4    0    0  0.84653444848E+03  0.10853074014E+03 -0.82147928053E+03  0.11881486500E+04  0.92029951930E+02 0.  0.
         23    2    4    4    0    0  0.10374341386E+03 -0.16206087325E+03 -0.16264737535E+02  0.21369189880E+03  0.91505537370E+02 0.  0.
          4    1    3    3  502    0 -0.98179924465E+02 -0.18613175972E+02  0.93489456904E+01  0.10036508692E+03  0.00000000000E+00 0. -1.
         -4    1    3    3    0  502 -0.85209793787E+03  0.72143309080E+02 -0.48672188368E+02  0.85653052175E+03  0.00000000000E+00 0.  1.
         11    1    5    5    0    0  0.65291326711E+03  0.44344389448E+02 -0.62874942353E+03  0.90751749120E+03  0.00000000000E+00 0. -1.
        -11    1    5    5    0    0  0.19362118137E+03  0.64186350691E+02 -0.19272985701E+03  0.28063115877E+03  0.00000000000E+00 0.  1.
          5    1    6    6  503    0  0.90084416611E+02 -0.13107360406E+03 -0.48867332806E+02  0.16644998652E+03  0.47000000000E+01 0. -1.
         -5    1    6    6    0  503  0.13658997250E+02 -0.30987269187E+02  0.32602595271E+02  0.47241912281E+02  0.47000000000E+01 0.  1.
<mgrwt>
<rscale>  0 0.10033897E+04</rscale>
<asrwt>0</asrwt>
<pdfrwt beam="1">  1        2 0.24890796E+00 0.10033897E+04</pdfrwt>
<pdfrwt beam="2">  1       -2 0.11397453E+00 0.10033897E+04</pdfrwt>
<totfact> 0.65346995E+00</totfact>
</mgrwt>
</event>
<event>
12    1  0.3127365E-008  0.4266950E+03  0.7818608E-02  0.1034909E+00
         -1   -1    0    0    0  501 -0.00000000000E+00  0.00000000000E+00  0.82715146547E+02  0.82715146547E+02  0.00000000000E+00 0.  1.
          1   -1    0    0  501    0  0.00000000000E+00 -0.00000000000E+00 -0.36826426725E+04  0.36826426725E+04  0.00000000000E+00 0. -1.
         23    2    1    2    0    0 -0.15921549020E+03 -0.15391304452E+03 -0.21886993633E+03  0.32435471412E+03  0.90901781872E+02 0.  0.
    5000000    2    1    2    0    0  0.15921549020E+03  0.15391304452E+03 -0.33810575896E+04  0.34410031049E+04  0.59992761746E+03 0.  0.
         23    2    4    4    0    0  0.10843246441E+03  0.37137679748E+03 -0.20999763929E+04  0.21374251831E+04  0.94906467917E+02 0.  0.
         23    2    4    4    0    0  0.50783025788E+02 -0.21746375296E+03 -0.12810811967E+04  0.13035779218E+04  0.90977832864E+02 0.  0.
          1    1    3    3  502    0 -0.74619528584E+02 -0.66342470954E+02 -0.39095219760E+02  0.10722795208E+03  0.00000000000E+00 0. -1.
         -1    1    3    3    0  502 -0.84595961614E+02 -0.87570573571E+02 -0.17977471657E+03  0.21712676204E+03  0.00000000000E+00 0.  1.
         13    1    5    5    0    0 -0.12567633069E+01  0.72652752476E+02 -0.25272261005E+03  0.26296144114E+03  0.00000000000E+00 0.  1.
        -13    1    5    5    0    0  0.10968922772E+03  0.29872404500E+03 -0.18472537828E+04  0.18744637420E+04  0.00000000000E+00 0. -1.
          5    1    6    6  503    0  0.15631137222E+02 -0.20123123006E+03 -0.10942532722E+04  0.11127221819E+04  0.47000000000E+01 0. -1.
         -5    1    6    6    0  503  0.35151888566E+02 -0.16232522892E+02 -0.18682792458E+03  0.19085573995E+03  0.47000000000E+01 0.  1.
<mgrwt>
<rscale>  0 0.42669499E+03</rscale>
<asrwt>0</asrwt>
<pdfrwt beam="1">  1        1 0.56656018E+00 0.42669499E+03</pdfrwt>
<pdfrwt beam="2">  1       -1 0.12725412E-01 0.42669499E+03</pdfrwt>
<totfact> 0.89380804E+00</totfact>
</mgrwt>
</event>
<event>
12    1  0.3127365E-008  0.4411806E+03  0.7818608E-02  0.1030385E+00
          1   -1    0    0  501    0  0.00000000000E+00  0.00000000000E+00  0.90793135448E+03  0.90793135448E+03  0.00000000000E+00 0. -1.
         -1   -1    0    0    0  501 -0.00000000000E+00 -0.00000000000E+00 -0.41561549058E+03  0.41561549058E+03  0.00000000000E+00 0.  1.
         23    2    1    2    0    0 -0.37166613501E+03 -0.51499282829E+02 -0.10452708346E+03  0.39776842273E+03  0.80659251783E+02 0.  0.
    5000000    2    1    2    0    0  0.37166613501E+03  0.51499282829E+02  0.59684294737E+03  0.92577842233E+03  0.60004690765E+03 0.  0.
         23    2    4    4    0    0 -0.57764687827E+02  0.64029270252E+01  0.44729658287E+03  0.46049927004E+03  0.92777087802E+02 0.  0.
         23    2    4    4    0    0  0.42943082284E+03  0.45096355804E+02  0.14954636450E+03  0.46527915229E+03  0.87613135520E+02 0.  0.
          2    1    3    3  502    0 -0.18226403591E+03 -0.41279254315E+02 -0.13465679447E+02  0.18736456481E+03  0.00000000000E+00 0. -1.
         -2    1    3    3    0  502 -0.18940209910E+03 -0.10220028514E+02 -0.91061404017E+02  0.21040385792E+03  0.00000000000E+00 0.  1.
         13    1    5    5    0    0 -0.13777107541E+02  0.22700205192E+02  0.28008065822E+02  0.38594815184E+02  0.00000000000E+00 0. -1.
        -13    1    5    5    0    0 -0.43987580287E+02 -0.16297278167E+02  0.41928851705E+03  0.42190445485E+03  0.00000000000E+00 0.  1.
          5    1    6    6  503    0  0.48418021912E+02  0.10201925820E+02 -0.10021736766E+02  0.50704135375E+02  0.47000000000E+01 0. -1.
         -5    1    6    6    0  503  0.38101280093E+03  0.34894429983E+02  0.15956810126E+03  0.41457501692E+03  0.47000000000E+01 0.  1.
<mgrwt>
<rscale>  0 0.44118060E+03</rscale>
<asrwt>0</asrwt>
<pdfrwt beam="1">  1        1 0.13968175E+00 0.44118060E+03</pdfrwt>
<pdfrwt beam="2">  1       -1 0.63940845E-01 0.44118060E+03</pdfrwt>
<totfact> 0.47353592E+01</totfact>
</mgrwt>
</event>
<event>
12    1  0.3127365E-008  0.4152025E+03  0.7818608E-02  0.1038639E+00
         -2   -1    0    0    0  501 -0.00000000000E+00  0.00000000000E+00  0.15624190232E+03  0.15624190232E+03  0.00000000000E+00 0.  1.
          2   -1    0    0  501    0  0.00000000000E+00 -0.00000000000E+00 -0.12435067132E+04  0.12435067132E+04  0.00000000000E+00 0. -1.
         23    2    1    2    0    0  0.15723805098E+03  0.15844906601E+03 -0.32524143807E+03  0.40457995582E+03  0.89850077428E+02 0.  0.
    5000000    2    1    2    0    0 -0.15723805098E+03 -0.15844906601E+03 -0.76202337282E+03  0.99516865971E+03  0.59987592830E+03 0.  0.
         23    2    4    4    0    0  0.16505385313E+03 -0.20228154237E+03 -0.20665540072E+03  0.34512556938E+03  0.90799819229E+02 0.  0.
         23    2    4    4    0    0 -0.32229190411E+03  0.43832476365E+02 -0.55536797210E+03  0.65004309033E+03  0.91263779324E+02 0.  0.
          2    1    3    3  502    0  0.12780877233E+03  0.69000519860E+02 -0.17708738208E+03  0.22903295596E+03  0.00000000000E+00 0. -1.
         -2    1    3    3    0  502  0.29429278647E+02  0.89448546148E+02 -0.14815405599E+03  0.17554699985E+03  0.00000000000E+00 0.  1.
         11    1    5    5    0    0  0.38292326384E+02 -0.52432290746E+02 -0.72507134902E+01  0.65330086629E+02  0.00000000000E+00 0. -1.
        -11    1    5    5    0    0  0.12676152675E+03 -0.14984925163E+03 -0.19940468723E+03  0.27979548275E+03  0.00000000000E+00 0.  1.
          5    1    6    6  503    0 -0.22983630359E+02 -0.10253895959E+02 -0.14293222598E+02  0.29321934777E+02  0.47000000000E+01 0. -1.
         -5    1    6    6    0  503 -0.29930827375E+03  0.54086372325E+02 -0.54107474950E+03  0.62072115556E+03  0.47000000000E+01 0.  1.
<mgrwt>
<rscale>  0 0.41520251E+03</rscale>
<asrwt>0</asrwt>
<pdfrwt beam="1">  1        2 0.19130873E+00 0.41520251E+03</pdfrwt>
<pdfrwt beam="2">  1       -2 0.24037215E-01 0.41520251E+03</pdfrwt>
<totfact> 0.28474888E+02</totfact>
</mgrwt>
</event>
<event>
12    1  0.3127365E-008  0.1020251E+04  0.7818608E-02  0.9286609E-01
         -2   -1    0    0    0  501 -0.00000000000E+00  0.00000000000E+00  0.11499717436E+04  0.11499717436E+04  0.00000000000E+00 0.  1.
          2   -1    0    0  501    0  0.00000000000E+00 -0.00000000000E+00 -0.91044253598E+03  0.91044253598E+03  0.00000000000E+00 0. -1.
         23    2    1    2    0    0  0.54805268199E+03  0.75496462009E+03  0.10288204539E+03  0.94280191896E+03  0.89204390659E+02 0.  0.
    5000000    2    1    2    0    0 -0.54805268199E+03 -0.75496462009E+03  0.13664716219E+03  0.11176123606E+04  0.60004301660E+03 0.  0.
         23    2    4    4    0    0 -0.33455658239E+03 -0.29372558593E+02  0.47920423074E+02  0.35018659904E+03  0.86852939975E+02 0.  0.
         23    2    4    4    0    0 -0.21349609960E+03 -0.72559206149E+03  0.88726739114E+02  0.76742576154E+03  0.94897002028E+02 0.  0.
          1    1    3    3  502    0  0.31467520153E+03  0.41659208437E+03  0.14087302865E+02  0.52227186342E+03  0.00000000000E+00 0. -1.
         -1    1    3    3    0  502  0.23337748046E+03  0.33837253572E+03  0.88794742525E+02  0.42053005554E+03  0.00000000000E+00 0.  1.
         11    1    5    5    0    0 -0.22661322470E+03  0.20370863380E+02  0.40484077617E+02  0.23110059762E+03  0.00000000000E+00 0.  1.
        -11    1    5    5    0    0 -0.10794335769E+03 -0.49743421973E+02  0.74363454569E+01  0.11908600142E+03  0.00000000000E+00 0. -1.
          5    1    6    6  503    0 -0.56359056017E+02 -0.33852823399E+03  0.62227768155E+02  0.34881527135E+03  0.47000000000E+01 0. -1.
         -5    1    6    6    0  503 -0.15713704358E+03 -0.38706382751E+03  0.26498970959E+02  0.41861049018E+03  0.47000000000E+01 0.  1.
<mgrwt>
<rscale>  0 0.10202509E+04</rscale>
<asrwt>0</asrwt>
<pdfrwt beam="1">  1        2 0.14006808E+00 0.10202509E+04</pdfrwt>
<pdfrwt beam="2">  1       -2 0.17691873E+00 0.10202509E+04</pdfrwt>
<totfact> 0.54379727E+00</totfact>
</mgrwt>
</event>
<event>
12    1  0.3127365E-008  0.5892269E+03  0.7818608E-02  0.9928012E-01
         -2   -1    0    0    0  501 -0.00000000000E+00  0.00000000000E+00  0.34650974030E+03  0.34650974030E+03  0.00000000000E+00 0.  1.
          2   -1    0    0  501    0  0.00000000000E+00 -0.00000000000E+00 -0.20084419664E+04  0.20084419664E+04  0.00000000000E+00 0. -1.
         23    2    1    2    0    0  0.29161498394E+03 -0.49693524673E+03 -0.10938437807E+03  0.59360314375E+03  0.91737733800E+02 0.  0.
    5000000    2    1    2    0    0 -0.29161498394E+03  0.49693524673E+03 -0.15525478480E+04  0.17613485629E+04  0.59996666697E+03 0.  0.
         23    2    4    4    0    0 -0.13812828806E+03  0.11235408854E+03 -0.58027357751E+02  0.20797668951E+03  0.90466921886E+02 0.  0.
         23    2    4    4    0    0 -0.15348669588E+03  0.38458115819E+03 -0.14945204903E+04  0.15533718734E+04  0.88948571040E+02 0.  0.
          1    1    3    3  502    0 -0.38787993821E+01 -0.69805243863E+00  0.33232640293E+01  0.51552347824E+01  0.00000000000E+00 0. -1.
         -1    1    3    3    0  502  0.29549378333E+03 -0.49623719429E+03 -0.11270764210E+03  0.58844790897E+03  0.00000000000E+00 0.  1.
         11    1    5    5    0    0 -0.69109437388E+02  0.53934094375E+02 -0.75719677740E+02  0.11583812183E+03  0.00000000000E+00 0.  1.
        -11    1    5    5    0    0 -0.69018850676E+02  0.58419994166E+02  0.17692319989E+02  0.92138567677E+02  0.00000000000E+00 0. -1.
          5    1    6    6  503    0 -0.94165120914E+02  0.30665859106E+03 -0.12336548819E+04  0.12746893814E+04  0.47000000000E+01 0. -1.
         -5    1    6    6    0  503 -0.59321574965E+02  0.77922567131E+02 -0.26086560835E+03  0.27868249199E+03  0.47000000000E+01 0.  1.
<mgrwt>
<rscale>  0 0.58922692E+03</rscale>
<asrwt>0</asrwt>
<pdfrwt beam="1">  1        2 0.30899108E+00 0.58922692E+03</pdfrwt>
<pdfrwt beam="2">  1       -2 0.53309190E-01 0.58922692E+03</pdfrwt>
<totfact> 0.23232427E+01</totfact>
</mgrwt>
</event>
<event>
12    1  0.3127365E-008  0.2236295E+04  0.7818608E-02  0.8503472E-01
         -1   -1    0    0    0  501 -0.00000000000E+00  0.00000000000E+00  0.14908589625E+04  0.14908589625E+04  0.00000000000E+00 0.  1.
          1   -1    0    0  501    0  0.00000000000E+00 -0.00000000000E+00 -0.34334888525E+04  0.34334888525E+04  0.00000000000E+00 0. -1.
         23    2    1    2    0    0  0.14502820132E+04  0.16600264312E+04 -0.65289884300E+03  0.23009034634E+04  0.94202861113E+02 0.  0.
    5000000    2    1    2    0    0 -0.14502820132E+04 -0.16600264312E+04 -0.12897310470E+04  0.26234443516E+04  0.60004035068E+03 0.  0.
         23    2    4    4    0    0 -0.21479326286E+02 -0.25682421658E+03 -0.22131588748E+03  0.35177309975E+03  0.91343045561E+02 0.  0.
         23    2    4    4    0    0 -0.14288026869E+04 -0.14032022146E+04 -0.10684151595E+04  0.22716712518E+04  0.92334989855E+02 0.  0.
          4    1    3    3  502    0  0.39814892356E+03  0.39362468257E+03 -0.16895767135E+03  0.58481591186E+03  0.00000000000E+00 0. -1.
         -4    1    3    3    0  502  0.10521330896E+04  0.12664017486E+04 -0.48394117165E+03  0.17160875516E+04  0.00000000000E+00 0.  1.
         13    1    5    5    0    0 -0.33871825475E+02 -0.13822398493E+03 -0.68510739940E+02  0.15794585166E+03  0.00000000000E+00 0.  1.
        -13    1    5    5    0    0  0.12392499189E+02 -0.11860023166E+03 -0.15280514754E+03  0.19382724808E+03  0.00000000000E+00 0. -1.
          5    1    6    6  503    0 -0.68979581080E+03 -0.61365094075E+03 -0.49771648419E+03  0.10488705956E+04  0.47000000000E+01 0. -1.
         -5    1    6    6    0  503 -0.73900687606E+03 -0.78955127383E+03 -0.57069867534E+03  0.12228006562E+04  0.47000000000E+01 0.  1.
<mgrwt>
<rscale>  0 0.22362946E+04</rscale>
<asrwt>0</asrwt>
<pdfrwt beam="1">  1        1 0.52822906E+00 0.22362946E+04</pdfrwt>
<pdfrwt beam="2">  1       -1 0.22936292E+00 0.22362946E+04</pdfrwt>
<totfact> 0.23349504E-02</totfact>
</mgrwt>
</event>
<event>
12    1  0.3127365E-008  0.1915130E+04  0.7818608E-02  0.8647362E-01
         -2   -1    0    0    0  501 -0.00000000000E+00  0.00000000000E+00  0.18296924373E+04  0.18296924373E+04  0.00000000000E+00 0.  1.
          2   -1    0    0  501    0  0.00000000000E+00 -0.00000000000E+00 -0.20284431977E+04  0.20284431977E+04  0.00000000000E+00 0. -1.
         23    2    1    2    0    0 -0.15942629511E+04  0.98634068148E+03  0.24557585931E+02  0.18770824255E+04  0.91066239914E+02 0.  0.
    5000000    2    1    2    0    0  0.15942629511E+04 -0.98634068148E+03 -0.22330834632E+03  0.19810532095E+04  0.60013573808E+03 0.  0.
         23    2    4    4    0    0  0.10722102848E+04 -0.93215645007E+03 -0.69699948980E+02  0.14256555087E+04  0.95315288825E+02 0.  0.
         23    2    4    4    0    0  0.52205266625E+03 -0.54184231411E+02 -0.15360839734E+03  0.55539770078E+03  0.96933735251E+02 0.  0.
          3    1    3    3  502    0 -0.14810177939E+04  0.88741244730E+03  0.20306698559E+02  0.17266519393E+04  0.00000000000E+00 0. -1.
         -3    1    3    3    0  502 -0.11324515717E+03  0.98928234176E+02  0.42508873719E+01  0.15043048622E+03  0.00000000000E+00 0.  1.
         11    1    5    5    0    0  0.36700426525E+03 -0.32258874781E+03 -0.69282529839E+02  0.49351362683E+03  0.00000000000E+00 0. -1.
        -11    1    5    5    0    0  0.70520601957E+03 -0.60956770225E+03 -0.41741914092E+00  0.93214188186E+03  0.00000000000E+00 0.  1.
          5    1    6    6  503    0  0.39521784201E+03 -0.79512270175E+02 -0.13171427594E+03  0.42413451196E+03  0.47000000000E+01 0. -1.
         -5    1    6    6    0  503  0.12683482424E+03  0.25328038764E+02 -0.21894121406E+02  0.13126318882E+03  0.47000000000E+01 0.  1.
<mgrwt>
<rscale>  0 0.19151298E+04</rscale>
<asrwt>0</asrwt>
<pdfrwt beam="1">  1        2 0.31206818E+00 0.19151298E+04</pdfrwt>
<pdfrwt beam="2">  1       -2 0.28149114E+00 0.19151298E+04</pdfrwt>
<totfact> 0.23869826E-01</totfact>
</mgrwt>
</event>
<event>
12    1  0.3127365E-008  0.4842131E+03  0.7818608E-02  0.1017984E+00
          2   -1    0    0  501    0  0.00000000000E+00  0.00000000000E+00  0.18749805550E+04  0.18749805550E+04  0.00000000000E+00 0. -1.
         -2   -1    0    0    0  501 -0.00000000000E+00 -0.00000000000E+00 -0.14411038808E+03  0.14411038808E+03  0.00000000000E+00 0.  1.
         23    2    1    2    0    0 -0.15884156310E+03 -0.28479822501E+03  0.76109084173E+03  0.83301033467E+03  0.91138779601E+02 0.  0.
    5000000    2    1    2    0    0  0.15884156310E+03  0.28479822501E+03  0.96977932515E+03  0.11860806084E+04  0.59997883206E+03 0.  0.
         23    2    4    4    0    0 -0.67023866134E+02 -0.13092040664E+03  0.42485576727E+03  0.45849840387E+03  0.89922254546E+02 0.  0.
         23    2    4    4    0    0  0.22586542923E+03  0.41571863166E+03  0.54492355788E+03  0.72758220450E+03  0.92720049288E+02 0.  0.
          2    1    3    3  502    0 -0.13705924058E+03 -0.19178194090E+03  0.45617984024E+03  0.51348378253E+03  0.00000000000E+00 0. -1.
         -2    1    3    3    0  502 -0.21782322524E+02 -0.93016284112E+02  0.30491100150E+03  0.31952655213E+03  0.00000000000E+00 0.  1.
         11    1    5    5    0    0 -0.28952313107E+02 -0.14004611154E+02  0.26735476460E+02  0.41822855825E+02  0.00000000000E+00 0. -1.
        -11    1    5    5    0    0 -0.38071553027E+02 -0.11691579549E+03  0.39812029081E+03  0.41667554804E+03  0.00000000000E+00 0.  1.
          5    1    6    6  503    0  0.60438435598E+01  0.82335769499E+02  0.97998007426E+02  0.12822404784E+03  0.47000000000E+01 0. -1.
         -5    1    6    6    0  503  0.21982158567E+03  0.33338286216E+03  0.44692555045E+03  0.59935815666E+03  0.47000000000E+01 0.  1.
<mgrwt>
<rscale>  0 0.48421309E+03</rscale>
<asrwt>0</asrwt>
<pdfrwt beam="1">  1        2 0.28845853E+00 0.48421309E+03</pdfrwt>
<pdfrwt beam="2">  1       -2 0.22170830E-01 0.48421309E+03</pdfrwt>
<totfact> 0.14699834E+02</totfact>
</mgrwt>
</event>
<event>
12    1  0.3127365E-008  0.9692376E+03  0.7818608E-02  0.9342943E-01
          1   -1    0    0  501    0  0.00000000000E+00  0.00000000000E+00  0.24577454837E+04  0.24577454837E+04  0.00000000000E+00 0. -1.
         -1   -1    0    0    0  501 -0.00000000000E+00 -0.00000000000E+00 -0.62977220294E+03  0.62977220294E+03  0.00000000000E+00 0.  1.
         23    2    1    2    0    0  0.57951659466E+03  0.75509185619E+03  0.17717669846E+02  0.95615372034E+03  0.88954068649E+02 0.  0.
    5000000    2    1    2    0    0 -0.57951659466E+03 -0.75509185619E+03  0.18102556109E+04  0.21313639663E+04  0.59973642979E+03 0.  0.
         23    2    4    4    0    0 -0.43924274958E+03 -0.64168212338E+03  0.17565836569E+04  0.19231986823E+04  0.91743595997E+02 0.  0.
         23    2    4    4    0    0 -0.14027384508E+03 -0.11340973281E+03  0.53671953998E+02  0.20816528398E+03  0.88958348117E+02 0.  0.
          1    1    3    3  502    0  0.28238219159E+03  0.29690899329E+03 -0.63043886891E+00  0.40974998460E+03  0.00000000000E+00 0. -1.
         -1    1    3    3    0  502  0.29713440306E+03  0.45818286291E+03  0.18348108715E+02  0.54640373575E+03  0.00000000000E+00 0.  1.
         13    1    5    5    0    0 -0.23047424934E+03 -0.40516743209E+03  0.99045404035E+03  0.10946589577E+04  0.00000000000E+00 0. -1.
        -13    1    5    5    0    0 -0.20876850024E+03 -0.23651469129E+03  0.76612961651E+03  0.82853972456E+03  0.00000000000E+00 0.  1.
          5    1    6    6  503    0 -0.23798702686E+02 -0.74156171144E+02  0.17601026568E+02  0.79983761505E+02  0.47000000000E+01 0. -1.
         -5    1    6    6    0  503 -0.11647514239E+03 -0.39253561668E+02  0.36070927429E+02  0.12818152248E+03  0.47000000000E+01 0.  1.
<mgrwt>
<rscale>  0 0.96923760E+03</rscale>
<asrwt>0</asrwt>
<pdfrwt beam="1">  1        1 0.37811468E+00 0.96923760E+03</pdfrwt>
<pdfrwt beam="2">  1       -1 0.96888032E-01 0.96923760E+03</pdfrwt>
<totfact> 0.15183733E+00</totfact>
</mgrwt>
</event>
<event>
12    1  0.3127365E-008  0.8428405E+03  0.7818608E-02  0.9499997E-01
          2   -1    0    0  501    0  0.00000000000E+00  0.00000000000E+00  0.24274529222E+04  0.24274529222E+04  0.00000000000E+00 0.  1.
         -2   -1    0    0    0  501 -0.00000000000E+00 -0.00000000000E+00 -0.39263721784E+03  0.39263721784E+03  0.00000000000E+00 0. -1.
         23    2    1    2    0    0  0.55899855944E+03  0.58004878313E+03  0.40655688491E+03  0.90689803985E+03  0.90772097870E+02 0.  0.
    5000000    2    1    2    0    0 -0.55899855944E+03 -0.58004878313E+03  0.16282588195E+04  0.19131921002E+04  0.60011769585E+03 0.  0.
         23    2    4    4    0    0 -0.55000032525E+03 -0.38976754422E+03  0.15398171309E+04  0.16833900943E+04  0.91358179198E+02 0.  0.
         23    2    4    4    0    0 -0.89982341844E+01 -0.19028123891E+03  0.88441688617E+02  0.22980200589E+03  0.93269027673E+02 0.  0.
          2    1    3    3  502    0  0.26449731514E+03  0.25731386400E+03  0.23516610866E+03  0.43757553974E+03  0.00000000000E+00 0. -1.
         -2    1    3    3    0  502  0.29450124430E+03  0.32273491914E+03  0.17139077625E+03  0.46932250011E+03  0.00000000000E+00 0.  1.
         11    1    5    5    0    0 -0.34767471696E+03 -0.27871482265E+03  0.92657689166E+03  0.10281558235E+04  0.00000000000E+00 0. -1.
        -11    1    5    5    0    0 -0.20232560829E+03 -0.11105272157E+03  0.61324023921E+03  0.65523427087E+03  0.00000000000E+00 0.  1.
          5    1    6    6  503    0 -0.40058530408E+02 -0.10866023961E+03  0.82255490371E+02  0.14212596253E+03  0.47000000000E+01 0. -1.
         -5    1    6    6    0  503  0.31060296223E+02 -0.81620999307E+02  0.61861982459E+01  0.87676043353E+02  0.47000000000E+01 0.  1.
<mgrwt>
<rscale>  0 0.84284053E+03</rscale>
<asrwt>0</asrwt>
<pdfrwt beam="1">  1        2 0.37345429E+00 0.84284053E+03</pdfrwt>
<pdfrwt beam="2">  1       -2 0.60405727E-01 0.84284053E+03</pdfrwt>
<totfact> 0.10097643E+01</totfact>
</mgrwt>
</event>
<event>
12    1  0.3127365E-008  0.1423054E+04  0.7818608E-02  0.8937298E-01
          1   -1    0    0  501    0  0.00000000000E+00  0.00000000000E+00  0.21810449165E+04  0.21810449165E+04  0.00000000000E+00 0.  1.
         -1   -1    0    0    0  501 -0.00000000000E+00 -0.00000000000E+00 -0.94176972410E+03  0.94176972410E+03  0.00000000000E+00 0. -1.
         23    2    1    2    0    0 -0.12970688082E+04  0.43618677716E+03  0.55762225113E+03  0.14804950862E+04  0.90976521055E+02 0.  0.
    5000000    2    1    2    0    0  0.12970688082E+04 -0.43618677716E+03  0.68165294131E+03  0.16423195545E+04  0.59993031994E+03 0.  0.
         23    2    4    4    0    0  0.77038856254E+03 -0.52845180620E+03  0.53375288291E+03  0.10797862060E+04  0.91028907383E+02 0.  0.
         23    2    4    4    0    0  0.52668024568E+03  0.92265029038E+02  0.14790005841E+03  0.56253334843E+03  0.93082888065E+02 0.  0.
          1    1    3    3  502    0 -0.97460269816E+03  0.31589644899E+03  0.45771558936E+03  0.11221161021E+04  0.00000000000E+00 0. -1.
         -1    1    3    3    0  502 -0.32246611006E+03  0.12029032818E+03  0.99906661776E+02  0.35837898411E+03  0.00000000000E+00 0.  1.
         11    1    5    5    0    0  0.28354541575E+03 -0.24829357489E+03  0.21980850203E+03  0.43630663493E+03  0.00000000000E+00 0.  1.
        -11    1    5    5    0    0  0.48684314679E+03 -0.28015823131E+03  0.31394438087E+03  0.64347957111E+03  0.00000000000E+00 0. -1.
          5    1    6    6  503    0  0.16232688004E+03  0.59579312860E+02  0.79388353740E+02  0.19032685363E+03  0.47000000000E+01 0. -1.
         -5    1    6    6    0  503  0.36435336564E+03  0.32685716178E+02  0.68511704665E+02  0.37220649480E+03  0.47000000000E+01 0.  1.
<mgrwt>
<rscale>  0 0.14230539E+04</rscale>
<asrwt>0</asrwt>
<pdfrwt beam="1">  1        1 0.33554537E+00 0.14230539E+04</pdfrwt>
<pdfrwt beam="2">  1       -1 0.14488765E+00 0.14230539E+04</pdfrwt>
<totfact> 0.82335539E-01</totfact>
</mgrwt>
</event>
<event>
12    1  0.3127365E-008  0.7315809E+03  0.7818608E-02  0.9664698E-01
          2   -1    0    0  501    0  0.00000000000E+00  0.00000000000E+00  0.25673084040E+04  0.25673084040E+04  0.00000000000E+00 0. -1.
         -2   -1    0    0    0  501 -0.00000000000E+00 -0.00000000000E+00 -0.26784702858E+03  0.26784702858E+03  0.00000000000E+00 0.  1.
         23    2    1    2    0    0  0.37846347798E+03 -0.60931337327E+03  0.96744902423E+03  0.12077539323E+04  0.90634185624E+02 0.  0.
    5000000    2    1    2    0    0 -0.37846347798E+03  0.60931337327E+03  0.13320123511E+04  0.16274015002E+04  0.59973439808E+03 0.  0.
         23    2    4    4    0    0 -0.84480741632E+02  0.16386777773E+03  0.93145154131E+03  0.95428936763E+03  0.95271082056E+02 0.  0.
         23    2    4    4    0    0 -0.29398273635E+03  0.44544559553E+03  0.40056080984E+03  0.67311213257E+03  0.88223312024E+02 0.  0.
          2    1    3    3  502    0  0.10648485771E+03 -0.25485624295E+03  0.36884550018E+03  0.46080118543E+03  0.00000000000E+00 0. -1.
         -2    1    3    3    0  502  0.27197862027E+03 -0.35445713031E+03  0.59860352406E+03  0.74695274692E+03  0.00000000000E+00 0.  1.
         13    1    5    5    0    0  0.16956502349E+02  0.43416197243E+02  0.29418466590E+03  0.29785417036E+03  0.00000000000E+00 0. -1.
        -13    1    5    5    0    0 -0.10143724398E+03  0.12045158049E+03  0.63726687541E+03  0.65643519726E+03  0.00000000000E+00 0.  1.
          5    1    6    6  503    0 -0.69828723600E+02  0.14701392174E+03  0.81584642611E+02  0.18211888352E+03  0.47000000000E+01 0. -1.
         -5    1    6    6    0  503 -0.22415401275E+03  0.29843167380E+03  0.31897616722E+03  0.49099324905E+03  0.47000000000E+01 0.  1.
<mgrwt>
<rscale>  0 0.73158092E+03</rscale>
<asrwt>0</asrwt>
<pdfrwt beam="1">  1        2 0.39497051E+00 0.73158092E+03</pdfrwt>
<pdfrwt beam="2">  1       -2 0.41207237E-01 0.73158092E+03</pdfrwt>
<totfact> 0.18644885E+01</totfact>
</mgrwt>
</event>
<event>
12    1  0.3127365E-008  0.3214969E+03  0.7818608E-02  0.1074962E+00
         -1   -1    0    0    0  501 -0.00000000000E+00  0.00000000000E+00  0.18371692525E+03  0.18371692525E+03  0.00000000000E+00 0.  1.
          1   -1    0    0  501    0  0.00000000000E+00 -0.00000000000E+00 -0.17395475857E+04  0.17395475857E+04  0.00000000000E+00 0. -1.
         23    2    1    2    0    0 -0.18773380461E+03  0.82512868613E+02  0.20013855428E+02  0.22463330514E+03  0.89483029051E+02 0.  0.
    5000000    2    1    2    0    0  0.18773380461E+03 -0.82512868613E+02 -0.15758445159E+04  0.16986312058E+04  0.60000806679E+03 0.  0.
         23    2    4    4    0    0  0.18691441772E+03  0.10076801816E+03 -0.19527407492E+03  0.30313107966E+03  0.93087561392E+02 0.  0.
         23    2    4    4    0    0  0.81938689251E+00 -0.18328088678E+03 -0.13805704410E+04  0.13955001261E+04  0.88618873488E+02 0.  0.
          3    1    3    3  502    0 -0.38119757353E+02 -0.18932360846E+02  0.92080237296E+01  0.43546961878E+02  0.00000000000E+00 0. -1.
         -3    1    3    3    0  502 -0.14961404726E+03  0.10144522946E+03  0.10805831698E+02  0.18108634326E+03  0.00000000000E+00 0.  1.
         13    1    5    5    0    0  0.82158972607E+02  0.13503041872E+01 -0.41086283243E+02  0.91869487709E+02  0.00000000000E+00 0. -1.
        -13    1    5    5    0    0  0.10475544512E+03  0.99417713977E+02 -0.15418779167E+03  0.21126159195E+03  0.00000000000E+00 0.  1.
          5    1    6    6  503    0  0.30388491607E+02 -0.90007051052E+02 -0.45989696949E+03  0.46962968625E+03  0.47000000000E+01 0. -1.
         -5    1    6    6    0  503 -0.29569104714E+02 -0.93273835724E+02 -0.92067347147E+03  0.92587043989E+03  0.47000000000E+01 0.  1.
<mgrwt>
<rscale>  0 0.32149686E+03</rscale>
<asrwt>0</asrwt>
<pdfrwt beam="1">  1        1 0.26762269E+00 0.32149686E+03</pdfrwt>
<pdfrwt beam="2">  1       -1 0.28264144E-01 0.32149686E+03</pdfrwt>
<totfact> 0.56151142E+01</totfact>
</mgrwt>
</event>
<event>
12    1  0.3127365E-008  0.4728919E+03  0.7818608E-02  0.1021107E+00
         -2   -1    0    0    0  501 -0.00000000000E+00  0.00000000000E+00  0.23063167219E+03  0.23063167219E+03  0.00000000000E+00 0.  1.
          2   -1    0    0  501    0  0.00000000000E+00 -0.00000000000E+00 -0.16607726025E+04  0.16607726025E+04  0.00000000000E+00 0. -1.
         23    2    1    2    0    0 -0.35327950361E+03  0.28601608921E+03 -0.38200565957E+03  0.60097447173E+03  0.92899842702E+02 0.  0.
    5000000    2    1    2    0    0  0.35327950361E+03 -0.28601608921E+03 -0.10481352708E+04  0.12904298030E+04  0.60000826633E+03 0.  0.
         23    2    4    4    0    0  0.22499519746E+03 -0.20267438514E+03 -0.10654052409E+04  0.11119012476E+04  0.97654041619E+02 0.  0.
         23    2    4    4    0    0  0.12828430615E+03 -0.83341704075E+02  0.17269970133E+02  0.17852855538E+03  0.90396296236E+02 0.  0.
          1    1    3    3  502    0 -0.27629748459E+03  0.23673802441E+03 -0.34792196098E+03  0.50342316506E+03  0.00000000000E+00 0. -1.
         -1    1    3    3    0  502 -0.76982019020E+02  0.49278064803E+02 -0.34083698586E+02  0.97551306667E+02  0.00000000000E+00 0.  1.
         13    1    5    5    0    0  0.37528661782E+02 -0.90767795339E+02 -0.28061949042E+03  0.29731211131E+03  0.00000000000E+00 0.  1.
        -13    1    5    5    0    0  0.18746653567E+03 -0.11190658980E+03 -0.78478575047E+03  0.81458913630E+03  0.00000000000E+00 0. -1.
          5    1    6    6  503    0  0.12188185183E+03 -0.98561982411E+02  0.40660214917E+01  0.15687024164E+03  0.47000000000E+01 0. -1.
         -5    1    6    6    0  503  0.64024543192E+01  0.15220278336E+02  0.13203948641E+02  0.21658313731E+02  0.47000000000E+01 0.  1.
<mgrwt>
<rscale>  0 0.47289195E+03</rscale>
<asrwt>0</asrwt>
<pdfrwt beam="1">  1        2 0.25550348E+00 0.47289195E+03</pdfrwt>
<pdfrwt beam="2">  1       -2 0.35481796E-01 0.47289195E+03</pdfrwt>
<totfact> 0.81417781E+01</totfact>
</mgrwt>
</event>
<event>
12    1  0.3127365E-008  0.3168118E+03  0.7818608E-02  0.1077126E+00
          1   -1    0    0  501    0  0.00000000000E+00  0.00000000000E+00  0.14447309604E+04  0.14447309604E+04  0.00000000000E+00 0. -1.
         -1   -1    0    0    0  501 -0.00000000000E+00 -0.00000000000E+00 -0.10433808806E+03  0.10433808806E+03  0.00000000000E+00 0.  1.
         23    2    1    2    0    0 -0.56178585272E+02  0.12077928152E+03  0.28527699083E+03  0.32798856185E+03  0.91923157681E+02 0.  0.
    5000000    2    1    2    0    0  0.56178585272E+02 -0.12077928152E+03  0.10551158816E+04  0.12210804867E+04  0.60002030224E+03 0.  0.
         23    2    4    4    0    0  0.12381947986E+03  0.15038201155E+03  0.13310798751E+03  0.25325148696E+03  0.92046544309E+02 0.  0.
         23    2    4    4    0    0 -0.67640894590E+02 -0.27116129307E+03  0.92200789404E+03  0.96782899969E+03  0.92144877757E+02 0.  0.
          2    1    3    3  502    0 -0.12864023667E+02  0.55399941022E+02  0.21594955097E+03  0.22331333398E+03  0.00000000000E+00 0. -1.
         -2    1    3    3    0  502 -0.43314561605E+02  0.65379340499E+02  0.69327439859E+02  0.10467522786E+03  0.00000000000E+00 0.  1.
         11    1    5    5    0    0  0.55096473427E+02  0.20911138146E+02  0.59998525914E+01  0.59235929247E+02  0.00000000000E+00 0.  1.
        -11    1    5    5    0    0  0.68723006435E+02  0.12947087340E+03  0.12710813492E+03  0.19401555772E+03  0.00000000000E+00 0. -1.
          5    1    6    6  503    0 -0.82325698176E+02 -0.15441516134E+03  0.50315538013E+03  0.53273726093E+03  0.47000000000E+01 0. -1.
         -5    1    6    6    0  503  0.14684803586E+02 -0.11674613173E+03  0.41885251391E+03  0.43509173876E+03  0.47000000000E+01 0. -1.
<mgrwt>
<rscale>  0 0.31681184E+03</rscale>
<asrwt>0</asrwt>
<pdfrwt beam="1">  1        1 0.22226629E+00 0.31681184E+03</pdfrwt>
<pdfrwt beam="2">  1       -1 0.16052015E-01 0.31681184E+03</pdfrwt>
<totfact> 0.22411320E+02</totfact>
</mgrwt>
</event>
<event>
12    1  0.3127365E-008  0.7072323E+03  0.7818608E-02  0.9704943E-01
          3   -1    0    0  501    0  0.00000000000E+00  0.00000000000E+00  0.14552220262E+04  0.14552220262E+04  0.00000000000E+00 0. -1.
         -3   -1    0    0    0  501 -0.00000000000E+00 -0.00000000000E+00 -0.44919774077E+03  0.44919774077E+03  0.00000000000E+00 0.  1.
         23    2    1    2    0    0 -0.67430400306E+03  0.15664914280E+03  0.48839150647E+03  0.85214548067E+03  0.91655955364E+02 0.  0.
    5000000    2    1    2    0    0  0.67430400306E+03 -0.15664914280E+03  0.51763277895E+03  0.10522742863E+04  0.60009385701E+03 0.  0.
         23    2    4    4    0    0  0.65018608121E+03 -0.11469509962E+03  0.16439846880E+03  0.68644555854E+03  0.91015065888E+02 0.  0.
         23    2    4    4    0    0  0.24117921849E+02 -0.41954043180E+02  0.35323431015E+03  0.36582872773E+03  0.81941224486E+02 0.  0.
          1    1    3    3  502    0 -0.32554130784E+03  0.30500393732E+02  0.24426783837E+03  0.40813501931E+03  0.00000000000E+00 0. -1.
         -1    1    3    3    0  502 -0.34876269522E+03  0.12614874907E+03  0.24412366810E+03  0.44401046136E+03  0.00000000000E+00 0.  1.
         11    1    5    5    0    0  0.19558442630E+02 -0.21332304689E+02  0.59036010766E+01  0.29537305347E+02  0.00000000000E+00 0. -1.
        -11    1    5    5    0    0  0.63062763858E+03 -0.93362794934E+02  0.15849486772E+03  0.65690825320E+03  0.00000000000E+00 0.  1.
          5    1    6    6  503    0  0.26268258828E+01 -0.10432128767E+02  0.13113320551E+01  0.11812667633E+02  0.47000000000E+01 0. -1.
         -5    1    6    6    0  503  0.21491095966E+02 -0.31521914412E+02  0.35192297810E+03  0.35401606010E+03  0.47000000000E+01 0.  1.
<mgrwt>
<rscale>  0 0.70723225E+03</rscale>
<asrwt>0</asrwt>
<pdfrwt beam="1">  1        3 0.22388031E+00 0.70723225E+03</pdfrwt>
<pdfrwt beam="2">  1       -3 0.69107345E-01 0.70723225E+03</pdfrwt>
<totfact> 0.55339203E-01</totfact>
</mgrwt>
</event>
<event>
12    1  0.3127365E-008  0.1675662E+04  0.7818608E-02  0.8775368E-01
          2   -1    0    0  501    0  0.00000000000E+00  0.00000000000E+00  0.40168289253E+04  0.40168289253E+04  0.00000000000E+00 0. -1.
         -2   -1    0    0    0  501 -0.00000000000E+00 -0.00000000000E+00 -0.78858508598E+03  0.78858508598E+03  0.00000000000E+00 0.  1.
         23    2    1    2    0    0 -0.12696608375E+04 -0.10858632881E+04  0.21650564682E+04  0.27361955207E+04  0.90325492490E+02 0.  0.
    5000000    2    1    2    0    0  0.12696608375E+04  0.10858632881E+04  0.10631873712E+04  0.20692184906E+04  0.60013336264E+03 0.  0.
         23    2    4    4    0    0  0.30100431444E+03  0.30354674916E+03  0.10443800806E+02  0.43621146099E+03  0.86180853364E+02 0.  0.
         23    2    4    4    0    0  0.96865652302E+03  0.78231653894E+03  0.10527435704E+04  0.16330070296E+04  0.90157124383E+02 0.  0.
          2    1    3    3  502    0 -0.89031495940E+03 -0.80625998864E+03  0.15183609890E+04  0.19360103277E+04  0.00000000000E+00 0. -1.
         -2    1    3    3    0  502 -0.37934587806E+03 -0.27960329946E+03  0.64669547920E+03  0.80018519299E+03  0.00000000000E+00 0.  1.
         11    1    5    5    0    0  0.27469213064E+03  0.24940943439E+03  0.31693353637E+02  0.37237790115E+03  0.00000000000E+00 0. -1.
        -11    1    5    5    0    0  0.26312183806E+02  0.54137314770E+02 -0.21249552831E+02  0.63833559846E+02  0.00000000000E+00 0.  1.
          5    1    6    6  503    0  0.79992961809E+03  0.60546065366E+03  0.82507368397E+03  0.12989375162E+04  0.47000000000E+01 0. -1.
         -5    1    6    6    0  503  0.16872690493E+03  0.17685588527E+03  0.22766988641E+03  0.33406951340E+03  0.47000000000E+01 0.  1.
<mgrwt>
<rscale>  0 0.16756616E+04</rscale>
<asrwt>0</asrwt>
<pdfrwt beam="1">  1        2 0.61797367E+00 0.16756616E+04</pdfrwt>
<pdfrwt beam="2">  1       -2 0.12132078E+00 0.16756616E+04</pdfrwt>
<totfact> 0.16185867E-01</totfact>
</mgrwt>
</event>
<event>
12    1  0.3127365E-008  0.9298068E+03  0.7818608E-02  0.9389070E-01
         -2   -1    0    0    0  501 -0.00000000000E+00  0.00000000000E+00  0.11397797301E+04  0.11397797301E+04  0.00000000000E+00 0. -1.
          2   -1    0    0  501    0  0.00000000000E+00 -0.00000000000E+00 -0.15081747150E+04  0.15081747150E+04  0.00000000000E+00 0.  1.
         23    2    1    2    0    0  0.87911797705E+02 -0.83192410610E+03  0.75055589654E+03  0.11274868797E+04  0.89812625182E+02 0.  0.
    5000000    2    1    2    0    0 -0.87911797705E+02  0.83192410610E+03 -0.11189508815E+04  0.15204675654E+04  0.59995361463E+03 0.  0.
         23    2    4    4    0    0 -0.28218970796E+03  0.73739688586E+03 -0.87011428044E+03  0.11790166969E+04  0.97960768021E+02 0.  0.
         23    2    4    4    0    0  0.19427791025E+03  0.94527220243E+02 -0.24883660103E+03  0.34145086843E+03  0.89385344227E+02 0.  0.
          3    1    3    3  502    0  0.71922936150E+02 -0.27863261228E+03  0.24959015035E+03  0.38092556297E+03  0.00000000000E+00 0. -1.
         -3    1    3    3    0  502  0.15988861555E+02 -0.55329149382E+03  0.50096574620E+03  0.74656131677E+03  0.00000000000E+00 0.  1.
         11    1    5    5    0    0  0.71292839265E+01  0.84367340178E+01 -0.16064832293E+02  0.19495743299E+02  0.00000000000E+00 0.  1.
        -11    1    5    5    0    0 -0.28931899188E+03  0.72896015184E+03 -0.85404944814E+03  0.11595209536E+04  0.00000000000E+00 0. -1.
          5    1    6    6  503    0  0.19664333977E+03  0.91584752889E+02 -0.25361015839E+03  0.33376125071E+03  0.47000000000E+01 0. -1.
         -5    1    6    6    0  503 -0.23654295190E+01  0.29424673548E+01  0.47735573548E+01  0.76896177254E+01  0.47000000000E+01 0.  1.
<mgrwt>
<rscale>  0 0.92980681E+03</rscale>
<asrwt>0</asrwt>
<pdfrwt beam="1">  1        2 0.23202688E+00 0.92980681E+03</pdfrwt>
<pdfrwt beam="2">  1       -2 0.17535073E+00 0.92980681E+03</pdfrwt>
<totfact> 0.24580801E+00</totfact>
</mgrwt>
</event>
<event>
12    1  0.3127365E-008  0.7218352E+03  0.7818608E-02  0.9680603E-01
         -1   -1    0    0    0  501 -0.00000000000E+00  0.00000000000E+00  0.22893786057E+03  0.22893786057E+03  0.00000000000E+00 0.  1.
          1   -1    0    0  501    0  0.00000000000E+00 -0.00000000000E+00 -0.26464355146E+04  0.26464355146E+04  0.00000000000E+00 0. -1.
         23    2    1    2    0    0  0.57627444692E+03  0.29675363578E+03 -0.12638344029E+04  0.14223520974E+04  0.75187316335E+02 0.  0.
    5000000    2    1    2    0    0 -0.57627444692E+03 -0.29675363578E+03 -0.11536632512E+04  0.14530212778E+04  0.60014746363E+03 0.  0.
         23    2    4    4    0    0 -0.45223604364E+03 -0.40289003904E+03 -0.10974405486E+04  0.12567476325E+04  0.90559545025E+02 0.  0.
         23    2    4    4    0    0 -0.12403840327E+03  0.10613640326E+03 -0.56222702518E+02  0.19627364531E+03  0.93337505763E+02 0.  0.
          2    1    3    3  502    0  0.38922837550E+03  0.15998836582E+03 -0.81524416608E+03  0.91745193652E+03  0.00000000000E+00 0.  1.
         -2    1    3    3    0  502  0.18704607141E+03  0.13676526996E+03 -0.44859023678E+03  0.50490016085E+03  0.00000000000E+00 0. -1.
         13    1    5    5    0    0 -0.72736689631E+02 -0.10135884219E+03 -0.27750831736E+03  0.30426157680E+03  0.00000000000E+00 0. -1.
        -13    1    5    5    0    0 -0.37949935401E+03 -0.30153119685E+03 -0.81993223128E+03  0.95248605568E+03  0.00000000000E+00 0.  1.
          5    1    6    6  503    0 -0.12461446037E+02  0.58942741328E+02 -0.43316685515E+02  0.74350249742E+02  0.47000000000E+01 0. -1.
         -5    1    6    6    0  503 -0.11157695724E+03  0.47193661934E+02 -0.12906017003E+02  0.12192339557E+03  0.47000000000E+01 0.  1.
<mgrwt>
<rscale>  0 0.72183522E+03</rscale>
<asrwt>0</asrwt>
<pdfrwt beam="1">  1        1 0.40714391E+00 0.72183522E+03</pdfrwt>
<pdfrwt beam="2">  1       -1 0.35221211E-01 0.72183522E+03</pdfrwt>
<totfact> 0.87226320E+00</totfact>
</mgrwt>
</event>
<event>
12    1  0.3127365E-008  0.1473078E+04  0.7818608E-02  0.8902556E-01
         -2   -1    0    0    0  501 -0.00000000000E+00  0.00000000000E+00  0.16401910488E+04  0.16401910488E+04  0.00000000000E+00 0.  1.
          2   -1    0    0  501    0  0.00000000000E+00 -0.00000000000E+00 -0.17407713062E+04  0.17407713062E+04  0.00000000000E+00 0. -1.
         23    2    1    2    0    0  0.12997769239E+04 -0.68520091362E+03  0.66901740155E+03  0.16171614118E+04  0.93308115435E+02 0.  0.
    5000000    2    1    2    0    0 -0.12997769239E+04  0.68520091362E+03 -0.76959765898E+03  0.17638009432E+04  0.59982736411E+03 0.  0.
         23    2    4    4    0    0 -0.55373948432E+03  0.32081149946E+03 -0.29318695276E+02  0.64719854665E+03  0.91972486169E+02 0.  0.
         23    2    4    4    0    0 -0.74603743957E+03  0.36438941416E+03 -0.74027896371E+03  0.11166023966E+04  0.97141451263E+02 0.  0.
          4    1    3    3  502    0  0.89414908756E+03 -0.43035779007E+03  0.47785580119E+03  0.11013884805E+04  0.00000000000E+00 0. -1.
         -4    1    3    3    0  502  0.40562783633E+03 -0.25484312355E+03  0.19116160036E+03  0.51577293132E+03  0.00000000000E+00 0.  1.
         13    1    5    5    0    0 -0.46482657520E+03  0.23514967507E+03 -0.28519182930E+01  0.52092921605E+03  0.00000000000E+00 0. -1.
        -13    1    5    5    0    0 -0.88912909122E+02  0.85661824391E+02 -0.26466776983E+02  0.12626933060E+03  0.00000000000E+00 0.  1.
          5    1    6    6  503    0 -0.11958799510E+03  0.55387162042E+02 -0.73757120764E+02  0.15110006339E+03  0.47000000000E+01 0. -1.
         -5    1    6    6    0  503 -0.62644944447E+03  0.30900225211E+03 -0.66652184294E+03  0.96550233319E+03  0.47000000000E+01 0.  1.
<mgrwt>
<rscale>  0 0.14730780E+04</rscale>
<asrwt>0</asrwt>
<pdfrwt beam="1">  1        2 0.26781097E+00 0.14730780E+04</pdfrwt>
<pdfrwt beam="2">  1       -2 0.25233708E+00 0.14730780E+04</pdfrwt>
<totfact> 0.54468515E-01</totfact>
</mgrwt>
</event>
<event>
12    1  0.3127365E-008  0.5495375E+03  0.7818608E-02  0.1001601E+00
          1   -1    0    0  501    0  0.00000000000E+00  0.00000000000E+00  0.18574433331E+04  0.18574433331E+04  0.00000000000E+00 0. -1.
         -1   -1    0    0    0  501 -0.00000000000E+00 -0.00000000000E+00 -0.24160706911E+03  0.24160706911E+03  0.00000000000E+00 0.  1.
         23    2    1    2    0    0 -0.13916749509E+03 -0.36491857052E+03  0.12129620829E+04  0.12776533342E+04  0.92670778216E+02 0.  0.
    5000000    2    1    2    0    0  0.13916749509E+03  0.36491857052E+03  0.40287418118E+03  0.82139706805E+03  0.59987697300E+03 0.  0.
         23    2    4    4    0    0  0.30942168818E+03  0.22685382232E+02  0.18484197230E+03  0.37221913114E+03  0.90133895822E+02 0.  0.
         23    2    4    4    0    0 -0.17025419310E+03  0.34223318829E+03  0.21803220887E+03  0.44917793691E+03  0.90070691478E+02 0.  0.
          3    1    3    3  502    0 -0.73766201351E+02 -0.13390158131E+03  0.35036594706E+03  0.38226611516E+03  0.00000000000E+00 0. -1.
         -3    1    3    3    0  502 -0.65401293737E+02 -0.23101698922E+03  0.86259613579E+03  0.89538721904E+03  0.00000000000E+00 0.  1.
         11    1    5    5    0    0  0.64081305394E+02  0.41929992215E+02  0.51925544896E+02  0.92524592195E+02  0.00000000000E+00 0. -1.
        -11    1    5    5    0    0  0.24534038279E+03 -0.19244609982E+02  0.13291642741E+03  0.27969453895E+03  0.00000000000E+00 0.  1.
          5    1    6    6  503    0 -0.97391907623E+02  0.16364438773E+03  0.15689655256E+03  0.24678591433E+03  0.47000000000E+01 0. -1.
         -5    1    6    6    0  503 -0.72862285472E+02  0.17858880056E+03  0.61135656310E+02  0.20239202257E+03  0.47000000000E+01 0.  1.
<mgrwt>
<rscale>  0 0.54953753E+03</rscale>
<asrwt>0</asrwt>
<pdfrwt beam="1">  1        1 0.28576050E+00 0.54953753E+03</pdfrwt>
<pdfrwt beam="2">  1       -1 0.37170319E-01 0.54953753E+03</pdfrwt>
<totfact> 0.27714802E+01</totfact>
</mgrwt>
</event>
<event>
12    1  0.3127365E-008  0.9826221E+03  0.7818608E-02  0.9327813E-01
         -2   -1    0    0    0  501 -0.00000000000E+00  0.00000000000E+00  0.24329056662E+03  0.24329056662E+03  0.00000000000E+00 0.  1.
          2   -1    0    0  501    0  0.00000000000E+00 -0.00000000000E+00 -0.43361726010E+04  0.43361726010E+04  0.00000000000E+00 0. -1.
         23    2    1    2    0    0 -0.15175313861E+03 -0.89862613320E+03 -0.23611154094E+04  0.25326063847E+04  0.93119175945E+02 0.  0.
    5000000    2    1    2    0    0  0.15175313861E+03  0.89862613320E+03 -0.17317666250E+04  0.20468567829E+04  0.60004091864E+03 0.  0.
         23    2    4    4    0    0  0.28940687323E+02  0.90940106101E+03 -0.13058997673E+04  0.15941710776E+04  0.90329226685E+02 0.  0.
         23    2    4    4    0    0  0.12281245129E+03 -0.10774927816E+02 -0.42586685770E+03  0.45268570536E+03  0.91448182528E+02 0.  0.
          4    1    3    3  502    0 -0.79357583367E+02 -0.57815412799E+03 -0.13946472316E+04  0.15118203340E+04  0.00000000000E+00 0. -1.
         -4    1    3    3    0  502 -0.72395555242E+02 -0.32047200521E+03 -0.96646817784E+03  0.10207860507E+04  0.00000000000E+00 0.  1.
         13    1    5    5    0    0 -0.23383375960E+02  0.16675932707E+03 -0.27717936610E+03  0.32432060747E+03  0.00000000000E+00 0.  1.
        -13    1    5    5    0    0  0.52324063283E+02  0.74264173394E+03 -0.10287204012E+04  0.12698504701E+04  0.00000000000E+00 0. -1.
          5    1    6    6  503    0  0.80685405901E+02  0.25191556116E+02 -0.15944369720E+03  0.18052460165E+03  0.47000000000E+01 0. -1.
         -5    1    6    6    0  503  0.42127045386E+02 -0.35966483932E+02 -0.26642316050E+03  0.27216110371E+03  0.47000000000E+01 0.  1.
<mgrwt>
<rscale>  0 0.98262212E+03</rscale>
<asrwt>0</asrwt>
<pdfrwt beam="1">  1        2 0.66710343E+00 0.98262212E+03</pdfrwt>
<pdfrwt beam="2">  1       -2 0.37429320E-01 0.98262212E+03</pdfrwt>
<totfact> 0.12692131E+00</totfact>
</mgrwt>
</event>
<event>
12    1  0.3127365E-008  0.1160747E+04  0.7818608E-02  0.9147926E-01
         -2   -1    0    0    0  501 -0.00000000000E+00  0.00000000000E+00  0.12420623455E+04  0.12420623455E+04  0.00000000000E+00 0. -1.
          2   -1    0    0  501    0  0.00000000000E+00 -0.00000000000E+00 -0.24156289769E+04  0.24156289769E+04  0.00000000000E+00 0.  1.
         23    2    1    2    0    0 -0.59242807213E+03  0.91699770850E+03 -0.19162931528E+04  0.22073711159E+04  0.91934638656E+02 0.  0.
    5000000    2    1    2    0    0  0.59242807213E+03 -0.91699770850E+03  0.74272652138E+03  0.14503202065E+04  0.59994182877E+03 0.  0.
         23    2    4    4    0    0 -0.36184238285E+02 -0.41388286242E+03  0.34118729699E+03  0.54598273243E+03  0.95289294184E+02 0.  0.
         23    2    4    4    0    0  0.62861231041E+03 -0.50311484608E+03  0.40153922439E+03  0.90433747411E+03  0.91184062224E+02 0.  0.
          3    1    3    3  502    0 -0.32282799667E+03  0.44059607888E+03 -0.10234604213E+04  0.11600922610E+04  0.00000000000E+00 0. -1.
         -3    1    3    3    0  502 -0.26960007546E+03  0.47640162962E+03 -0.89283273152E+03  0.10472788549E+04  0.00000000000E+00 0.  1.
         11    1    5    5    0    0 -0.48648013973E+02 -0.35260147834E+03  0.32352104710E+03  0.48099927204E+03  0.00000000000E+00 0.  1.
        -11    1    5    5    0    0  0.12463775688E+02 -0.61281384078E+02  0.17666249887E+02  0.64983460388E+02  0.00000000000E+00 0. -1.
          5    1    6    6  503    0  0.45343951931E+03 -0.31384781792E+03  0.25366458154E+03  0.60702196040E+03  0.47000000000E+01 0. -1.
         -5    1    6    6    0  503  0.17517279111E+03 -0.18926702816E+03  0.14787464285E+03  0.29731551371E+03  0.47000000000E+01 0.  1.
<mgrwt>
<rscale>  0 0.11607474E+04</rscale>
<asrwt>0</asrwt>
<pdfrwt beam="1">  1        2 0.37163522E+00 0.11607474E+04</pdfrwt>
<pdfrwt beam="2">  1       -2 0.19108652E+00 0.11607474E+04</pdfrwt>
<totfact> 0.58185741E-01</totfact>
</mgrwt>
</event>
<event>
12    1  0.3127365E-008  0.1323748E+04  0.7818608E-02  0.9010942E-01
          2   -1    0    0  501    0  0.00000000000E+00  0.00000000000E+00  0.22990978760E+04  0.22990978760E+04  0.00000000000E+00 0. -1.
         -2   -1    0    0    0  501 -0.00000000000E+00 -0.00000000000E+00 -0.89534905131E+03  0.89534905131E+03  0.00000000000E+00 0.  1.
         23    2    1    2    0    0  0.99659487754E+03 -0.86565135193E+03  0.26209722912E+03  0.13489665419E+04  0.91990003040E+02 0.  0.
    5000000    2    1    2    0    0 -0.99659487754E+03  0.86565135193E+03  0.11416515956E+04  0.18454803854E+04  0.59989655283E+03 0.  0.
         23    2    4    4    0    0 -0.75926805881E+03  0.63924203758E+03  0.48807022394E+03  0.11093457958E+04  0.85540537037E+02 0.  0.
         23    2    4    4    0    0 -0.23732681873E+03  0.22640931435E+03  0.65358137164E+03  0.73613458956E+03  0.84500461983E+02 0.  0.
          2    1    3    3  502    0  0.77739592926E+03 -0.70693949676E+03  0.17925032708E+03  0.10659449154E+04  0.00000000000E+00 0. -1.
         -2    1    3    3    0  502  0.21919894829E+03 -0.15871185517E+03  0.82846902031E+02  0.28302162652E+03  0.00000000000E+00 0.  1.
         13    1    5    5    0    0 -0.77264892125E+01  0.18934325849E+01 -0.28153725792E+01  0.84386044619E+01  0.00000000000E+00 0. -1.
        -13    1    5    5    0    0 -0.75154156960E+03  0.63734860500E+03  0.49088559652E+03  0.11009071914E+04  0.00000000000E+00 0.  1.
          5    1    6    6  503    0 -0.80053590065E+01  0.27895173992E+02  0.26690502055E+02  0.39707674382E+02  0.47000000000E+01 0. -1.
         -5    1    6    6    0  503 -0.22932145973E+03  0.19851414036E+03  0.62689086958E+03  0.69642691518E+03  0.47000000000E+01 0.  1.
<mgrwt>
<rscale>  0 0.13237485E+04</rscale>
<asrwt>0</asrwt>
<pdfrwt beam="1">  1        2 0.35370736E+00 0.13237485E+04</pdfrwt>
<pdfrwt beam="2">  1       -2 0.13774601E+00 0.13237485E+04</pdfrwt>
<totfact> 0.16376738E+00</totfact>
</mgrwt>
</event>
<event>
12    1  0.3127365E-008  0.3623912E+03  0.7818608E-02  0.1057641E+00
         -2   -1    0    0    0  501 -0.00000000000E+00  0.00000000000E+00  0.25894469995E+03  0.25894469995E+03  0.00000000000E+00 0.  1.
          2   -1    0    0  501    0  0.00000000000E+00 -0.00000000000E+00 -0.67904545101E+03  0.67904545101E+03  0.00000000000E+00 0. -1.
         23    2    1    2    0    0 -0.11550724163E+03  0.62976104077E+02 -0.25646681201E+03  0.30229992759E+03  0.91115904226E+02 0.  0.
    5000000    2    1    2    0    0  0.11550724163E+03 -0.62976104077E+02 -0.16363393905E+03  0.63569022338E+03  0.60001506775E+03 0.  0.
         23    2    4    4    0    0 -0.35649199326E+02 -0.28871651885E+03 -0.17124198671E+03  0.34952126011E+03  0.90626704588E+02 0.  0.
         23    2    4    4    0    0  0.15115644096E+03  0.22574041477E+03  0.76080476627E+01  0.28616896327E+03  0.89597927671E+02 0.  0.
          2    1    3    3  502    0 -0.10230147985E+03  0.71515445412E+02 -0.25789067555E+03  0.28650942785E+03  0.00000000000E+00 0. -1.
         -2    1    3    3    0  502 -0.13205761779E+02 -0.85393413345E+01  0.14238635374E+01  0.15790499738E+02  0.00000000000E+00 0.  1.
         13    1    5    5    0    0  0.23678321507E+02 -0.14879021547E+03 -0.10550094284E+03  0.18392835580E+03  0.00000000000E+00 0.  1.
        -13    1    5    5    0    0 -0.59327520833E+02 -0.13992630338E+03 -0.65741043870E+02  0.16559290430E+03  0.00000000000E+00 0. -1.
          5    1    6    6  503    0  0.15712133226E+02  0.83603215355E+02 -0.20886697734E+02  0.87719512599E+02  0.47000000000E+01 0. -1.
         -5    1    6    6    0  503  0.13544430773E+03  0.14213719942E+03  0.28494745397E+02  0.19844945067E+03  0.47000000000E+01 0.  1.
<mgrwt>
<rscale>  0 0.36239118E+03</rscale>
<asrwt>0</asrwt>
<pdfrwt beam="1">  1        2 0.10446853E+00 0.36239118E+03</pdfrwt>
<pdfrwt beam="2">  1       -2 0.39837646E-01 0.36239118E+03</pdfrwt>
<totfact> 0.26156388E+02</totfact>
</mgrwt>
</event>
<event>
12    1  0.3127365E-008  0.5520353E+03  0.7818608E-02  0.1001024E+00
         -1   -1    0    0    0  501 -0.00000000000E+00  0.00000000000E+00  0.27227970665E+03  0.27227970665E+03  0.00000000000E+00 0.  1.
          1   -1    0    0  501    0  0.00000000000E+00 -0.00000000000E+00 -0.15214701427E+04  0.15214701427E+04  0.00000000000E+00 0. -1.
         23    2    1    2    0    0  0.45419452241E+03 -0.52214094923E+02 -0.21033426330E+03  0.50989996495E+03  0.82088342951E+02 0.  0.
    5000000    2    1    2    0    0 -0.45419452241E+03  0.52214094923E+02 -0.10388561728E+04  0.12838498844E+04  0.60002450125E+03 0.  0.
         23    2    4    4    0    0 -0.28270570062E+03 -0.18342829489E+03 -0.86955793758E+03  0.93703983729E+03  0.91346578024E+02 0.  0.
         23    2    4    4    0    0 -0.17148882179E+03  0.23564238982E+03 -0.16929823520E+03  0.34681004713E+03  0.81728602547E+02 0.  0.
          4    1    3    3  502    0  0.36194307896E+03 -0.73412645392E+02 -0.17708349185E+03  0.40957389076E+03  0.00000000000E+00 0. -1.
         -4    1    3    3    0  502  0.92251443454E+02  0.21198550469E+02 -0.33250771450E+02  0.10032607419E+03  0.00000000000E+00 0.  1.
         13    1    5    5    0    0 -0.11999438818E+03 -0.11515324069E+03 -0.33315569989E+03  0.37235956065E+03  0.00000000000E+00 0.  1.
        -13    1    5    5    0    0 -0.16271131244E+03 -0.68275054201E+02 -0.53640223769E+03  0.56468027664E+03  0.00000000000E+00 0. -1.
          5    1    6    6  503    0 -0.10182244601E+03  0.90655459543E+02 -0.11024743742E+03  0.17539330179E+03  0.47000000000E+01 0. -1.
         -5    1    6    6    0  503 -0.69666375774E+02  0.14498693027E+03 -0.59050797778E+02  0.17141674534E+03  0.47000000000E+01 0.  1.
<mgrwt>
<rscale>  0 0.55203534E+03</rscale>
<asrwt>0</asrwt>
<pdfrwt beam="1">  1        1 0.23407233E+00 0.55203534E+03</pdfrwt>
<pdfrwt beam="2">  1       -1 0.41889186E-01 0.55203534E+03</pdfrwt>
<totfact> 0.37453728E+01</totfact>
</mgrwt>
</event>
<event>
12    1  0.3127365E-008  0.1092170E+04  0.7818608E-02  0.9212858E-01
         -2   -1    0    0    0  501 -0.00000000000E+00  0.00000000000E+00  0.19417088779E+04  0.19417088779E+04  0.00000000000E+00 0.  1.
          2   -1    0    0  501    0  0.00000000000E+00 -0.00000000000E+00 -0.68795225535E+03  0.68795225535E+03  0.00000000000E+00 0. -1.
         23    2    1    2    0    0 -0.85768827025E+03 -0.53266095384E+03  0.10084574633E+04  0.14297733556E+04  0.88929929978E+02 0.  0.
    5000000    2    1    2    0    0  0.85768827025E+03  0.53266095384E+03  0.24529915932E+03  0.11998877777E+04  0.60016842708E+03 0.  0.
         23    2    4    4    0    0  0.65370345475E+03  0.74505553708E+02  0.11985593792E+03  0.67489619284E+03  0.90775222199E+02 0.  0.
         23    2    4    4    0    0  0.20398481550E+03  0.45815540013E+03  0.12544322140E+03  0.52499158487E+03  0.91454834571E+02 0.  0.
          1    1    3    3  502    0 -0.39993971562E+03 -0.29345188076E+03  0.46220793665E+03  0.67801324408E+03  0.00000000000E+00 0. -1.
         -1    1    3    3    0  502 -0.45774855464E+03 -0.23920907308E+03  0.54624952663E+03  0.75176011151E+03  0.00000000000E+00 0.  1.
         11    1    5    5    0    0  0.19448422915E+02  0.18347047085E+02  0.11050286599E+02  0.28930332258E+02  0.00000000000E+00 0.  1.
        -11    1    5    5    0    0  0.63425503184E+03  0.56158506623E+02  0.10880565132E+03  0.64596586058E+03  0.00000000000E+00 0. -1.
          5    1    6    6  503    0  0.15629399117E+03  0.41633101288E+03  0.12262662455E+03  0.46132277530E+03  0.47000000000E+01 0. -1.
         -5    1    6    6    0  503  0.47690824335E+02  0.41824387254E+02  0.28165968466E+01  0.63668809575E+02  0.47000000000E+01 0.  1.
<mgrwt>
<rscale>  0 0.10921695E+04</rscale>
<asrwt>0</asrwt>
<pdfrwt beam="1">  1        2 0.10583881E+00 0.10921695E+04</pdfrwt>
<pdfrwt beam="2">  1       -2 0.29872444E+00 0.10921695E+04</pdfrwt>
<totfact> 0.13471608E+00</totfact>
</mgrwt>
</event>
<event>
12    1  0.3127365E-008  0.6653987E+03  0.7818608E-02  0.9778306E-01
          1   -1    0    0  501    0  0.00000000000E+00  0.00000000000E+00  0.86430088313E+03  0.86430088313E+03  0.00000000000E+00 0. -1.
         -1   -1    0    0    0  501 -0.00000000000E+00 -0.00000000000E+00 -0.86045286878E+03  0.86045286878E+03  0.00000000000E+00 0.  1.
         23    2    1    2    0    0 -0.17139461711E+03  0.50297712186E+03  0.53763171255E+03  0.76181214870E+03  0.94592767589E+02 0.  0.
    5000000    2    1    2    0    0  0.17139461711E+03 -0.50297712186E+03 -0.53378369820E+03  0.96294160321E+03  0.59997449515E+03 0.  0.
         23    2    4    4    0    0  0.28405415441E+03 -0.25392090629E+02 -0.16561392316E+03  0.34217178485E+03  0.91225204286E+02 0.  0.
         23    2    4    4    0    0 -0.11265953731E+03 -0.47758503123E+03 -0.36816977505E+03  0.62076981836E+03  0.95008161353E+02 0.  0.
          2    1    3    3  502    0 -0.52437086784E+02  0.59957300961E+02  0.61221676917E+02  0.10046203130E+03  0.00000000000E+00 0. -1.
         -2    1    3    3    0  502 -0.11895753032E+03  0.44301982090E+03  0.47641003563E+03  0.66135011740E+03  0.00000000000E+00 0.  1.
         13    1    5    5    0    0  0.13471107164E+03 -0.49748928772E+02 -0.51159315973E+02  0.15244443036E+03  0.00000000000E+00 0.  1.
        -13    1    5    5    0    0  0.14934308278E+03  0.24356838143E+02 -0.11445460718E+03  0.18972735449E+03  0.00000000000E+00 0. -1.
          5    1    6    6  503    0 -0.11079685303E+03 -0.29976651447E+03 -0.26453201514E+03  0.41489177248E+03  0.47000000000E+01 0. -1.
         -5    1    6    6    0  503 -0.18626842793E+01 -0.17781851676E+03 -0.10363775991E+03  0.20587804588E+03  0.47000000000E+01 0.  1.
<mgrwt>
<rscale>  0 0.66539868E+03</rscale>
<asrwt>0</asrwt>
<pdfrwt beam="1">  1        1 0.13296937E+00 0.66539868E+03</pdfrwt>
<pdfrwt beam="2">  1       -1 0.13237736E+00 0.66539868E+03</pdfrwt>
<totfact> 0.98535640E+00</totfact>
</mgrwt>
</event>
<event>
12    1  0.3127365E-008  0.1036711E+04  0.7818608E-02  0.9269172E-01
         -2   -1    0    0    0  501 -0.00000000000E+00  0.00000000000E+00  0.39493277308E+03  0.39493277308E+03  0.00000000000E+00 0.  1.
          2   -1    0    0  501    0  0.00000000000E+00 -0.00000000000E+00 -0.31011343403E+04  0.31011343403E+04  0.00000000000E+00 0. -1.
         23    2    1    2    0    0  0.79127824308E+03  0.64486924057E+03 -0.12890197959E+04  0.16486327192E+04  0.12016743801E+03 0.  0.
    5000000    2    1    2    0    0 -0.79127824308E+03 -0.64486924057E+03 -0.14171817714E+04  0.18474343942E+04  0.60218939916E+03 0.  0.
         23    2    4    4    0    0 -0.68725837181E+03 -0.62488048588E+03 -0.84568340549E+03  0.12591459062E+04  0.86419323801E+02 0.  0.
         23    2    4    4    0    0 -0.10401987127E+03 -0.19988754688E+02 -0.57149836588E+03  0.58828848802E+03  0.90847559157E+02 0.  0.
          1    1    3    3  502    0  0.33852906402E+03  0.31740197673E+03 -0.66631088046E+03  0.81198283937E+03  0.00000000000E+00 0. -1.
         -1    1    3    3    0  502  0.45274917906E+03  0.32746726384E+03 -0.62270891542E+03  0.83664987980E+03  0.00000000000E+00 0.  1.
         11    1    5    5    0    0 -0.27035647991E+03 -0.20833135056E+03 -0.35262478773E+03  0.49075331764E+03  0.00000000000E+00 0.  1.
        -11    1    5    5    0    0 -0.41690189190E+03 -0.41654913532E+03 -0.49305861776E+03  0.76839258856E+03  0.00000000000E+00 0. -1.
          5    1    6    6  503    0 -0.42881461049E+02  0.19161277205E+02 -0.38853530855E+03  0.39139206716E+03  0.47000000000E+01 0. -1.
         -5    1    6    6    0  503 -0.61138410219E+02 -0.39150031893E+02 -0.18296305733E+03  0.19689642087E+03  0.47000000000E+01 0.  1.
<mgrwt>
<rscale>  0 0.10367114E+04</rscale>
<asrwt>0</asrwt>
<pdfrwt beam="1">  1        2 0.47709756E+00 0.10367114E+04</pdfrwt>
<pdfrwt beam="2">  1       -2 0.60758892E-01 0.10367114E+04</pdfrwt>
<totfact> 0.38635932E+00</totfact>
</mgrwt>
</event>
<event>
12    1  0.3127365E-008  0.1367161E+04  0.7818608E-02  0.8977938E-01
         -2   -1    0    0    0  501 -0.00000000000E+00  0.00000000000E+00  0.10272690016E+04  0.10272690016E+04  0.00000000000E+00 0.  1.
          2   -1    0    0  501    0  0.00000000000E+00 -0.00000000000E+00 -0.19894007151E+04  0.19894007151E+04  0.00000000000E+00 0. -1.
         23    2    1    2    0    0  0.13403028627E+04  0.21595073661E+03 -0.31172998781E+03  0.13961583047E+04  0.95057572192E+02 0.  0.
    5000000    2    1    2    0    0 -0.13403028627E+04 -0.21595073661E+03 -0.65040172575E+03  0.16205114120E+04  0.59999028932E+03 0.  0.
         23    2    4    4    0    0 -0.93213066525E+03 -0.22995488536E+03 -0.16319900576E+03  0.97825358640E+03  0.92732612494E+02 0.  0.
         23    2    4    4    0    0 -0.40817219745E+03  0.14004148751E+02 -0.48720271999E+03  0.64225782564E+03  0.91257686113E+02 0.  0.
          3    1    3    3  502    0  0.12671909823E+04  0.18809962215E+03 -0.27763498437E+03  0.13108148756E+04  0.00000000000E+00 0. -1.
         -3    1    3    3    0  502  0.73111880360E+02  0.27851114458E+02 -0.34095003435E+02  0.85343429071E+02  0.00000000000E+00 0.  1.
         11    1    5    5    0    0 -0.43553950395E+03 -0.15087179707E+03 -0.58595020379E+02  0.46464000588E+03  0.00000000000E+00 0. -1.
        -11    1    5    5    0    0 -0.49659116130E+03 -0.79083088293E+02 -0.10460398538E+03  0.51361358052E+03  0.00000000000E+00 0.  1.
          5    1    6    6  503    0 -0.45821889401E+02  0.16244413211E+02 -0.10367491755E+03  0.11460412313E+03  0.47000000000E+01 0. -1.
         -5    1    6    6    0  503 -0.36235030805E+03 -0.22402644599E+01 -0.38352780244E+03  0.52765370251E+03  0.47000000000E+01 0.  1.
<mgrwt>
<rscale>  0 0.13671612E+04</rscale>
<asrwt>0</asrwt>
<pdfrwt beam="1">  1        2 0.30606165E+00 0.13671612E+04</pdfrwt>
<pdfrwt beam="2">  1       -2 0.15804139E+00 0.13671612E+04</pdfrwt>
<totfact> 0.16856536E+00</totfact>
</mgrwt>
</event>
<event>
12    1  0.3127365E-008  0.7403576E+03  0.7818608E-02  0.9650600E-01
         -1   -1    0    0    0  501 -0.00000000000E+00  0.00000000000E+00  0.40074275227E+03  0.40074275227E+03  0.00000000000E+00 0.  1.
          1   -1    0    0  501    0  0.00000000000E+00 -0.00000000000E+00 -0.14835163552E+04  0.14835163552E+04  0.00000000000E+00 0. -1.
         23    2    1    2    0    0  0.51930583623E+03  0.33489340395E+03 -0.70918572843E+03  0.94533038944E+03  0.94196625427E+02 0.  0.
    5000000    2    1    2    0    0 -0.51930583623E+03 -0.33489340395E+03 -0.37358787446E+03  0.93892871799E+03  0.60015589139E+03 0.  0.
         23    2    4    4    0    0  0.41415282192E+02 -0.26891654623E+03 -0.15645552200E+03  0.32731089253E+03  0.92858793735E+02 0.  0.
         23    2    4    4    0    0 -0.56072111843E+03 -0.65976857724E+02 -0.21713235246E+03  0.61161782546E+03  0.90381345043E+02 0.  0.
          3    1    3    3  502    0  0.21452034511E+03  0.18132669673E+03 -0.36566274656E+03  0.46109390978E+03  0.00000000000E+00 0. -1.
         -3    1    3    3    0  502  0.30478549112E+03  0.15356670722E+03 -0.34352298187E+03  0.48423647966E+03  0.00000000000E+00 0.  1.
         11    1    5    5    0    0 -0.18734899294E+02 -0.16986959972E+03 -0.81832282067E+02  0.18948139684E+03  0.00000000000E+00 0. -1.
        -11    1    5    5    0    0  0.60150181486E+02 -0.99046946507E+02 -0.74623239928E+02  0.13782949569E+03  0.00000000000E+00 0.  1.
          5    1    6    6  503    0 -0.27697557970E+03 -0.77785081245E+02 -0.10679911596E+03  0.30691062508E+03  0.47000000000E+01 0. -1.
         -5    1    6    6    0  503 -0.28374553873E+03  0.11808223521E+02 -0.11033323651E+03  0.30470720039E+03  0.47000000000E+01 0.  1.
<mgrwt>
<rscale>  0 0.74035760E+03</rscale>
<asrwt>0</asrwt>
<pdfrwt beam="1">  1        1 0.22823329E+00 0.74035760E+03</pdfrwt>
<pdfrwt beam="2">  1       -1 0.61652730E-01 0.74035760E+03</pdfrwt>
<totfact> 0.18570103E+01</totfact>
</mgrwt>
</event>
<event>
12    1  0.3924181E-008  0.1333774E+04  0.7818608E-02  0.9003202E-01
          2   -1    0    0  501    0  0.00000000000E+00  0.00000000000E+00  0.14807878209E+04  0.14807878209E+04  0.00000000000E+00 0. -1.
         -2   -1    0    0    0  501 -0.00000000000E+00 -0.00000000000E+00 -0.12990450176E+04  0.12990450176E+04  0.00000000000E+00 0.  1.
         23    2    1    2    0    0  0.21902436351E+03 -0.12981084846E+04 -0.15144482850E+02  0.13197479190E+04  0.91912483794E+02 0.  0.
    5000000    2    1    2    0    0 -0.21902436351E+03  0.12981084846E+04  0.19688728621E+03  0.14600849195E+04  0.60002171537E+03 0.  0.
         23    2    4    4    0    0 -0.20777245356E+03  0.12255522564E+04  0.32692896797E+03  0.12886089703E+04  0.92102131503E+02 0.  0.
         23    2    4    4    0    0 -0.11251909950E+02  0.72556228236E+02 -0.13004168176E+03  0.17147594917E+03  0.84274257132E+02 0.  0.
          1    1    3    3  502    0  0.95636165468E+02 -0.33566794392E+03 -0.16771375594E+02  0.34942885364E+03  0.00000000000E+00 0. -1.
         -1    1    3    3    0  502  0.12338819804E+03 -0.96244054073E+03  0.16268927432E+01  0.97031906538E+03  0.00000000000E+00 0.  1.
         11    1    5    5    0    0 -0.10706865819E+03  0.79226279821E+03  0.17367756350E+03  0.81811242202E+03  0.00000000000E+00 0. -1.
        -11    1    5    5    0    0 -0.10070379536E+03  0.43328945820E+03  0.15325140447E+03  0.47049654829E+03  0.00000000000E+00 0.  1.
          5    1    6    6  503    0 -0.19708700658E+02  0.85428839922E+02 -0.12803705978E+03  0.15524850482E+03  0.47000000000E+01 0. -1.
         -5    1    6    6    0  503  0.84567907082E+01 -0.12872611686E+02 -0.20046219762E+01  0.16227444345E+02  0.47000000000E+01 0.  1.
<mgrwt>
<rscale>  0 0.13337744E+04</rscale>
<asrwt>0</asrwt>
<pdfrwt beam="1">  1        2 0.22781351E+00 0.13337744E+04</pdfrwt>
<pdfrwt beam="2">  1       -2 0.19985308E+00 0.13337744E+04</pdfrwt>
<totfact> 0.16601700E+00</totfact>
</mgrwt>
</event>
<event>
12    1  0.5076796E-008  0.8527829E+03  0.7818608E-02  0.9486609E-01
         -2   -1    0    0    0  501 -0.00000000000E+00  0.00000000000E+00  0.40273204834E+03  0.40273204834E+03  0.00000000000E+00 0.  1.
          2   -1    0    0  501    0  0.00000000000E+00 -0.00000000000E+00 -0.21038713982E+04  0.21038713982E+04  0.00000000000E+00 0. -1.
         23    2    1    2    0    0  0.73547982659E+03  0.35220049889E+03 -0.64601719388E+03  0.10441839362E+04  0.89476875055E+02 0.  0.
    5000000    2    1    2    0    0 -0.73547982659E+03 -0.35220049889E+03 -0.10551221559E+04  0.14624195103E+04  0.60034347944E+03 0.  0.
         23    2    4    4    0    0 -0.54373173794E+02  0.17033958881E+02  0.43905532430E+02  0.11483355587E+03  0.89512300786E+02 0.  0.
         23    2    4    4    0    0 -0.68110665280E+03 -0.36923445777E+03 -0.10990276884E+04  0.13475859544E+04  0.88801392942E+02 0.  0.
          1    1    3    3  502    0  0.51412620764E+03  0.29052278755E+03 -0.46066351515E+03  0.74895935915E+03  0.00000000000E+00 0. -1.
         -1    1    3    3    0  502  0.22135361895E+03  0.61677711343E+02 -0.18535367873E+03  0.29522457709E+03  0.00000000000E+00 0.  1.
         13    1    5    5    0    0 -0.63175270132E+02  0.44404171534E+02  0.29358881642E+02  0.82612281999E+02  0.00000000000E+00 0. -1.
        -13    1    5    5    0    0  0.88020963381E+01 -0.27370212653E+02  0.14546650788E+02  0.32221273869E+02  0.00000000000E+00 0.  1.
          5    1    6    6  503    0 -0.37436885578E+03 -0.15559745642E+03 -0.54654371794E+03  0.68051064227E+03  0.47000000000E+01 0. -1.
         -5    1    6    6    0  503 -0.30673779701E+03 -0.21363700135E+03 -0.55248397043E+03  0.66707531212E+03  0.47000000000E+01 0.  1.
<mgrwt>
<rscale>  0 0.85278287E+03</rscale>
<asrwt>0</asrwt>
<pdfrwt beam="1">  1        2 0.32367251E+00 0.85278287E+03</pdfrwt>
<pdfrwt beam="2">  1       -2 0.61958778E-01 0.85278287E+03</pdfrwt>
<totfact> 0.14463652E+01</totfact>
</mgrwt>
</event>
<event>
12    1  0.3127365E-008  0.1436813E+04  0.7818608E-02  0.8927594E-01
         -2   -1    0    0    0  501 -0.00000000000E+00  0.00000000000E+00  0.17063394175E+04  0.17063394175E+04  0.00000000000E+00 0.  1.
          2   -1    0    0  501    0  0.00000000000E+00 -0.00000000000E+00 -0.13694756007E+04  0.13694756007E+04  0.00000000000E+00 0. -1.
         23    2    1    2    0    0  0.44079304661E+03  0.13549545145E+04  0.51880205237E+03  0.15191149684E+04  0.91402798206E+02 0.  0.
    5000000    2    1    2    0    0 -0.44079304661E+03 -0.13549545145E+04 -0.18193823553E+03  0.15567000498E+04  0.60001106424E+03 0.  0.
         23    2    4    4    0    0 -0.59264191314E+01 -0.23706414286E+03 -0.24358313131E+03  0.35181321643E+03  0.90582929549E+02 0.  0.
         23    2    4    4    0    0 -0.43486662748E+03 -0.11178903716E+04  0.61644895782E+02  0.12048868334E+04  0.95730462011E+02 0.  0.
          3    1    3    3  502    0  0.26017208512E+03  0.66419654488E+03  0.27861875306E+03  0.76581654048E+03  0.00000000000E+00 0. -1.
         -3    1    3    3    0  502  0.18062096149E+03  0.69075796962E+03  0.24018329931E+03  0.75329842797E+03  0.00000000000E+00 0.  1.
         13    1    5    5    0    0 -0.22687661251E+02 -0.43148579271E+02 -0.95582791610E+02  0.10729678429E+03  0.00000000000E+00 0. -1.
        -13    1    5    5    0    0  0.16761242119E+02 -0.19391556359E+03 -0.14800033970E+03  0.24451643215E+03  0.00000000000E+00 0.  1.
          5    1    6    6  503    0 -0.12685870211E+03 -0.22439493719E+03  0.65817395581E+00  0.25781532408E+03  0.47000000000E+01 0. -1.
         -5    1    6    6    0  503 -0.30800792537E+03 -0.89349543445E+03  0.60986721826E+02  0.94707150929E+03  0.47000000000E+01 0.  1.
<mgrwt>
<rscale>  0 0.14368128E+04</rscale>
<asrwt>0</asrwt>
<pdfrwt beam="1">  1        2 0.21068855E+00 0.14368128E+04</pdfrwt>
<pdfrwt beam="2">  1       -2 0.26251376E+00 0.14368128E+04</pdfrwt>
<totfact> 0.76894293E-01</totfact>
</mgrwt>
</event>
<event>
12    1  0.3127365E-008  0.6019427E+03  0.7818608E-02  0.9901384E-01
          1   -1    0    0  501    0  0.00000000000E+00  0.00000000000E+00  0.11990889783E+04  0.11990889783E+04  0.00000000000E+00 0. -1.
         -1   -1    0    0    0  501 -0.00000000000E+00 -0.00000000000E+00 -0.74676680085E+03  0.74676680085E+03  0.00000000000E+00 0.  1.
         23    2    1    2    0    0  0.41551495891E+03  0.31661976179E+03  0.89131169891E+03  0.10372022670E+04  0.91930644751E+02 0.  0.
    5000000    2    1    2    0    0 -0.41551495891E+03 -0.31661976179E+03 -0.43898952142E+03  0.90865351217E+03  0.60003220800E+03 0.  0.
         23    2    4    4    0    0 -0.19608747914E+03  0.75376012597E+02  0.54394111204E+02  0.23503164861E+03  0.90273549640E+02 0.  0.
         23    2    4    4    0    0 -0.21942747977E+03 -0.39199577439E+03 -0.49338363262E+03  0.67362186356E+03  0.92357458364E+02 0.  0.
          3    1    3    3  502    0  0.24256393560E+03  0.15639480391E+03  0.41182434639E+03  0.50288755187E+03  0.00000000000E+00 0. -1.
         -3    1    3    3    0  502  0.17295102331E+03  0.16022495788E+03  0.47948735252E+03  0.53431471515E+03  0.00000000000E+00 0.  1.
         13    1    5    5    0    0 -0.11926330618E+03  0.80500374252E+02  0.58434960030E+01  0.14400761404E+03  0.00000000000E+00 0. -1.
        -13    1    5    5    0    0 -0.76824172957E+02 -0.51243616552E+01  0.48550615201E+02  0.91024034569E+02  0.00000000000E+00 0.  1.
          5    1    6    6  503    0 -0.10200604192E+03 -0.27261083027E+03 -0.31315425098E+03  0.42756236068E+03  0.47000000000E+01 0. -1.
         -5    1    6    6    0  503 -0.11742143786E+03 -0.11938494412E+03 -0.18022938164E+03  0.24605950288E+03  0.47000000000E+01 0.  1.
<mgrwt>
<rscale>  0 0.60194275E+03</rscale>
<asrwt>0</asrwt>
<pdfrwt beam="1">  1        1 0.18447523E+00 0.60194275E+03</pdfrwt>
<pdfrwt beam="2">  1       -1 0.11488720E+00 0.60194275E+03</pdfrwt>
<totfact> 0.78197463E+00</totfact>
</mgrwt>
</event>
<event>
12    1  0.3127365E-008  0.4774202E+03  0.7818608E-02  0.1019847E+00
          1   -1    0    0  501    0  0.00000000000E+00  0.00000000000E+00  0.10007835393E+04  0.10007835393E+04  0.00000000000E+00 0. -1.
         -1   -1    0    0    0  501 -0.00000000000E+00 -0.00000000000E+00 -0.32601679181E+03  0.32601679181E+03  0.00000000000E+00 0.  1.
         23    2    1    2    0    0  0.22988900401E+03 -0.20871218318E+03 -0.59606744232E+02  0.32893339841E+03  0.90744074515E+02 0.  0.
    5000000    2    1    2    0    0 -0.22988900401E+03  0.20871218318E+03  0.73437349172E+03  0.99786693270E+03  0.60002021670E+03 0.  0.
         23    2    4    4    0    0  0.11009513526E+03 -0.10133631705E+03  0.78424433487E+02  0.19124269514E+03  0.89629173354E+02 0.  0.
         23    2    4    4    0    0 -0.33998413927E+03  0.31004850023E+03  0.65594905824E+03  0.80662423755E+03  0.93027985878E+02 0.  0.
          2    1    3    3  502    0  0.12321260923E+03 -0.95952826243E+02 -0.74440779264E+02  0.17300208541E+03  0.00000000000E+00 0. -1.
         -2    1    3    3    0  502  0.10667639478E+03 -0.11275935694E+03  0.14834035032E+02  0.15593131300E+03  0.00000000000E+00 0.  1.
         13    1    5    5    0    0 -0.12656099795E+02 -0.28819362894E+02  0.19126836647E+02  0.36831622551E+02  0.00000000000E+00 0.  1.
        -13    1    5    5    0    0  0.12275123505E+03 -0.72516954157E+02  0.59297596840E+02  0.15441107259E+03  0.00000000000E+00 0. -1.
          5    1    6    6  503    0 -0.21762201264E+03  0.25463922465E+03  0.46347003576E+03  0.57186278001E+03  0.47000000000E+01 0. -1.
         -5    1    6    6    0  503 -0.12236212663E+03  0.55409275584E+02  0.19247902248E+03  0.23476145754E+03  0.47000000000E+01 0.  1.
<mgrwt>
<rscale>  0 0.47742022E+03</rscale>
<asrwt>0</asrwt>
<pdfrwt beam="1">  1        1 0.15396670E+00 0.47742022E+03</pdfrwt>
<pdfrwt beam="2">  1       -1 0.50156430E-01 0.47742022E+03</pdfrwt>
<totfact> 0.63629691E+01</totfact>
</mgrwt>
</event>
<event>
12    1  0.3127365E-008  0.7015571E+03  0.7818608E-02  0.9714573E-01
         -1   -1    0    0    0  501 -0.00000000000E+00  0.00000000000E+00  0.10188023665E+04  0.10188023665E+04  0.00000000000E+00 0.  1.
          1   -1    0    0  501    0  0.00000000000E+00 -0.00000000000E+00 -0.83786336227E+03  0.83786336227E+03  0.00000000000E+00 0. -1.
         23    2    1    2    0    0 -0.27512891662E+03 -0.63680505216E+03 -0.36522608240E+03  0.78919002017E+03  0.90632231832E+02 0.  0.
    5000000    2    1    2    0    0  0.27512891662E+03  0.63680505216E+03  0.54616508660E+03  0.10674757086E+04  0.59999290939E+03 0.  0.
         23    2    4    4    0    0  0.17566067326E+03  0.30264021450E+03  0.60304956922E+03  0.70309435233E+03  0.90692412994E+02 0.  0.
         23    2    4    4    0    0  0.99468243364E+02  0.33416483766E+03 -0.56884482625E+02  0.36438135623E+03  0.89318857127E+02 0.  0.
          1    1    3    3  502    0 -0.11572890735E+03 -0.37848659655E+03 -0.21751784834E+03  0.45161853163E+03  0.00000000000E+00 0. -1.
         -1    1    3    3    0  502 -0.15940000927E+03 -0.25831845561E+03 -0.14770823407E+03  0.33757148854E+03  0.00000000000E+00 0.  1.
         11    1    5    5    0    0  0.55069200687E+02  0.60109585584E+02  0.21437796909E+03  0.22935494931E+03  0.00000000000E+00 0.  1.
        -11    1    5    5    0    0  0.12059147257E+03  0.24253062892E+03  0.38867160013E+03  0.47373940302E+03  0.00000000000E+00 0. -1.
          5    1    6    6  503    0  0.53029576835E+01  0.80156644213E+02 -0.47149163792E+02  0.93264905607E+02  0.47000000000E+01 0. -1.
         -5    1    6    6    0  503  0.94165285681E+02  0.25400819344E+03 -0.97353188330E+01  0.27111645062E+03  0.47000000000E+01 0.  1.
<mgrwt>
<rscale>  0 0.70155706E+03</rscale>
<asrwt>0</asrwt>
<pdfrwt beam="1">  1        1 0.12890206E+00 0.70155706E+03</pdfrwt>
<pdfrwt beam="2">  1       -1 0.15673882E+00 0.70155706E+03</pdfrwt>
<totfact> 0.66096300E+00</totfact>
</mgrwt>
</event>
<event>
12    1  0.3127365E-008  0.8017200E+03  0.7818608E-02  0.9557531E-01
         -1   -1    0    0    0  501 -0.00000000000E+00  0.00000000000E+00  0.57398550758E+03  0.57398550758E+03  0.00000000000E+00 0.  1.
          1   -1    0    0  501    0  0.00000000000E+00 -0.00000000000E+00 -0.12653193747E+04  0.12653193747E+04  0.00000000000E+00 0. -1.
         23    2    1    2    0    0  0.41502417695E+03  0.61669354539E+03 -0.32096559242E+03  0.81473517135E+03  0.90655896404E+02 0.  0.
    5000000    2    1    2    0    0 -0.41502417695E+03 -0.61669354539E+03 -0.37036827466E+03  0.10245697109E+04  0.60001203089E+03 0.  0.
         23    2    4    4    0    0 -0.38206847297E+03 -0.20950592888E+03 -0.40730421046E+03  0.60361946996E+03  0.92685988060E+02 0.  0.
         23    2    4    4    0    0 -0.32955703985E+02 -0.40718761651E+03  0.36935935803E+02  0.42095024093E+03  0.94588627864E+02 0.  0.
          3    1    3    3  502    0  0.11841256327E+03  0.22185464915E+03 -0.14618478102E+03  0.29087971860E+03  0.00000000000E+00 0. -1.
         -3    1    3    3    0  502  0.29661161368E+03  0.39483889623E+03 -0.17478081140E+03  0.52385545275E+03  0.00000000000E+00 0.  1.
         13    1    5    5    0    0 -0.17946149202E+03 -0.15090895919E+03 -0.22080258557E+03  0.32207720018E+03  0.00000000000E+00 0. -1.
        -13    1    5    5    0    0 -0.20260698095E+03 -0.58596969691E+02 -0.18650162489E+03  0.28154226978E+03  0.00000000000E+00 0.  1.
          5    1    6    6  503    0  0.12112449043E+02 -0.21030569399E+03 -0.18318724702E+02  0.21150144685E+03  0.47000000000E+01 0. -1.
         -5    1    6    6    0  503 -0.45068153029E+02 -0.19688192252E+03  0.55254660506E+02  0.20944879408E+03  0.47000000000E+01 0.  1.
<mgrwt>
<rscale>  0 0.80171998E+03</rscale>
<asrwt>0</asrwt>
<pdfrwt beam="1">  1        1 0.19466452E+00 0.80171998E+03</pdfrwt>
<pdfrwt beam="2">  1       -1 0.88305463E-01 0.80171998E+03</pdfrwt>
<totfact> 0.12394532E+01</totfact>
</mgrwt>
</event>
<event>
12    1  0.3127365E-008  0.9621316E+03  0.7818608E-02  0.9351082E-01
          2   -1    0    0  501    0  0.00000000000E+00  0.00000000000E+00  0.18169723738E+04  0.18169723738E+04  0.00000000000E+00 0. -1.
         -2   -1    0    0    0  501 -0.00000000000E+00 -0.00000000000E+00 -0.54729633426E+03  0.54729633426E+03  0.00000000000E+00 0.  1.
         23    2    1    2    0    0  0.13066071690E+03  0.88856322303E+03  0.44867473003E+03  0.10078206877E+04  0.88185605252E+02 0.  0.
    5000000    2    1    2    0    0 -0.13066071690E+03 -0.88856322303E+03  0.82100130954E+03  0.13564480204E+04  0.59940909018E+03 0.  0.
         23    2    4    4    0    0 -0.31100951660E+03 -0.47929404439E+03  0.64967586844E+03  0.86913426087E+03  0.82860901383E+02 0.  0.
         23    2    4    4    0    0  0.18034879970E+03 -0.40926917864E+03  0.17132544110E+03  0.48731375948E+03  0.89974125596E+02 0.  0.
          1    1    3    3  502    0  0.42275515374E+02  0.46603641549E+03  0.27306889685E+03  0.54179680895E+03  0.00000000000E+00 0. -1.
         -1    1    3    3    0  502  0.88385201531E+02  0.42252680754E+03  0.17560583318E+03  0.46602387877E+03  0.00000000000E+00 0.  1.
         13    1    5    5    0    0 -0.19386133253E+03 -0.35308985357E+03  0.41830292816E+03  0.58071679901E+03  0.00000000000E+00 0. -1.
        -13    1    5    5    0    0 -0.11714818407E+03 -0.12620419082E+03  0.23137294028E+03  0.28841746186E+03  0.00000000000E+00 0.  1.
          5    1    6    6  503    0  0.11537676611E+03 -0.20564228850E+03  0.13088886177E+03  0.26973048236E+03  0.47000000000E+01 0.  1.
         -5    1    6    6    0  503  0.64972033588E+02 -0.20362689014E+03  0.40436579325E+02  0.21758327712E+03  0.47000000000E+01 0. -1.
<mgrwt>
<rscale>  0 0.96213156E+03</rscale>
<asrwt>0</asrwt>
<pdfrwt beam="1">  1        2 0.27953421E+00 0.96213156E+03</pdfrwt>
<pdfrwt beam="2">  1       -2 0.84199437E-01 0.96213156E+03</pdfrwt>
<totfact> 0.10434300E+01</totfact>
</mgrwt>
</event>
<event>
12    1  0.3127365E-008  0.1308093E+04  0.7818608E-02  0.9023172E-01
         -2   -1    0    0    0  501 -0.00000000000E+00  0.00000000000E+00  0.14682642609E+04  0.14682642609E+04  0.00000000000E+00 0. -1.
          2   -1    0    0  501    0  0.00000000000E+00 -0.00000000000E+00 -0.15180907078E+04  0.15180907078E+04  0.00000000000E+00 0.  1.
         23    2    1    2    0    0 -0.12447687299E+04  0.35743908737E+03 -0.63316695543E+03  0.14442995171E+04  0.88818970585E+02 0.  0.
    5000000    2    1    2    0    0  0.12447687299E+04 -0.35743908737E+03  0.58334050853E+03  0.15420554516E+04  0.60036403515E+03 0.  0.
         23    2    4    4    0    0  0.20849826593E+03 -0.16338760515E+03  0.36723990445E+03  0.46181926964E+03  0.90801178268E+02 0.  0.
         23    2    4    4    0    0  0.10362704640E+04 -0.19405148221E+03  0.21610060407E+03  0.10802361819E+04  0.93264598978E+02 0.  0.
          3    1    3    3  502    0 -0.65655896963E+03  0.22269216577E+03 -0.30537864480E+03  0.75757349346E+03  0.00000000000E+00 0. -1.
         -3    1    3    3    0  502 -0.58820976026E+03  0.13474692160E+03 -0.32778831064E+03  0.68672602363E+03  0.00000000000E+00 0.  1.
         13    1    5    5    0    0  0.37212747632E+02 -0.27111313391E+02  0.13523687759E+03  0.14285945878E+03  0.00000000000E+00 0.  1.
        -13    1    5    5    0    0  0.17128551830E+03 -0.13627629176E+03  0.23200302686E+03  0.31895981086E+03  0.00000000000E+00 0. -1.
          5    1    6    6  503    0  0.87146737033E+03 -0.16991987033E+03  0.14758668867E+03  0.90007336399E+03  0.47000000000E+01 0.  1.
         -5    1    6    6    0  503  0.16480309363E+03 -0.24131611886E+02  0.68513915406E+02  0.18016281793E+03  0.47000000000E+01 0. -1.
<mgrwt>
<rscale>  0 0.13080932E+04</rscale>
<asrwt>0</asrwt>
<pdfrwt beam="1">  1        2 0.23355242E+00 0.13080932E+04</pdfrwt>
<pdfrwt beam="2">  1       -2 0.22588681E+00 0.13080932E+04</pdfrwt>
<totfact> 0.10786903E+00</totfact>
</mgrwt>
</event>
<event>
12    1  0.3127365E-008  0.1071069E+04  0.7818608E-02  0.9233858E-01
         -1   -1    0    0    0  501 -0.00000000000E+00  0.00000000000E+00  0.14157920510E+04  0.14157920510E+04  0.00000000000E+00 0.  1.
          1   -1    0    0  501    0  0.00000000000E+00 -0.00000000000E+00 -0.91181343129E+03  0.91181343129E+03  0.00000000000E+00 0. -1.
         23    2    1    2    0    0 -0.10982087841E+03  0.10052511083E+04 -0.72745143229E+02  0.10178732500E+04  0.90463700785E+02 0.  0.
    5000000    2    1    2    0    0  0.10982087841E+03 -0.10052511083E+04  0.57672376292E+03  0.13097322323E+04  0.60016481538E+03 0.  0.
         23    2    4    4    0    0 -0.39835549070E+02  0.11935962871E+02  0.17395360319E+03  0.20174034143E+03  0.93327226035E+02 0.  0.
         23    2    4    4    0    0  0.14965642748E+03 -0.10171870711E+04  0.40277015974E+03  0.11079918909E+04  0.91409215645E+02 0.  0.
          1    1    3    3  502    0 -0.90250523120E+02  0.66712440921E+03 -0.91600624304E+01  0.67326372324E+03  0.00000000000E+00 0. -1.
         -1    1    3    3    0  502 -0.19570355285E+02  0.33812669905E+03 -0.63585080798E+02  0.34460952674E+03  0.00000000000E+00 0.  1.
         13    1    5    5    0    0 -0.87283497097E+01  0.51070452091E+02  0.79940899350E+02  0.95262387931E+02  0.00000000000E+00 0. -1.
        -13    1    5    5    0    0 -0.31107199361E+02 -0.39134489221E+02  0.94012703835E+02  0.10647795350E+03  0.00000000000E+00 0.  1.
          5    1    6    6  503    0  0.17455169893E+02 -0.17448029292E+03  0.10526221648E+03  0.20457340930E+03  0.47000000000E+01 0. -1.
         -5    1    6    6    0  503  0.13220125758E+03 -0.84270677821E+03  0.29750794326E+03  0.90341848158E+03  0.47000000000E+01 0.  1.
<mgrwt>
<rscale>  0 0.10710686E+04</rscale>
<asrwt>0</asrwt>
<pdfrwt beam="1">  1        1 0.14027899E+00 0.10710686E+04</pdfrwt>
<pdfrwt beam="2">  1       -1 0.21781416E+00 0.10710686E+04</pdfrwt>
<totfact> 0.20183051E+00</totfact>
</mgrwt>
</event>
<event>
12    1  0.3127365E-008  0.9111162E+03  0.7818608E-02  0.9411791E-01
         -1   -1    0    0    0  501 -0.00000000000E+00  0.00000000000E+00  0.15291293459E+04  0.15291293459E+04  0.00000000000E+00 0.  1.
          1   -1    0    0  501    0  0.00000000000E+00 -0.00000000000E+00 -0.88281889329E+03  0.88281889329E+03  0.00000000000E+00 0. -1.
         23    2    1    2    0    0 -0.30997599681E+02  0.89306638886E+03  0.93589425162E+03  0.12971487422E+04  0.90379107360E+02 0.  0.
    5000000    2    1    2    0    0  0.30997599681E+02 -0.89306638886E+03 -0.28958379898E+03  0.11147994970E+04  0.60032550823E+03 0.  0.
         23    2    4    4    0    0  0.10302954754E+03 -0.72938020062E+03  0.23760524172E+02  0.74258063718E+03  0.90834329878E+02 0.  0.
         23    2    4    4    0    0 -0.72031947855E+02 -0.16368618824E+03 -0.31334432315E+03  0.37221885984E+03  0.91544770675E+02 0.  0.
          1    1    3    3  502    0  0.32054715848E+02  0.32013749122E+03  0.34090536899E+03  0.46875578791E+03  0.00000000000E+00 0. -1.
         -1    1    3    3    0  502 -0.63052315528E+02  0.57292889764E+03  0.59498888263E+03  0.82839295428E+03  0.00000000000E+00 0.  1.
         13    1    5    5    0    0  0.35287519766E+02 -0.37070740022E+03 -0.30173731876E+02  0.37360358634E+03  0.00000000000E+00 0. -1.
        -13    1    5    5    0    0  0.67742027769E+02 -0.35867280040E+03  0.53934256047E+02  0.36897705084E+03  0.00000000000E+00 0.  1.
          5    1    6    6  503    0 -0.26856158318E+00 -0.61904690553E+02 -0.17664398628E+03  0.18723634991E+03  0.47000000000E+01 0.  1.
         -5    1    6    6    0  503 -0.71763386271E+02 -0.10178149769E+03 -0.13670033687E+03  0.18498250993E+03  0.47000000000E+01 0.  1.
<mgrwt>
<rscale>  0 0.91111618E+03</rscale>
<asrwt>0</asrwt>
<pdfrwt beam="1">  1        1 0.13581829E+00 0.91111618E+03</pdfrwt>
<pdfrwt beam="2">  1       -1 0.23525067E+00 0.91111618E+03</pdfrwt>
<totfact> 0.16696865E+00</totfact>
</mgrwt>
</event>
<event>
12    1  0.3127365E-008  0.2448060E+04  0.7818608E-02  0.8421726E-01
          1   -1    0    0  501    0  0.00000000000E+00  0.00000000000E+00  0.25067125821E+04  0.25067125821E+04  0.00000000000E+00 0. -1.
         -1   -1    0    0    0  501 -0.00000000000E+00 -0.00000000000E+00 -0.25466226624E+04  0.25466226624E+04  0.00000000000E+00 0.  1.
         23    2    1    2    0    0  0.21264053895E+04 -0.11460811585E+04 -0.62442173384E+03  0.24966937844E+04  0.92062203167E+02 0.  0.
    5000000    2    1    2    0    0 -0.21264053895E+04  0.11460811585E+04  0.58451165362E+03  0.25566414601E+04  0.59971641647E+03 0.  0.
         23    2    4    4    0    0 -0.63136681195E+03  0.64248849150E+03  0.15016540199E+03  0.91777803222E+03  0.91385751217E+02 0.  0.
         23    2    4    4    0    0 -0.14950385775E+04  0.50359266695E+03  0.43434625163E+03  0.16388634279E+04  0.92036658371E+02 0.  0.
          2    1    3    3  502    0  0.79330470497E+03 -0.39363078952E+03 -0.19504787103E+03  0.90681929037E+03  0.00000000000E+00 0. -1.
         -2    1    3    3    0  502  0.13331006845E+04 -0.75245036893E+03 -0.42937386282E+03  0.15898744940E+04  0.00000000000E+00 0.  1.
         13    1    5    5    0    0 -0.53547887783E+03  0.55254214681E+03  0.16013574305E+03  0.78592869193E+03  0.00000000000E+00 0. -1.
        -13    1    5    5    0    0 -0.95887934123E+02  0.89946344688E+02 -0.99703410520E+01  0.13184934029E+03  0.00000000000E+00 0.  1.
          5    1    6    6  503    0 -0.91572945539E+03  0.34013476858E+03  0.30265387651E+03  0.10226795956E+04  0.47000000000E+01 0. -1.
         -5    1    6    6    0  503 -0.57930912212E+03  0.16345789837E+03  0.13169237511E+03  0.61618383229E+03  0.47000000000E+01 0.  1.
<mgrwt>
<rscale>  0 0.24480605E+04</rscale>
<asrwt>0</asrwt>
<pdfrwt beam="1">  1        1 0.38564809E+00 0.24480605E+04</pdfrwt>
<pdfrwt beam="2">  1       -1 0.39178810E+00 0.24480605E+04</pdfrwt>
<totfact> 0.92014250E-03</totfact>
</mgrwt>
</event>
<event>
12    1  0.3127365E-008  0.8258718E+03  0.7818608E-02  0.9523306E-01
          1   -1    0    0  501    0  0.00000000000E+00  0.00000000000E+00  0.12152880466E+04  0.12152880466E+04  0.00000000000E+00 0. -1.
         -1   -1    0    0    0  501 -0.00000000000E+00 -0.00000000000E+00 -0.68132340883E+03  0.68132340883E+03  0.00000000000E+00 0.  1.
         23    2    1    2    0    0  0.41144478236E+03  0.58749216172E+03  0.62692079992E+03  0.95697911841E+03  0.91353679161E+02 0.  0.
    5000000    2    1    2    0    0 -0.41144478236E+03 -0.58749216172E+03 -0.92956162115E+02  0.93963233706E+03  0.59986184390E+03 0.  0.
         23    2    4    4    0    0  0.13206630652E+03 -0.64040054402E+02 -0.40941002114E+02  0.17795327649E+03  0.91916076262E+02 0.  0.
         23    2    4    4    0    0 -0.54351108887E+03 -0.52345210732E+03 -0.52015160001E+02  0.76167906057E+03  0.89682785721E+02 0.  0.
          4    1    3    3  502    0  0.66725422530E+02  0.15609420313E+03  0.16995495348E+03  0.24021317299E+03  0.00000000000E+00 0. -1.
         -4    1    3    3    0  502  0.34471935983E+03  0.43139795859E+03  0.45696584644E+03  0.71676594543E+03  0.00000000000E+00 0.  1.
         11    1    5    5    0    0  0.10130352444E+03 -0.87508427602E+02 -0.25390233099E+02  0.13625268035E+03  0.00000000000E+00 0. -1.
        -11    1    5    5    0    0  0.30762782075E+02  0.23468373200E+02 -0.15550769015E+02  0.41700596142E+02  0.00000000000E+00 0.  1.
          5    1    6    6  503    0 -0.44224250398E+03 -0.45722297289E+03 -0.20060083358E+02  0.63643992348E+03  0.47000000000E+01 0. -1.
         -5    1    6    6    0  503 -0.10126858490E+03 -0.66229134429E+02 -0.31955076643E+02  0.12523913708E+03  0.47000000000E+01 0.  1.
<mgrwt>
<rscale>  0 0.82587183E+03</rscale>
<asrwt>0</asrwt>
<pdfrwt beam="1">  1        1 0.18696739E+00 0.82587183E+03</pdfrwt>
<pdfrwt beam="2">  1       -1 0.10481899E+00 0.82587183E+03</pdfrwt>
<totfact> 0.91197091E+00</totfact>
</mgrwt>
</event>
<event>
12    1  0.3127365E-008  0.7169389E+03  0.7818608E-02  0.9688695E-01
         -2   -1    0    0    0  501 -0.00000000000E+00  0.00000000000E+00  0.30114664896E+03  0.30114664896E+03  0.00000000000E+00 0.  1.
          2   -1    0    0  501    0  0.00000000000E+00 -0.00000000000E+00 -0.21101893942E+04  0.21101893942E+04  0.00000000000E+00 0. -1.
         23    2    1    2    0    0  0.41543941033E+03 -0.44047376853E+03 -0.12502469312E+04  0.13920690810E+04  0.90177008464E+02 0.  0.
    5000000    2    1    2    0    0 -0.41543941033E+03  0.44047376853E+03 -0.55879581399E+03  0.10192669621E+04  0.60003777708E+03 0.  0.
         23    2    4    4    0    0 -0.10482776858E+03  0.49316083893E+03 -0.25557408122E+03  0.57265478216E+03  0.91754642487E+02 0.  0.
         23    2    4    4    0    0 -0.31061164175E+03 -0.52687070397E+02 -0.30322173277E+03  0.44661217997E+03  0.90903799111E+02 0.  0.
          1    1    3    3  502    0  0.15797058183E+03 -0.12360315156E+03 -0.48198479595E+03  0.52205534891E+03  0.00000000000E+00 0. -1.
         -1    1    3    3    0  502  0.25746882851E+03 -0.31687061698E+03 -0.76826213529E+03  0.87001373212E+03  0.00000000000E+00 0.  1.
         11    1    5    5    0    0 -0.64045426752E+02  0.27187719462E+03 -0.19163137226E+03  0.33873530740E+03  0.00000000000E+00 0. -1.
        -11    1    5    5    0    0 -0.40782341832E+02  0.22128364431E+03 -0.63942708960E+02  0.23391947476E+03  0.00000000000E+00 0.  1.
          5    1    6    6  503    0 -0.28587705849E+03 -0.64142138631E+02 -0.24423231114E+03  0.38145958937E+03  0.47000000000E+01 0. -1.
         -5    1    6    6    0  503 -0.24734583266E+02  0.11455068234E+02 -0.58989421628E+02  0.65152590598E+02  0.47000000000E+01 0.  1.
<mgrwt>
<rscale>  0 0.71693895E+03</rscale>
<asrwt>0</asrwt>
<pdfrwt beam="1">  1        2 0.32464451E+00 0.71693895E+03</pdfrwt>
<pdfrwt beam="2">  1       -2 0.46330255E-01 0.71693895E+03</pdfrwt>
<totfact> 0.26642880E+01</totfact>
</mgrwt>
</event>
<event>
12    1  0.3127365E-008  0.4583387E+03  0.7818608E-02  0.1025264E+00
         -2   -1    0    0    0  501 -0.00000000000E+00  0.00000000000E+00  0.54366289784E+03  0.54366289784E+03  0.00000000000E+00 0.  1.
          2   -1    0    0  501    0  0.00000000000E+00 -0.00000000000E+00 -0.64743639490E+03  0.64743639490E+03  0.00000000000E+00 0. -1.
         23    2    1    2    0    0 -0.15374007135E+03  0.23180066191E+03 -0.37599733256E+03  0.47603105051E+03  0.88679256635E+02 0.  0.
    5000000    2    1    2    0    0  0.15374007135E+03 -0.23180066191E+03  0.27222383551E+03  0.71506824222E+03  0.59987433519E+03 0.  0.
         23    2    4    4    0    0  0.31770534895E+03 -0.30907642967E+03  0.15201738181E+03  0.47733005495E+03  0.90938269469E+02 0.  0.
         23    2    4    4    0    0 -0.16396527760E+03  0.77275767754E+02  0.12020645370E+03  0.23773818728E+03  0.95988007796E+02 0.  0.
          3    1    3    3  502    0 -0.49885005282E+02  0.21231850777E+02 -0.46406998222E+02  0.71364660185E+02  0.00000000000E+00 0. -1.
         -3    1    3    3    0  502 -0.10385506607E+03  0.21056881114E+03 -0.32959033434E+03  0.40466639033E+03  0.00000000000E+00 0.  1.
         11    1    5    5    0    0  0.31337956245E+02 -0.41850828886E+02 -0.10399344543E+02  0.53307651861E+02  0.00000000000E+00 0. -1.
        -11    1    5    5    0    0  0.28636739271E+03 -0.26722560078E+03  0.16241672635E+03  0.42402240308E+03  0.00000000000E+00 0.  1.
          5    1    6    6  503    0 -0.45352673242E+02  0.35780363676E+02 -0.75840439093E+01  0.58452605733E+02  0.47000000000E+01 0. -1.
         -5    1    6    6    0  503 -0.11861260436E+03  0.41495404078E+02  0.12779049761E+03  0.17928558155E+03  0.47000000000E+01 0.  1.
<mgrwt>
<rscale>  0 0.45833868E+03</rscale>
<asrwt>0</asrwt>
<pdfrwt beam="1">  1        2 0.99605600E-01 0.45833868E+03</pdfrwt>
<pdfrwt beam="2">  1       -2 0.83640445E-01 0.45833868E+03</pdfrwt>
<totfact> 0.58670607E+01</totfact>
</mgrwt>
</event>
<event>
12    1  0.3127365E-008  0.3330105E+03  0.7818608E-02  0.1069813E+00
         -1   -1    0    0    0  501 -0.00000000000E+00  0.00000000000E+00  0.26497640206E+03  0.26497640206E+03  0.00000000000E+00 0.  1.
          1   -1    0    0  501    0  0.00000000000E+00 -0.00000000000E+00 -0.26455243081E+04  0.26455243081E+04  0.00000000000E+00 0. -1.
         23    2    1    2    0    0  0.52889628825E+02  0.90987412709E+02 -0.22902733039E+04  0.22945443046E+04  0.92226553773E+02 0.  0.
    5000000    2    1    2    0    0 -0.52889628825E+02 -0.90987412709E+02 -0.90274602174E+02  0.61595640557E+03  0.60014728830E+03 0.  0.
         23    2    4    4    0    0 -0.84895200014E+02  0.21110307759E+03 -0.15429180417E+03  0.28888353286E+03  0.88747002060E+02 0.  0.
         23    2    4    4    0    0  0.32005571189E+02 -0.30209049029E+03  0.64017201992E+02  0.32707287271E+03  0.10293415856E+03 0.  0.
          4    1    3    3  502    0  0.61542309945E+02  0.80533668248E+02 -0.12254183374E+04  0.12296028746E+04  0.00000000000E+00 0.  1.
         -4    1    3    3    0  502 -0.86526811198E+01  0.10453744461E+02 -0.10648549665E+04  0.10649414300E+04  0.00000000000E+00 0. -1.
         13    1    5    5    0    0 -0.76937705531E+02  0.14516312284E+03 -0.62932348381E+02  0.17593243941E+03  0.00000000000E+00 0. -1.
        -13    1    5    5    0    0 -0.79574944830E+01  0.65939954750E+02 -0.91359455785E+02  0.11295109345E+03  0.00000000000E+00 0.  1.
          5    1    6    6  503    0  0.58788118083E+02 -0.97164248324E+02  0.15294542765E+02  0.11468629830E+03  0.47000000000E+01 0. -1.
         -5    1    6    6    0  503 -0.26782546894E+02 -0.20492624197E+03  0.48722659227E+02  0.21238657441E+03  0.47000000000E+01 0.  1.
<mgrwt>
<rscale>  0 0.33301046E+03</rscale>
<asrwt>0</asrwt>
<pdfrwt beam="1">  1        1 0.40700372E+00 0.33301046E+03</pdfrwt>
<pdfrwt beam="2">  1       -1 0.40765603E-01 0.33301046E+03</pdfrwt>
<totfact> 0.74500854E+00</totfact>
</mgrwt>
</event>
<event>
12    1  0.3127365E-008  0.8518132E+03  0.7818608E-02  0.9487907E-01
         -1   -1    0    0    0  501 -0.00000000000E+00  0.00000000000E+00  0.91128007901E+03  0.91128007901E+03  0.00000000000E+00 0.  1.
          1   -1    0    0  501    0  0.00000000000E+00 -0.00000000000E+00 -0.99827426062E+03  0.99827426062E+03  0.00000000000E+00 0. -1.
         23    2    1    2    0    0  0.53345287297E+03  0.64342861147E+03 -0.22836393051E+03  0.87107725593E+03  0.89739374309E+02 0.  0.
    5000000    2    1    2    0    0 -0.53345287297E+03 -0.64342861147E+03  0.14136974890E+03  0.10384770837E+04  0.59989740933E+03 0.  0.
         23    2    4    4    0    0 -0.23283083375E+03 -0.42173644297E+03 -0.19547480972E+03  0.52734491527E+03  0.88376659532E+02 0.  0.
         23    2    4    4    0    0 -0.30062203922E+03 -0.22169216850E+03  0.33684455862E+03  0.51113216843E+03  0.90943987698E+02 0.  0.
          2    1    3    3  502    0  0.10338635562E+03  0.81721549584E+02 -0.17904827354E+02  0.13299523689E+03  0.00000000000E+00 0. -1.
         -2    1    3    3    0  502  0.43006651735E+03  0.56170706189E+03 -0.21045910316E+03  0.73808201903E+03  0.00000000000E+00 0.  1.
         13    1    5    5    0    0 -0.26240378289E+02 -0.12779026431E+03 -0.49149290072E+02  0.13940789727E+03  0.00000000000E+00 0. -1.
        -13    1    5    5    0    0 -0.20659045546E+03 -0.29394617866E+03 -0.14632551964E+03  0.38793701800E+03  0.00000000000E+00 0.  1.
          5    1    6    6  503    0 -0.92698616590E+02 -0.53082601224E+02  0.15177433035E+03  0.18565649308E+03  0.47000000000E+01 0. -1.
         -5    1    6    6    0  503 -0.20792342263E+03 -0.16860956728E+03  0.18507022827E+03  0.32547567535E+03  0.47000000000E+01 0.  1.
<mgrwt>
<rscale>  0 0.85181318E+03</rscale>
<asrwt>0</asrwt>
<pdfrwt beam="1">  1        1 0.15358066E+00 0.85181318E+03</pdfrwt>
<pdfrwt beam="2">  1       -1 0.14019693E+00 0.85181318E+03</pdfrwt>
<totfact> 0.64676960E+00</totfact>
</mgrwt>
</event>
<event>
12    1  0.3127365E-008  0.5916429E+03  0.7818608E-02  0.9922898E-01
          3   -1    0    0  501    0  0.00000000000E+00  0.00000000000E+00  0.16908969489E+03  0.16908969489E+03  0.00000000000E+00 0. -1.
         -3   -1    0    0    0  501 -0.00000000000E+00 -0.00000000000E+00 -0.27177073983E+04  0.27177073983E+04  0.00000000000E+00 0.  1.
         23    2    1    2    0    0  0.28466829067E+03  0.45933969748E+03 -0.10157098699E+04  0.11542612679E+04  0.92863024285E+02 0.  0.
    5000000    2    1    2    0    0 -0.28466829067E+03 -0.45933969748E+03 -0.15329078336E+04  0.17325358254E+04  0.59987079162E+03 0.  0.
         23    2    4    4    0    0 -0.21057112021E+03 -0.48188137228E+02 -0.13672586121E+03  0.27238326222E+03  0.94002059447E+02 0.  0.
         23    2    4    4    0    0 -0.74097170458E+02 -0.41115156025E+03 -0.13961819724E+04  0.14601525632E+04  0.90473264579E+02 0.  0.
          3    1    3    3  502    0  0.11577951916E+03  0.27162549971E+03 -0.57292590126E+03  0.64453812725E+03  0.00000000000E+00 0. -1.
         -3    1    3    3    0  502  0.16888877151E+03  0.18771419777E+03 -0.44278396863E+03  0.50972314060E+03  0.00000000000E+00 0.  1.
         13    1    5    5    0    0 -0.19557384381E+02  0.25008235907E+01  0.13710578675E+02  0.24015107121E+02  0.00000000000E+00 0.  1.
        -13    1    5    5    0    0 -0.19101373583E+03 -0.50688960819E+02 -0.15043643988E+03  0.24836815510E+03  0.00000000000E+00 0. -1.
          5    1    6    6  503    0 -0.29664669051E+02 -0.20807458096E+03 -0.55034940710E+03  0.58913630318E+03  0.47000000000E+01 0. -1.
         -5    1    6    6    0  503 -0.44432501407E+02 -0.20307697929E+03 -0.84583256525E+03  0.87101625998E+03  0.47000000000E+01 0.  1.
<mgrwt>
<rscale>  0 0.59164293E+03</rscale>
<asrwt>0</asrwt>
<pdfrwt beam="1">  1        3 0.26013800E-01 0.59164293E+03</pdfrwt>
<pdfrwt beam="2">  1       -3 0.41810882E+00 0.59164293E+03</pdfrwt>
<totfact> 0.33162086E-01</totfact>
</mgrwt>
</event>
<event>
12    1  0.3127365E-008  0.6354108E+03  0.7818608E-02  0.9834547E-01
          1   -1    0    0  501    0  0.00000000000E+00  0.00000000000E+00  0.77177609054E+03  0.77177609054E+03  0.00000000000E+00 0. -1.
         -1   -1    0    0    0  501 -0.00000000000E+00 -0.00000000000E+00 -0.61573109384E+03  0.61573109384E+03  0.00000000000E+00 0.  1.
         23    2    1    2    0    0 -0.52326516119E+03 -0.15572384316E+03  0.16002459100E+03  0.57622488606E+03  0.91492651863E+02 0.  0.
    5000000    2    1    2    0    0  0.52326516119E+03  0.15572384316E+03 -0.39795943073E+01  0.81128229831E+03  0.60008898185E+03 0.  0.
         23    2    4    4    0    0  0.23591399457E+01  0.17896218405E+03 -0.16295476401E+03  0.25852562339E+03  0.90819678338E+02 0.  0.
         23    2    4    4    0    0  0.52090602125E+03 -0.23238340889E+02  0.15897516970E+03  0.55275667493E+03  0.91562730591E+02 0.  0.
          4    1    3    3  502    0 -0.79837050986E+02 -0.34845888895E+01  0.51259056381E+02  0.94939917479E+02  0.00000000000E+00 0. -1.
         -4    1    3    3    0  502 -0.44342811021E+03 -0.15223925427E+03  0.10876553462E+03  0.48128496859E+03  0.00000000000E+00 0.  1.
         13    1    5    5    0    0 -0.42417735068E+02  0.11293451133E+03 -0.10478943397E+03  0.15979453548E+03  0.00000000000E+00 0.  1.
        -13    1    5    5    0    0  0.44776875013E+02  0.66027672721E+02 -0.58165330035E+02  0.98731087905E+02  0.00000000000E+00 0. -1.
          5    1    6    6  503    0  0.13934952947E+03 -0.11301771482E+02  0.18045584794E+01  0.13989770489E+03  0.47000000000E+01 0. -1.
         -5    1    6    6    0  503  0.38155649178E+03 -0.11936569407E+02  0.15717061122E+03  0.41285897004E+03  0.47000000000E+01 0.  1.
<mgrwt>
<rscale>  0 0.63541075E+03</rscale>
<asrwt>0</asrwt>
<pdfrwt beam="1">  1        1 0.11873478E+00 0.63541075E+03</pdfrwt>
<pdfrwt beam="2">  1       -1 0.94727860E-01 0.63541075E+03</pdfrwt>
<totfact> 0.26242872E+01</totfact>
</mgrwt>
</event>
<event>
12    1  0.3127365E-008  0.8070188E+03  0.7818608E-02  0.9549913E-01
         -2   -1    0    0    0  501 -0.00000000000E+00  0.00000000000E+00  0.32491009200E+03  0.32491009200E+03  0.00000000000E+00 0.  1.
          2   -1    0    0  501    0  0.00000000000E+00 -0.00000000000E+00 -0.25803999563E+04  0.25803999563E+04  0.00000000000E+00 0. -1.
         23    2    1    2    0    0 -0.24950718058E+03  0.74660978658E+03 -0.67633212772E+03  0.10416124393E+04  0.88607675859E+02 0.  0.
    5000000    2    1    2    0    0  0.24950718058E+03 -0.74660978658E+03 -0.15791577366E+04  0.18636976090E+04  0.59995801021E+03 0.  0.
         23    2    4    4    0    0  0.59869090016E+02 -0.46389750509E+03 -0.13778140325E+04  0.14579281714E+04  0.91639738219E+02 0.  0.
         23    2    4    4    0    0  0.18963809057E+03 -0.28271228149E+03 -0.20134370407E+03  0.40576943755E+03  0.90668129892E+02 0.  0.
          2    1    3    3  502    0 -0.49504384806E+02  0.25689056590E+03 -0.25506530868E+03  0.36537892476E+03  0.00000000000E+00 0. -1.
         -2    1    3    3    0  502 -0.20000279578E+03  0.48971922069E+03 -0.42126681903E+03  0.67623351458E+03  0.00000000000E+00 0.  1.
         11    1    5    5    0    0  0.60810104570E+02 -0.24636307272E+03 -0.63213617756E+03  0.68116721839E+03  0.00000000000E+00 0.  1.
        -11    1    5    5    0    0 -0.94101455405E+00 -0.21753443237E+03 -0.74567785495E+03  0.77676095302E+03  0.00000000000E+00 0. -1.
          5    1    6    6  503    0  0.36929106570E+02 -0.13346768551E+03 -0.85037608626E+02  0.16257572657E+03  0.47000000000E+01 0. -1.
         -5    1    6    6    0  503  0.15270898400E+03 -0.14924459598E+03 -0.11630609545E+03  0.24319371098E+03  0.47000000000E+01 0.  1.
<mgrwt>
<rscale>  0 0.80701885E+03</rscale>
<asrwt>0</asrwt>
<pdfrwt beam="1">  1        2 0.39698461E+00 0.80701885E+03</pdfrwt>
<pdfrwt beam="2">  1       -2 0.49986167E-01 0.80701885E+03</pdfrwt>
<totfact> 0.12313055E+01</totfact>
</mgrwt>
</event>
<event>
12    1  0.3127365E-008  0.8352271E+03  0.7818608E-02  0.9510382E-01
         -2   -1    0    0    0  501 -0.00000000000E+00  0.00000000000E+00  0.73854440478E+03  0.73854440478E+03  0.00000000000E+00 0.  1.
          2   -1    0    0  501    0  0.00000000000E+00 -0.00000000000E+00 -0.11679331307E+04  0.11679331307E+04  0.00000000000E+00 0. -1.
         23    2    1    2    0    0 -0.77087364610E+03 -0.95427936198E+02  0.96230926694E+02  0.79309174356E+03  0.12799005115E+03 0.  0.
    5000000    2    1    2    0    0  0.77087364610E+03  0.95427936198E+02 -0.52561965263E+03  0.11133857919E+04  0.59999936100E+03 0.  0.
         23    2    4    4    0    0  0.51529228624E+03 -0.14679003568E+03 -0.51716201416E+03  0.74950562142E+03  0.85021602101E+02 0.  0.
         23    2    4    4    0    0  0.25558135986E+03  0.24221797188E+03 -0.84576384765E+01  0.36388017052E+03  0.91355730190E+02 0.  0.
          3    1    3    3  502    0 -0.36639817651E+03 -0.89176573444E+02  0.93695276936E+02  0.38856002100E+03  0.00000000000E+00 0. -1.
         -3    1    3    3    0  502 -0.40447546959E+03 -0.62513627544E+01  0.25356497578E+01  0.40453172256E+03  0.00000000000E+00 0.  1.
         11    1    5    5    0    0  0.28408132811E+03 -0.66182537950E+02 -0.22552162947E+03  0.36870358646E+03  0.00000000000E+00 0.  1.
        -11    1    5    5    0    0  0.23121095812E+03 -0.80607497728E+02 -0.29164038469E+03  0.38080203496E+03  0.00000000000E+00 0. -1.
          5    1    6    6  503    0  0.75996366600E+02  0.70129387020E+02  0.39005157633E+02  0.11062129534E+03  0.47000000000E+01 0. -1.
         -5    1    6    6    0  503  0.17958499326E+03  0.17208858486E+03 -0.47462796110E+02  0.25325887518E+03  0.47000000000E+01 0.  1.
<mgrwt>
<rscale>  0 0.83522714E+03</rscale>
<asrwt>0</asrwt>
<pdfrwt beam="1">  1        2 0.17968202E+00 0.83522714E+03</pdfrwt>
<pdfrwt beam="2">  1       -2 0.11362222E+00 0.83522714E+03</pdfrwt>
<totfact> 0.12135716E+01</totfact>
</mgrwt>
</event>
<event>
12    1  0.3127365E-008  0.5925594E+03  0.7818608E-02  0.9920964E-01
         -2   -1    0    0    0  501 -0.00000000000E+00  0.00000000000E+00  0.19364413138E+03  0.19364413138E+03  0.00000000000E+00 0.  1.
          2   -1    0    0  501    0  0.00000000000E+00 -0.00000000000E+00 -0.21953719285E+04  0.21953719285E+04  0.00000000000E+00 0. -1.
         23    2    1    2    0    0 -0.39120722170E+03  0.28593881260E+03 -0.10792902743E+04  0.11866923344E+04  0.92558659239E+02 0.  0.
    5000000    2    1    2    0    0  0.39120722170E+03 -0.28593881260E+03 -0.92243752279E+03  0.12023237255E+04  0.59990604474E+03 0.  0.
         23    2    4    4    0    0 -0.51094694357E+02 -0.23069724469E+03 -0.57882663389E+03  0.63235998155E+03  0.94905150886E+02 0.  0.
         23    2    4    4    0    0  0.44230191606E+03 -0.55241567903E+02 -0.34361088890E+03  0.56996374392E+03  0.90042271417E+02 0.  0.
          2    1    3    3  502    0 -0.16196415377E+03  0.80552756400E+02 -0.32363760736E+03  0.37075926768E+03  0.00000000000E+00 0. -1.
         -2    1    3    3    0  502 -0.22924306793E+03  0.20538605620E+03 -0.75565266695E+03  0.81593306671E+03  0.00000000000E+00 0.  1.
         13    1    5    5    0    0 -0.14293615205E+02 -0.17390679948E+03 -0.31616266543E+03  0.36111869704E+03  0.00000000000E+00 0.  1.
        -13    1    5    5    0    0 -0.36801079152E+02 -0.56790445211E+02 -0.26266396846E+03  0.27124128451E+03  0.00000000000E+00 0. -1.
          5    1    6    6  503    0  0.23933420134E+03  0.13941576085E+02 -0.16842282451E+03  0.29302485439E+03  0.47000000000E+01 0. -1.
         -5    1    6    6    0  503  0.20296771471E+03 -0.69183143988E+02 -0.17518806439E+03  0.27693888953E+03  0.47000000000E+01 0.  1.
<mgrwt>
<rscale>  0 0.59255940E+03</rscale>
<asrwt>0</asrwt>
<pdfrwt beam="1">  1        2 0.33774954E+00 0.59255940E+03</pdfrwt>
<pdfrwt beam="2">  1       -2 0.29791403E-01 0.59255940E+03</pdfrwt>
<totfact> 0.56967046E+01</totfact>
</mgrwt>
</event>
<event>
12    1  0.3127365E-008  0.9716963E+03  0.7818608E-02  0.9340144E-01
         -2   -1    0    0    0  501 -0.00000000000E+00  0.00000000000E+00  0.92348854950E+03  0.92348854950E+03  0.00000000000E+00 0.  1.
          2   -1    0    0  501    0  0.00000000000E+00 -0.00000000000E+00 -0.17410832185E+04  0.17410832185E+04  0.00000000000E+00 0. -1.
         23    2    1    2    0    0 -0.24502130230E+03  0.89330385084E+03 -0.11799742052E+04  0.15029119434E+04  0.91531286396E+02 0.  0.
    5000000    2    1    2    0    0  0.24502130230E+03 -0.89330385084E+03  0.36237953620E+03  0.11616598245E+04  0.60008950263E+03 0.  0.
         23    2    4    4    0    0  0.34562994066E+03 -0.58024756280E+03  0.25370504174E+02  0.68206772121E+03  0.91790107411E+02 0.  0.
         23    2    4    4    0    0 -0.10060863835E+03 -0.31305628804E+03  0.33700903202E+03  0.47959210332E+03  0.91143624646E+02 0.  0.
          3    1    3    3  502    0 -0.18709676133E+03  0.52117189184E+03 -0.72534462361E+03  0.91255145715E+03  0.00000000000E+00 0. -1.
         -3    1    3    3    0  502 -0.57924540973E+02  0.37213195900E+03 -0.45462958155E+03  0.59036048630E+03  0.00000000000E+00 0.  1.
         11    1    5    5    0    0  0.19650724947E+03 -0.24358956067E+03  0.23557462646E+02  0.31385653922E+03  0.00000000000E+00 0.  1.
        -11    1    5    5    0    0  0.14912269118E+03 -0.33665800213E+03  0.18130415285E+01  0.36821118199E+03  0.00000000000E+00 0. -1.
          5    1    6    6  503    0 -0.10135259913E+03 -0.26810362151E+03  0.24505796038E+03  0.37713047498E+03  0.47000000000E+01 0. -1.
         -5    1    6    6    0  503  0.74396077987E+00 -0.44952666533E+02  0.91951071640E+02  0.10246162834E+03  0.47000000000E+01 0.  1.
<mgrwt>
<rscale>  0 0.97169627E+03</rscale>
<asrwt>0</asrwt>
<pdfrwt beam="1">  1        2 0.26785896E+00 0.97169627E+03</pdfrwt>
<pdfrwt beam="2">  1       -2 0.14207516E+00 0.97169627E+03</pdfrwt>
<totfact> 0.32111142E+00</totfact>
</mgrwt>
</event>
<event>
12    1  0.3127365E-008  0.1249778E+04  0.7818608E-02  0.9070368E-01
          1   -1    0    0  501    0  0.00000000000E+00  0.00000000000E+00  0.27674565211E+04  0.27674565211E+04  0.00000000000E+00 0. -1.
         -1   -1    0    0    0  501 -0.00000000000E+00 -0.00000000000E+00 -0.78963122843E+03  0.78963122843E+03  0.00000000000E+00 0.  1.
         23    2    1    2    0    0 -0.11016425048E+04 -0.42704379081E+03  0.10989890974E+02  0.11855038757E+04  0.96519707555E+02 0.  0.
    5000000    2    1    2    0    0  0.11016425048E+04  0.42704379081E+03  0.19668354017E+04  0.23715838738E+04  0.59998830455E+03 0.  0.
         23    2    4    4    0    0  0.62096270052E+03 -0.57927173429E+02  0.10464428058E+04  0.12215378840E+04  0.90343917945E+02 0.  0.
         23    2    4    4    0    0  0.48067980428E+03  0.48497096424E+03  0.92039259588E+03  0.11500459898E+04  0.96090257715E+02 0.  0.
          2    1    3    3  502    0 -0.29315902775E+03 -0.10889742611E+03 -0.39465976869E+02  0.31521171979E+03  0.00000000000E+00 0. -1.
         -2    1    3    3    0  502 -0.80848347704E+03 -0.31814636470E+03  0.50455867842E+02  0.87029215590E+03  0.00000000000E+00 0.  1.
         11    1    5    5    0    0  0.80606781929E+02 -0.37536445456E+02  0.13126029128E+03  0.15854242996E+03  0.00000000000E+00 0. -1.
        -11    1    5    5    0    0  0.54035591859E+03 -0.20390727973E+02  0.91518251449E+03  0.10629954541E+04  0.00000000000E+00 0.  1.
          5    1    6    6  503    0  0.27309434360E+03  0.33482813993E+03  0.54436919899E+03  0.69501821458E+03  0.47000000000E+01 0. -1.
         -5    1    6    6    0  503  0.20758546068E+03  0.15014282431E+03  0.37602339689E+03  0.45502777518E+03  0.47000000000E+01 0.  1.
<mgrwt>
<rscale>  0 0.12497781E+04</rscale>
<asrwt>0</asrwt>
<pdfrwt beam="1">  1        1 0.42576254E+00 0.12497781E+04</pdfrwt>
<pdfrwt beam="2">  1       -1 0.12148173E+00 0.12497781E+04</pdfrwt>
<totfact> 0.51985844E-01</totfact>
</mgrwt>
</event>
<event>
12    1  0.3127365E-008  0.7126750E+03  0.7818608E-02  0.9695798E-01
         -1   -1    0    0    0  501 -0.00000000000E+00  0.00000000000E+00  0.44998803672E+03  0.44998803672E+03  0.00000000000E+00 0.  1.
          1   -1    0    0  501    0  0.00000000000E+00 -0.00000000000E+00 -0.12310923837E+04  0.12310923837E+04  0.00000000000E+00 0. -1.
         23    2    1    2    0    0 -0.54687610680E+03  0.22572658923E+03 -0.11793102570E+03  0.60976125716E+03  0.88741729942E+02 0.  0.
    5000000    2    1    2    0    0  0.54687610680E+03 -0.22572658923E+03 -0.66317332128E+03  0.10713191633E+04  0.59824737879E+03 0.  0.
         23    2    4    4    0    0  0.35674840048E+03 -0.41502613393E+03 -0.39561563604E+03  0.68167937336E+03  0.93053336819E+02 0.  0.
         23    2    4    4    0    0  0.19012770632E+03  0.18929954471E+03 -0.26755768525E+03  0.38963978989E+03  0.90825043905E+02 0.  0.
          4    1    3    3  502    0 -0.26552600682E+03  0.15086782795E+03 -0.83436953984E+02  0.31658630277E+03  0.00000000000E+00 0. -1.
         -4    1    3    3    0  502 -0.28135009998E+03  0.74858761278E+02 -0.34494071711E+02  0.29317495439E+03  0.00000000000E+00 0.  1.
         13    1    5    5    0    0  0.84466932442E+02 -0.91483704341E+02 -0.14085186391E+03  0.18799781489E+03  0.00000000000E+00 0.  1.
        -13    1    5    5    0    0  0.27228146804E+03 -0.32354242959E+03 -0.25476377212E+03  0.49368155847E+03  0.00000000000E+00 0. -1.
          5    1    6    6  503    0  0.32740344896E+02  0.88495829923E+02 -0.11120249037E+03  0.14591616073E+03  0.47000000000E+01 0. -1.
         -5    1    6    6    0  503  0.15738736142E+03  0.10080371478E+03 -0.15635519488E+03  0.24372362917E+03  0.47000000000E+01 0.  1.
<mgrwt>
<rscale>  0 0.71267499E+03</rscale>
<asrwt>0</asrwt>
<pdfrwt beam="1">  1        1 0.18939883E+00 0.71267499E+03</pdfrwt>
<pdfrwt beam="2">  1       -1 0.69228930E-01 0.71267499E+03</pdfrwt>
<totfact> 0.22173511E+01</totfact>
</mgrwt>
</event>
<event>
12    1  0.3127365E-008  0.1652498E+04  0.7818608E-02  0.8788930E-01
          2   -1    0    0  501    0  0.00000000000E+00  0.00000000000E+00  0.19237898200E+04  0.19237898200E+04  0.00000000000E+00 0. -1.
         -2   -1    0    0    0  501 -0.00000000000E+00 -0.00000000000E+00 -0.15278754616E+04  0.15278754616E+04  0.00000000000E+00 0.  1.
         23    2    1    2    0    0 -0.16317459731E+04 -0.21997992462E+03  0.41123860458E+03  0.16995103224E+04  0.90730689321E+02 0.  0.
    5000000    2    1    2    0    0  0.16317459731E+04  0.21997992462E+03 -0.15324246158E+02  0.17521549592E+04  0.59902093499E+03 0.  0.
         23    2    4    4    0    0  0.86587016704E+03  0.19032670490E+03  0.26808286967E+03  0.93091112969E+03  0.93657384165E+02 0.  0.
         23    2    4    4    0    0  0.76587580604E+03  0.29653219721E+02 -0.28340711583E+03  0.82124382949E+03  0.81711507444E+02 0.  0.
          2    1    3    3  502    0 -0.85118775874E+03 -0.15729024903E+03  0.23301573241E+03  0.89641349534E+03  0.00000000000E+00 0.  1.
         -2    1    3    3    0  502 -0.78055821433E+03 -0.62689675586E+02  0.17822287218E+03  0.80309682701E+03  0.00000000000E+00 0. -1.
         11    1    5    5    0    0  0.34409949033E+03  0.10762493978E+03  0.14413288887E+03  0.38828066725E+03  0.00000000000E+00 0.  1.
        -11    1    5    5    0    0  0.52177067671E+03  0.82701765114E+02  0.12394998080E+03  0.54263046244E+03  0.00000000000E+00 0. -1.
          5    1    6    6  503    0  0.49427655871E+03  0.46277680861E+00 -0.14587023345E+03  0.51537340410E+03  0.47000000000E+01 0. -1.
         -5    1    6    6    0  503  0.27159924733E+03  0.29190442912E+02 -0.13753688238E+03  0.30587042538E+03  0.47000000000E+01 0.  1.
<mgrwt>
<rscale>  0 0.16524976E+04</rscale>
<asrwt>0</asrwt>
<pdfrwt beam="1">  1        2 0.29596766E+00 0.16524976E+04</pdfrwt>
<pdfrwt beam="2">  1       -2 0.23505776E+00 0.16524976E+04</pdfrwt>
<totfact> 0.54107520E-01</totfact>
</mgrwt>
</event>
<event>
12    1  0.3127365E-008  0.4606218E+03  0.7818608E-02  0.1024601E+00
         -1   -1    0    0    0  501 -0.00000000000E+00  0.00000000000E+00  0.54262092495E+03  0.54262092495E+03  0.00000000000E+00 0.  1.
          1   -1    0    0  501    0  0.00000000000E+00 -0.00000000000E+00 -0.44471260728E+03  0.44471260728E+03  0.00000000000E+00 0. -1.
         23    2    1    2    0    0 -0.10589545638E+03 -0.26095354028E+03 -0.66776235333E+02  0.30436196914E+03  0.94162332114E+02 0.  0.
    5000000    2    1    2    0    0  0.10589545638E+03  0.26095354028E+03  0.16468455300E+03  0.68297156309E+03  0.60001546323E+03 0.  0.
         23    2    4    4    0    0 -0.20700915412E+03  0.97118328348E+01  0.14900652845E+03  0.27094074758E+03  0.90878124937E+02 0.  0.
         23    2    4    4    0    0  0.31290461050E+03  0.25124170745E+03  0.15678024550E+02  0.41203081550E+03  0.92151514582E+02 0.  0.
          4    1    3    3  502    0  0.13430356283E+02 -0.67256959694E+02 -0.57953417792E+01  0.68829202258E+02  0.00000000000E+00 0. -1.
         -4    1    3    3    0  502 -0.11932581266E+03 -0.19369658059E+03 -0.60980893554E+02  0.23553276689E+03  0.00000000000E+00 0.  1.
         13    1    5    5    0    0 -0.92920276888E+01  0.15824268291E+02 -0.63467359272E+01  0.19417268151E+02  0.00000000000E+00 0.  1.
        -13    1    5    5    0    0 -0.19771712643E+03 -0.61124354566E+01  0.15535326438E+03  0.25152347943E+03  0.00000000000E+00 0. -1.
          5    1    6    6  503    0  0.28109886945E+03  0.18846452696E+03  0.30914892541E+02  0.33987243623E+03  0.47000000000E+01 0. -1.
         -5    1    6    6    0  503  0.31805741053E+02  0.62777180489E+02 -0.15236867991E+02  0.72158379279E+02  0.47000000000E+01 0.  1.
<mgrwt>
<rscale>  0 0.46062181E+03</rscale>
<asrwt>0</asrwt>
<pdfrwt beam="1">  1        1 0.68417324E-01 0.46062181E+03</pdfrwt>
<pdfrwt beam="2">  1       -1 0.83480143E-01 0.46062181E+03</pdfrwt>
<totfact> 0.77489998E+01</totfact>
</mgrwt>
</event>
<event>
12    1  0.3127365E-008  0.1184773E+04  0.7818608E-02  0.9126290E-01
          2   -1    0    0  501    0  0.00000000000E+00  0.00000000000E+00  0.11868310831E+04  0.11868310831E+04  0.00000000000E+00 0. -1.
         -2   -1    0    0    0  501 -0.00000000000E+00 -0.00000000000E+00 -0.13807705803E+04  0.13807705803E+04  0.00000000000E+00 0.  1.
         23    2    1    2    0    0 -0.11272196206E+04  0.23836149149E+03  0.27238867475E+03  0.11874478545E+04  0.91632654173E+02 0.  0.
    5000000    2    1    2    0    0  0.11272196206E+04 -0.23836149149E+03 -0.46632817193E+03  0.13801538090E+04  0.59993524547E+03 0.  0.
         23    2    4    4    0    0  0.10898824519E+04 -0.22254398735E+03 -0.25307345477E+03  0.11444370449E+04  0.91216177300E+02 0.  0.
         23    2    4    4    0    0  0.37337168735E+02 -0.15817504141E+02 -0.21325471715E+03  0.23571676408E+03  0.91872525118E+02 0.  0.
          3    1    3    3  502    0 -0.23623357670E+03  0.16351415174E+02  0.38604375079E+02  0.23992492433E+03  0.00000000000E+00 0. -1.
         -3    1    3    3    0  502 -0.89098604391E+03  0.22201007632E+03  0.23378429967E+03  0.94752293017E+03  0.00000000000E+00 0.  1.
         13    1    5    5    0    0  0.21919349553E+03 -0.82255452684E+02 -0.47980949395E+02  0.23898518674E+03  0.00000000000E+00 0.  1.
        -13    1    5    5    0    0  0.87068895634E+03 -0.14028853467E+03 -0.20509250538E+03  0.90545185815E+03  0.00000000000E+00 0. -1.
          5    1    6    6  503    0  0.43036138873E+02  0.29613970094E+02 -0.13634249031E+03  0.14608374700E+03  0.47000000000E+01 0. -1.
         -5    1    6    6    0  503 -0.56989701381E+01 -0.45431474235E+02 -0.76912226839E+02  0.89633017071E+02  0.47000000000E+01 0.  1.
<mgrwt>
<rscale>  0 0.11847726E+04</rscale>
<asrwt>0</asrwt>
<pdfrwt beam="1">  1        2 0.18258940E+00 0.11847726E+04</pdfrwt>
<pdfrwt beam="2">  1       -2 0.21242624E+00 0.11847726E+04</pdfrwt>
<totfact> 0.20726957E+00</totfact>
</mgrwt>
</event>
<event>
12    1  0.3127365E-008  0.2420567E+03  0.7818608E-02  0.1118430E+00
          1   -1    0    0  501    0  0.00000000000E+00  0.00000000000E+00  0.15507039278E+04  0.15507039278E+04  0.00000000000E+00 0. -1.
         -1   -1    0    0    0  501 -0.00000000000E+00 -0.00000000000E+00 -0.15025942305E+03  0.15025942305E+03  0.00000000000E+00 0.  1.
         23    2    1    2    0    0 -0.16827792972E+03 -0.10772851312E+03  0.79685094708E+03  0.82673116821E+03  0.92682784045E+02 0.  0.
    5000000    2    1    2    0    0  0.16827792972E+03  0.10772851312E+03  0.60359355772E+03  0.87423218269E+03  0.60002819280E+03 0.  0.
         23    2    4    4    0    0  0.16569113124E+03  0.19998954621E+02  0.69312651364E+03  0.71855847607E+03  0.89712933675E+02 0.  0.
         23    2    4    4    0    0  0.25867984831E+01  0.87729558499E+02 -0.89532955920E+02  0.15567370661E+03  0.92276680557E+02 0.  0.
          2    1    3    3  502    0 -0.10799695234E+03 -0.90792732755E+02  0.38282242404E+03  0.40799469407E+03  0.00000000000E+00 0.  1.
         -2    1    3    3    0  502 -0.60280977380E+02 -0.16935780365E+02  0.41402852304E+03  0.41873647415E+03  0.00000000000E+00 0. -1.
         11    1    5    5    0    0  0.10084278526E+03 -0.24470397613E+02  0.29440533921E+03  0.31215792710E+03  0.00000000000E+00 0. -1.
        -11    1    5    5    0    0  0.64848345983E+02  0.44469352234E+02  0.39872117443E+03  0.40640054897E+03  0.00000000000E+00 0.  1.
          5    1    6    6  503    0  0.20543487910E+02  0.25568519534E+02 -0.84313973287E+02  0.90590949758E+02  0.47000000000E+01 0. -1.
         -5    1    6    6    0  503 -0.17956689427E+02  0.62161038964E+02 -0.52189826338E+01  0.65082756857E+02  0.47000000000E+01 0.  1.
<mgrwt>
<rscale>  0 0.24205671E+03</rscale>
<asrwt>0</asrwt>
<pdfrwt beam="1">  1        1 0.23856982E+00 0.24205671E+03</pdfrwt>
<pdfrwt beam="2">  1       -1 0.23116835E-01 0.24205671E+03</pdfrwt>
<totfact> 0.10695329E+02</totfact>
</mgrwt>
</event>
<event>
12    1  0.3127365E-008  0.1974439E+04  0.7818608E-02  0.8618666E-01
          2   -1    0    0  501    0  0.00000000000E+00  0.00000000000E+00  0.31752174022E+04  0.31752174022E+04  0.00000000000E+00 0. -1.
         -2   -1    0    0    0  501 -0.00000000000E+00 -0.00000000000E+00 -0.12864551632E+04  0.12864551632E+04  0.00000000000E+00 0.  1.
         23    2    1    2    0    0  0.72427723467E+03  0.18340564503E+04  0.79202648412E+03  0.21269279250E+04  0.90420522325E+02 0.  0.
    5000000    2    1    2    0    0 -0.72427723467E+03 -0.18340564503E+04  0.10967357549E+04  0.23347446404E+04  0.59988552574E+03 0.  0.
         23    2    4    4    0    0 -0.17848722556E+03 -0.56783768478E+03  0.54831540768E+02  0.60417202786E+03  0.87863618394E+02 0.  0.
         23    2    4    4    0    0 -0.54579000912E+03 -0.12662187655E+04  0.10419042141E+04  0.17305726125E+04  0.90113703010E+02 0.  0.
          4    1    3    3  502    0  0.15404056178E+03  0.39228557677E+03  0.12980305636E+03  0.44098220129E+03  0.00000000000E+00 0.  1.
         -4    1    3    3    0  502  0.57023667290E+03  0.14417708735E+04  0.66222342775E+03  0.16859457237E+04  0.00000000000E+00 0. -1.
         13    1    5    5    0    0 -0.17837393887E+03 -0.55652610306E+03  0.66180356673E+02  0.58814828493E+03  0.00000000000E+00 0. -1.
        -13    1    5    5    0    0 -0.11328668183E+00 -0.11311581716E+02 -0.11348815905E+02  0.16023742922E+02  0.00000000000E+00 0.  1.
          5    1    6    6  503    0 -0.37189282374E+03 -0.76290340344E+03  0.61708443204E+03  0.10493527346E+04  0.47000000000E+01 0. -1.
         -5    1    6    6    0  503 -0.17389718538E+03 -0.50331536210E+03  0.42481978210E+03  0.68121987791E+03  0.47000000000E+01 0.  1.
<mgrwt>
<rscale>  0 0.19744387E+04</rscale>
<asrwt>0</asrwt>
<pdfrwt beam="1">  1        2 0.48849498E+00 0.19744387E+04</pdfrwt>
<pdfrwt beam="2">  1       -2 0.19791618E+00 0.19744387E+04</pdfrwt>
<totfact> 0.16557565E-01</totfact>
</mgrwt>
</event>
<event>
12    1  0.3127365E-008  0.9761983E+03  0.7818608E-02  0.9335042E-01
         -1   -1    0    0    0  501 -0.00000000000E+00  0.00000000000E+00  0.13897091490E+04  0.13897091490E+04  0.00000000000E+00 0.  1.
          1   -1    0    0  501    0  0.00000000000E+00 -0.00000000000E+00 -0.78843007643E+03  0.78843007643E+03  0.00000000000E+00 0. -1.
         23    2    1    2    0    0 -0.84444313188E+03  0.30661939940E+03 -0.70874158171E+02  0.90577899906E+03  0.91174501812E+02 0.  0.
    5000000    2    1    2    0    0  0.84444313188E+03 -0.30661939940E+03  0.67215323078E+03  0.12723602264E+04  0.60000910078E+03 0.  0.
         23    2    4    4    0    0  0.35324142222E+03  0.13595219419E+03  0.37858701529E+03  0.54315871114E+03  0.91819147622E+02 0.  0.
         23    2    4    4    0    0  0.49120170966E+03 -0.44257159359E+03  0.29356621549E+03  0.72920151526E+03  0.91678743182E+02 0.  0.
          3    1    3    3  502    0 -0.27908961207E+03  0.14588577446E+03 -0.36316004117E+02  0.31700555659E+03  0.00000000000E+00 0. -1.
         -3    1    3    3    0  502 -0.56535351981E+03  0.16073362494E+03 -0.34558154054E+02  0.58877344247E+03  0.00000000000E+00 0.  1.
         11    1    5    5    0    0  0.30689180418E+03  0.14732460868E+03  0.34586740638E+03  0.48529514997E+03  0.00000000000E+00 0.  1.
        -11    1    5    5    0    0  0.46349618042E+02 -0.11372414491E+02  0.32719608913E+02  0.57863561171E+02  0.00000000000E+00 0. -1.
          5    1    6    6  503    0  0.28667970440E+02 -0.29891889809E+02  0.44981656754E+02  0.61325500812E+02  0.47000000000E+01 0. -1.
         -5    1    6    6    0  503  0.46253373922E+03 -0.41267970378E+03  0.24858455873E+03  0.66787601444E+03  0.47000000000E+01 0.  1.
<mgrwt>
<rscale>  0 0.97619829E+03</rscale>
<asrwt>0</asrwt>
<pdfrwt beam="1">  1        1 0.12129693E+00 0.97619829E+03</pdfrwt>
<pdfrwt beam="2">  1       -1 0.21380141E+00 0.97619829E+03</pdfrwt>
<totfact> 0.27634832E+00</totfact>
</mgrwt>
</event>
<event>
12    1  0.3127365E-008  0.5072421E+03  0.7818608E-02  0.1011906E+00
          1   -1    0    0  501    0  0.00000000000E+00  0.00000000000E+00  0.79449565738E+03  0.79449565738E+03  0.00000000000E+00 0. -1.
         -1   -1    0    0    0  501 -0.00000000000E+00 -0.00000000000E+00 -0.68667827193E+03  0.68667827193E+03  0.00000000000E+00 0.  1.
         23    2    1    2    0    0 -0.81502762350E+02 -0.33128824583E+03  0.55575415703E+03  0.65818654799E+03  0.89175371044E+02 0.  0.
    5000000    2    1    2    0    0  0.81502762350E+02  0.33128824583E+03 -0.44793677158E+03  0.82298738132E+03  0.60022185596E+03 0.  0.
         23    2    4    4    0    0 -0.23807690248E+03  0.21037526976E+03 -0.26513522347E+03  0.42437228380E+03  0.94110482472E+02 0.  0.
         23    2    4    4    0    0  0.31957966483E+03  0.12091297607E+03 -0.18280154811E+03  0.39861509752E+03  0.93415630513E+02 0.  0.
          2    1    3    3  502    0 -0.67230496277E+02 -0.31664253901E+03  0.47449405364E+03  0.57439276117E+03  0.00000000000E+00 0.  1.
         -2    1    3    3    0  502 -0.14272266073E+02 -0.14645706821E+02  0.81260103390E+02  0.83793786823E+02  0.00000000000E+00 0. -1.
         11    1    5    5    0    0 -0.12761153383E+03  0.60462564500E+02 -0.14704359701E+03  0.20386820422E+03  0.00000000000E+00 0. -1.
        -11    1    5    5    0    0 -0.11046536865E+03  0.14991270526E+03 -0.11809162647E+03  0.22050407958E+03  0.00000000000E+00 0.  1.
          5    1    6    6  503    0  0.27643310337E+03  0.11355876228E+03 -0.18977679324E+03  0.35404544112E+03  0.47000000000E+01 0. -1.
         -5    1    6    6    0  503  0.43146561461E+02  0.73542137913E+01  0.69752451325E+01  0.44569656394E+02  0.47000000000E+01 0.  1.
<mgrwt>
<rscale>  0 0.50724210E+03</rscale>
<asrwt>0</asrwt>
<pdfrwt beam="1">  1        1 0.12223010E+00 0.50724210E+03</pdfrwt>
<pdfrwt beam="2">  1       -1 0.10564281E+00 0.50724210E+03</pdfrwt>
<totfact> 0.19956819E+01</totfact>
</mgrwt>
</event>
<event>
12    1  0.3127365E-008  0.1448741E+04  0.7818608E-02  0.8919274E-01
          2   -1    0    0  501    0  0.00000000000E+00  0.00000000000E+00  0.26751451757E+04  0.26751451757E+04  0.00000000000E+00 0. -1.
         -2   -1    0    0    0  501 -0.00000000000E+00 -0.00000000000E+00 -0.78844771666E+03  0.78844771666E+03  0.00000000000E+00 0.  1.
         23    2    1    2    0    0  0.73031473331E+03  0.11811144373E+04  0.91873911223E+03  0.16676017797E+04  0.91778079148E+02 0.  0.
    5000000    2    1    2    0    0 -0.73031473331E+03 -0.11811144373E+04  0.96795834683E+03  0.17959911126E+04  0.60020812384E+03 0.  0.
         23    2    4    4    0    0 -0.78864117854E-02 -0.50537962096E+03  0.33555001529E+03  0.61334076445E+03  0.90468332753E+02 0.  0.
         23    2    4    4    0    0 -0.73030684690E+03 -0.67573481630E+03  0.63240833154E+03  0.11826503482E+04  0.93573050112E+02 0.  0.
          1    1    3    3  502    0  0.15591035634E+03  0.20999393406E+03  0.20747309598E+03  0.33384214400E+03  0.00000000000E+00 0. -1.
         -1    1    3    3    0  502  0.57440437697E+03  0.97112050320E+03  0.71126601625E+03  0.13337596357E+04  0.00000000000E+00 0.  1.
         11    1    5    5    0    0  0.30617787285E+02 -0.28692097482E+03  0.22891144321E+03  0.36832260794E+03  0.00000000000E+00 0. -1.
        -11    1    5    5    0    0 -0.30625673697E+02 -0.21845864614E+03  0.10663857208E+03  0.24501815651E+03  0.00000000000E+00 0.  1.
          5    1    6    6  503    0 -0.17093603226E+03 -0.11247751381E+03  0.14961588185E+03  0.25352972280E+03  0.47000000000E+01 0. -1.
         -5    1    6    6    0  503 -0.55937081464E+03 -0.56325730248E+03  0.48279244968E+03  0.92912062540E+03  0.47000000000E+01 0.  1.
<mgrwt>
<rscale>  0 0.14487411E+04</rscale>
<asrwt>0</asrwt>
<pdfrwt beam="1">  1        2 0.41156079E+00 0.14487411E+04</pdfrwt>
<pdfrwt beam="2">  1       -2 0.12129965E+00 0.14487411E+04</pdfrwt>
<totfact> 0.13567360E+00</totfact>
</mgrwt>
</event>
<event>
12    1  0.3127365E-008  0.6087981E+03  0.7818608E-02  0.9887319E-01
          2   -1    0    0  501    0  0.00000000000E+00  0.00000000000E+00  0.30667359764E+04  0.30667359764E+04  0.00000000000E+00 0. -1.
         -2   -1    0    0    0  501 -0.00000000000E+00 -0.00000000000E+00 -0.15346295383E+03  0.15346295383E+03  0.00000000000E+00 0.  1.
         23    2    1    2    0    0  0.49125423238E+03  0.15799789178E+03  0.16344632250E+04  0.17163651013E+04  0.90250055005E+02 0.  0.
    5000000    2    1    2    0    0 -0.49125423238E+03 -0.15799789178E+03  0.12788097975E+04  0.15038338289E+04  0.59988968321E+03 0.  0.
         23    2    4    4    0    0 -0.46284849725E+03 -0.29819066518E+03  0.67272072775E+03  0.87404901884E+03  0.90896125287E+02 0.  0.
         23    2    4    4    0    0 -0.28405735125E+02  0.14019277340E+03  0.60608906979E+03  0.62978481005E+03  0.93936398435E+02 0.  0.
          2    1    3    3  502    0  0.54429037824E+02  0.38208913975E+02  0.29452367567E+03  0.30193813405E+03  0.00000000000E+00 0. -1.
         -2    1    3    3    0  502  0.43682519455E+03  0.11978897780E+03  0.13399395494E+04  0.14144269673E+04  0.00000000000E+00 0.  1.
         13    1    5    5    0    0 -0.26910638067E+03 -0.19969520298E+03  0.46695459111E+03  0.57475473758E+03  0.00000000000E+00 0. -1.
        -13    1    5    5    0    0 -0.19374211658E+03 -0.98495462204E+02  0.20576613664E+03  0.29929428126E+03  0.00000000000E+00 0.  1.
          5    1    6    6  503    0 -0.31253176871E+02  0.93886713443E+02  0.22486005026E+03  0.24571448519E+03  0.47000000000E+01 0. -1.
         -5    1    6    6    0  503  0.28474417456E+01  0.46306059959E+02  0.38122901953E+03  0.38407032487E+03  0.47000000000E+01 0.  1.
<mgrwt>
<rscale>  0 0.60879809E+03</rscale>
<asrwt>0</asrwt>
<pdfrwt beam="1">  1        2 0.47180549E+00 0.60879809E+03</pdfrwt>
<pdfrwt beam="2">  1       -2 0.23609687E-01 0.60879809E+03</pdfrwt>
<totfact> 0.27298530E+01</totfact>
</mgrwt>
</event>
<event>
12    1  0.3127365E-008  0.1047713E+04  0.7818608E-02  0.9257708E-01
         -2   -1    0    0    0  501 -0.00000000000E+00  0.00000000000E+00  0.11048669784E+04  0.11048669784E+04  0.00000000000E+00 0. -1.
          2   -1    0    0  501    0  0.00000000000E+00 -0.00000000000E+00 -0.11447051938E+04  0.11447051938E+04  0.00000000000E+00 0.  1.
         23    2    1    2    0    0 -0.75273369076E+03  0.65519459539E+03 -0.32000612434E+03  0.10518520326E+04  0.90004510195E+02 0.  0.
    5000000    2    1    2    0    0  0.75273369076E+03 -0.65519459539E+03  0.28016790900E+03  0.11977201396E+04  0.60012624386E+03 0.  0.
         23    2    4    4    0    0 -0.29365740360E+02  0.17819753143E+02 -0.52200528771E+02  0.10988923370E+03  0.90392799333E+02 0.  0.
         23    2    4    4    0    0  0.78209943112E+03 -0.67301434853E+03  0.33236843777E+03  0.10878309059E+04  0.90991581662E+02 0.  0.
          4    1    3    3  502    0 -0.32853513612E+03  0.33341639878E+03 -0.12126949245E+03  0.48353709314E+03  0.00000000000E+00 0. -1.
         -4    1    3    3    0  502 -0.42419855463E+03  0.32177819661E+03 -0.19873663189E+03  0.56831493947E+03  0.00000000000E+00 0.  1.
         11    1    5    5    0    0 -0.28205235013E+02 -0.11149700217E+02 -0.69708312278E+02  0.76020391328E+02  0.00000000000E+00 0. -1.
        -11    1    5    5    0    0 -0.11605053468E+01  0.28969453359E+02  0.17507783507E+02  0.33868842376E+02  0.00000000000E+00 0.  1.
          5    1    6    6  503    0  0.33440536948E+03 -0.23115980012E+03  0.14154875079E+03  0.43048802907E+03  0.47000000000E+01 0. -1.
         -5    1    6    6    0  503  0.44769406164E+03 -0.44185454841E+03  0.19081968698E+03  0.65734287683E+03  0.47000000000E+01 0.  1.
<mgrwt>
<rscale>  0 0.10477134E+04</rscale>
<asrwt>0</asrwt>
<pdfrwt beam="1">  1        2 0.17610849E+00 0.10477134E+04</pdfrwt>
<pdfrwt beam="2">  1       -2 0.16997954E+00 0.10477134E+04</pdfrwt>
<totfact> 0.43007060E+00</totfact>
</mgrwt>
</event>
<event>
12    1  0.3127365E-008  0.4719204E+03  0.7818608E-02  0.1021380E+00
         -1   -1    0    0    0  501 -0.00000000000E+00  0.00000000000E+00  0.52010222836E+03  0.52010222836E+03  0.00000000000E+00 0.  1.
          1   -1    0    0  501    0  0.00000000000E+00 -0.00000000000E+00 -0.78201013329E+03  0.78201013329E+03  0.00000000000E+00 0. -1.
         23    2    1    2    0    0 -0.21204535290E+03 -0.24298384486E+03  0.27603654413E+03  0.43413320021E+03  0.90945485203E+02 0.  0.
    5000000    2    1    2    0    0  0.21204535290E+03  0.24298384486E+03 -0.53794444906E+03  0.86797916144E+03  0.59999934489E+03 0.  0.
         23    2    4    4    0    0  0.37637028488E+03  0.18707473563E+03 -0.51374383540E+03  0.66998659998E+03  0.91092083574E+02 0.  0.
         23    2    4    4    0    0 -0.16432493199E+03  0.55909109226E+02 -0.24200613662E+02  0.19799256146E+03  0.92124225498E+02 0.  0.
          2    1    3    3  502    0 -0.16445591634E+03 -0.13221095666E+03  0.20502309224E+03  0.29421073031E+03  0.00000000000E+00 0. -1.
         -2    1    3    3    0  502 -0.47589436556E+02 -0.11077288820E+03  0.71013451898E+02  0.13992246990E+03  0.00000000000E+00 0.  1.
         11    1    5    5    0    0  0.23300339495E+03  0.97155076019E+02 -0.37016334572E+03  0.44805199851E+03  0.00000000000E+00 0.  1.
        -11    1    5    5    0    0  0.14336688993E+03  0.89919659612E+02 -0.14358048968E+03  0.22193460147E+03  0.00000000000E+00 0. -1.
          5    1    6    6  503    0 -0.15445581626E+02 -0.18105765955E+02  0.13046183892E+02  0.27544104028E+02  0.47000000000E+01 0. -1.
         -5    1    6    6    0  503 -0.14887935036E+03  0.74014875181E+02 -0.37246797553E+02  0.17044845743E+03  0.47000000000E+01 0.  1.
<mgrwt>
<rscale>  0 0.47192039E+03</rscale>
<asrwt>0</asrwt>
<pdfrwt beam="1">  1        1 0.12030925E+00 0.47192039E+03</pdfrwt>
<pdfrwt beam="2">  1       -1 0.80015727E-01 0.47192039E+03</pdfrwt>
<totfact> 0.37925663E+01</totfact>
</mgrwt>
</event>
<event>
12    1  0.3127365E-008  0.6838984E+03  0.7818608E-02  0.9745171E-01
         -2   -1    0    0    0  501 -0.00000000000E+00  0.00000000000E+00  0.12783465889E+04  0.12783465889E+04  0.00000000000E+00 0.  1.
          2   -1    0    0  501    0  0.00000000000E+00 -0.00000000000E+00 -0.82936844733E+03  0.82936844733E+03  0.00000000000E+00 0. -1.
         23    2    1    2    0    0  0.72106898606E+02  0.54935955495E+03  0.98262071132E+03  0.11318377649E+04  0.92292677342E+02 0.  0.
    5000000    2    1    2    0    0 -0.72106898606E+02 -0.54935955495E+03 -0.53364256971E+03  0.97587727138E+03  0.60047209024E+03 0.  0.
         23    2    4    4    0    0  0.24941413482E+03 -0.27048896126E+03 -0.21504927595E+03  0.43561124528E+03  0.90217942294E+02 0.  0.
         23    2    4    4    0    0 -0.32152103342E+03 -0.27887059369E+03 -0.31859329375E+03  0.54026602611E+03  0.96130688035E+02 0.  0.
          3    1    3    3  502    0  0.14249158329E+02  0.38089208334E+03  0.71707337357E+03  0.81208130181E+03  0.00000000000E+00 0. -1.
         -3    1    3    3    0  502  0.57857740276E+02  0.16846747161E+03  0.26554733775E+03  0.31975646309E+03  0.00000000000E+00 0.  1.
         11    1    5    5    0    0  0.11581307182E+02 -0.54388665830E+02 -0.47890883592E+02  0.73387944364E+02  0.00000000000E+00 0. -1.
        -11    1    5    5    0    0  0.23783282764E+03 -0.21610029543E+03 -0.16715839236E+03  0.36222330091E+03  0.00000000000E+00 0.  1.
          5    1    6    6  503    0 -0.19203346854E+02 -0.45518469208E+02 -0.65133316095E+02  0.81884909690E+02  0.47000000000E+01 0. -1.
         -5    1    6    6    0  503 -0.30231768657E+03 -0.23335212448E+03 -0.25345997766E+03  0.45838111642E+03  0.47000000000E+01 0.  1.
<mgrwt>
<rscale>  0 0.68389836E+03</rscale>
<asrwt>0</asrwt>
<pdfrwt beam="1">  1        2 0.12759515E+00 0.68389836E+03</pdfrwt>
<pdfrwt beam="2">  1       -2 0.19666871E+00 0.68389836E+03</pdfrwt>
<totfact> 0.47349791E+00</totfact>
</mgrwt>
</event>
<event>
12    1  0.3127365E-008  0.9328551E+03  0.7818608E-02  0.9385418E-01
         -1   -1    0    0    0  501 -0.00000000000E+00  0.00000000000E+00  0.36404388761E+03  0.36404388761E+03  0.00000000000E+00 0.  1.
          1   -1    0    0  501    0  0.00000000000E+00 -0.00000000000E+00 -0.25261454228E+04  0.25261454228E+04  0.00000000000E+00 0. -1.
         23    2    1    2    0    0  0.84289039981E+03  0.18183979518E+03 -0.10028283085E+04  0.13257702880E+04  0.92045114433E+02 0.  0.
    5000000    2    1    2    0    0 -0.84289039981E+03 -0.18183979518E+03 -0.11592732266E+04  0.15644190223E+04  0.59996877105E+03 0.  0.
         23    2    4    4    0    0 -0.56468039125E+03  0.12600096543E+03 -0.87833101673E+03  0.10554274192E+04  0.87871922144E+02 0.  0.
         23    2    4    4    0    0 -0.27821000855E+03 -0.30784076061E+03 -0.28094220991E+03  0.50899160313E+03  0.89315082678E+02 0.  0.
          1    1    3    3  502    0  0.82141964610E+02  0.43111549670E+02 -0.87572384047E+02  0.12757284395E+03  0.00000000000E+00 0. -1.
         -1    1    3    3    0  502  0.76074843520E+03  0.13872824551E+03 -0.91525592447E+03  0.11981974441E+04  0.00000000000E+00 0.  1.
         11    1    5    5    0    0 -0.76415677503E+02 -0.40493103833E+01 -0.15787563312E+03  0.17544363259E+03  0.00000000000E+00 0. -1.
        -11    1    5    5    0    0 -0.48826471375E+03  0.13005027581E+03 -0.72045538361E+03  0.87998378662E+03  0.00000000000E+00 0.  1.
          5    1    6    6  503    0 -0.81099882760E+02 -0.12412793532E+03 -0.14383417638E+03  0.20662839980E+03  0.47000000000E+01 0. -1.
         -5    1    6    6    0  503 -0.19711012579E+03 -0.18371282529E+03 -0.13710803353E+03  0.30236320333E+03  0.47000000000E+01 0.  1.
<mgrwt>
<rscale>  0 0.93285512E+03</rscale>
<asrwt>0</asrwt>
<pdfrwt beam="1">  1        1 0.38863775E+00 0.93285512E+03</pdfrwt>
<pdfrwt beam="2">  1       -1 0.56006753E-01 0.93285512E+03</pdfrwt>
<totfact> 0.43108405E+00</totfact>
</mgrwt>
</event>
<event>
12    1  0.3127365E-008  0.5356336E+03  0.7818608E-02  0.1004875E+00
         -2   -1    0    0    0  501 -0.00000000000E+00  0.00000000000E+00  0.14233698670E+03  0.14233698670E+03  0.00000000000E+00 0. -1.
          2   -1    0    0  501    0  0.00000000000E+00 -0.00000000000E+00 -0.21823168589E+04  0.21823168589E+04  0.00000000000E+00 0.  1.
         23    2    1    2    0    0  0.38327424173E+03  0.38996725867E+02 -0.84662017671E+03  0.93460901516E+03  0.91150417539E+02 0.  0.
    5000000    2    1    2    0    0 -0.38327424173E+03 -0.38996725867E+02 -0.11933596955E+04  0.13900448305E+04  0.59974776265E+03 0.  0.
         23    2    4    4    0    0 -0.13562927776E+03  0.25181332793E+03 -0.35568073132E+03  0.46494123384E+03  0.88635857218E+02 0.  0.
         23    2    4    4    0    0 -0.24764496396E+03 -0.29081005379E+03 -0.83767896419E+03  0.92510359662E+03  0.90620648066E+02 0.  0.
          2    1    3    3  502    0  0.19083196402E+03 -0.26122236341E+02 -0.40070606120E+03  0.44459482364E+03  0.00000000000E+00 0. -1.
         -2    1    3    3    0  502  0.19244227771E+03  0.65118962208E+02 -0.44591411551E+03  0.49001419152E+03  0.00000000000E+00 0.  1.
         13    1    5    5    0    0 -0.95040871412E+02  0.22539600129E+03 -0.25577460781E+03  0.35391633847E+03  0.00000000000E+00 0. -1.
        -13    1    5    5    0    0 -0.40588406351E+02  0.26417326636E+02 -0.99906123517E+02  0.11102489537E+03  0.00000000000E+00 0.  1.
          5    1    6    6  503    0 -0.12891413528E+03 -0.13842018135E+03 -0.31032199572E+03  0.36345678134E+03  0.47000000000E+01 0. -1.
         -5    1    6    6    0  503 -0.11873082868E+03 -0.15238987244E+03 -0.52735696848E+03  0.56164681527E+03  0.47000000000E+01 0.  1.
<mgrwt>
<rscale>  0 0.53563363E+03</rscale>
<asrwt>0</asrwt>
<pdfrwt beam="1">  1        2 0.33574102E+00 0.53563363E+03</pdfrwt>
<pdfrwt beam="2">  1       -2 0.21898000E-01 0.53563363E+03</pdfrwt>
<totfact> 0.10175487E+02</totfact>
</mgrwt>
</event>
<event>
12    1  0.3127365E-008  0.3340096E+03  0.7818608E-02  0.1069376E+00
         -1   -1    0    0    0  501 -0.00000000000E+00  0.00000000000E+00  0.11091953058E+04  0.11091953058E+04  0.00000000000E+00 0.  1.
          1   -1    0    0  501    0  0.00000000000E+00 -0.00000000000E+00 -0.11911090404E+04  0.11911090404E+04  0.00000000000E+00 0. -1.
         23    2    1    2    0    0  0.74845179036E+02 -0.23936494187E+03 -0.10780150606E+04  0.11107178602E+04  0.93168223526E+02 0.  0.
    5000000    2    1    2    0    0 -0.74845179036E+02  0.23936494187E+03  0.99610132606E+03  0.11895864859E+04  0.60000064956E+03 0.  0.
         23    2    4    4    0    0 -0.18235085945E+03  0.71810934704E+02  0.51354604024E+02  0.21961558186E+03  0.84764745941E+02 0.  0.
         23    2    4    4    0    0  0.10750568042E+03  0.16755400717E+03  0.94474672203E+03  0.96997090405E+03  0.93087965277E+02 0.  0.
          3    1    3    3  502    0  0.53853937451E+02 -0.18007241960E+03 -0.94591973500E+03  0.96441198040E+03  0.00000000000E+00 0. -1.
         -3    1    3    3    0  502  0.20991241585E+02 -0.59292522266E+02 -0.13209532564E+03  0.14630587984E+03  0.00000000000E+00 0.  1.
         13    1    5    5    0    0 -0.14428752370E+03  0.40825676813E+02  0.72033733189E+02  0.16635649701E+03  0.00000000000E+00 0.  1.
        -13    1    5    5    0    0 -0.38063335757E+02  0.30985257891E+02 -0.20679129165E+02  0.53259084845E+02  0.00000000000E+00 0. -1.
          5    1    6    6  503    0  0.44780561392E+02  0.68310629387E+01  0.15318492649E+03  0.15981136944E+03  0.47000000000E+01 0. -1.
         -5    1    6    6    0  503  0.62725119027E+02  0.16072294423E+03  0.79156179555E+03  0.81015953462E+03  0.47000000000E+01 0.  1.
<mgrwt>
<rscale>  0 0.33400958E+03</rscale>
<asrwt>0</asrwt>
<pdfrwt beam="1">  1        1 0.18324755E+00 0.33400958E+03</pdfrwt>
<pdfrwt beam="2">  1       -1 0.17064543E+00 0.33400958E+03</pdfrwt>
<totfact> 0.30685168E+00</totfact>
</mgrwt>
</event>
<event>
12    1  0.3127365E-008  0.7334553E+03  0.7818608E-02  0.9661670E-01
          1   -1    0    0  501    0  0.00000000000E+00  0.00000000000E+00  0.14124423580E+04  0.14124423580E+04  0.00000000000E+00 0.  1.
         -1   -1    0    0    0  501 -0.00000000000E+00 -0.00000000000E+00 -0.76209002388E+03  0.76209002388E+03  0.00000000000E+00 0. -1.
         23    2    1    2    0    0 -0.60214755614E+03 -0.19399136833E+03  0.10390297702E+04  0.12199256703E+04  0.91768444158E+02 0.  0.
    5000000    2    1    2    0    0  0.60214755614E+03  0.19399136833E+03 -0.38867743606E+03  0.95460671159E+03  0.59999124507E+03 0.  0.
         23    2    4    4    0    0 -0.93026624523E+02  0.22548352572E+02  0.34398098406E+01  0.13317112485E+03  0.92522079136E+02 0.  0.
         23    2    4    4    0    0  0.69517418067E+03  0.17144301576E+03 -0.39211724590E+03  0.82143558674E+03  0.91327101787E+02 0.  0.
          1    1    3    3  502    0 -0.19645901860E+03 -0.10028187816E+03  0.41019720273E+03  0.46574064264E+03  0.00000000000E+00 0. -1.
         -1    1    3    3    0  502 -0.40568853754E+03 -0.93709490166E+02  0.62883256745E+03  0.75418502764E+03  0.00000000000E+00 0.  1.
         11    1    5    5    0    0 -0.61925289385E+02 -0.15945361283E+02 -0.32767584613E+02  0.71852004935E+02  0.00000000000E+00 0. -1.
        -11    1    5    5    0    0 -0.31101335139E+02  0.38493713855E+02  0.36207394454E+02  0.61319119913E+02  0.00000000000E+00 0.  1.
          5    1    6    6  503    0  0.61214856365E+03  0.15870941945E+03 -0.37611836216E+03  0.73580001098E+03  0.47000000000E+01 0. -1.
         -5    1    6    6    0  503  0.83025617016E+02  0.12733596306E+02 -0.15998883738E+02  0.85635575765E+02  0.47000000000E+01 0.  1.
<mgrwt>
<rscale>  0 0.73345532E+03</rscale>
<asrwt>0</asrwt>
<pdfrwt beam="1">  1        1 0.21729882E+00 0.73345532E+03</pdfrwt>
<pdfrwt beam="2">  1       -1 0.11724462E+00 0.73345532E+03</pdfrwt>
<totfact> 0.51474059E+00</totfact>
</mgrwt>
</event>
<event>
12    1  0.3127365E-008  0.9559499E+03  0.7818608E-02  0.9358223E-01
          2   -1    0    0  501    0  0.00000000000E+00  0.00000000000E+00  0.76484288777E+03  0.76484288777E+03  0.00000000000E+00 0. -1.
         -2   -1    0    0    0  501 -0.00000000000E+00 -0.00000000000E+00 -0.22106681213E+04  0.22106681213E+04  0.00000000000E+00 0.  1.
         23    2    1    2    0    0 -0.19252711323E+03 -0.88842409625E+03 -0.16323161609E+04  0.18704373922E+04  0.87840336862E+02 0.  0.
    5000000    2    1    2    0    0  0.19252711323E+03  0.88842409625E+03  0.18649092740E+03  0.11050736169E+04  0.60003730600E+03 0.  0.
         23    2    4    4    0    0 -0.83178984543E+02  0.88912261400E+02 -0.12752497585E+03  0.19805315719E+03  0.90212526346E+02 0.  0.
         23    2    4    4    0    0  0.27570609777E+03  0.79951183485E+03  0.31401590325E+03  0.90702045968E+03  0.94059026049E+02 0.  0.
          3    1    3    3  502    0 -0.43937302430E+02 -0.39819230986E+03 -0.68845625653E+03  0.79652973537E+03  0.00000000000E+00 0. -1.
         -3    1    3    3    0  502 -0.14858981080E+03 -0.49023178639E+03 -0.94385990435E+03  0.10739076568E+04  0.00000000000E+00 0.  1.
         13    1    5    5    0    0 -0.67604408736E+02  0.77626159440E+01 -0.47209639550E+02  0.82821279592E+02  0.00000000000E+00 0.  1.
        -13    1    5    5    0    0 -0.15574575807E+02  0.81149645456E+02 -0.80315336304E+02  0.11523187760E+03  0.00000000000E+00 0. -1.
          5    1    6    6  503    0  0.93107405663E+02  0.18335777594E+03  0.46383654582E+02  0.21086155743E+03  0.47000000000E+01 0. -1.
         -5    1    6    6    0  503  0.18259869211E+03  0.61615405891E+03  0.26763224867E+03  0.69615890226E+03  0.47000000000E+01 0.  1.
<mgrwt>
<rscale>  0 0.95594986E+03</rscale>
<asrwt>0</asrwt>
<pdfrwt beam="1">  1        2 0.11766814E+00 0.95594986E+03</pdfrwt>
<pdfrwt beam="2">  1       -2 0.34010279E+00 0.95594986E+03</pdfrwt>
<totfact> 0.66774851E-01</totfact>
</mgrwt>
</event>
<event>
12    1  0.3127365E-008  0.4169263E+03  0.7818608E-02  0.1038071E+00
          2   -1    0    0  501    0  0.00000000000E+00  0.00000000000E+00  0.32359353744E+04  0.32359353744E+04  0.00000000000E+00 0. -1.
         -2   -1    0    0    0  501 -0.00000000000E+00 -0.00000000000E+00 -0.18790289228E+03  0.18790289228E+03  0.00000000000E+00 0.  1.
         23    2    1    2    0    0  0.87887551744E+02  0.37763834551E+03  0.12827090585E+03  0.41795575000E+03  0.88874304056E+02 0.  0.
    5000000    2    1    2    0    0 -0.87887551744E+02 -0.37763834551E+03  0.29197615763E+04  0.30058825167E+04  0.59998924988E+03 0.  0.
         23    2    4    4    0    0 -0.10034418176E+03 -0.31589166009E+03  0.66234377278E+03  0.74572033029E+03  0.86850687648E+02 0.  0.
         23    2    4    4    0    0  0.12456630020E+02 -0.61746685419E+02  0.22574178035E+04  0.22601621864E+04  0.91815839499E+02 0.  0.
          2    1    3    3  502    0 -0.13587081255E+02  0.78020010921E+02  0.82741072282E+01  0.79625320919E+02  0.00000000000E+00 0. -1.
         -2    1    3    3    0  502  0.10147463300E+03  0.29961833459E+03  0.11999679862E+03  0.33833042908E+03  0.00000000000E+00 0.  1.
         11    1    5    5    0    0  0.85171443565E+01 -0.83508870236E+02  0.12988300566E+03  0.15464756162E+03  0.00000000000E+00 0.  1.
        -11    1    5    5    0    0 -0.10886132612E+03 -0.23238278986E+03  0.53246076711E+03  0.59107276867E+03  0.00000000000E+00 0. -1.
          5    1    6    6  503    0 -0.26433934615E+02 -0.28099065457E+01  0.12364677713E+04  0.12367624218E+04  0.47000000000E+01 0. -1.
         -5    1    6    6    0  503  0.38890564635E+02 -0.58936778873E+02  0.10209500322E+04  0.10233997646E+04  0.47000000000E+01 0.  1.
<mgrwt>
<rscale>  0 0.41692634E+03</rscale>
<asrwt>0</asrwt>
<pdfrwt beam="1">  1        2 0.49783617E+00 0.41692634E+03</pdfrwt>
<pdfrwt beam="2">  1       -2 0.28908139E-01 0.41692634E+03</pdfrwt>
<totfact> 0.15608141E+01</totfact>
</mgrwt>
</event>
<event>
12    1  0.3127365E-008  0.1217115E+04  0.7818608E-02  0.9098006E-01
          2   -1    0    0  501    0  0.00000000000E+00  0.00000000000E+00  0.70290867552E+03  0.70290867552E+03  0.00000000000E+00 0. -1.
         -2   -1    0    0    0  501 -0.00000000000E+00 -0.00000000000E+00 -0.22942729137E+04  0.22942729137E+04  0.00000000000E+00 0.  1.
         23    2    1    2    0    0  0.10708978802E+04 -0.40954030689E+03 -0.34560098322E+03  0.12009393772E+04  0.90938525023E+02 0.  0.
    5000000    2    1    2    0    0 -0.10708978802E+04  0.40954030689E+03 -0.12457632550E+04  0.17962422120E+04  0.60001205314E+03 0.  0.
         23    2    4    4    0    0 -0.42411518451E+03  0.46048362714E+03 -0.52411495679E+03  0.82166328461E+03  0.92277867087E+02 0.  0.
         23    2    4    4    0    0 -0.64678269571E+03 -0.50943320248E+02 -0.72164829817E+03  0.97457892738E+03  0.90026341125E+02 0.  0.
          2    1    3    3  502    0  0.18980492755E+03 -0.38195109255E+02 -0.46752931274E+02  0.19917483143E+03  0.00000000000E+00 0.  1.
         -2    1    3    3    0  502  0.88109295267E+03 -0.37134519763E+03 -0.29884805194E+03  0.10017645458E+04  0.00000000000E+00 0. -1.
         11    1    5    5    0    0 -0.23599939061E+03  0.18843145501E+03 -0.24524901229E+03  0.38903624977E+03  0.00000000000E+00 0.  1.
        -11    1    5    5    0    0 -0.18811579390E+03  0.27205217213E+03 -0.27886594450E+03  0.43262703484E+03  0.00000000000E+00 0. -1.
          5    1    6    6  503    0 -0.30950688215E+03 -0.54967619574E+02 -0.29953870390E+03  0.43423665718E+03  0.47000000000E+01 0. -1.
         -5    1    6    6    0  503 -0.33727581356E+03  0.40242993258E+01 -0.42210959427E+03  0.54034227021E+03  0.47000000000E+01 0.  1.
<mgrwt>
<rscale>  0 0.12171154E+04</rscale>
<asrwt>0</asrwt>
<pdfrwt beam="1">  1        2 0.10813980E+00 0.12171154E+04</pdfrwt>
<pdfrwt beam="2">  1       -2 0.35296506E+00 0.12171154E+04</pdfrwt>
<totfact> 0.59824752E-01</totfact>
</mgrwt>
</event>
<event>
12    1  0.3127365E-008  0.1431827E+04  0.7818608E-02  0.8931098E-01
          1   -1    0    0  501    0  0.00000000000E+00  0.00000000000E+00  0.23221847476E+04  0.23221847476E+04  0.00000000000E+00 0. -1.
         -1   -1    0    0    0  501 -0.00000000000E+00 -0.00000000000E+00 -0.10079811310E+04  0.10079811310E+04  0.00000000000E+00 0.  1.
         23    2    1    2    0    0  0.12831290651E+04  0.57984400865E+03  0.17451651500E+03  0.14218883438E+04  0.93119150643E+02 0.  0.
    5000000    2    1    2    0    0 -0.12831290651E+04 -0.57984400865E+03  0.11396871015E+04  0.19082775348E+04  0.59999765719E+03 0.  0.
         23    2    4    4    0    0 -0.21674521155E+03 -0.24234548858E+03  0.44128504969E+02  0.33995137259E+03  0.88936990105E+02 0.  0.
         23    2    4    4    0    0 -0.10663838535E+04 -0.33749852006E+03  0.10955585966E+04  0.15683261623E+04  0.91206023044E+02 0.  0.
          3    1    3    3  502    0  0.10230679097E+04  0.43886567775E+03  0.16931134609E+03  0.11260272478E+04  0.00000000000E+00 0. -1.
         -3    1    3    3    0  502  0.26006115536E+03  0.14097833090E+03  0.52051689110E+01  0.29586109594E+03  0.00000000000E+00 0.  1.
         11    1    5    5    0    0 -0.10306432920E+03 -0.16944678109E+03  0.50828089652E+02  0.20473876593E+03  0.00000000000E+00 0. -1.
        -11    1    5    5    0    0 -0.11368088235E+03 -0.72898707489E+02 -0.66995846835E+01  0.13521260666E+03  0.00000000000E+00 0.  1.
          5    1    6    6  503    0 -0.76446269230E+03 -0.27811910835E+03  0.82386295025E+03  0.11578107346E+04  0.47000000000E+01 0. -1.
         -5    1    6    6    0  503 -0.30192116121E+03 -0.59379411709E+02  0.27169564632E+03  0.41051542766E+03  0.47000000000E+01 0.  1.
<mgrwt>
<rscale>  0 0.14318266E+04</rscale>
<asrwt>0</asrwt>
<pdfrwt beam="1">  1        1 0.35725919E+00 0.14318266E+04</pdfrwt>
<pdfrwt beam="2">  1       -1 0.15507402E+00 0.14318266E+04</pdfrwt>
<totfact> 0.54781605E-01</totfact>
</mgrwt>
</event>
<event>
12    1  0.3127365E-008  0.9884118E+03  0.7818608E-02  0.9321347E-01
         -2   -1    0    0    0  501 -0.00000000000E+00  0.00000000000E+00  0.12421013982E+04  0.12421013982E+04  0.00000000000E+00 0.  1.
          2   -1    0    0  501    0  0.00000000000E+00 -0.00000000000E+00 -0.83818598956E+03  0.83818598956E+03  0.00000000000E+00 0. -1.
         23    2    1    2    0    0  0.90559620876E+03 -0.31003278593E+02 -0.27357924291E+02  0.91113687462E+03  0.91412535653E+02 0.  0.
    5000000    2    1    2    0    0 -0.90559620876E+03  0.31003278593E+02  0.43127333298E+03  0.11691505132E+04  0.59987543552E+03 0.  0.
         23    2    4    4    0    0 -0.14759698871E+03 -0.22180384532E+03  0.87039439695E+02  0.29429133913E+03  0.89720183608E+02 0.  0.
         23    2    4    4    0    0 -0.75799922005E+03  0.25280712391E+03  0.34423389329E+03  0.87485917406E+03  0.91691557154E+02 0.  0.
          3    1    3    3  502    0  0.69507159617E+03  0.56625269096E+01 -0.46107579357E+02  0.69662220527E+03  0.00000000000E+00 0. -1.
         -3    1    3    3    0  502  0.21052461259E+03 -0.36665805502E+02  0.18749655066E+02  0.21451466935E+03  0.00000000000E+00 0.  1.
         11    1    5    5    0    0 -0.59524337588E+02 -0.82422323511E+02 -0.11333158308E+02  0.10229871287E+03  0.00000000000E+00 0. -1.
        -11    1    5    5    0    0 -0.88072651122E+02 -0.13938152181E+03  0.98372598003E+02  0.19199262625E+03  0.00000000000E+00 0.  1.
          5    1    6    6  503    0 -0.27776350428E+03  0.61486339855E+02  0.87643114222E+02  0.29771889387E+03  0.47000000000E+01 0. -1.
         -5    1    6    6    0  503 -0.48023571577E+03  0.19132078406E+03  0.25659077906E+03  0.57714028019E+03  0.47000000000E+01 0. -1.
<mgrwt>
<rscale>  0 0.98841184E+03</rscale>
<asrwt>0</asrwt>
<pdfrwt beam="1">  1        2 0.12895169E+00 0.98841184E+03</pdfrwt>
<pdfrwt beam="2">  1       -2 0.19109252E+00 0.98841184E+03</pdfrwt>
<totfact> 0.48977303E+00</totfact>
</mgrwt>
</event>
<event>
12    1  0.3127365E-008  0.6732307E+03  0.7818608E-02  0.9764139E-01
          1   -1    0    0  501    0  0.00000000000E+00  0.00000000000E+00  0.95707291568E+03  0.95707291568E+03  0.00000000000E+00 0. -1.
         -1   -1    0    0    0  501 -0.00000000000E+00 -0.00000000000E+00 -0.99466884478E+03  0.99466884478E+03  0.00000000000E+00 0.  1.
         23    2    1    2    0    0 -0.23236820542E+03 -0.57314872299E+03 -0.64429601715E+03  0.89783686345E+03  0.92191290770E+02 0.  0.
    5000000    2    1    2    0    0  0.23236820542E+03  0.57314872299E+03  0.60670008805E+03  0.10539048970E+04  0.60011340057E+03 0.  0.
         23    2    4    4    0    0 -0.27713398177E+01 -0.53039841393E+02  0.29222820892E+03  0.31014408598E+03  0.89281145178E+02 0.  0.
         23    2    4    4    0    0  0.23513954524E+03  0.62618856439E+03  0.31447187914E+03  0.74376081103E+03  0.82975040555E+02 0.  0.
          2    1    3    3  502    0  0.33925571062E+01 -0.44595254452E+01 -0.21148952291E+02  0.21878642415E+02  0.00000000000E+00 0. -1.
         -2    1    3    3    0  502 -0.23576076253E+03 -0.56868919755E+03 -0.62314706486E+03  0.87595822103E+03  0.00000000000E+00 0.  1.
         11    1    5    5    0    0  0.56411933523E+01 -0.55169266892E+01  0.23563360814E+03  0.23576568204E+03  0.00000000000E+00 0. -1.
        -11    1    5    5    0    0 -0.84125331699E+01 -0.47522914703E+02  0.56594600780E+02  0.74378403947E+02  0.00000000000E+00 0.  1.
          5    1    6    6  503    0  0.11332144827E+03  0.28270639686E+03  0.98676577562E+02  0.32019340159E+03  0.47000000000E+01 0. -1.
         -5    1    6    6    0  503  0.12181809697E+03  0.34348216752E+03  0.21579530157E+03  0.42356740944E+03  0.47000000000E+01 0.  1.
<mgrwt>
<rscale>  0 0.67323069E+03</rscale>
<asrwt>0</asrwt>
<pdfrwt beam="1">  1        1 0.14724199E+00 0.67323069E+03</pdfrwt>
<pdfrwt beam="2">  1       -1 0.15302598E+00 0.67323069E+03</pdfrwt>
<totfact> 0.56690935E+00</totfact>
</mgrwt>
</event>
<event>
12    1  0.3127365E-008  0.6642732E+03  0.7818608E-02  0.9780359E-01
          1   -1    0    0  501    0  0.00000000000E+00  0.00000000000E+00  0.17090507074E+04  0.17090507074E+04  0.00000000000E+00 0. -1.
         -1   -1    0    0    0  501 -0.00000000000E+00 -0.00000000000E+00 -0.30214938607E+03  0.30214938607E+03  0.00000000000E+00 0.  1.
         23    2    1    2    0    0 -0.55696865013E+03 -0.66593703307E+01  0.85306821704E+03  0.10229803894E+04  0.92222935286E+02 0.  0.
    5000000    2    1    2    0    0  0.55696865013E+03  0.66593703307E+01  0.55383310433E+03  0.98821970407E+03  0.59965711171E+03 0.  0.
         23    2    4    4    0    0  0.99404260200E+02  0.22089074639E+03  0.35217552879E+03  0.43688173849E+03  0.90355528676E+02 0.  0.
         23    2    4    4    0    0  0.45756438993E+03 -0.21423137606E+03  0.20165757554E+03  0.55133796558E+03  0.89707976769E+02 0.  0.
          1    1    3    3  502    0 -0.97024452127E+02  0.15125067815E+02  0.21246718933E+03  0.23406156995E+03  0.00000000000E+00 0. -1.
         -1    1    3    3    0  502 -0.45994419800E+03 -0.21784438146E+02  0.64060102771E+03  0.78891881948E+03  0.00000000000E+00 0.  1.
         13    1    5    5    0    0 -0.16184729513E+02  0.34114528839E+02  0.67180036936E+02  0.77064284269E+02  0.00000000000E+00 0. -1.
        -13    1    5    5    0    0  0.11558898971E+03  0.18677621755E+03  0.28499549185E+03  0.35981745422E+03  0.00000000000E+00 0.  1.
          5    1    6    6  503    0  0.24326730569E+03 -0.16056281357E+03  0.10089116414E+03  0.30848098178E+03  0.47000000000E+01 0. -1.
         -5    1    6    6    0  503  0.21429708424E+03 -0.53668562495E+02  0.10076641140E+03  0.24285698380E+03  0.47000000000E+01 0.  1.
<mgrwt>
<rscale>  0 0.66427318E+03</rscale>
<asrwt>0</asrwt>
<pdfrwt beam="1">  1        1 0.26293087E+00 0.66427318E+03</pdfrwt>
<pdfrwt beam="2">  1       -1 0.46484522E-01 0.66427318E+03</pdfrwt>
<totfact> 0.22713312E+01</totfact>
</mgrwt>
</event>
<event>
12    1  0.3127365E-008  0.4188838E+03  0.7818608E-02  0.1037430E+00
         -1   -1    0    0    0  501 -0.00000000000E+00  0.00000000000E+00  0.65820411119E+03  0.65820411119E+03  0.00000000000E+00 0.  1.
          1   -1    0    0  501    0  0.00000000000E+00 -0.00000000000E+00 -0.10041586299E+04  0.10041586299E+04  0.00000000000E+00 0. -1.
         23    2    1    2    0    0  0.14089522881E+03 -0.20798995747E+03  0.51691311751E+03  0.58179642776E+03  0.90424689032E+02 0.  0.
    5000000    2    1    2    0    0 -0.14089522881E+03  0.20798995747E+03 -0.86286763621E+03  0.10805663133E+04  0.59997642616E+03 0.  0.
         23    2    4    4    0    0 -0.22657176765E+03  0.33842694901E+03 -0.38260308380E+03  0.56621039849E+03  0.91331976406E+02 0.  0.
         23    2    4    4    0    0  0.85676538845E+02 -0.13043699154E+03 -0.48026455242E+03  0.51435591483E+03  0.97742972862E+02 0.  0.
          1    1    3    3  502    0  0.55869805418E+02 -0.15031539958E+03  0.36175896093E+03  0.39570911074E+03  0.00000000000E+00 0. -1.
         -1    1    3    3    0  502  0.85025423392E+02 -0.57674557890E+02  0.15515415658E+03  0.18608731702E+03  0.00000000000E+00 0.  1.
         11    1    5    5    0    0 -0.17403533094E+03  0.24584669087E+03 -0.22475761195E+03  0.37582559247E+03  0.00000000000E+00 0.  1.
        -11    1    5    5    0    0 -0.52536436713E+02  0.92580258136E+02 -0.15784547185E+03  0.19038480602E+03  0.00000000000E+00 0. -1.
          5    1    6    6  503    0  0.90404115401E+02 -0.96091629746E+02 -0.44697165860E+03  0.46606035981E+03  0.47000000000E+01 0. -1.
         -5    1    6    6    0  503 -0.47275765568E+01 -0.34345361790E+02 -0.33292893813E+02  0.48295555024E+02  0.47000000000E+01 0.  1.
<mgrwt>
<rscale>  0 0.41888377E+03</rscale>
<asrwt>0</asrwt>
<pdfrwt beam="1">  1        1 0.15448594E+00 0.41888377E+03</pdfrwt>
<pdfrwt beam="2">  1       -1 0.10126217E+00 0.41888377E+03</pdfrwt>
<totfact> 0.15179196E+01</totfact>
</mgrwt>
</event>
<event>
12    1  0.3127365E-008  0.1245611E+04  0.7818608E-02  0.9073844E-01
          2   -1    0    0  501    0  0.00000000000E+00  0.00000000000E+00  0.23843917428E+04  0.23843917428E+04  0.00000000000E+00 0.  1.
         -2   -1    0    0    0  501 -0.00000000000E+00 -0.00000000000E+00 -0.80845791999E+03  0.80845791999E+03  0.00000000000E+00 0. -1.
         23    2    1    2    0    0 -0.65466728044E+03 -0.10437344871E+04  0.20072913221E+03  0.12516379357E+04  0.91292989811E+02 0.  0.
    5000000    2    1    2    0    0  0.65466728044E+03  0.10437344871E+04  0.13752046906E+04  0.19412117271E+04  0.59928632599E+03 0.  0.
         23    2    4    4    0    0  0.52157417650E+03  0.67442950776E+03  0.12586500906E+04  0.15229974500E+04  0.91795421659E+02 0.  0.
         23    2    4    4    0    0  0.13309310395E+03  0.36930497936E+03  0.11655460003E+03  0.41821427713E+03  0.84960371389E+02 0.  0.
          4    1    3    3  502    0 -0.63718076972E+02 -0.13473836695E+03  0.19000398750E+00  0.14904515075E+03  0.00000000000E+00 0.  1.
         -4    1    3    3    0  502 -0.59094920347E+03 -0.90899612018E+03  0.20053912822E+03  0.11025927850E+04  0.00000000000E+00 0. -1.
         13    1    5    5    0    0  0.19266017985E+03  0.18622097235E+03  0.42637668694E+03  0.50358045495E+03  0.00000000000E+00 0. -1.
        -13    1    5    5    0    0  0.32891399665E+03  0.48820853541E+03  0.83227340368E+03  0.10194169950E+04  0.00000000000E+00 0.  1.
          5    1    6    6  503    0  0.82956457358E+02  0.11362068346E+03  0.48458041361E+02  0.14886808019E+03  0.47000000000E+01 0. -1.
         -5    1    6    6    0  503  0.50136646589E+02  0.25568429590E+03  0.68096558665E+02  0.26934619694E+03  0.47000000000E+01 0.  1.
<mgrwt>
<rscale>  0 0.12456108E+04</rscale>
<asrwt>0</asrwt>
<pdfrwt beam="1">  1        2 0.36682950E+00 0.12456108E+04</pdfrwt>
<pdfrwt beam="2">  1       -2 0.12437814E+00 0.12456108E+04</pdfrwt>
<totfact> 0.19186498E+00</totfact>
</mgrwt>
</event>
<event>
12    1  0.3127365E-008  0.8813869E+03  0.7818608E-02  0.9449153E-01
          2   -1    0    0  501    0  0.00000000000E+00  0.00000000000E+00  0.13038388146E+04  0.13038388146E+04  0.00000000000E+00 0. -1.
         -2   -1    0    0    0  501 -0.00000000000E+00 -0.00000000000E+00 -0.67136749761E+03  0.67136749761E+03  0.00000000000E+00 0.  1.
         23    2    1    2    0    0 -0.62960453342E+03  0.46649602661E+03 -0.25108563369E+02  0.78937536929E+03  0.91992512425E+02 0.  0.
    5000000    2    1    2    0    0  0.62960453342E+03 -0.46649602661E+03  0.65757988035E+03  0.11858309429E+04  0.59980272989E+03 0.  0.
         23    2    4    4    0    0  0.64479530598E+03 -0.16790912814E+03  0.43704291075E+03  0.80233612989E+03  0.93713913420E+02 0.  0.
         23    2    4    4    0    0 -0.15190772557E+02 -0.29858689847E+03  0.22053696960E+03  0.38349481302E+03  0.95114778799E+02 0.  0.
          4    1    3    3  502    0 -0.20706229139E+03  0.17998975599E+03  0.29540337703E+02  0.27594154513E+03  0.00000000000E+00 0. -1.
         -4    1    3    3    0  502 -0.42254224203E+03  0.28650627063E+03 -0.54648901072E+02  0.51343382417E+03  0.00000000000E+00 0.  1.
         13    1    5    5    0    0  0.31083691175E+03 -0.12710299648E+03  0.20144605715E+03  0.39160601549E+03  0.00000000000E+00 0.  1.
        -13    1    5    5    0    0  0.33395839423E+03 -0.40806131659E+02  0.23559685359E+03  0.41073011440E+03  0.00000000000E+00 0. -1.
          5    1    6    6  503    0  0.21945763654E+02 -0.17708769790E+03  0.85153812302E+02  0.19777495048E+03  0.47000000000E+01 0. -1.
         -5    1    6    6    0  503 -0.37136536211E+02 -0.12149920057E+03  0.13538315730E+03  0.18571986254E+03  0.47000000000E+01 0.  1.
<mgrwt>
<rscale>  0 0.88138689E+03</rscale>
<asrwt>0</asrwt>
<pdfrwt beam="1">  1        2 0.20059059E+00 0.88138689E+03</pdfrwt>
<pdfrwt beam="2">  1       -2 0.10328731E+00 0.88138689E+03</pdfrwt>
<totfact> 0.12649688E+01</totfact>
</mgrwt>
</event>
<event>
12    1  0.3127365E-008  0.1187302E+04  0.7818608E-02  0.9124044E-01
          1   -1    0    0  501    0  0.00000000000E+00  0.00000000000E+00  0.38342383883E+04  0.38342383883E+04  0.00000000000E+00 0. -1.
         -1   -1    0    0    0  501 -0.00000000000E+00 -0.00000000000E+00 -0.54279710094E+03  0.54279710094E+03  0.00000000000E+00 0.  1.
         23    2    1    2    0    0 -0.10608388756E+04  0.42691325383E+03  0.40781714834E+03  0.12174593259E+04  0.90875395400E+02 0.  0.
    5000000    2    1    2    0    0  0.10608388756E+04 -0.42691325383E+03  0.28836241391E+04  0.31595761634E+04  0.59999942556E+03 0.  0.
         23    2    4    4    0    0  0.94495583324E+03 -0.51998805525E+03  0.26869988632E+04  0.28968254905E+04  0.91136858976E+02 0.  0.
         23    2    4    4    0    0  0.11588304233E+03  0.93074801415E+02  0.19662527582E+03  0.26275067288E+03  0.91019881606E+02 0.  0.
          2    1    3    3  502    0 -0.26471865143E+03  0.13705662054E+03  0.76653304951E+02  0.30779248011E+03  0.00000000000E+00 0. -1.
         -2    1    3    3    0  502 -0.79612022414E+03  0.28985663330E+03  0.33116384339E+03  0.90966684578E+03  0.00000000000E+00 0.  1.
         11    1    5    5    0    0  0.67511814827E+03 -0.36071874754E+03  0.17948886021E+04  0.19512887083E+04  0.00000000000E+00 0.  1.
        -11    1    5    5    0    0  0.26983768498E+03 -0.15926930771E+03  0.89211026109E+03  0.94553678223E+03  0.00000000000E+00 0. -1.
          5    1    6    6  503    0  0.57618186385E+02  0.60023330046E+02  0.17218261673E+03  0.19128930722E+03  0.47000000000E+01 0. -1.
         -5    1    6    6    0  503  0.58264855948E+02  0.33051471369E+02  0.24442659088E+02  0.71461365657E+02  0.47000000000E+01 0.  1.
<mgrwt>
<rscale>  0 0.11873022E+04</rscale>
<asrwt>0</asrwt>
<pdfrwt beam="1">  1        1 0.58988281E+00 0.11873022E+04</pdfrwt>
<pdfrwt beam="2">  1       -1 0.83507249E-01 0.11873022E+04</pdfrwt>
<totfact> 0.19253057E-01</totfact>
</mgrwt>
</event>
<event>
12    1  0.3127365E-008  0.3329241E+03  0.7818608E-02  0.1069850E+00
         -1   -1    0    0    0  501 -0.00000000000E+00  0.00000000000E+00  0.84853628199E+02  0.84853628199E+02  0.00000000000E+00 0.  1.
          1   -1    0    0  501    0  0.00000000000E+00 -0.00000000000E+00 -0.25192498565E+04  0.25192498565E+04  0.00000000000E+00 0. -1.
         23    2    1    2    0    0  0.13112662514E+03 -0.21674316486E+03 -0.59960587347E+03  0.65716004009E+03  0.90334508715E+02 0.  0.
    5000000    2    1    2    0    0 -0.13112662514E+03  0.21674316486E+03 -0.18347903548E+04  0.19469434446E+04  0.59996778161E+03 0.  0.
         23    2    4    4    0    0 -0.92846205789E+02  0.27618805378E+03 -0.17996808171E+04  0.18254488897E+04  0.92262377507E+02 0.  0.
         23    2    4    4    0    0 -0.38280419350E+02 -0.59444888926E+02 -0.35109537705E+02  0.12149455493E+03  0.92353461845E+02 0.  0.
          4    1    3    3  502    0  0.12213498599E+03 -0.13662063807E+03 -0.35337707573E+03  0.39806721945E+03  0.00000000000E+00 0. -1.
         -4    1    3    3    0  502  0.89916391513E+01 -0.80122526783E+02 -0.24622879773E+03  0.25909282064E+03  0.00000000000E+00 0.  1.
         13    1    5    5    0    0  0.12871566655E+02  0.92513590344E+02 -0.51371435482E+03  0.52213684027E+03  0.00000000000E+00 0. -1.
        -13    1    5    5    0    0 -0.10571777244E+03  0.18367446344E+03 -0.12859664623E+04  0.13033120494E+04  0.00000000000E+00 0.  1.
          5    1    6    6  503    0  0.53224904494E+01 -0.51599899158E+02 -0.52233619291E+02  0.73765299985E+02  0.47000000000E+01 0. -1.
         -5    1    6    6    0  503 -0.43602909800E+02 -0.78449897678E+01  0.17124081585E+02  0.47729254945E+02  0.47000000000E+01 0.  1.
<mgrwt>
<rscale>  0 0.33292408E+03</rscale>
<asrwt>0</asrwt>
<pdfrwt beam="1">  1        1 0.38757693E+00 0.33292408E+03</pdfrwt>
<pdfrwt beam="2">  1       -1 0.13054403E-01 0.33292408E+03</pdfrwt>
<totfact> 0.60821883E+01</totfact>
</mgrwt>
</event>
<event>
12    1  0.3127365E-008  0.1299028E+04  0.7818608E-02  0.9030336E-01
          1   -1    0    0  501    0  0.00000000000E+00  0.00000000000E+00  0.15568245664E+04  0.15568245664E+04  0.00000000000E+00 0. -1.
         -1   -1    0    0    0  501 -0.00000000000E+00 -0.00000000000E+00 -0.11847030204E+04  0.11847030204E+04  0.00000000000E+00 0.  1.
         23    2    1    2    0    0  0.12155579544E+04 -0.43072611562E+03  0.21501556616E+03  0.13105226125E+04  0.90175923495E+02 0.  0.
    5000000    2    1    2    0    0 -0.12155579544E+04  0.43072611562E+03  0.15710597984E+03  0.14310049742E+04  0.59998901670E+03 0.  0.
         23    2    4    4    0    0 -0.93148511156E+03  0.39581381429E+03  0.35022986434E+03  0.10744839785E+04  0.86728159373E+02 0.  0.
         23    2    4    4    0    0 -0.28407284282E+03  0.34912301334E+02 -0.19312388450E+03  0.35652099566E+03  0.88848954795E+02 0.  0.
          4    1    3    3  502    0  0.91441365237E+03 -0.35198340428E+03  0.19158268055E+03  0.99837296038E+03  0.00000000000E+00 0. -1.
         -4    1    3    3    0  502  0.30114430200E+03 -0.78742711341E+02  0.23432885609E+02  0.31214965216E+03  0.00000000000E+00 0.  1.
         11    1    5    5    0    0 -0.89696312153E+03  0.36176719853E+03  0.33734867263E+03  0.10243156126E+04  0.00000000000E+00 0.  1.
        -11    1    5    5    0    0 -0.34521990030E+02  0.34046615755E+02  0.12881191710E+02  0.50168365928E+02  0.00000000000E+00 0. -1.
          5    1    6    6  503    0 -0.50870935915E+02  0.27331697916E+02 -0.76918773864E+01  0.58447658718E+02  0.47000000000E+01 0. -1.
         -5    1    6    6    0  503 -0.23320190690E+03  0.75806034176E+01 -0.18543200712E+03  0.29807333694E+03  0.47000000000E+01 0.  1.
<mgrwt>
<rscale>  0 0.12990280E+04</rscale>
<asrwt>0</asrwt>
<pdfrwt beam="1">  1        1 0.23951147E+00 0.12990280E+04</pdfrwt>
<pdfrwt beam="2">  1       -1 0.18226200E+00 0.12990280E+04</pdfrwt>
<totfact> 0.11605267E+00</totfact>
</mgrwt>
</event>
<event>
12    1  0.3127365E-008  0.7151585E+03  0.7818608E-02  0.9691655E-01
         -2   -1    0    0    0  501 -0.00000000000E+00  0.00000000000E+00  0.42223330533E+03  0.42223330533E+03  0.00000000000E+00 0.  1.
          2   -1    0    0  501    0  0.00000000000E+00 -0.00000000000E+00 -0.13051052113E+04  0.13051052113E+04  0.00000000000E+00 0. -1.
         23    2    1    2    0    0  0.10332390269E+03 -0.59892078306E+03 -0.49496791980E+03  0.78914051496E+03  0.91474463476E+02 0.  0.
    5000000    2    1    2    0    0 -0.10332390269E+03  0.59892078306E+03 -0.38790398615E+03  0.93819800165E+03  0.60030330215E+03 0.  0.
         23    2    4    4    0    0 -0.15819842665E+03  0.69045722195E+03 -0.35300331520E+03  0.79653294835E+03  0.89974883911E+02 0.  0.
         23    2    4    4    0    0  0.54874523967E+02 -0.91536438885E+02 -0.34900670947E+02  0.14166505329E+03  0.86375907911E+02 0.  0.
          1    1    3    3  502    0  0.49994056928E+02 -0.36370520478E+03 -0.35284130038E+03  0.50919334734E+03  0.00000000000E+00 0. -1.
         -1    1    3    3    0  502  0.53329845757E+02 -0.23521557828E+03 -0.14212661942E+03  0.27994716762E+03  0.00000000000E+00 0.  1.
         13    1    5    5    0    0 -0.75572820898E+02  0.18110729950E+03 -0.72461539147E+02  0.20919316396E+03  0.00000000000E+00 0. -1.
        -13    1    5    5    0    0 -0.82625605755E+02  0.50934992244E+03 -0.28054177605E+03  0.58733978439E+03  0.00000000000E+00 0.  1.
          5    1    6    6  503    0  0.31664969997E+02 -0.30209420820E+02  0.26777470793E+02  0.51520892590E+02  0.47000000000E+01 0. -1.
         -5    1    6    6    0  503  0.23209553970E+02 -0.61327018065E+02 -0.61678141740E+02  0.90144160703E+02  0.47000000000E+01 0.  1.
<mgrwt>
<rscale>  0 0.71515848E+03</rscale>
<asrwt>0</asrwt>
<pdfrwt beam="1">  1        2 0.20078541E+00 0.71515848E+03</pdfrwt>
<pdfrwt beam="2">  1       -2 0.64958971E-01 0.71515848E+03</pdfrwt>
<totfact> 0.36739584E+01</totfact>
</mgrwt>
</event>
<event>
12    1  0.3127365E-008  0.6149323E+03  0.7818608E-02  0.9874902E-01
         -1   -1    0    0    0  501 -0.00000000000E+00  0.00000000000E+00  0.13759014017E+04  0.13759014017E+04  0.00000000000E+00 0.  1.
          1   -1    0    0  501    0  0.00000000000E+00 -0.00000000000E+00 -0.46781451014E+03  0.46781451014E+03  0.00000000000E+00 0. -1.
         23    2    1    2    0    0  0.18168984752E+03 -0.44271319474E+03  0.95750491641E+03  0.10745496114E+04  0.93994834845E+02 0.  0.
    5000000    2    1    2    0    0 -0.18168984752E+03  0.44271319474E+03 -0.49418024889E+02  0.76916630038E+03  0.60014038605E+03 0.  0.
         23    2    4    4    0    0 -0.10424091757E+03 -0.11564872697E+03 -0.79760098682E+02  0.19622002103E+03  0.88880967404E+02 0.  0.
         23    2    4    4    0    0 -0.77448929954E+02  0.55836192171E+03  0.30342073793E+02  0.57294627934E+03  0.97879646515E+02 0.  0.
          1    1    3    3  502    0  0.14153744712E+03 -0.25153982326E+03  0.50462512520E+03  0.58133608920E+03  0.00000000000E+00 0. -1.
         -1    1    3    3    0  502  0.40152400402E+02 -0.19117337148E+03  0.45287979121E+03  0.49321352223E+03  0.00000000000E+00 0.  1.
         13    1    5    5    0    0 -0.11230412398E+02 -0.77733061589E+02 -0.40610851649E+02  0.88418280340E+02  0.00000000000E+00 0.  1.
        -13    1    5    5    0    0 -0.93010505167E+02 -0.37915665386E+02 -0.39149247033E+02  0.10780174069E+03  0.00000000000E+00 0. -1.
          5    1    6    6  503    0 -0.47958027684E+02  0.48933737233E+03  0.52611159831E+02  0.49451093063E+03  0.47000000000E+01 0. -1.
         -5    1    6    6    0  503 -0.29490902271E+02  0.69024549385E+02 -0.22269086038E+02  0.78435348712E+02  0.47000000000E+01 0.  1.
<mgrwt>
<rscale>  0 0.61493233E+03</rscale>
<asrwt>0</asrwt>
<pdfrwt beam="1">  1        1 0.71971463E-01 0.61493233E+03</pdfrwt>
<pdfrwt beam="2">  1       -1 0.21167714E+00 0.61493233E+03</pdfrwt>
<totfact> 0.64256472E+00</totfact>
</mgrwt>
</event>
<event>
12    1  0.3127365E-008  0.1040191E+04  0.7818608E-02  0.9265530E-01
          1   -1    0    0  501    0  0.00000000000E+00  0.00000000000E+00  0.10246263930E+04  0.10246263930E+04  0.00000000000E+00 0. -1.
         -1   -1    0    0    0  501 -0.00000000000E+00 -0.00000000000E+00 -0.12349261749E+04  0.12349261749E+04  0.00000000000E+00 0.  1.
         23    2    1    2    0    0  0.10300614035E+04  0.89275087288E+02 -0.23302206203E+03  0.10638897941E+04  0.92550939188E+02 0.  0.
    5000000    2    1    2    0    0 -0.10300614035E+04 -0.89275087288E+02  0.22722280045E+02  0.11956627738E+04  0.60008051996E+03 0.  0.
         23    2    4    4    0    0 -0.58291908921E+03 -0.14478336667E+02  0.29452973910E+03  0.65919656743E+03  0.88249988705E+02 0.  0.
         23    2    4    4    0    0 -0.44714231432E+03 -0.74796750621E+02 -0.27180745905E+03  0.53646620639E+03  0.91574519592E+02 0.  0.
          1    1    3    3  502    0  0.23717909864E+03  0.58741690305E+02 -0.64636370518E+02  0.25274962197E+03  0.00000000000E+00 0. -1.
         -1    1    3    3    0  502  0.79288230489E+03  0.30533396984E+02 -0.16838569151E+03  0.81114017213E+03  0.00000000000E+00 0.  1.
         11    1    5    5    0    0 -0.23533525111E+03 -0.20109495775E+02  0.16545003566E+03  0.28837611992E+03  0.00000000000E+00 0. -1.
        -11    1    5    5    0    0 -0.34758383809E+03  0.56311591082E+01  0.12907970343E+03  0.37082044751E+03  0.00000000000E+00 0.  1.
          5    1    6    6  503    0 -0.21669842876E+03 -0.10819212605E+01 -0.94434891545E+02  0.23643057823E+03  0.47000000000E+01 0. -1.
         -5    1    6    6    0  503 -0.23044388557E+03 -0.73714829360E+02 -0.17737256751E+03  0.30003562816E+03  0.47000000000E+01 0.  1.
<mgrwt>
<rscale>  0 0.10401910E+04</rscale>
<asrwt>0</asrwt>
<pdfrwt beam="1">  1        1 0.15763483E+00 0.10401910E+04</pdfrwt>
<pdfrwt beam="2">  1       -1 0.18998864E+00 0.10401910E+04</pdfrwt>
<totfact> 0.25554866E+00</totfact>
</mgrwt>
</event>
<event>
12    1  0.3127365E-008  0.7319534E+03  0.7818608E-02  0.9664096E-01
         -1   -1    0    0    0  501 -0.00000000000E+00  0.00000000000E+00  0.21121475996E+03  0.21121475996E+03  0.00000000000E+00 0.  1.
          1   -1    0    0  501    0  0.00000000000E+00 -0.00000000000E+00 -0.37779722317E+04  0.37779722317E+04  0.00000000000E+00 0. -1.
         23    2    1    2    0    0 -0.65237266711E+03 -0.20157430372E+03 -0.24725777790E+04  0.25667368892E+04  0.90967513621E+02 0.  0.
    5000000    2    1    2    0    0  0.65237266711E+03  0.20157430372E+03 -0.10941796928E+04  0.14224501025E+04  0.59992732662E+03 0.  0.
         23    2    4    4    0    0  0.31478687246E+03 -0.92889294130E+02 -0.82324771200E+03  0.89094814364E+03  0.91283094320E+02 0.  0.
         23    2    4    4    0    0  0.33758579465E+03  0.29446359785E+03 -0.27093198076E+03  0.53150195882E+03  0.91745380373E+02 0.  0.
          3    1    3    3  502    0 -0.37485417419E+03 -0.92873276105E+02 -0.12465371425E+04  0.13049888678E+04  0.00000000000E+00 0. -1.
         -3    1    3    3    0  502 -0.27751849292E+03 -0.10870102761E+03 -0.12260406365E+04  0.12617480214E+04  0.00000000000E+00 0.  1.
         11    1    5    5    0    0  0.12305501006E+03 -0.21538107593E+02 -0.42848852630E+03  0.44632817831E+03  0.00000000000E+00 0.  1.
        -11    1    5    5    0    0  0.19173186240E+03 -0.71351186537E+02 -0.39475918570E+03  0.44461996533E+03  0.00000000000E+00 0. -1.
          5    1    6    6  503    0  0.13599745442E+03  0.14728449299E+03 -0.74773511317E+02  0.21401214330E+03  0.47000000000E+01 0. -1.
         -5    1    6    6    0  503  0.20158834023E+03  0.14717910485E+03 -0.19615846944E+03  0.31748981551E+03  0.47000000000E+01 0.  1.
<mgrwt>
<rscale>  0 0.73195338E+03</rscale>
<asrwt>0</asrwt>
<pdfrwt beam="1">  1        1 0.58122651E+00 0.73195338E+03</pdfrwt>
<pdfrwt beam="2">  1       -1 0.32494578E-01 0.73195338E+03</pdfrwt>
<totfact> 0.14494521E+00</totfact>
</mgrwt>
</event>
<event>
12    1  0.3127365E-008  0.3837735E+03  0.7818608E-02  0.1049548E+00
         -2   -1    0    0    0  501 -0.00000000000E+00  0.00000000000E+00  0.38488925491E+03  0.38488925491E+03  0.00000000000E+00 0.  1.
          2   -1    0    0  501    0  0.00000000000E+00 -0.00000000000E+00 -0.11164779613E+04  0.11164779613E+04  0.00000000000E+00 0. -1.
         23    2    1    2    0    0  0.16903207714E+02 -0.33263505296E+03 -0.73946064760E+03  0.81609754280E+03  0.91001940226E+02 0.  0.
    5000000    2    1    2    0    0 -0.16903207714E+02  0.33263505296E+03  0.78719411593E+01  0.68526967346E+03  0.59883283228E+03 0.  0.
         23    2    4    4    0    0 -0.32646669206E+01 -0.22071808197E+01  0.24741298364E+03  0.26200268748E+03  0.86120230362E+02 0.  0.
         23    2    4    4    0    0 -0.13638540793E+02  0.33484223378E+03 -0.23954104248E+03  0.42326698597E+03  0.97312378797E+02 0.  0.
          4    1    3    3  502    0 -0.31274396113E+02 -0.15698331739E+03 -0.29216477243E+03  0.33313976653E+03  0.00000000000E+00 0. -1.
         -4    1    3    3    0  502  0.48177603827E+02 -0.17565173556E+03 -0.44729587517E+03  0.48295777627E+03  0.00000000000E+00 0.  1.
         13    1    5    5    0    0  0.32704111058E+02 -0.25827131821E+02  0.97407648733E+02  0.10594739095E+03  0.00000000000E+00 0.  1.
        -13    1    5    5    0    0 -0.35968777978E+02  0.23619951001E+02  0.15000533491E+03  0.15605529653E+03  0.00000000000E+00 0. -1.
          5    1    6    6  503    0  0.24075564660E+02  0.12674569137E+03 -0.47495984357E+02  0.13755748480E+03  0.47000000000E+01 0.  1.
         -5    1    6    6    0  503 -0.37714105453E+02  0.20809654241E+03 -0.19204505812E+03  0.28570950118E+03  0.47000000000E+01 0. -1.
<mgrwt>
<rscale>  0 0.38377347E+03</rscale>
<asrwt>0</asrwt>
<pdfrwt beam="1">  1        2 0.17176584E+00 0.38377347E+03</pdfrwt>
<pdfrwt beam="2">  1       -2 0.59213733E-01 0.38377347E+03</pdfrwt>
<totfact> 0.60225129E+01</totfact>
</mgrwt>
</event>
<event>
12    1  0.3127365E-008  0.2162434E+04  0.7818608E-02  0.8534229E-01
          2   -1    0    0  501    0  0.00000000000E+00  0.00000000000E+00  0.27187181110E+04  0.27187181110E+04  0.00000000000E+00 0.  1.
         -2   -1    0    0    0  501 -0.00000000000E+00 -0.00000000000E+00 -0.17837715906E+04  0.17837715906E+04  0.00000000000E+00 0. -1.
         23    2    1    2    0    0  0.14261365569E+04  0.15811433498E+04  0.83211947606E+03  0.22879059827E+04  0.90615627829E+02 0.  0.
    5000000    2    1    2    0    0 -0.14261365569E+04 -0.15811433498E+04  0.10282704436E+03  0.22145837189E+04  0.59993989343E+03 0.  0.
         23    2    4    4    0    0 -0.13671233126E+03 -0.47133375171E+03  0.11386106331E+03  0.51087956852E+03  0.84781040206E+02 0.  0.
         23    2    4    4    0    0 -0.12894242256E+04 -0.11098095980E+04 -0.11034018944E+02  0.17037041504E+04  0.90520191024E+02 0.  0.
          1    1    3    3  502    0  0.10559290038E+04  0.12241081392E+04  0.64725707244E+03  0.17413697239E+04  0.00000000000E+00 0. -1.
         -1    1    3    3    0  502  0.37020755305E+03  0.35703521060E+03  0.18486240362E+03  0.54653625883E+03  0.00000000000E+00 0.  1.
         11    1    5    5    0    0 -0.25737405755E+02 -0.10297241254E+03  0.61356769316E+02  0.12259847038E+03  0.00000000000E+00 0.  1.
        -11    1    5    5    0    0 -0.11097492551E+03 -0.36836133917E+03  0.52504293990E+02  0.38828109815E+03  0.00000000000E+00 0. -1.
          5    1    6    6  503    0 -0.78015904869E+03 -0.72137767435E+03 -0.28572308953E+02  0.10629545414E+04  0.47000000000E+01 0. -1.
         -5    1    6    6    0  503 -0.50926517694E+03 -0.38843192369E+03  0.17538290010E+02  0.64074960897E+03  0.47000000000E+01 0.  1.
<mgrwt>
<rscale>  0 0.21624336E+04</rscale>
<asrwt>0</asrwt>
<pdfrwt beam="1">  1        2 0.41826432E+00 0.21624336E+04</pdfrwt>
<pdfrwt beam="2">  1       -2 0.27442640E+00 0.21624336E+04</pdfrwt>
<totfact> 0.10296700E-01</totfact>
</mgrwt>
</event>
<event>
12    1  0.3127365E-008  0.1080926E+04  0.7818608E-02  0.9223985E-01
         -3   -1    0    0    0  501 -0.00000000000E+00  0.00000000000E+00  0.11458328858E+04  0.11458328858E+04  0.00000000000E+00 0.  1.
          3   -1    0    0  501    0  0.00000000000E+00 -0.00000000000E+00 -0.12143294888E+04  0.12143294888E+04  0.00000000000E+00 0. -1.
         23    2    1    2    0    0  0.62471261927E+03 -0.87191478230E+03 -0.28193757103E+03  0.11127248009E+04  0.90368381083E+02 0.  0.
    5000000    2    1    2    0    0 -0.62471261927E+03  0.87191478230E+03  0.21344096801E+03  0.12474375737E+04  0.60003517339E+03 0.  0.
         23    2    4    4    0    0 -0.47443193024E+03  0.55296003650E+03  0.40229135122E+03  0.83708393332E+03  0.89558482268E+02 0.  0.
         23    2    4    4    0    0 -0.15028068903E+03  0.31895474579E+03 -0.18885038321E+03  0.41035364043E+03  0.91701840865E+02 0.  0.
          2    1    3    3  502    0  0.38515392388E+03 -0.52663738950E+03 -0.12614192489E+03  0.66453161724E+03  0.00000000000E+00 0.  1.
         -2    1    3    3    0  502  0.23955869539E+03 -0.34527739279E+03 -0.15579564615E+03  0.44819318365E+03  0.00000000000E+00 0. -1.
         13    1    5    5    0    0 -0.12198104941E+03  0.90451320073E+02  0.68447316964E+02  0.16657086455E+03  0.00000000000E+00 0.  1.
        -13    1    5    5    0    0 -0.35245088083E+03  0.46250871643E+03  0.33384403425E+03  0.67051306876E+03  0.00000000000E+00 0. -1.
          5    1    6    6  503    0 -0.75902769128E+01  0.54956832611E+02 -0.65234033263E+02  0.85763831829E+02  0.47000000000E+01 0. -1.
         -5    1    6    6    0  503 -0.14269041212E+03  0.26399791318E+03 -0.12361634994E+03  0.32458980860E+03  0.47000000000E+01 0.  1.
<mgrwt>
<rscale>  0 0.10809262E+04</rscale>
<asrwt>0</asrwt>
<pdfrwt beam="1">  1        3 0.18681992E+00 0.10809262E+04</pdfrwt>
<pdfrwt beam="2">  1       -3 0.17628198E+00 0.10809262E+04</pdfrwt>
<totfact> 0.94200066E-02</totfact>
</mgrwt>
</event>
<event>
12    1  0.3127365E-008  0.5163793E+03  0.7818608E-02  0.1009590E+00
          1   -1    0    0  501    0  0.00000000000E+00  0.00000000000E+00  0.47807805422E+03  0.47807805422E+03  0.00000000000E+00 0. -1.
         -1   -1    0    0    0  501 -0.00000000000E+00 -0.00000000000E+00 -0.77490265848E+03  0.77490265848E+03  0.00000000000E+00 0.  1.
         23    2    1    2    0    0  0.43910022367E+03 -0.51232836564E+02 -0.22516763231E+03  0.50432891032E+03  0.90627684414E+02 0.  0.
    5000000    2    1    2    0    0 -0.43910022367E+03  0.51232836564E+02 -0.71656971945E+02  0.74865180237E+03  0.59992582008E+03 0.  0.
         23    2    4    4    0    0  0.65517619691E+02  0.60558412611E+01  0.15029044703E+03  0.18791477288E+03  0.91627024913E+02 0.  0.
         23    2    4    4    0    0 -0.50461784336E+03  0.45176995302E+02 -0.22194741898E+03  0.56073702949E+03  0.92115312044E+02 0.  0.
          3    1    3    3  502    0  0.33434881049E+03 -0.94029927763E+01 -0.19657000959E+03  0.38796560675E+03  0.00000000000E+00 0. -1.
         -3    1    3    3    0  502  0.10475141318E+03 -0.41829843787E+02 -0.28597622720E+02  0.11636330358E+03  0.00000000000E+00 0.  1.
         13    1    5    5    0    0  0.63166043381E+02  0.18087399902E+02  0.39952796533E+02  0.76898173076E+02  0.00000000000E+00 0.  1.
        -13    1    5    5    0    0  0.23515763096E+01 -0.12031558641E+02  0.11033765050E+03  0.11101659980E+03  0.00000000000E+00 0. -1.
          5    1    6    6  503    0 -0.29075299331E+03  0.11939652614E+02 -0.79875525447E+02  0.30179802515E+03  0.47000000000E+01 0. -1.
         -5    1    6    6    0  503 -0.21386485005E+03  0.33237342688E+02 -0.14207189353E+03  0.25893900434E+03  0.47000000000E+01 0.  1.
<mgrwt>
<rscale>  0 0.51637929E+03</rscale>
<asrwt>0</asrwt>
<pdfrwt beam="1">  1        1 0.73550470E-01 0.51637929E+03</pdfrwt>
<pdfrwt beam="2">  1       -1 0.11921579E+00 0.51637929E+03</pdfrwt>
<totfact> 0.31189986E+01</totfact>
</mgrwt>
</event>
<event>
12    1  0.3127365E-008  0.9015863E+03  0.7818608E-02  0.9423601E-01
         -1   -1    0    0    0  501 -0.00000000000E+00  0.00000000000E+00  0.25766974646E+03  0.25766974646E+03  0.00000000000E+00 0.  1.
          1   -1    0    0  501    0  0.00000000000E+00 -0.00000000000E+00 -0.32008875396E+04  0.32008875396E+04  0.00000000000E+00 0. -1.
         23    2    1    2    0    0 -0.17097273255E+02  0.80266397385E+03 -0.14582805011E+04  0.16671084425E+04  0.90037589814E+02 0.  0.
    5000000    2    1    2    0    0  0.17097273255E+02 -0.80266397385E+03 -0.14849372921E+04  0.17914488436E+04  0.59974029885E+03 0.  0.
         23    2    4    4    0    0  0.95617251564E+02 -0.86003119356E+03 -0.12698974758E+04  0.15391843602E+04  0.87479042360E+02 0.  0.
         23    2    4    4    0    0 -0.78519978308E+02  0.57367219714E+02 -0.21503981622E+03  0.25226448335E+03  0.89100292422E+02 0.  0.
          3    1    3    3  502    0 -0.37299031793E+02  0.23884413794E+03 -0.49201397470E+03  0.54819293255E+03  0.00000000000E+00 0. -1.
         -3    1    3    3    0  502  0.20201758537E+02  0.56381983591E+03 -0.96626652639E+03  0.11189155100E+04  0.00000000000E+00 0.  1.
         11    1    5    5    0    0  0.46606593991E+02 -0.71610416521E+03 -0.10399462563E+04  0.12635131839E+04  0.00000000000E+00 0. -1.
        -11    1    5    5    0    0  0.49010657573E+02 -0.14392702835E+03 -0.22995121957E+03  0.27567117627E+03  0.00000000000E+00 0.  1.
          5    1    6    6  503    0 -0.93422544468E+02  0.34100026175E+02 -0.19077606893E+03  0.21519335974E+03  0.47000000000E+01 0. -1.
         -5    1    6    6    0  503  0.14902566160E+02  0.23267193539E+02 -0.24263747294E+02  0.37071123615E+02  0.47000000000E+01 0.  1.
<mgrwt>
<rscale>  0 0.90158630E+03</rscale>
<asrwt>0</asrwt>
<pdfrwt beam="1">  1        1 0.49244428E+00 0.90158630E+03</pdfrwt>
<pdfrwt beam="2">  1       -1 0.39641496E-01 0.90158630E+03</pdfrwt>
<totfact> 0.27523112E+00</totfact>
</mgrwt>
</event>
<event>
12    1  0.3127365E-008  0.4432030E+03  0.7818608E-02  0.1029769E+00
          2   -1    0    0  501    0  0.00000000000E+00  0.00000000000E+00  0.15610494250E+04  0.15610494250E+04  0.00000000000E+00 0.  1.
         -2   -1    0    0    0  501 -0.00000000000E+00 -0.00000000000E+00 -0.12918084447E+03  0.12918084447E+03  0.00000000000E+00 0. -1.
         23    2    1    2    0    0  0.16954278320E+03 -0.16315774210E+03  0.42225078826E+03  0.49230925461E+03  0.93313824509E+02 0.  0.
    5000000    2    1    2    0    0 -0.16954278320E+03  0.16315774210E+03  0.10096177923E+04  0.11979210149E+04  0.60026782958E+03 0.  0.
         23    2    4    4    0    0 -0.37696307395E+03  0.45998515585E+02  0.61768080353E+03  0.73101635209E+03  0.92942505930E+02 0.  0.
         23    2    4    4    0    0  0.20742029075E+03  0.11715922651E+03  0.39193698878E+03  0.46690466281E+03  0.87383634666E+02 0.  0.
          3    1    3    3  502    0  0.12754341669E+03 -0.16773894996E+03  0.35799706260E+03  0.41541012903E+03  0.00000000000E+00 0. -1.
         -3    1    3    3    0  502  0.41999366514E+02  0.45812078600E+01  0.64253725666E+02  0.76899125580E+02  0.00000000000E+00 0.  1.
         11    1    5    5    0    0 -0.19923360998E+03  0.46058189119E+02  0.25279140239E+03  0.32514440061E+03  0.00000000000E+00 0.  1.
        -11    1    5    5    0    0 -0.17772946398E+03 -0.59673534151E-01  0.36488940115E+03  0.40587195147E+03  0.00000000000E+00 0. -1.
          5    1    6    6  503    0  0.11287113243E+03  0.18475485726E+02  0.21165627873E+03  0.24062773413E+03  0.47000000000E+01 0. -1.
         -5    1    6    6    0  503  0.94549158321E+02  0.98683740788E+02  0.18028071006E+03  0.22627692868E+03  0.47000000000E+01 0.  1.
<mgrwt>
<rscale>  0 0.44320300E+03</rscale>
<asrwt>0</asrwt>
<pdfrwt beam="1">  1        2 0.24016144E+00 0.44320300E+03</pdfrwt>
<pdfrwt beam="2">  1       -2 0.19873977E-01 0.44320300E+03</pdfrwt>
<totfact> 0.26403905E+02</totfact>
</mgrwt>
</event>
<event>
12    1  0.3127365E-008  0.2306615E+04  0.7818608E-02  0.8475317E-01
         -2   -1    0    0    0  501 -0.00000000000E+00  0.00000000000E+00  0.24334571024E+04  0.24334571024E+04  0.00000000000E+00 0.  1.
          2   -1    0    0  501    0  0.00000000000E+00 -0.00000000000E+00 -0.26502620161E+04  0.26502620161E+04  0.00000000000E+00 0. -1.
         23    2    1    2    0    0 -0.15495714313E+04 -0.16949949653E+04 -0.11042149130E+04  0.25496827391E+04  0.86092643176E+02 0.  0.
    5000000    2    1    2    0    0  0.15495714313E+04  0.16949949653E+04  0.88740999933E+03  0.25340363794E+04  0.59972019499E+03 0.  0.
         23    2    4    4    0    0  0.14010401727E+04  0.14560101947E+04  0.57255732310E+03  0.21019235019E+04  0.85914299822E+02 0.  0.
         23    2    4    4    0    0  0.14853125858E+03  0.23898477057E+03  0.31485267623E+03  0.43211287753E+03  0.91728271825E+02 0.  0.
          3    1    3    3  502    0 -0.59744762691E+03 -0.71604184518E+03 -0.45106303191E+03  0.10359138235E+04  0.00000000000E+00 0. -1.
         -3    1    3    3    0  502 -0.95212380439E+03 -0.97895312008E+03 -0.65315188108E+03  0.15137689156E+04  0.00000000000E+00 0.  1.
         13    1    5    5    0    0  0.74900157039E+03  0.79253433807E+03  0.26561673312E+03  0.11223485548E+04  0.00000000000E+00 0. -1.
        -13    1    5    5    0    0  0.65203860233E+03  0.66347585662E+03  0.30694058997E+03  0.97957494711E+03  0.00000000000E+00 0.  1.
          5    1    6    6  503    0  0.77785302354E+02  0.19724458718E+03  0.20594519245E+03  0.29562052149E+03  0.47000000000E+01 0. -1.
         -5    1    6    6    0  503  0.70745956229E+02  0.41740183394E+02  0.10890748378E+03  0.13649235603E+03  0.47000000000E+01 0.  1.
<mgrwt>
<rscale>  0 0.23066152E+04</rscale>
<asrwt>0</asrwt>
<pdfrwt beam="1">  1        2 0.40773262E+00 0.23066152E+04</pdfrwt>
<pdfrwt beam="2">  1       -2 0.37437801E+00 0.23066152E+04</pdfrwt>
<totfact> 0.26449875E-02</totfact>
</mgrwt>
</event>
<event>
12    1  0.3127365E-008  0.1169432E+04  0.7818608E-02  0.9140041E-01
          2   -1    0    0  501    0  0.00000000000E+00  0.00000000000E+00  0.17278700816E+04  0.17278700816E+04  0.00000000000E+00 0. -1.
         -2   -1    0    0    0  501 -0.00000000000E+00 -0.00000000000E+00 -0.89481901589E+03  0.89481901589E+03  0.00000000000E+00 0.  1.
         23    2    1    2    0    0  0.11131354227E+04 -0.88621362949E+02  0.75792519248E+03  0.13528883787E+04  0.94510066737E+02 0.  0.
    5000000    2    1    2    0    0 -0.11131354227E+04  0.88621362949E+02  0.75125873189E+02  0.12698007187E+04  0.59985477681E+03 0.  0.
         23    2    4    4    0    0  0.20917863123E+02  0.80735533781E+01  0.96399381235E+02  0.12919203891E+03  0.83036154502E+02 0.  0.
         23    2    4    4    0    0 -0.11340532858E+04  0.80547809571E+02 -0.21273508046E+02  0.11406086798E+04  0.89279301359E+02 0.  0.
          4    1    3    3  502    0  0.49383378533E+03 -0.68154496449E+02  0.29323930782E+03  0.57836505303E+03  0.00000000000E+00 0. -1.
         -4    1    3    3    0  502  0.61930163735E+03 -0.20466866499E+02  0.46468588465E+03  0.77452332569E+03  0.00000000000E+00 0.  1.
         13    1    5    5    0    0 -0.66997525213E+01  0.40511508760E+02  0.32378071112E+02  0.52291572121E+02  0.00000000000E+00 0.  1.
        -13    1    5    5    0    0  0.27617615644E+02 -0.32437955382E+02  0.64021310123E+02  0.76900466794E+02  0.00000000000E+00 0. -1.
          5    1    6    6  503    0 -0.75550014298E+03  0.46809434026E+02  0.27172007033E+02  0.75745098661E+03  0.47000000000E+01 0. -1.
         -5    1    6    6    0  503 -0.37855314282E+03  0.33738375545E+02 -0.48445515079E+02  0.38315769319E+03  0.47000000000E+01 0.  1.
<mgrwt>
<rscale>  0 0.11694323E+04</rscale>
<asrwt>0</asrwt>
<pdfrwt beam="1">  1        2 0.26582616E+00 0.11694323E+04</pdfrwt>
<pdfrwt beam="2">  1       -2 0.13766446E+00 0.11694323E+04</pdfrwt>
<totfact> 0.34662637E+00</totfact>
</mgrwt>
</event>
<event>
12    1  0.3127365E-008  0.7711026E+03  0.7818608E-02  0.9602813E-01
          1   -1    0    0  501    0  0.00000000000E+00  0.00000000000E+00  0.78035378164E+03  0.78035378164E+03  0.00000000000E+00 0. -1.
         -1   -1    0    0    0  501 -0.00000000000E+00 -0.00000000000E+00 -0.83838082827E+03  0.83838082827E+03  0.00000000000E+00 0.  1.
         23    2    1    2    0    0  0.67852942251E+03  0.10202350122E+02  0.12082022690E+03  0.69543066539E+03  0.92303943432E+02 0.  0.
    5000000    2    1    2    0    0 -0.67852942251E+03 -0.10202350122E+02 -0.17884727352E+03  0.92330394453E+03  0.59999796798E+03 0.  0.
         23    2    4    4    0    0 -0.41536246050E+03 -0.25234930412E+03  0.35900564690E+02  0.49659654871E+03  0.95462750676E+02 0.  0.
         23    2    4    4    0    0 -0.26316696201E+03  0.24214695400E+03 -0.21474783821E+03  0.42670739582E+03  0.89836353471E+02 0.  0.
          2    1    3    3  502    0  0.21163349719E+03  0.56467900549E+01 -0.53137056206E+01  0.21177549159E+03  0.00000000000E+00 0. -1.
         -2    1    3    3    0  502  0.46689592531E+03  0.45555600671E+01  0.12613393252E+03  0.48365517379E+03  0.00000000000E+00 0.  1.
         13    1    5    5    0    0 -0.12954694027E+03 -0.13133120164E+03  0.23556117991E+02  0.18597092502E+03  0.00000000000E+00 0. -1.
        -13    1    5    5    0    0 -0.28581552023E+03 -0.12101810248E+03  0.12344446699E+02  0.31062562370E+03  0.00000000000E+00 0.  1.
          5    1    6    6  503    0 -0.14094677184E+03  0.18787305547E+03 -0.13564579301E+03  0.27126398327E+03  0.47000000000E+01 0. -1.
         -5    1    6    6    0  503 -0.12222019017E+03  0.54273898531E+02 -0.79102045205E+02  0.15544341254E+03  0.47000000000E+01 0.  1.
<mgrwt>
<rscale>  0 0.77110263E+03</rscale>
<asrwt>0</asrwt>
<pdfrwt beam="1">  1        1 0.12005443E+00 0.77110263E+03</pdfrwt>
<pdfrwt beam="2">  1       -1 0.12898167E+00 0.77110263E+03</pdfrwt>
<totfact> 0.12225713E+01</totfact>
</mgrwt>
</event>
<event>
12    1  0.3127365E-008  0.6091627E+03  0.7818608E-02  0.9886577E-01
          1   -1    0    0  501    0  0.00000000000E+00  0.00000000000E+00  0.16374278633E+04  0.16374278633E+04  0.00000000000E+00 0. -1.
         -1   -1    0    0    0  501 -0.00000000000E+00 -0.00000000000E+00 -0.26373373991E+03  0.26373373991E+03  0.00000000000E+00 0.  1.
         23    2    1    2    0    0 -0.37344283053E+03 -0.28312413220E+03  0.85492463777E+03  0.97987670686E+03  0.98200827234E+02 0.  0.
    5000000    2    1    2    0    0  0.37344283053E+03  0.28312413220E+03  0.51876948560E+03  0.92128489633E+03  0.60002104888E+03 0.  0.
         23    2    4    4    0    0  0.13848188448E+03  0.43622412969E+03  0.30053247871E+03  0.55459018521E+03  0.88214392952E+02 0.  0.
         23    2    4    4    0    0  0.23496094605E+03 -0.15309999749E+03  0.21823700689E+03  0.36669471111E+03  0.90506157693E+02 0.  0.
          3    1    3    3  502    0 -0.20477935292E+03 -0.18839804576E+03  0.41926857968E+03  0.50320428151E+03  0.00000000000E+00 0. -1.
         -3    1    3    3    0  502 -0.16866347761E+03 -0.94726086438E+02  0.43565605809E+03  0.47667242534E+03  0.00000000000E+00 0.  1.
         11    1    5    5    0    0  0.42099714438E+02  0.23730831180E+03  0.12020273524E+03  0.26932567342E+03  0.00000000000E+00 0.  1.
        -11    1    5    5    0    0  0.96382170037E+02  0.19891581789E+03  0.18032974347E+03  0.28526451179E+03  0.00000000000E+00 0. -1.
          5    1    6    6  503    0  0.14422557453E+03 -0.65890008726E+02  0.16812916741E+03  0.23115366433E+03  0.47000000000E+01 0. -1.
         -5    1    6    6    0  503  0.90735371525E+02 -0.87209988765E+02  0.50107839476E+02  0.13554104678E+03  0.47000000000E+01 0.  1.
<mgrwt>
<rscale>  0 0.60916273E+03</rscale>
<asrwt>0</asrwt>
<pdfrwt beam="1">  1        1 0.25191197E+00 0.60916273E+03</pdfrwt>
<pdfrwt beam="2">  1       -1 0.40574422E-01 0.60916273E+03</pdfrwt>
<totfact> 0.32855981E+01</totfact>
</mgrwt>
</event>
<event>
12    1  0.3618987E-008  0.8718142E+03  0.7818608E-02  0.9461518E-01
         -1   -1    0    0    0  501 -0.00000000000E+00  0.00000000000E+00  0.87896313070E+03  0.87896313070E+03  0.00000000000E+00 0.  1.
          1   -1    0    0  501    0  0.00000000000E+00 -0.00000000000E+00 -0.88244999824E+03  0.88244999824E+03  0.00000000000E+00 0. -1.
         23    2    1    2    0    0 -0.46172712622E+03  0.62330413446E+03 -0.10686777263E+02  0.78072657439E+03  0.87862356149E+02 0.  0.
    5000000    2    1    2    0    0  0.46172712622E+03 -0.62330413446E+03  0.71999097225E+01  0.98068655455E+03  0.59999524703E+03 0.  0.
         23    2    4    4    0    0  0.29338247244E+03  0.19689350323E+02 -0.28280063387E+02  0.30884299325E+03  0.90129278498E+02 0.  0.
         23    2    4    4    0    0  0.16834465378E+03 -0.64299348479E+03  0.35479973109E+02  0.67184356131E+03  0.91292926576E+02 0.  0.
          3    1    3    3  502    0 -0.33840932985E+03  0.38949346749E+03  0.39074728011E+01  0.51598575958E+03  0.00000000000E+00 0. -1.
         -3    1    3    3    0  502 -0.12331779637E+03  0.23381066697E+03 -0.14594250064E+02  0.26474081481E+03  0.00000000000E+00 0.  1.
         11    1    5    5    0    0  0.80326369133E+02 -0.63229521914E+01 -0.47184562524E+02  0.93373916288E+02  0.00000000000E+00 0.  1.
        -11    1    5    5    0    0  0.21305610330E+03  0.26012302514E+02  0.18904499137E+02  0.21546907696E+03  0.00000000000E+00 0. -1.
          5    1    6    6  503    0  0.11698031235E+03 -0.31442585515E+03  0.48474552741E+02  0.33899835416E+03  0.47000000000E+01 0. -1.
         -5    1    6    6    0  503  0.51364341426E+02 -0.32856762964E+03 -0.12994579631E+02  0.33284520714E+03  0.47000000000E+01 0.  1.
<mgrwt>
<rscale>  0 0.87181418E+03</rscale>
<asrwt>0</asrwt>
<pdfrwt beam="1">  1        1 0.13576154E+00 0.87181418E+03</pdfrwt>
<pdfrwt beam="2">  1       -1 0.13522510E+00 0.87181418E+03</pdfrwt>
<totfact> 0.87708086E+00</totfact>
</mgrwt>
</event>
<event>
12    1  0.3127365E-008  0.6389832E+03  0.7818608E-02  0.9827674E-01
         -2   -1    0    0    0  501 -0.00000000000E+00  0.00000000000E+00  0.46004916867E+03  0.46004916867E+03  0.00000000000E+00 0.  1.
          2   -1    0    0  501    0  0.00000000000E+00 -0.00000000000E+00 -0.15027549448E+04  0.15027549448E+04  0.00000000000E+00 0. -1.
         23    2    1    2    0    0 -0.54445797312E+03  0.28261598957E+02 -0.10097163437E+04  0.11514820604E+04  0.95658968169E+02 0.  0.
    5000000    2    1    2    0    0  0.54445797312E+03 -0.28261598957E+02 -0.32989432424E+02  0.81132205308E+03  0.59993497039E+03 0.  0.
         23    2    4    4    0    0  0.15387196326E+03  0.20308639358E+03 -0.18064091039E+03  0.32542938785E+03  0.91391923231E+02 0.  0.
         23    2    4    4    0    0  0.39058600986E+03 -0.23134799254E+03  0.14765147797E+03  0.48589266523E+03  0.90616766846E+02 0.  0.
          4    1    3    3  502    0 -0.40635246272E+03 -0.20195733706E+02 -0.72544482043E+03  0.83174538117E+03  0.00000000000E+00 0. -1.
         -4    1    3    3    0  502 -0.13810551040E+03  0.48457332663E+02 -0.28427152325E+03  0.31973667920E+03  0.00000000000E+00 0.  1.
         11    1    5    5    0    0  0.16475009628E+03  0.17455134318E+03 -0.15699801401E+03  0.28680854596E+03  0.00000000000E+00 0.  1.
        -11    1    5    5    0    0 -0.10878133015E+02  0.28535050399E+02 -0.23642896375E+02  0.38620841889E+02  0.00000000000E+00 0. -1.
          5    1    6    6  503    0  0.10263419444E+03 -0.65902269937E+02  0.82786187485E+02  0.14748738892E+03  0.47000000000E+01 0. -1.
         -5    1    6    6    0  503  0.28795181542E+03 -0.16544572260E+03  0.64865290481E+02  0.33840527632E+03  0.47000000000E+01 0.  1.
<mgrwt>
<rscale>  0 0.63898322E+03</rscale>
<asrwt>0</asrwt>
<pdfrwt beam="1">  1        2 0.23119307E+00 0.63898322E+03</pdfrwt>
<pdfrwt beam="2">  1       -2 0.70776796E-01 0.63898322E+03</pdfrwt>
<totfact> 0.23837208E+01</totfact>
</mgrwt>
</event>
<event>
12    1  0.3127365E-008  0.9218579E+03  0.7818608E-02  0.9398663E-01
         -1   -1    0    0    0  501 -0.00000000000E+00  0.00000000000E+00  0.43420799935E+03  0.43420799935E+03  0.00000000000E+00 0.  1.
          1   -1    0    0  501    0  0.00000000000E+00 -0.00000000000E+00 -0.26549383792E+04  0.26549383792E+04  0.00000000000E+00 0. -1.
         23    2    1    2    0    0  0.82900507511E+03  0.81077385098E+02 -0.26247197166E+03  0.87814539606E+03  0.91786947687E+02 0.  0.
    5000000    2    1    2    0    0 -0.82900507511E+03 -0.81077385098E+02 -0.19582584082E+04  0.22110009825E+04  0.59993865886E+03 0.  0.
         23    2    4    4    0    0  0.64563285464E+02  0.20535604299E+02 -0.35635723915E+03  0.37166944505E+03  0.80978797300E+02 0.  0.
         23    2    4    4    0    0 -0.89356836058E+03 -0.10161298940E+03 -0.16019011691E+04  0.18393315375E+04  0.90903985797E+02 0.  0.
          4    1    3    3  502    0  0.35389779353E+03 -0.89477019617E+01 -0.97060500638E+02  0.36707553775E+03  0.00000000000E+00 0. -1.
         -4    1    3    3    0  502  0.47510728159E+03  0.90025087060E+02 -0.16541147103E+03  0.51106985830E+03  0.00000000000E+00 0.  1.
         11    1    5    5    0    0  0.76202405832E+02  0.34926189353E+02 -0.24907034165E+03  0.26279779384E+03  0.00000000000E+00 0. -1.
        -11    1    5    5    0    0 -0.11639120368E+02 -0.14390585054E+02 -0.10728689750E+03  0.10887165121E+03  0.00000000000E+00 0.  1.
          5    1    6    6  503    0 -0.51944315963E+03 -0.14592969079E+02 -0.90752701790E+03  0.10457827351E+04  0.47000000000E+01 0. -1.
         -5    1    6    6    0  503 -0.37412520095E+03 -0.87020020318E+02 -0.69437415117E+03  0.79354880236E+03  0.47000000000E+01 0.  1.
<mgrwt>
<rscale>  0 0.92185789E+03</rscale>
<asrwt>0</asrwt>
<pdfrwt beam="1">  1        1 0.40845207E+00 0.92185789E+03</pdfrwt>
<pdfrwt beam="2">  1       -1 0.66801230E-01 0.92185789E+03</pdfrwt>
<totfact> 0.24782372E+00</totfact>
</mgrwt>
</event>
<event>
12    1  0.3127365E-008  0.6579572E+03  0.7818608E-02  0.9791962E-01
         -2   -1    0    0    0  501 -0.00000000000E+00  0.00000000000E+00  0.44154676350E+03  0.44154676350E+03  0.00000000000E+00 0. -1.
          2   -1    0    0  501    0  0.00000000000E+00 -0.00000000000E+00 -0.16433938828E+04  0.16433938828E+04  0.00000000000E+00 0.  1.
         23    2    1    2    0    0  0.60480254241E+03  0.20803331883E+03 -0.99114198516E+03  0.11831280122E+04  0.91463006288E+02 0.  0.
    5000000    2    1    2    0    0 -0.60480254241E+03 -0.20803331883E+03 -0.21070513414E+03  0.90181263407E+03  0.59983780838E+03 0.  0.
         23    2    4    4    0    0 -0.25985959291E+03 -0.19507372878E+03 -0.37829360897E+03  0.50707307449E+03  0.91849227479E+02 0.  0.
         23    2    4    4    0    0 -0.34494294950E+03 -0.12959590046E+02  0.16758847484E+03  0.39473955958E+03  0.92627391282E+02 0.  0.
          1    1    3    3  502    0  0.24437766034E+03  0.51600931003E+02 -0.32713949889E+03  0.41158638059E+03  0.00000000000E+00 0. -1.
         -1    1    3    3    0  502  0.36042488208E+03  0.15643238782E+03 -0.66400248627E+03  0.77154163164E+03  0.00000000000E+00 0.  1.
         11    1    5    5    0    0 -0.12294313271E+03 -0.67074669083E+02 -0.10221954965E+03  0.17338645115E+03  0.00000000000E+00 0.  1.
        -11    1    5    5    0    0 -0.13691646020E+03 -0.12799905970E+03 -0.27607405933E+03  0.33368662333E+03  0.00000000000E+00 0. -1.
          5    1    6    6  503    0 -0.29867419513E+03 -0.16120302297E+02  0.17642496987E+03  0.34729526195E+03  0.47000000000E+01 0. -1.
         -5    1    6    6    0  503 -0.46268754369E+02  0.31607122503E+01 -0.88364950307E+01  0.47444297626E+02  0.47000000000E+01 0.  1.
<mgrwt>
<rscale>  0 0.65795721E+03</rscale>
<asrwt>0</asrwt>
<pdfrwt beam="1">  1        2 0.25282983E+00 0.65795721E+03</pdfrwt>
<pdfrwt beam="2">  1       -2 0.67930272E-01 0.65795721E+03</pdfrwt>
<totfact> 0.21752178E+01</totfact>
</mgrwt>
</event>
<event>
12    1  0.3127365E-008  0.1051605E+04  0.7818608E-02  0.9253689E-01
         -1   -1    0    0    0  501 -0.00000000000E+00  0.00000000000E+00  0.39367254299E+03  0.39367254299E+03  0.00000000000E+00 0.  1.
          1   -1    0    0  501    0  0.00000000000E+00 -0.00000000000E+00 -0.32704510638E+04  0.32704510638E+04  0.00000000000E+00 0. -1.
         23    2    1    2    0    0  0.32923606825E+03  0.97438885588E+03 -0.97505737041E+03  0.14203101308E+04  0.93348598619E+02 0.  0.
    5000000    2    1    2    0    0 -0.32923606825E+03 -0.97438885588E+03 -0.19017211504E+04  0.22438134761E+04  0.60027123058E+03 0.  0.
         23    2    4    4    0    0 -0.90765565978E+02 -0.35075464598E+02 -0.38069998864E+02  0.14132765250E+03  0.95160413844E+02 0.  0.
         23    2    4    4    0    0 -0.23847050228E+03 -0.93931339128E+03 -0.18636511516E+04  0.21024858236E+04  0.89850965837E+02 0.  0.
          4    1    3    3  502    0  0.30276985923E+02  0.19107841497E+03 -0.20583113368E+03  0.28247851624E+03  0.00000000000E+00 0. -1.
         -4    1    3    3    0  502  0.29895908233E+03  0.78331044091E+03 -0.76922623674E+03  0.11378316145E+04  0.00000000000E+00 0.  1.
         11    1    5    5    0    0 -0.51428096964E+02 -0.29122692679E+02  0.27064431037E+02  0.65003567699E+02  0.00000000000E+00 0.  1.
        -11    1    5    5    0    0 -0.39337469014E+02 -0.59527719187E+01 -0.65134429901E+02  0.76324084799E+02  0.00000000000E+00 0. -1.
          5    1    6    6  503    0 -0.57808579582E+02 -0.38666771675E+03 -0.79220607737E+03  0.88344004555E+03  0.47000000000E+01 0. -1.
         -5    1    6    6    0  503 -0.18066192269E+03 -0.55264567453E+03 -0.10714450742E+04  0.12190457780E+04  0.47000000000E+01 0.  1.
<mgrwt>
<rscale>  0 0.10516047E+04</rscale>
<asrwt>0</asrwt>
<pdfrwt beam="1">  1        1 0.50314632E+00 0.10516047E+04</pdfrwt>
<pdfrwt beam="2">  1       -1 0.60565007E-01 0.10516047E+04</pdfrwt>
<totfact> 0.10663338E+00</totfact>
</mgrwt>
</event>
<event>
12    1  0.3127365E-008  0.3930651E+03  0.7818608E-02  0.1046208E+00
         -1   -1    0    0    0  501 -0.00000000000E+00  0.00000000000E+00  0.18215260563E+03  0.18215260563E+03  0.00000000000E+00 0.  1.
          1   -1    0    0  501    0  0.00000000000E+00 -0.00000000000E+00 -0.10458911916E+04  0.10458911916E+04  0.00000000000E+00 0. -1.
         23    2    1    2    0    0  0.13473388037E+03 -0.17024294773E+03 -0.23930346123E+03  0.33520783923E+03  0.89231547977E+02 0.  0.
    5000000    2    1    2    0    0 -0.13473388037E+03  0.17024294773E+03 -0.62443512478E+03  0.89283595803E+03  0.60008411337E+03 0.  0.
         23    2    4    4    0    0 -0.12640971584E+03  0.35127520427E+03 -0.56208647325E+03  0.68050119443E+03  0.88130510111E+02 0.  0.
         23    2    4    4    0    0 -0.83241645262E+01 -0.18103225655E+03 -0.62348651532E+02  0.21233476360E+03  0.91415140221E+02 0.  0.
          2    1    3    3  502    0  0.87312987591E+02 -0.12353370133E+03 -0.21795068177E+03  0.26530479236E+03  0.00000000000E+00 0. -1.
         -2    1    3    3    0  502  0.47420892776E+02 -0.46709246401E+02 -0.21352779462E+02  0.69903046870E+02  0.00000000000E+00 0.  1.
         13    1    5    5    0    0 -0.24074604025E+02  0.15544390232E+03 -0.29081131833E+03  0.33062609727E+03  0.00000000000E+00 0. -1.
        -13    1    5    5    0    0 -0.10233511181E+03  0.19583130195E+03 -0.27127515492E+03  0.34987509715E+03  0.00000000000E+00 0.  1.
          5    1    6    6  503    0  0.19215059777E+02 -0.13307182409E+03 -0.76891417626E+02  0.15495711985E+03  0.47000000000E+01 0. -1.
         -5    1    6    6    0  503 -0.27539224304E+02 -0.47960432458E+02  0.14542766094E+02  0.57377643751E+02  0.47000000000E+01 0.  1.
<mgrwt>
<rscale>  0 0.39306507E+03</rscale>
<asrwt>0</asrwt>
<pdfrwt beam="1">  1        1 0.16090634E+00 0.39306507E+03</pdfrwt>
<pdfrwt beam="2">  1       -1 0.28023478E-01 0.39306507E+03</pdfrwt>
<totfact> 0.16823312E+02</totfact>
</mgrwt>
</event>
<event>
12    1  0.3127365E-008  0.8284911E+03  0.7818608E-02  0.9519669E-01
          2   -1    0    0  501    0  0.00000000000E+00  0.00000000000E+00  0.31192928884E+04  0.31192928884E+04  0.00000000000E+00 0.  1.
         -2   -1    0    0    0  501 -0.00000000000E+00 -0.00000000000E+00 -0.27731412638E+03  0.27731412638E+03  0.00000000000E+00 0. -1.
         23    2    1    2    0    0 -0.20813196653E+03 -0.71230749033E+03  0.19574311593E+04  0.20953975319E+04  0.91941269162E+02 0.  0.
    5000000    2    1    2    0    0  0.20813196653E+03  0.71230749033E+03  0.88454760273E+03  0.13012094829E+04  0.60001731693E+03 0.  0.
         23    2    4    4    0    0  0.92413323201E+02 -0.61357201009E+02  0.25737947561E+03  0.29418687095E+03  0.89424784900E+02 0.  0.
         23    2    4    4    0    0  0.11571864333E+03  0.77366469134E+03  0.62716812712E+03  0.10070226119E+04  0.93844670913E+02 0.  0.
          3    1    3    3  502    0 -0.15983940286E+03 -0.63420815415E+03  0.17619351552E+04  0.18794105748E+04  0.00000000000E+00 0. -1.
         -3    1    3    3    0  502 -0.48292563670E+02 -0.78099336185E+02  0.19549600404E+03  0.21598695705E+03  0.00000000000E+00 0.  1.
         13    1    5    5    0    0  0.33258678110E+02  0.89311626746E+01  0.20405362919E+02  0.40028541970E+02  0.00000000000E+00 0.  1.
        -13    1    5    5    0    0  0.59154645091E+02 -0.70288363683E+02  0.23697411269E+03  0.25415832898E+03  0.00000000000E+00 0. -1.
          5    1    6    6  503    0 -0.23108328378E+01  0.14815509928E+03  0.15481665422E+03  0.21434915399E+03  0.47000000000E+01 0. -1.
         -5    1    6    6    0  503  0.11802947617E+03  0.62550959207E+03  0.47235147289E+03  0.79267345796E+03  0.47000000000E+01 0.  1.
<mgrwt>
<rscale>  0 0.82849111E+03</rscale>
<asrwt>0</asrwt>
<pdfrwt beam="1">  1        2 0.47989119E+00 0.82849111E+03</pdfrwt>
<pdfrwt beam="2">  1       -2 0.42663714E-01 0.82849111E+03</pdfrwt>
<totfact> 0.80235308E+00</totfact>
</mgrwt>
</event>
<event>
12    1  0.3127365E-008  0.5137360E+03  0.7818608E-02  0.1010255E+00
          1   -1    0    0  501    0  0.00000000000E+00  0.00000000000E+00  0.19733697013E+03  0.19733697013E+03  0.00000000000E+00 0. -1.
         -1   -1    0    0    0  501 -0.00000000000E+00 -0.00000000000E+00 -0.21682856870E+04  0.21682856870E+04  0.00000000000E+00 0.  1.
         23    2    1    2    0    0 -0.12769536093E+03  0.35004039384E+03 -0.14173421142E+04  0.14682560624E+04  0.89904470014E+02 0.  0.
    5000000    2    1    2    0    0  0.12769536093E+03 -0.35004039384E+03 -0.55360660273E+03  0.89736659474E+03  0.59996012554E+03 0.  0.
         23    2    4    4    0    0 -0.16353228370E+03 -0.30563798065E+03 -0.45074279894E+03  0.57525604232E+03  0.87138168495E+02 0.  0.
         23    2    4    4    0    0  0.29122764462E+03 -0.44402413195E+02 -0.10286380380E+03  0.32211055241E+03  0.79932037097E+02 0.  0.
          2    1    3    3  502    0 -0.59453193317E+02  0.15436728185E+03 -0.80430670458E+03  0.82114140982E+03  0.00000000000E+00 0. -1.
         -2    1    3    3    0  502 -0.68242167610E+02  0.19567311200E+03 -0.61303540961E+03  0.64711465262E+03  0.00000000000E+00 0.  1.
         13    1    5    5    0    0 -0.13506281880E+03 -0.29320572247E+03 -0.43083518526E+03  0.53835909723E+03  0.00000000000E+00 0.  1.
        -13    1    5    5    0    0 -0.28469464896E+02 -0.12432258178E+02 -0.19907613678E+02  0.36896945093E+02  0.00000000000E+00 0. -1.
          5    1    6    6  503    0  0.10799858875E+03  0.12972688845E+02 -0.11669786239E+02  0.10950004447E+03  0.47000000000E+01 0. -1.
         -5    1    6    6    0  503  0.18322905588E+03 -0.57375102040E+02 -0.91194017557E+02  0.21261050795E+03  0.47000000000E+01 0.  1.
<mgrwt>
<rscale>  0 0.51373595E+03</rscale>
<asrwt>0</asrwt>
<pdfrwt beam="1">  1        1 0.30359537E-01 0.51373595E+03</pdfrwt>
<pdfrwt beam="2">  1       -1 0.33358238E+00 0.51373595E+03</pdfrwt>
<totfact> 0.33162337E+00</totfact>
</mgrwt>
</event>
<event>
12    1  0.3127365E-008  0.1811468E+04  0.7818608E-02  0.8700224E-01
          2   -1    0    0  501    0  0.00000000000E+00  0.00000000000E+00  0.40175065048E+04  0.40175065048E+04  0.00000000000E+00 0. -1.
         -2   -1    0    0    0  501 -0.00000000000E+00 -0.00000000000E+00 -0.11254219184E+04  0.11254219184E+04  0.00000000000E+00 0.  1.
         23    2    1    2    0    0 -0.94275075256E+03  0.15231337508E+04  0.27035225436E+04  0.32444628368E+04  0.93752609131E+02 0.  0.
    5000000    2    1    2    0    0  0.94275075256E+03 -0.15231337508E+04  0.18856204282E+03  0.18984655863E+04  0.59991710604E+03 0.  0.
         23    2    4    4    0    0  0.39984177466E+03 -0.95358322352E+03  0.33986653978E+03  0.10922011515E+04  0.90552093497E+02 0.  0.
         23    2    4    4    0    0  0.54290897791E+03 -0.56955052727E+03 -0.15130449696E+03  0.80626443475E+03  0.89617668699E+02 0.  0.
          1    1    3    3  502    0 -0.27455587537E+03  0.37527581227E+03  0.66551115226E+03  0.81186079950E+03  0.00000000000E+00 0. -1.
         -1    1    3    3    0  502 -0.66819487720E+03  0.11478579385E+04  0.20380113913E+04  0.24326020373E+04  0.00000000000E+00 0.  1.
         13    1    5    5    0    0  0.26387920518E+03 -0.51419232166E+03  0.19599968185E+03  0.61028014375E+03  0.00000000000E+00 0. -1.
        -13    1    5    5    0    0  0.13596256948E+03 -0.43939090186E+03  0.14386685794E+03  0.48192100779E+03  0.00000000000E+00 0.  1.
          5    1    6    6  503    0  0.14437072632E+03 -0.21136740530E+03 -0.53801472930E+02  0.26160232249E+03  0.47000000000E+01 0. -1.
         -5    1    6    6    0  503  0.39853825159E+03 -0.35818312197E+03 -0.97503024033E+02  0.54466211227E+03  0.47000000000E+01 0.  1.
<mgrwt>
<rscale>  0 0.18114683E+04</rscale>
<asrwt>0</asrwt>
<pdfrwt beam="1">  1        2 0.61807792E+00 0.18114683E+04</pdfrwt>
<pdfrwt beam="2">  1       -2 0.17314184E+00 0.18114683E+04</pdfrwt>
<totfact> 0.61683865E-02</totfact>
</mgrwt>
</event>
<event>
12    1  0.3127365E-008  0.4413836E+03  0.7818608E-02  0.1030323E+00
         -2   -1    0    0    0  501 -0.00000000000E+00  0.00000000000E+00  0.37229390389E+03  0.37229390389E+03  0.00000000000E+00 0. -1.
          2   -1    0    0  501    0  0.00000000000E+00 -0.00000000000E+00 -0.99677472251E+03  0.99677472251E+03  0.00000000000E+00 0.  1.
         23    2    1    2    0    0  0.41071706114E+03  0.12335245151E+02 -0.16709643236E+02  0.42125770794E+03  0.91313644854E+02 0.  0.
    5000000    2    1    2    0    0 -0.41071706114E+03 -0.12335245151E+02 -0.60777117539E+03  0.94781091846E+03  0.60009921925E+03 0.  0.
         23    2    4    4    0    0 -0.18039731129E+02  0.20943695694E+02  0.95535864481E+02  0.13590441911E+03  0.92622024612E+02 0.  0.
         23    2    4    4    0    0 -0.39267733001E+03 -0.33278940845E+02 -0.70330703987E+03  0.81190649935E+03  0.96168591311E+02 0.  0.
          1    1    3    3  502    0  0.18808810205E+03  0.36123644950E+02 -0.41571501838E+02  0.19598530971E+03  0.00000000000E+00 0. -1.
         -1    1    3    3    0  502  0.22262895910E+03 -0.23788399799E+02  0.24861858602E+02  0.22527239824E+03  0.00000000000E+00 0.  1.
         11    1    5    5    0    0  0.13061142060E+02 -0.11072301012E+02  0.89192098400E+02  0.90820810933E+02  0.00000000000E+00 0. -1.
        -11    1    5    5    0    0 -0.31100873189E+02  0.32015996706E+02  0.63437660810E+01  0.45083608177E+02  0.00000000000E+00 0.  1.
          5    1    6    6  503    0 -0.25356310750E+03  0.24689340551E+02 -0.43496736859E+03  0.50410565833E+03  0.47000000000E+01 0. -1.
         -5    1    6    6    0  503 -0.13911422252E+03 -0.57968281396E+02 -0.26833967128E+03  0.30780084103E+03  0.47000000000E+01 0.  1.
<mgrwt>
<rscale>  0 0.44138360E+03</rscale>
<asrwt>0</asrwt>
<pdfrwt beam="1">  1        2 0.15334996E+00 0.44138360E+03</pdfrwt>
<pdfrwt beam="2">  1       -2 0.57275985E-01 0.44138360E+03</pdfrwt>
<totfact> 0.75686025E+01</totfact>
</mgrwt>
</event>
<event>
12    1  0.3127365E-008  0.6636042E+03  0.7818608E-02  0.9781581E-01
         -2   -1    0    0    0  501 -0.00000000000E+00  0.00000000000E+00  0.75527552126E+03  0.75527552126E+03  0.00000000000E+00 0. -1.
          2   -1    0    0  501    0  0.00000000000E+00 -0.00000000000E+00 -0.83799749090E+03  0.83799749090E+03  0.00000000000E+00 0.  1.
         23    2    1    2    0    0 -0.19863755997E+03 -0.62344801084E+03  0.14607973404E+03  0.67658628609E+03  0.91024235086E+02 0.  0.
    5000000    2    1    2    0    0  0.19863755997E+03  0.62344801084E+03 -0.22880170368E+03  0.91668672608E+03  0.59985000767E+03 0.  0.
         23    2    4    4    0    0  0.42513940403E+02  0.31639738506E+03  0.17740031691E+03  0.37619395053E+03  0.90201305855E+02 0.  0.
         23    2    4    4    0    0  0.15612361957E+03  0.30705062579E+03 -0.40620202059E+03  0.54049277555E+03  0.92074358538E+02 0.  0.
          2    1    3    3  502    0 -0.15029226464E+03 -0.39798617847E+03  0.13260450361E+03  0.44560601145E+03  0.00000000000E+00 0. -1.
         -2    1    3    3    0  502 -0.48345295338E+02 -0.22546183237E+03  0.13475230430E+02  0.23098027464E+03  0.00000000000E+00 0.  1.
         11    1    5    5    0    0  0.33457444801E+02  0.28237801116E+03  0.11952485895E+03  0.30845248209E+03  0.00000000000E+00 0.  1.
        -11    1    5    5    0    0  0.90564956019E+01  0.34019373893E+02  0.57875457957E+02  0.67741468440E+02  0.00000000000E+00 0. -1.
          5    1    6    6  503    0  0.87220134526E+02  0.96993828531E+02 -0.10897938498E+03  0.17004043928E+03  0.47000000000E+01 0. -1.
         -5    1    6    6    0  503  0.68903485045E+02  0.21005679725E+03 -0.29722263561E+03  0.37045233627E+03  0.47000000000E+01 0.  1.
<mgrwt>
<rscale>  0 0.66360425E+03</rscale>
<asrwt>0</asrwt>
<pdfrwt beam="1">  1        2 0.12892269E+00 0.66360425E+03</pdfrwt>
<pdfrwt beam="2">  1       -2 0.11619623E+00 0.66360425E+03</pdfrwt>
<totfact> 0.19056693E+01</totfact>
</mgrwt>
</event>
<event>
12    1  0.3127365E-008  0.1118814E+04  0.7818608E-02  0.9187046E-01
          1   -1    0    0  501    0  0.00000000000E+00  0.00000000000E+00  0.11393132553E+04  0.11393132553E+04  0.00000000000E+00 0. -1.
         -1   -1    0    0    0  501 -0.00000000000E+00 -0.00000000000E+00 -0.12201662027E+04  0.12201662027E+04  0.00000000000E+00 0.  1.
         23    2    1    2    0    0  0.38336001403E+03  0.10260329591E+04 -0.14627675191E+03  0.11089291603E+04  0.92835666503E+02 0.  0.
    5000000    2    1    2    0    0 -0.38336001403E+03 -0.10260329591E+04  0.65423804523E+02  0.12505502977E+04  0.59990602553E+03 0.  0.
         23    2    4    4    0    0 -0.35338735138E+03 -0.53761081076E+03 -0.20811865312E+03  0.68217394041E+03  0.90221434468E+02 0.  0.
         23    2    4    4    0    0 -0.29972662656E+02 -0.48842214832E+03  0.27354245764E+03  0.56837635731E+03  0.93657097678E+02 0.  0.
          2    1    3    3  502    0  0.33466054745E+03  0.78788727652E+03 -0.10634160185E+03  0.86259641710E+03  0.00000000000E+00 0. -1.
         -2    1    3    3    0  502  0.48699466586E+02  0.23814568256E+03 -0.39935150067E+02  0.24633274321E+03  0.00000000000E+00 0.  1.
         11    1    5    5    0    0 -0.21813581665E+03 -0.25523395414E+03 -0.12465742236E+03  0.35814393587E+03  0.00000000000E+00 0. -1.
        -11    1    5    5    0    0 -0.13525153473E+03 -0.28237685662E+03 -0.83461230763E+02  0.32403000454E+03  0.00000000000E+00 0.  1.
          5    1    6    6  503    0 -0.16231387295E+01 -0.13941803509E+03  0.12738004608E+03  0.18891212039E+03  0.47000000000E+01 0. -1.
         -5    1    6    6    0  503 -0.28349523926E+02 -0.34900411322E+03  0.14616241156E+03  0.37946423693E+03  0.47000000000E+01 0.  1.
<mgrwt>
<rscale>  0 0.11188143E+04</rscale>
<asrwt>0</asrwt>
<pdfrwt beam="1">  1        1 0.17527896E+00 0.11188143E+04</pdfrwt>
<pdfrwt beam="2">  1       -1 0.18771788E+00 0.11188143E+04</pdfrwt>
<totfact> 0.21494501E+00</totfact>
</mgrwt>
</event>
<event>
12    1  0.3127365E-008  0.6548901E+03  0.7818608E-02  0.9797646E-01
         -1   -1    0    0    0  501 -0.00000000000E+00  0.00000000000E+00  0.33676823637E+03  0.33676823637E+03  0.00000000000E+00 0.  1.
          1   -1    0    0  501    0  0.00000000000E+00 -0.00000000000E+00 -0.14392725717E+04  0.14392725717E+04  0.00000000000E+00 0. -1.
         23    2    1    2    0    0 -0.45518872240E+03  0.28228627125E+03 -0.23264240302E+03  0.59134320510E+03  0.93177178529E+02 0.  0.
    5000000    2    1    2    0    0  0.45518872240E+03 -0.28228627125E+03 -0.86986193232E+03  0.11846976030E+04  0.59997193041E+03 0.  0.
         23    2    4    4    0    0  0.49857201957E+03 -0.25619522330E+02 -0.42711155315E+03  0.66321834620E+03  0.90575257523E+02 0.  0.
         23    2    4    4    0    0 -0.43383297166E+02 -0.25666674892E+03 -0.44275037917E+03  0.52147925679E+03  0.90292782290E+02 0.  0.
          1    1    3    3  502    0 -0.41158323021E+03  0.24969992371E+03 -0.17543557773E+03  0.51237530115E+03  0.00000000000E+00 0. -1.
         -1    1    3    3    0  502 -0.43605492189E+02  0.32586347539E+02 -0.57206825289E+02  0.78967903952E+02  0.00000000000E+00 0.  1.
         13    1    5    5    0    0  0.37225816198E+03  0.19266893478E+02 -0.32779474846E+03  0.49638367163E+03  0.00000000000E+00 0.  1.
        -13    1    5    5    0    0  0.12631385759E+03 -0.44886415808E+02 -0.99316804694E+02  0.16683467457E+03  0.00000000000E+00 0. -1.
          5    1    6    6  503    0 -0.43798359965E+02 -0.88110363990E+02 -0.10499543163E+03  0.14397174460E+03  0.47000000000E+01 0. -1.
         -5    1    6    6    0  503  0.41506279973E+00 -0.16855638493E+03 -0.33775494754E+03  0.37750751220E+03  0.47000000000E+01 0.  1.
<mgrwt>
<rscale>  0 0.65489015E+03</rscale>
<asrwt>0</asrwt>
<pdfrwt beam="1">  1        1 0.22142655E+00 0.65489015E+03</pdfrwt>
<pdfrwt beam="2">  1       -1 0.51810497E-01 0.65489015E+03</pdfrwt>
<totfact> 0.28248165E+01</totfact>
</mgrwt>
</event>
<event>
12    1  0.3127365E-008  0.1878683E+04  0.7818608E-02  0.8665540E-01
          2   -1    0    0  501    0  0.00000000000E+00  0.00000000000E+00  0.21652032229E+04  0.21652032229E+04  0.00000000000E+00 0. -1.
         -2   -1    0    0    0  501 -0.00000000000E+00 -0.00000000000E+00 -0.22466994796E+04  0.22466994796E+04  0.00000000000E+00 0.  1.
         23    2    1    2    0    0  0.61095942422E+03 -0.17644883361E+04  0.10535111350E+04  0.21458476633E+04  0.89922057585E+02 0.  0.
    5000000    2    1    2    0    0 -0.61095942422E+03  0.17644883361E+04 -0.11350073918E+04  0.22660550392E+04  0.60006095936E+03 0.  0.
         23    2    4    4    0    0 -0.49489651960E+03  0.15941172915E+04 -0.11635205729E+04  0.20367212307E+04  0.91218112610E+02 0.  0.
         23    2    4    4    0    0 -0.11606290462E+03  0.17037104463E+03  0.28513181174E+02  0.22933380842E+03  0.96354052895E+02 0.  0.
          4    1    3    3  502    0  0.35326409804E+03 -0.10688386337E+04  0.58771088016E+03  0.12698880370E+04  0.00000000000E+00 0. -1.
         -4    1    3    3    0  502  0.25769532618E+03 -0.69564970243E+03  0.46580025484E+03  0.87595962637E+03  0.00000000000E+00 0.  1.
         13    1    5    5    0    0 -0.18375573168E+03  0.52429842873E+03 -0.43392578606E+03  0.70494439433E+03  0.00000000000E+00 0.  1.
        -13    1    5    5    0    0 -0.31114078792E+03  0.10698188627E+04 -0.72959478689E+03  0.13317768364E+04  0.00000000000E+00 0. -1.
          5    1    6    6  503    0 -0.79606208486E+02  0.16459230086E+03  0.72764544994E+00  0.18289448707E+03  0.47000000000E+01 0. -1.
         -5    1    6    6    0  503 -0.36456696133E+02  0.57787437669E+01  0.27785535724E+02  0.46439321355E+02  0.47000000000E+01 0.  1.
<mgrwt>
<rscale>  0 0.18786835E+04</rscale>
<asrwt>0</asrwt>
<pdfrwt beam="1">  1        2 0.33310819E+00 0.18786835E+04</pdfrwt>
<pdfrwt beam="2">  1       -2 0.34564607E+00 0.18786835E+04</pdfrwt>
<totfact> 0.80380562E-02</totfact>
</mgrwt>
</event>
<event>
12    1  0.3127365E-008  0.1213386E+04  0.7818608E-02  0.9101220E-01
         -1   -1    0    0    0  501 -0.00000000000E+00  0.00000000000E+00  0.89026991948E+03  0.89026991948E+03  0.00000000000E+00 0.  1.
          1   -1    0    0  501    0  0.00000000000E+00 -0.00000000000E+00 -0.16909449026E+04  0.16909449026E+04  0.00000000000E+00 0. -1.
         23    2    1    2    0    0  0.42498109362E+03 -0.10701606741E+04 -0.35036568482E+03  0.12069224024E+04  0.89737250205E+02 0.  0.
    5000000    2    1    2    0    0 -0.42498109362E+03  0.10701606741E+04 -0.45030929826E+03  0.13742924196E+04  0.60004032545E+03 0.  0.
         23    2    4    4    0    0 -0.44237042671E+03  0.38512263881E+03 -0.11131839056E+03  0.60468648378E+03  0.96140096879E+02 0.  0.
         23    2    4    4    0    0  0.17389333093E+02  0.68503803528E+03 -0.33899090770E+03  0.76960593583E+03  0.88311733504E+02 0.  0.
          3    1    3    3  502    0  0.17509815616E+03 -0.37662871648E+03 -0.88885815177E+02  0.42474609181E+03  0.00000000000E+00 0. -1.
         -3    1    3    3    0  502  0.24988293746E+03 -0.69353195761E+03 -0.26147986964E+03  0.78217631062E+03  0.00000000000E+00 0.  1.
         11    1    5    5    0    0 -0.35943938791E+03  0.28981326515E+03 -0.50516914675E+02  0.46447859036E+03  0.00000000000E+00 0.  1.
        -11    1    5    5    0    0 -0.82931038799E+02  0.95309373669E+02 -0.60801475886E+02  0.14020789341E+03  0.00000000000E+00 0. -1.
          5    1    6    6  503    0  0.22052339898E+02  0.22903595896E+03 -0.15694646331E+03  0.27856428080E+03  0.47000000000E+01 0. -1.
         -5    1    6    6    0  503 -0.46630068050E+01  0.45600207632E+03 -0.18204444438E+03  0.49104165503E+03  0.47000000000E+01 0.  1.
<mgrwt>
<rscale>  0 0.12133862E+04</rscale>
<asrwt>0</asrwt>
<pdfrwt beam="1">  1        1 0.26014537E+00 0.12133862E+04</pdfrwt>
<pdfrwt beam="2">  1       -1 0.13696461E+00 0.12133862E+04</pdfrwt>
<totfact> 0.21039035E+00</totfact>
</mgrwt>
</event>
<event>
12    1  0.3127365E-008  0.4776683E+03  0.7818608E-02  0.1019778E+00
         -2   -1    0    0    0  501 -0.00000000000E+00  0.00000000000E+00  0.15025939157E+03  0.15025939157E+03  0.00000000000E+00 0.  1.
          2   -1    0    0  501    0  0.00000000000E+00 -0.00000000000E+00 -0.18473210002E+04  0.18473210002E+04  0.00000000000E+00 0. -1.
         23    2    1    2    0    0  0.72607486502E+01 -0.32736560548E+03 -0.35246834911E+03  0.48916438948E+03  0.88469795379E+02 0.  0.
    5000000    2    1    2    0    0 -0.72607486502E+01  0.32736560548E+03 -0.13445932596E+04  0.15084160023E+04  0.60013902079E+03 0.  0.
         23    2    4    4    0    0  0.20550181758E+03  0.34100342957E+03 -0.57923537312E+03  0.70876474238E+03  0.91211329164E+02 0.  0.
         23    2    4    4    0    0 -0.21276256623E+03 -0.13637824091E+02 -0.76535788646E+03  0.79965125995E+03  0.90639634480E+02 0.  0.
          2    1    3    3  502    0 -0.27840838554E+02 -0.25998024975E+03 -0.29283347250E+03  0.39257647047E+03  0.00000000000E+00 0.  1.
         -2    1    3    3    0  502  0.35101587204E+02 -0.67385355730E+02 -0.59634876604E+02  0.96587919010E+02  0.00000000000E+00 0. -1.
         13    1    5    5    0    0  0.34693939766E+02  0.37537449489E+02 -0.32582580866E+02  0.60616451121E+02  0.00000000000E+00 0. -1.
        -13    1    5    5    0    0  0.17080787782E+03  0.30346598008E+03 -0.54665279225E+03  0.64814829126E+03  0.00000000000E+00 0.  1.
          5    1    6    6  503    0 -0.11428250268E+03  0.16228973180E+02 -0.26969482171E+03  0.29339607504E+03  0.47000000000E+01 0. -1.
         -5    1    6    6    0  503 -0.98480063555E+02 -0.29866797270E+02 -0.49566306475E+03  0.50625518491E+03  0.47000000000E+01 0.  1.
<mgrwt>
<rscale>  0 0.47766833E+03</rscale>
<asrwt>0</asrwt>
<pdfrwt beam="1">  1        2 0.28420322E+00 0.47766833E+03</pdfrwt>
<pdfrwt beam="2">  1       -2 0.23116831E-01 0.47766833E+03</pdfrwt>
<totfact> 0.14142813E+02</totfact>
</mgrwt>
</event>
<event>
12    1  0.3127365E-008  0.5564075E+03  0.7818608E-02  0.1000022E+00
          2   -1    0    0  501    0  0.00000000000E+00  0.00000000000E+00  0.12568459377E+04  0.12568459377E+04  0.00000000000E+00 0. -1.
         -2   -1    0    0    0  501 -0.00000000000E+00 -0.00000000000E+00 -0.26823926914E+03  0.26823926914E+03  0.00000000000E+00 0.  1.
         23    2    1    2    0    0  0.33221136259E+03 -0.23357077257E+03  0.50348665948E+03  0.65322277111E+03  0.91002621902E+02 0.  0.
    5000000    2    1    2    0    0 -0.33221136259E+03  0.23357077257E+03  0.48512000910E+03  0.87186243575E+03  0.59990248242E+03 0.  0.
         23    2    4    4    0    0 -0.45816179239E+03  0.43568054841E+02  0.38074316123E+03  0.60594768291E+03  0.10196487721E+03 0.  0.
         23    2    4    4    0    0  0.12595042981E+03  0.19000271773E+03  0.10437684787E+03  0.26591475285E+03  0.88609175016E+02 0.  0.
          2    1    3    3  502    0  0.23385442947E+03 -0.19931286696E+03  0.33023722187E+03  0.45107664075E+03  0.00000000000E+00 0. -1.
         -2    1    3    3    0  502  0.98356933114E+02 -0.34257905608E+02  0.17324943761E+03  0.20214613036E+03  0.00000000000E+00 0.  1.
         11    1    5    5    0    0 -0.20943565778E+02  0.13132761640E+02  0.53643213273E+02  0.59065190307E+02  0.00000000000E+00 0.  1.
        -11    1    5    5    0    0 -0.43721822662E+03  0.30435293201E+02  0.32709994795E+03  0.54688249260E+03  0.00000000000E+00 0. -1.
          5    1    6    6  503    0  0.13401791914E+03  0.17180114275E+03  0.75751176332E+02  0.23073093857E+03  0.47000000000E+01 0. -1.
         -5    1    6    6    0  503 -0.80674893298E+01  0.18201574982E+02  0.28625671536E+02  0.35183814273E+02  0.47000000000E+01 0.  1.
<mgrwt>
<rscale>  0 0.55640748E+03</rscale>
<asrwt>0</asrwt>
<pdfrwt beam="1">  1        2 0.19336091E+00 0.55640748E+03</pdfrwt>
<pdfrwt beam="2">  1       -2 0.41267581E-01 0.55640748E+03</pdfrwt>
<totfact> 0.10085101E+02</totfact>
</mgrwt>
</event>
<event>
12    1  0.3127365E-008  0.8130519E+03  0.7818608E-02  0.9541315E-01
          1   -1    0    0  501    0  0.00000000000E+00  0.00000000000E+00  0.28139280422E+04  0.28139280422E+04  0.00000000000E+00 0. -1.
         -1   -1    0    0    0  501 -0.00000000000E+00 -0.00000000000E+00 -0.29212064455E+03  0.29212064455E+03  0.00000000000E+00 0.  1.
         23    2    1    2    0    0  0.79769728654E+03 -0.10249028431E+03  0.10930563076E+04  0.13600835206E+04  0.90718643089E+02 0.  0.
    5000000    2    1    2    0    0 -0.79769728654E+03  0.10249028431E+03  0.14287510901E+04  0.17459651661E+04  0.60019952069E+03 0.  0.
         23    2    4    4    0    0 -0.40380770273E+03  0.79647041950E+02  0.22948273816E+03  0.48021084638E+03  0.92389489611E+02 0.  0.
         23    2    4    4    0    0 -0.39388958380E+03  0.22843242358E+02  0.11992683519E+04  0.12657543198E+04  0.90656495120E+02 0.  0.
          2    1    3    3  502    0  0.59246293600E+03 -0.10123736437E+03  0.76120778974E+03  0.96989619736E+03  0.00000000000E+00 0. -1.
         -2    1    3    3    0  502  0.20523435053E+03 -0.12529199399E+01  0.33184851783E+03  0.39018732326E+03  0.00000000000E+00 0.  1.
         11    1    5    5    0    0 -0.97747354762E+02  0.59319830383E+02  0.75288518766E+02  0.13690050656E+03  0.00000000000E+00 0.  1.
        -11    1    5    5    0    0 -0.30606034797E+03  0.20327211567E+02  0.15419421939E+03  0.34331033982E+03  0.00000000000E+00 0. -1.
          5    1    6    6  503    0 -0.25613372704E+03  0.41946533007E+02  0.87975401858E+03  0.91725308446E+03  0.47000000000E+01 0. -1.
         -5    1    6    6    0  503 -0.13775585676E+03 -0.19103290648E+02  0.31951433335E+03  0.34850123529E+03  0.47000000000E+01 0.  1.
<mgrwt>
<rscale>  0 0.81305187E+03</rscale>
<asrwt>0</asrwt>
<pdfrwt beam="1">  1        1 0.43291199E+00 0.81305187E+03</pdfrwt>
<pdfrwt beam="2">  1       -1 0.44941640E-01 0.81305187E+03</pdfrwt>
<totfact> 0.42131707E+00</totfact>
</mgrwt>
</event>
<event>
12    1  0.3127365E-008  0.1062629E+04  0.7818608E-02  0.9242402E-01
          1   -1    0    0  501    0  0.00000000000E+00  0.00000000000E+00  0.27704713278E+04  0.27704713278E+04  0.00000000000E+00 0. -1.
         -1   -1    0    0    0  501 -0.00000000000E+00 -0.00000000000E+00 -0.45189754379E+03  0.45189754379E+03  0.00000000000E+00 0.  1.
         23    2    1    2    0    0 -0.85644631114E+03 -0.48529011956E+03  0.61124846845E+03  0.11622922241E+04  0.91058992612E+02 0.  0.
    5000000    2    1    2    0    0  0.85644631114E+03  0.48529011956E+03  0.17073253155E+04  0.20600766474E+04  0.59995772863E+03 0.  0.
         23    2    4    4    0    0  0.51598692120E+03 -0.33068438780E+02  0.81766542692E+03  0.97174254583E+03  0.91492078940E+02 0.  0.
         23    2    4    4    0    0  0.34045938994E+03  0.51835855834E+03  0.88965988862E+03  0.10883341016E+04  0.91477910184E+02 0.  0.
          3    1    3    3  502    0 -0.45093954871E+03 -0.23793581194E+03  0.26598027654E+03  0.57506993896E+03  0.00000000000E+00 0. -1.
         -3    1    3    3    0  502 -0.40550676243E+03 -0.24735430762E+03  0.34526819191E+03  0.58722228519E+03  0.00000000000E+00 0.  1.
         11    1    5    5    0    0  0.18337528753E+03 -0.32366070519E+02  0.22438793433E+03  0.29158875779E+03  0.00000000000E+00 0. -1.
        -11    1    5    5    0    0  0.33261163367E+03 -0.70236826052E+00  0.59327749258E+03  0.68015378804E+03  0.00000000000E+00 0.  1.
          5    1    6    6  503    0  0.23819924575E+03  0.39487189393E+03  0.59449937670E+03  0.75240566996E+03  0.47000000000E+01 0. -1.
         -5    1    6    6    0  503  0.10226014419E+03  0.12348666441E+03  0.29516051192E+03  0.33592843162E+03  0.47000000000E+01 0.  1.
<mgrwt>
<rscale>  0 0.10626285E+04</rscale>
<asrwt>0</asrwt>
<pdfrwt beam="1">  1        1 0.42622635E+00 0.10626285E+04</pdfrwt>
<pdfrwt beam="2">  1       -1 0.69522701E-01 0.10626285E+04</pdfrwt>
<totfact> 0.18564946E+00</totfact>
</mgrwt>
</event>
<event>
12    1  0.3127365E-008  0.1301197E+04  0.7818608E-02  0.9028616E-01
         -1   -1    0    0    0  501 -0.00000000000E+00  0.00000000000E+00  0.94219609445E+03  0.94219609445E+03  0.00000000000E+00 0.  1.
          1   -1    0    0  501    0  0.00000000000E+00 -0.00000000000E+00 -0.21257622684E+04  0.21257622684E+04  0.00000000000E+00 0. -1.
         23    2    1    2    0    0  0.10416467431E+04 -0.66767935965E+03  0.20389352122E+02  0.12399818285E+04  0.79470400806E+02 0.  0.
    5000000    2    1    2    0    0 -0.10416467431E+04  0.66767935965E+03 -0.12039555261E+04  0.18279765343E+04  0.60097057870E+03 0.  0.
         23    2    4    4    0    0 -0.50670084420E+03  0.64102213395E+03 -0.61886883062E+03  0.10292381210E+04  0.93152340088E+02 0.  0.
         23    2    4    4    0    0 -0.53494589894E+03  0.26657225707E+02 -0.58508669546E+03  0.79873841334E+03  0.93695726996E+02 0.  0.
          1    1    3    3  502    0  0.64319705454E+03 -0.37291804158E+03 -0.82031325433E+01  0.74353050246E+03  0.00000000000E+00 0. -1.
         -1    1    3    3    0  502  0.39844968860E+03 -0.29476131808E+03  0.28592484665E+02  0.49645132608E+03  0.00000000000E+00 0.  1.
         13    1    5    5    0    0 -0.63463326293E+02  0.13269369840E+03 -0.12942988052E+03  0.19592678569E+03  0.00000000000E+00 0. -1.
        -13    1    5    5    0    0 -0.44323751791E+03  0.50832843555E+03 -0.48943895010E+03  0.83331133531E+03  0.00000000000E+00 0.  1.
          5    1    6    6  503    0 -0.29275797875E+02 -0.17018022803E+02 -0.22023034393E+02  0.40666810610E+02  0.47000000000E+01 0. -1.
         -5    1    6    6    0  503 -0.50567010106E+03  0.43675248510E+02 -0.56306366107E+03  0.75807160273E+03  0.47000000000E+01 0.  1.
<mgrwt>
<rscale>  0 0.13011973E+04</rscale>
<asrwt>0</asrwt>
<pdfrwt beam="1">  1        1 0.32704035E+00 0.13011973E+04</pdfrwt>
<pdfrwt beam="2">  1       -1 0.14495325E+00 0.13011973E+04</pdfrwt>
<totfact> 0.90933009E-01</totfact>
</mgrwt>
</event>
<event>
12    1  0.3127365E-008  0.1135156E+04  0.7818608E-02  0.9171588E-01
          1   -1    0    0  501    0  0.00000000000E+00  0.00000000000E+00  0.12895891311E+04  0.12895891311E+04  0.00000000000E+00 0. -1.
         -1   -1    0    0    0  501 -0.00000000000E+00 -0.00000000000E+00 -0.12641581616E+04  0.12641581616E+04  0.00000000000E+00 0.  1.
         23    2    1    2    0    0 -0.13926522138E+03 -0.11071513027E+04 -0.44149724538E+03  0.12035030005E+04  0.91218668243E+02 0.  0.
    5000000    2    1    2    0    0  0.13926522138E+03  0.11071513027E+04  0.46692821482E+03  0.13502442923E+04  0.59996573407E+03 0.  0.
         23    2    4    4    0    0 -0.71424757152E+02  0.37309076519E+03  0.43032840293E+03  0.58094466064E+03  0.89531834331E+02 0.  0.
         23    2    4    4    0    0  0.21068997853E+03  0.73406053753E+03  0.36599811898E+02  0.76929963164E+03  0.85130706593E+02 0.  0.
          4    1    3    3  502    0 -0.15289512313E+02 -0.47201221794E+03 -0.19785787275E+03  0.51203226547E+03  0.00000000000E+00 0. -1.
         -4    1    3    3    0  502 -0.12397570907E+03 -0.63513908477E+03 -0.24363937263E+03  0.69147073498E+03  0.00000000000E+00 0.  1.
         11    1    5    5    0    0  0.11258245058E+02  0.54268171972E+02  0.10080676202E+03  0.11503819296E+03  0.00000000000E+00 0. -1.
        -11    1    5    5    0    0 -0.82683002210E+02  0.31882259321E+03  0.32952164091E+03  0.46590646768E+03  0.00000000000E+00 0.  1.
          5    1    6    6  503    0  0.15520947939E+03  0.43382858031E+03 -0.71082651046E+01  0.46083601967E+03  0.47000000000E+01 0. -1.
         -5    1    6    6    0  503  0.55480499139E+02  0.30023195722E+03  0.43708077002E+02  0.30846361198E+03  0.47000000000E+01 0.  1.
<mgrwt>
<rscale>  0 0.11351556E+04</rscale>
<asrwt>0</asrwt>
<pdfrwt beam="1">  1        1 0.19839833E+00 0.11351556E+04</pdfrwt>
<pdfrwt beam="2">  1       -1 0.19448587E+00 0.11351556E+04</pdfrwt>
<totfact> 0.14938313E+00</totfact>
</mgrwt>
</event>
<event>
12    1  0.3127365E-008  0.9746617E+03  0.7818608E-02  0.9336780E-01
         -2   -1    0    0    0  501 -0.00000000000E+00  0.00000000000E+00  0.71071199587E+03  0.71071199587E+03  0.00000000000E+00 0.  1.
          2   -1    0    0  501    0  0.00000000000E+00 -0.00000000000E+00 -0.23799442424E+04  0.23799442424E+04  0.00000000000E+00 0. -1.
         23    2    1    2    0    0  0.29240866718E+03 -0.84104235505E+03  0.21630527413E+03  0.92075661800E+03  0.90275723993E+02 0.  0.
    5000000    2    1    2    0    0 -0.29240866718E+03  0.84104235505E+03 -0.18855375206E+04  0.21698996203E+04  0.60029788323E+03 0.  0.
         23    2    4    4    0    0 -0.11247744266E+03  0.85049097875E+03 -0.16347122524E+04  0.18484278613E+04  0.91735109600E+02 0.  0.
         23    2    4    4    0    0 -0.17993122452E+03 -0.94486237033E+01 -0.25082526825E+03  0.32147175894E+03  0.89253876970E+02 0.  0.
          1    1    3    3  502    0  0.24971603394E+03 -0.70772929016E+03  0.21532388243E+03  0.78077091397E+03  0.00000000000E+00 0. -1.
         -1    1    3    3    0  502  0.42692633248E+02 -0.13331306489E+03  0.98139170777E+00  0.13998570403E+03  0.00000000000E+00 0.  1.
         13    1    5    5    0    0 -0.85865203273E+02  0.43873684194E+03 -0.92825493998E+03  0.10303009673E+04  0.00000000000E+00 0.  1.
        -13    1    5    5    0    0 -0.26612239391E+02  0.41175413681E+03 -0.70645731241E+03  0.81812689402E+03  0.00000000000E+00 0. -1.
          5    1    6    6  503    0 -0.20232667667E+02 -0.31665561798E+02 -0.66547862022E+02  0.76568770296E+02  0.47000000000E+01 0. -1.
         -5    1    6    6    0  503 -0.15969855685E+03  0.22216938095E+02 -0.18427740623E+03  0.24490298864E+03  0.47000000000E+01 0.  1.
<mgrwt>
<rscale>  0 0.97466172E+03</rscale>
<asrwt>0</asrwt>
<pdfrwt beam="1">  1        2 0.36614527E+00 0.97466172E+03</pdfrwt>
<pdfrwt beam="2">  1       -2 0.10934031E+00 0.97466172E+03</pdfrwt>
<totfact> 0.27466245E+00</totfact>
</mgrwt>
</event>
<event>
12    1  0.3127365E-008  0.8555985E+03  0.7818608E-02  0.9482854E-01
         -1   -1    0    0    0  501 -0.00000000000E+00  0.00000000000E+00  0.79610950837E+03  0.79610950837E+03  0.00000000000E+00 0.  1.
          1   -1    0    0  501    0  0.00000000000E+00 -0.00000000000E+00 -0.15813933365E+04  0.15813933365E+04  0.00000000000E+00 0. -1.
         23    2    1    2    0    0  0.76981200608E+03 -0.25401145249E+03 -0.10551225530E+04  0.13334614911E+04  0.87770176105E+02 0.  0.
    5000000    2    1    2    0    0 -0.76981200608E+03  0.25401145249E+03  0.26983872483E+03  0.10440413538E+04  0.60006422011E+03 0.  0.
         23    2    4    4    0    0 -0.37321946542E+03 -0.70667703611E+02 -0.10331976263E+03  0.40354014557E+03  0.88786159059E+02 0.  0.
         23    2    4    4    0    0 -0.39659254066E+03  0.32467915610E+03  0.37315848746E+03  0.64050120819E+03  0.91062304060E+02 0.  0.
          3    1    3    3  502    0  0.36733390270E+03 -0.75168061857E+02 -0.48298801774E+03  0.61144244118E+03  0.00000000000E+00 0. -1.
         -3    1    3    3    0  502  0.40247810338E+03 -0.17884339063E+03 -0.57213453524E+03  0.72201904995E+03  0.00000000000E+00 0.  1.
         13    1    5    5    0    0 -0.21740266897E+03 -0.17206800684E+02 -0.20175038614E+02  0.21901375904E+03  0.00000000000E+00 0.  1.
        -13    1    5    5    0    0 -0.15581679645E+03 -0.53460902927E+02 -0.83144724012E+02  0.18452638654E+03  0.00000000000E+00 0. -1.
          5    1    6    6  503    0 -0.28280020648E+03  0.24255930997E+03  0.31726378770E+03  0.48937651826E+03  0.47000000000E+01 0. -1.
         -5    1    6    6    0  503 -0.11379233418E+03  0.82119846126E+02  0.55894699760E+02  0.15112468993E+03  0.47000000000E+01 0.  1.
<mgrwt>
<rscale>  0 0.85559849E+03</rscale>
<asrwt>0</asrwt>
<pdfrwt beam="1">  1        1 0.24329128E+00 0.85559849E+03</pdfrwt>
<pdfrwt beam="2">  1       -1 0.12247839E+00 0.85559849E+03</pdfrwt>
<totfact> 0.34739678E+00</totfact>
</mgrwt>
</event>
<event>
12    1  0.3127365E-008  0.8490164E+03  0.7818608E-02  0.9491658E-01
          1   -1    0    0  501    0  0.00000000000E+00  0.00000000000E+00  0.18805067594E+04  0.18805067594E+04  0.00000000000E+00 0. -1.
         -1   -1    0    0    0  501 -0.00000000000E+00 -0.00000000000E+00 -0.97459520933E+03  0.97459520933E+03  0.00000000000E+00 0.  1.
         23    2    1    2    0    0  0.73563652167E+03 -0.24709475628E+03 -0.64969888632E+03  0.10160413207E+04  0.89523247861E+02 0.  0.
    5000000    2    1    2    0    0 -0.73563652167E+03  0.24709475628E+03  0.15556104364E+04  0.18390606480E+04  0.60000277226E+03 0.  0.
         23    2    4    4    0    0 -0.39869362037E+03 -0.10848268594E+03  0.10395350555E+04  0.11219645941E+04  0.86292078313E+02 0.  0.
         23    2    4    4    0    0 -0.33694290129E+03  0.35557744221E+03  0.51607538088E+03  0.71709605389E+03  0.89034350768E+02 0.  0.
          2    1    3    3  502    0  0.89447281192E+02 -0.54215429772E+02 -0.11474991040E+03  0.15526645122E+03  0.00000000000E+00 0. -1.
         -2    1    3    3    0  502  0.64618924048E+03 -0.19287932650E+03 -0.53494897592E+03  0.86077486948E+03  0.00000000000E+00 0.  1.
         13    1    5    5    0    0 -0.13996322518E+03 -0.81482941426E+02  0.40331315978E+03  0.43461555310E+03  0.00000000000E+00 0.  1.
        -13    1    5    5    0    0 -0.25873039519E+03 -0.26999744511E+02  0.63622189573E+03  0.68734904103E+03  0.00000000000E+00 0. -1.
          5    1    6    6  503    0 -0.12711295954E+03  0.78798886176E+02  0.13595517674E+03  0.20217039602E+03  0.47000000000E+01 0. -1.
         -5    1    6    6    0  503 -0.20982994175E+03  0.27677855604E+03  0.38012020414E+03  0.51492565787E+03  0.47000000000E+01 0.  1.
<mgrwt>
<rscale>  0 0.84901641E+03</rscale>
<asrwt>0</asrwt>
<pdfrwt beam="1">  1        1 0.28930873E+00 0.84901641E+03</pdfrwt>
<pdfrwt beam="2">  1       -1 0.14993772E+00 0.84901641E+03</pdfrwt>
<totfact> 0.12985702E+00</totfact>
</mgrwt>
</event>
<event>
12    1  0.3127365E-008  0.1108170E+04  0.7818608E-02  0.9197265E-01
          1   -1    0    0  501    0  0.00000000000E+00  0.00000000000E+00  0.90419978378E+03  0.90419978378E+03  0.00000000000E+00 0. -1.
         -1   -1    0    0    0  501 -0.00000000000E+00 -0.00000000000E+00 -0.22754163511E+04  0.22754163511E+04  0.00000000000E+00 0.  1.
         23    2    1    2    0    0 -0.57493391863E+03  0.92898855433E+03  0.26027717274E+03  0.11264616020E+04  0.87193974909E+02 0.  0.
    5000000    2    1    2    0    0  0.57493391863E+03 -0.92898855433E+03 -0.16314937400E+04  0.20531545328E+04  0.60008579979E+03 0.  0.
         23    2    4    4    0    0  0.16789870224E+03 -0.96145592838E+02 -0.51938819553E+02  0.21937699269E+03  0.89412944873E+02 0.  0.
         23    2    4    4    0    0  0.40703521639E+03 -0.83284296149E+03 -0.15795549205E+04  0.18337775401E+04  0.91876297667E+02 0.  0.
          4    1    3    3  502    0 -0.16963055318E+03  0.26044251156E+03  0.34602678108E+02  0.31273338762E+03  0.00000000000E+00 0. -1.
         -4    1    3    3    0  502 -0.40530336545E+03  0.66854604277E+03  0.22567449464E+03  0.81372821438E+03  0.00000000000E+00 0.  1.
         13    1    5    5    0    0  0.71408057271E+02 -0.57931655200E+02  0.18701951232E+02  0.93834696661E+02  0.00000000000E+00 0. -1.
        -13    1    5    5    0    0  0.96490644968E+02 -0.38213937638E+02 -0.70640770785E+02  0.12554229603E+03  0.00000000000E+00 0.  1.
          5    1    6    6  503    0  0.28818030053E+03 -0.54466922422E+03 -0.97140055818E+03  0.11503710636E+04  0.47000000000E+01 0. -1.
         -5    1    6    6    0  503  0.11885491586E+03 -0.28817373727E+03 -0.60815436229E+03  0.68340647659E+03  0.47000000000E+01 0.  1.
<mgrwt>
<rscale>  0 0.11081698E+04</rscale>
<asrwt>0</asrwt>
<pdfrwt beam="1">  1        1 0.13910766E+00 0.11081698E+04</pdfrwt>
<pdfrwt beam="2">  1       -1 0.35006405E+00 0.11081698E+04</pdfrwt>
<totfact> 0.28107803E-01</totfact>
</mgrwt>
</event>
<event>
12    1  0.3127365E-008  0.1061551E+04  0.7818608E-02  0.9243499E-01
          2   -1    0    0  501    0  0.00000000000E+00  0.00000000000E+00  0.28719593667E+04  0.28719593667E+04  0.00000000000E+00 0. -1.
         -2   -1    0    0    0  501 -0.00000000000E+00 -0.00000000000E+00 -0.41915403489E+03  0.41915403489E+03  0.00000000000E+00 0.  1.
         23    2    1    2    0    0 -0.76719452960E+03  0.63650105990E+03  0.14059348704E+04  0.17259736887E+04  0.92796922171E+02 0.  0.
    5000000    2    1    2    0    0  0.76719452960E+03 -0.63650105990E+03  0.10468704614E+04  0.15651397129E+04  0.60000292700E+03 0.  0.
         23    2    4    4    0    0 -0.60285220008E+02 -0.11356101957E+03  0.51362559849E+02  0.16617581916E+03  0.91901454839E+02 0.  0.
         23    2    4    4    0    0  0.82747974961E+03 -0.52294004033E+03  0.99550790155E+03  0.13989638937E+04  0.88741039659E+02 0.  0.
          2    1    3    3  502    0 -0.41475374040E+03  0.28668318837E+03  0.68392678735E+03  0.84968450976E+03  0.00000000000E+00 0. -1.
         -2    1    3    3    0  502 -0.35244078920E+03  0.34981787152E+03  0.72200808308E+03  0.87628917896E+03  0.00000000000E+00 0.  1.
         13    1    5    5    0    0 -0.18068128816E+02 -0.93463113133E+02  0.67517676865E+02  0.11670667284E+03  0.00000000000E+00 0. -1.
        -13    1    5    5    0    0 -0.42217091192E+02 -0.20097906432E+02 -0.16155117016E+02  0.49469146318E+02  0.00000000000E+00 0.  1.
          5    1    6    6  503    0  0.61226623343E+03 -0.41410747814E+03  0.70630625753E+03  0.10223725170E+04  0.47000000000E+01 0. -1.
         -5    1    6    6    0  503  0.21521351618E+03 -0.10883256219E+03  0.28920164402E+03  0.37659137675E+03  0.47000000000E+01 0.  1.
<mgrwt>
<rscale>  0 0.10615509E+04</rscale>
<asrwt>0</asrwt>
<pdfrwt beam="1">  1        2 0.44183989E+00 0.10615509E+04</pdfrwt>
<pdfrwt beam="2">  1       -2 0.64485238E-01 0.10615509E+04</pdfrwt>
<totfact> 0.46925980E+00</totfact>
</mgrwt>
</event>
<event>
12    1  0.3127365E-008  0.5021666E+03  0.7818608E-02  0.1013215E+00
         -2   -1    0    0    0  501 -0.00000000000E+00  0.00000000000E+00  0.87157864865E+03  0.87157864865E+03  0.00000000000E+00 0.  1.
          2   -1    0    0  501    0  0.00000000000E+00 -0.00000000000E+00 -0.13169061584E+04  0.13169061584E+04  0.00000000000E+00 0. -1.
         23    2    1    2    0    0 -0.35496758295E+03 -0.60194618801E+02 -0.11421275317E+04  0.12009906156E+04  0.91092167590E+02 0.  0.
    5000000    2    1    2    0    0  0.35496758295E+03  0.60194618801E+02  0.69680002190E+03  0.98749419151E+03  0.59999094216E+03 0.  0.
         23    2    4    4    0    0  0.47554833061E+03  0.42079918115E+02  0.32252058512E+03  0.58342380716E+03  0.91906891352E+02 0.  0.
         23    2    4    4    0    0 -0.12058074766E+03  0.18114700687E+02  0.37427943678E+03  0.40407038435E+03  0.91213593425E+02 0.  0.
          2    1    3    3  502    0 -0.31368288893E+03 -0.30006362176E+02 -0.90146648001E+03  0.95495505191E+03  0.00000000000E+00 0. -1.
         -2    1    3    3    0  502 -0.41284694021E+02 -0.30188256626E+02 -0.24066105168E+03  0.24603556368E+03  0.00000000000E+00 0.  1.
         11    1    5    5    0    0  0.25334245265E+03  0.67404825820E+02  0.18540072049E+03  0.32109069749E+03  0.00000000000E+00 0. -1.
        -11    1    5    5    0    0  0.22220587796E+03 -0.25324907705E+02  0.13711986463E+03  0.26233310967E+03  0.00000000000E+00 0.  1.
          5    1    6    6  503    0 -0.28667147835E+02  0.47485702455E+02  0.13779405843E+03  0.14861355874E+03  0.47000000000E+01 0. -1.
         -5    1    6    6    0  503 -0.91913599829E+02 -0.29371001768E+02  0.23648537835E+03  0.25545682562E+03  0.47000000000E+01 0.  1.
<mgrwt>
<rscale>  0 0.50216659E+03</rscale>
<asrwt>0</asrwt>
<pdfrwt beam="1">  1        2 0.20260095E+00 0.50216659E+03</pdfrwt>
<pdfrwt beam="2">  1       -2 0.13408902E+00 0.50216659E+03</pdfrwt>
<totfact> 0.69161441E+00</totfact>
</mgrwt>
</event>
<event>
12    1  0.3127365E-008  0.9733634E+03  0.7818608E-02  0.9338252E-01
         -2   -1    0    0    0  501 -0.00000000000E+00  0.00000000000E+00  0.96025141283E+03  0.96025141283E+03  0.00000000000E+00 0.  1.
          2   -1    0    0  501    0  0.00000000000E+00 -0.00000000000E+00 -0.14880240464E+04  0.14880240464E+04  0.00000000000E+00 0. -1.
         23    2    1    2    0    0 -0.56584026744E+03  0.68449728732E+03  0.44807512316E+03  0.99882024529E+03  0.90326196590E+02 0.  0.
    5000000    2    1    2    0    0  0.56584026744E+03 -0.68449728732E+03 -0.97584775670E+03  0.14494552139E+04  0.59994152072E+03 0.  0.
         23    2    4    4    0    0  0.56215014607E+03 -0.75627996739E+03 -0.82189147198E+03  0.12542615713E+04  0.98459747277E+02 0.  0.
         23    2    4    4    0    0  0.36901213677E+01  0.71782680068E+02 -0.15395628472E+03  0.19519364257E+03  0.96081477625E+02 0.  0.
          3    1    3    3  502    0 -0.63877136055E+02  0.45917356563E+02  0.58136195379E+02  0.97818757698E+02  0.00000000000E+00 0. -1.
         -3    1    3    3    0  502 -0.50196313138E+03  0.63857993076E+03  0.38993892778E+03  0.90100148759E+03  0.00000000000E+00 0.  1.
         11    1    5    5    0    0  0.47674658076E+03 -0.63994605371E+03 -0.64578085371E+03  0.10265725327E+04  0.00000000000E+00 0.  1.
        -11    1    5    5    0    0  0.85403565309E+02 -0.11633391367E+03 -0.17611061827E+03  0.22768903861E+03  0.00000000000E+00 0. -1.
          5    1    6    6  503    0  0.40849369930E+02  0.62634894308E+02 -0.68827258064E+02  0.10174026961E+03  0.47000000000E+01 0. -1.
         -5    1    6    6    0  503 -0.37159248562E+02  0.91477857601E+01 -0.85129026652E+02  0.93453372956E+02  0.47000000000E+01 0.  1.
<mgrwt>
<rscale>  0 0.97336345E+03</rscale>
<asrwt>0</asrwt>
<pdfrwt beam="1">  1        2 0.22892678E+00 0.97336345E+03</pdfrwt>
<pdfrwt beam="2">  1       -2 0.14773099E+00 0.97336345E+03</pdfrwt>
<totfact> 0.40052188E+00</totfact>
</mgrwt>
</event>
<event>
12    1  0.3127365E-008  0.2690833E+03  0.7818608E-02  0.1101805E+00
          1   -1    0    0  501    0  0.00000000000E+00  0.00000000000E+00  0.34546570545E+03  0.34546570545E+03  0.00000000000E+00 0. -1.
         -1   -1    0    0    0  501 -0.00000000000E+00 -0.00000000000E+00 -0.58244658525E+03  0.58244658525E+03  0.00000000000E+00 0.  1.
         23    2    1    2    0    0  0.18168746825E+03 -0.52584799596E+01 -0.21792770263E+03  0.30032980842E+03  0.98323560347E+02 0.  0.
    5000000    2    1    2    0    0 -0.18168746825E+03  0.52584799596E+01 -0.19053177159E+02  0.62758248228E+03  0.60038217893E+03 0.  0.
         23    2    4    4    0    0 -0.14110487127E+03 -0.96450286264E+02 -0.27526032612E+03  0.33435300462E+03  0.82525403029E+02 0.  0.
         23    2    4    4    0    0 -0.40582596976E+02  0.10170876622E+03  0.25620714897E+03  0.29322947766E+03  0.91377256924E+02 0.  0.
          2    1    3    3  502    0  0.14046787484E+03  0.39100178971E+02 -0.14659419674E+03  0.20676050487E+03  0.00000000000E+00 0. -1.
         -2    1    3    3    0  502  0.41219593412E+02 -0.44358658930E+02 -0.71333505898E+02  0.93569303550E+02  0.00000000000E+00 0.  1.
         13    1    5    5    0    0 -0.41613302119E+02 -0.77576654956E+02 -0.14015901413E+03  0.16551239697E+03  0.00000000000E+00 0. -1.
        -13    1    5    5    0    0 -0.99491569155E+02 -0.18873631308E+02 -0.13510131199E+03  0.16884060766E+03  0.00000000000E+00 0.  1.
          5    1    6    6  503    0  0.28797939448E+02  0.20879819443E+02  0.59446332602E+02  0.69435182986E+02  0.47000000000E+01 0. -1.
         -5    1    6    6    0  503 -0.69380536424E+02  0.80828946781E+02  0.19676081636E+03  0.22379429467E+03  0.47000000000E+01 0.  1.
<mgrwt>
<rscale>  0 0.26908334E+03</rscale>
<asrwt>0</asrwt>
<pdfrwt beam="1">  1        1 0.53148570E-01 0.26908334E+03</pdfrwt>
<pdfrwt beam="2">  1       -1 0.89607167E-01 0.26908334E+03</pdfrwt>
<totfact> 0.94921066E+01</totfact>
</mgrwt>
</event>
<event>
12    1  0.3127365E-008  0.7959416E+03  0.7818608E-02  0.9565910E-01
          2   -1    0    0  501    0  0.00000000000E+00  0.00000000000E+00  0.17111124837E+04  0.17111124837E+04  0.00000000000E+00 0. -1.
         -2   -1    0    0    0  501 -0.00000000000E+00 -0.00000000000E+00 -0.49354938533E+03  0.49354938533E+03  0.00000000000E+00 0.  1.
         23    2    1    2    0    0 -0.37470561900E+03  0.69418358892E+03  0.80615151789E+03  0.11316576712E+04  0.92052479558E+02 0.  0.
    5000000    2    1    2    0    0  0.37470561900E+03 -0.69418358892E+03  0.41141158049E+03  0.10730041978E+04  0.59981944279E+03 0.  0.
         23    2    4    4    0    0  0.14985518651E+03 -0.28600853181E+03  0.48821113148E+03  0.59203021916E+03  0.88838135433E+02 0.  0.
         23    2    4    4    0    0  0.22485043248E+03 -0.40817505711E+03 -0.76799550985E+02  0.48097397866E+03  0.90957148631E+02 0.  0.
          3    1    3    3  502    0 -0.23646352573E+03  0.43472186690E+03  0.44093066018E+03  0.66281064238E+03  0.00000000000E+00 0. -1.
         -3    1    3    3    0  502 -0.13824209327E+03  0.25946172202E+03  0.36522085771E+03  0.46884702884E+03  0.00000000000E+00 0.  1.
         13    1    5    5    0    0  0.13574011637E+03 -0.20113680990E+03  0.40624981430E+03  0.47320218417E+03  0.00000000000E+00 0. -1.
        -13    1    5    5    0    0  0.14115070148E+02 -0.84871721916E+02  0.81961317185E+02  0.11882803500E+03  0.00000000000E+00 0.  1.
          5    1    6    6  503    0  0.17214988417E+03 -0.22308754718E+03 -0.35046342535E+02  0.28399643035E+03  0.47000000000E+01 0. -1.
         -5    1    6    6    0  503  0.52700548311E+02 -0.18508750992E+03 -0.41753208450E+02  0.19697754831E+03  0.47000000000E+01 0.  1.
<mgrwt>
<rscale>  0 0.79594164E+03</rscale>
<asrwt>0</asrwt>
<pdfrwt beam="1">  1        2 0.26324807E+00 0.79594164E+03</pdfrwt>
<pdfrwt beam="2">  1       -2 0.75930676E-01 0.79594164E+03</pdfrwt>
<totfact> 0.15355241E+01</totfact>
</mgrwt>
</event>
<event>
12    1  0.3127365E-008  0.5780744E+03  0.7818608E-02  0.9951969E-01
         -2   -1    0    0    0  501 -0.00000000000E+00  0.00000000000E+00  0.35310312445E+03  0.35310312445E+03  0.00000000000E+00 0.  1.
          2   -1    0    0  501    0  0.00000000000E+00 -0.00000000000E+00 -0.10738638236E+04  0.10738638236E+04  0.00000000000E+00 0. -1.
         23    2    1    2    0    0 -0.32909937713E+03  0.28011850386E+03 -0.47235451239E+03  0.64684105945E+03  0.92259387532E+02 0.  0.
    5000000    2    1    2    0    0  0.32909937713E+03 -0.28011850386E+03 -0.24840618675E+03  0.78012588860E+03  0.60009831879E+03 0.  0.
         23    2    4    4    0    0 -0.54930283247E+02 -0.30639077548E+03 -0.24663047302E+02  0.32522772403E+03  0.90951433491E+02 0.  0.
         23    2    4    4    0    0  0.38402966038E+03  0.26272271623E+02 -0.22374313945E+03  0.45489816457E+03  0.93286308610E+02 0.  0.
          1    1    3    3  502    0 -0.15615670826E+03  0.18749822200E+03 -0.23331397387E+03  0.33760318599E+03  0.00000000000E+00 0. -1.
         -1    1    3    3    0  502 -0.17294266887E+03  0.92620281857E+02 -0.23904053852E+03  0.30923787346E+03  0.00000000000E+00 0.  1.
         13    1    5    5    0    0 -0.79154046230E+02 -0.21543254517E+03 -0.81260138449E+01  0.22965752035E+03  0.00000000000E+00 0.  1.
        -13    1    5    5    0    0  0.24223762983E+02 -0.90958230316E+02 -0.16537033457E+02  0.95570203677E+02  0.00000000000E+00 0. -1.
          5    1    6    6  503    0  0.18788612130E+03  0.50534319285E+02 -0.14225788566E+03  0.24106909390E+03  0.47000000000E+01 0. -1.
         -5    1    6    6    0  503  0.19614353907E+03 -0.24262047662E+02 -0.81485253795E+02  0.21382907067E+03  0.47000000000E+01 0.  1.
<mgrwt>
<rscale>  0 0.57807436E+03</rscale>
<asrwt>0</asrwt>
<pdfrwt beam="1">  1        2 0.16520982E+00 0.57807436E+03</pdfrwt>
<pdfrwt beam="2">  1       -2 0.54323558E-01 0.57807436E+03</pdfrwt>
<totfact> 0.74428711E+01</totfact>
</mgrwt>
</event>
<event>
12    1  0.3127365E-008  0.8051524E+03  0.7818608E-02  0.9552589E-01
          1   -1    0    0  501    0  0.00000000000E+00  0.00000000000E+00  0.45559820260E+03  0.45559820260E+03  0.00000000000E+00 0. -1.
         -1   -1    0    0    0  501 -0.00000000000E+00 -0.00000000000E+00 -0.16059976723E+04  0.16059976723E+04  0.00000000000E+00 0.  1.
         23    2    1    2    0    0  0.59344132539E+03  0.42809803205E+03 -0.32439774223E+03  0.80570732355E+03  0.92140459818E+02 0.  0.
    5000000    2    1    2    0    0 -0.59344132539E+03 -0.42809803205E+03 -0.82600172751E+03  0.12558885514E+04  0.59961376561E+03 0.  0.
         23    2    4    4    0    0 -0.57114988801E+03 -0.51864565979E+03 -0.81891466476E+03  0.11287905112E+04  0.91330580558E+02 0.  0.
         23    2    4    4    0    0 -0.22291437380E+02  0.90547627734E+02 -0.70870627578E+01  0.12709804022E+03  0.86069183224E+02 0.  0.
          4    1    3    3  502    0  0.44182436259E+03  0.27352447672E+03 -0.20646202567E+03  0.55915201402E+03  0.00000000000E+00 0.  1.
         -4    1    3    3    0  502  0.15161696280E+03  0.15457355533E+03 -0.11793571656E+03  0.24655530953E+03  0.00000000000E+00 0. -1.
         11    1    5    5    0    0 -0.37637130368E+03 -0.28355082501E+03 -0.51350853989E+03  0.69695584446E+03  0.00000000000E+00 0.  1.
        -11    1    5    5    0    0 -0.19477858433E+03 -0.23509483478E+03 -0.30540612487E+03  0.43183466670E+03  0.00000000000E+00 0. -1.
          5    1    6    6  503    0 -0.23513854624E+02  0.38587765416E+02  0.37148750820E+02  0.58685915572E+02  0.47000000000E+01 0. -1.
         -5    1    6    6    0  503  0.12224172441E+01  0.51959862318E+02 -0.44235813578E+02  0.68412124649E+02  0.47000000000E+01 0.  1.
<mgrwt>
<rscale>  0 0.80515241E+03</rscale>
<asrwt>0</asrwt>
<pdfrwt beam="1">  1        1 0.70092032E-01 0.80515241E+03</pdfrwt>
<pdfrwt beam="2">  1       -1 0.24707656E+00 0.80515241E+03</pdfrwt>
<totfact> 0.37895442E+00</totfact>
</mgrwt>
</event>
<event>
12    1  0.3127365E-008  0.3771215E+03  0.7818608E-02  0.1052003E+00
          2   -1    0    0  501    0  0.00000000000E+00  0.00000000000E+00  0.92781903418E+03  0.92781903418E+03  0.00000000000E+00 0. -1.
         -2   -1    0    0    0  501 -0.00000000000E+00 -0.00000000000E+00 -0.23954873915E+03  0.23954873915E+03  0.00000000000E+00 0.  1.
         23    2    1    2    0    0  0.10009179598E+02 -0.15446378762E+03 -0.65277021575E+02  0.19172975662E+03  0.92411929253E+02 0.  0.
    5000000    2    1    2    0    0 -0.10009179598E+02  0.15446378762E+03  0.75354731660E+03  0.97563801671E+03  0.60006394321E+03 0.  0.
         23    2    4    4    0    0 -0.34540119279E+02  0.36354405615E+03  0.56526757644E+03  0.67897959676E+03  0.90158522815E+02 0.  0.
         23    2    4    4    0    0  0.24530939682E+02 -0.20908026854E+03  0.18827974017E+03  0.29665841996E+03  0.90777926171E+02 0.  0.
          4    1    3    3  502    0 -0.20947419668E+02 -0.76975189956E+01 -0.30435652251E+02  0.37740894496E+02  0.00000000000E+00 0. -1.
         -4    1    3    3    0  502  0.30956599265E+02 -0.14676626862E+03 -0.34841369323E+02  0.15398886213E+03  0.00000000000E+00 0.  1.
         11    1    5    5    0    0 -0.17694516131E+02  0.14128664025E+03  0.14477543343E+03  0.20306387354E+03  0.00000000000E+00 0.  1.
        -11    1    5    5    0    0 -0.16845603148E+02  0.22225741591E+03  0.42049214301E+03  0.47591572322E+03  0.00000000000E+00 0. -1.
          5    1    6    6  503    0  0.25903265991E+02 -0.42500596715E+02  0.71088688977E+01  0.50496593223E+02  0.47000000000E+01 0. -1.
         -5    1    6    6    0  503 -0.13723263094E+01 -0.16657967182E+03  0.18117087127E+03  0.24616182673E+03  0.47000000000E+01 0.  1.
<mgrwt>
<rscale>  0 0.37712150E+03</rscale>
<asrwt>0</asrwt>
<pdfrwt beam="1">  1        2 0.14274139E+00 0.37712150E+03</pdfrwt>
<pdfrwt beam="2">  1       -2 0.36853653E-01 0.37712150E+03</pdfrwt>
<totfact> 0.20245331E+02</totfact>
</mgrwt>
</event>
<event>
12    1  0.3127365E-008  0.5474259E+03  0.7818608E-02  0.1002091E+00
          1   -1    0    0  501    0  0.00000000000E+00  0.00000000000E+00  0.48583470066E+03  0.48583470066E+03  0.00000000000E+00 0. -1.
         -1   -1    0    0    0  501 -0.00000000000E+00 -0.00000000000E+00 -0.77717822995E+03  0.77717822995E+03  0.00000000000E+00 0.  1.
         23    2    1    2    0    0  0.13027752532E+03 -0.38263847751E+03 -0.34440562563E+03  0.53751021144E+03  0.83171836325E+02 0.  0.
    5000000    2    1    2    0    0 -0.13027752532E+03  0.38263847751E+03  0.53062096347E+02  0.72550271917E+03  0.60012846240E+03 0.  0.
         23    2    4    4    0    0 -0.34588907887E+03  0.27885424244E+03  0.99943596923E+02  0.46541245663E+03  0.96026500588E+02 0.  0.
         23    2    4    4    0    0  0.21561155354E+03  0.10378423506E+03 -0.46881500576E+02  0.26009026254E+03  0.90496188331E+02 0.  0.
          1    1    3    3  502    0  0.54945169454E+02 -0.21681110592E+03 -0.23784844974E+03  0.32649335727E+03  0.00000000000E+00 0. -1.
         -1    1    3    3    0  502  0.75332355870E+02 -0.16582737159E+03 -0.10655717589E+03  0.21101685417E+03  0.00000000000E+00 0.  1.
         11    1    5    5    0    0 -0.38422901589E+02  0.72593494634E+01  0.29919898451E+02  0.49236346782E+02  0.00000000000E+00 0.  1.
        -11    1    5    5    0    0 -0.30746617728E+03  0.27159489298E+03  0.70023698472E+02  0.41617610985E+03  0.00000000000E+00 0. -1.
          5    1    6    6  503    0  0.32498273685E+02  0.17863496731E+02 -0.44014553891E+02  0.57746110365E+02  0.47000000000E+01 0. -1.
         -5    1    6    6    0  503  0.18311327986E+03  0.85920738334E+02 -0.28669466843E+01  0.20234415217E+03  0.47000000000E+01 0.  1.
<mgrwt>
<rscale>  0 0.54742586E+03</rscale>
<asrwt>0</asrwt>
<pdfrwt beam="1">  1        1 0.74743800E-01 0.54742586E+03</pdfrwt>
<pdfrwt beam="2">  1       -1 0.11956588E+00 0.54742586E+03</pdfrwt>
<totfact> 0.30174796E+01</totfact>
</mgrwt>
</event>
<event>
12    1  0.4031456E-008  0.1447596E+04  0.7818608E-02  0.8920069E-01
         -1   -1    0    0    0  501 -0.00000000000E+00  0.00000000000E+00  0.18069447285E+04  0.18069447285E+04  0.00000000000E+00 0.  1.
          1   -1    0    0  501    0  0.00000000000E+00 -0.00000000000E+00 -0.14474766271E+04  0.14474766271E+04  0.00000000000E+00 0. -1.
         23    2    1    2    0    0 -0.10907221522E+04  0.88961517769E+03 -0.50375976748E+03  0.14976670301E+04  0.90236644753E+02 0.  0.
    5000000    2    1    2    0    0  0.10907221522E+04 -0.88961517769E+03  0.86322786894E+03  0.17567543255E+04  0.59994452146E+03 0.  0.
         23    2    4    4    0    0  0.70541237101E+03 -0.28663613956E+03  0.24182293873E+03  0.80424052839E+03  0.92507319391E+02 0.  0.
         23    2    4    4    0    0  0.38530978119E+03 -0.60297903813E+03  0.62140493021E+03  0.95251379712E+03  0.95347252229E+02 0.  0.
          2    1    3    3  502    0 -0.58000958691E+03  0.52050967014E+03 -0.30581037133E+03  0.83717466566E+03  0.00000000000E+00 0. -1.
         -2    1    3    3    0  502 -0.51071256529E+03  0.36910550755E+03 -0.19794939615E+03  0.66049236444E+03  0.00000000000E+00 0.  1.
         11    1    5    5    0    0  0.53617224527E+03 -0.24688533803E+03  0.21562274250E+03  0.62843155062E+03  0.00000000000E+00 0. -1.
        -11    1    5    5    0    0  0.16924012574E+03 -0.39750801526E+02  0.26200196222E+02  0.17580897777E+03  0.00000000000E+00 0.  1.
          5    1    6    6  503    0  0.27194902209E+03 -0.34150901826E+03  0.38907528964E+03  0.58479599107E+03  0.47000000000E+01 0. -1.
         -5    1    6    6    0  503  0.11336075910E+03 -0.26147001987E+03  0.23232964057E+03  0.36771780605E+03  0.47000000000E+01 0.  1.
<mgrwt>
<rscale>  0 0.14475957E+04</rscale>
<asrwt>0</asrwt>
<pdfrwt beam="1">  1        1 0.22268871E+00 0.14475957E+04</pdfrwt>
<pdfrwt beam="2">  1       -1 0.27799150E+00 0.14475957E+04</pdfrwt>
<totfact> 0.31059001E-01</totfact>
</mgrwt>
</event>
<event>
12    1  0.3127365E-008  0.8068566E+03  0.7818608E-02  0.9550145E-01
          1   -1    0    0  501    0  0.00000000000E+00  0.00000000000E+00  0.23080809221E+03  0.23080809221E+03  0.00000000000E+00 0. -1.
         -1   -1    0    0    0  501 -0.00000000000E+00 -0.00000000000E+00 -0.35889547985E+04  0.35889547985E+04  0.00000000000E+00 0.  1.
         23    2    1    2    0    0 -0.70167015942E+03 -0.92586520024E+02 -0.23205889705E+04  0.24278548277E+04  0.91829287849E+02 0.  0.
    5000000    2    1    2    0    0  0.70167015942E+03  0.92586520024E+02 -0.10375577358E+04  0.13919080630E+04  0.59997393648E+03 0.  0.
         23    2    4    4    0    0 -0.43239995194E+02  0.12067141823E+03 -0.31237806183E+03  0.34776411893E+03  0.83237855196E+02 0.  0.
         23    2    4    4    0    0  0.74491015462E+03 -0.28084898207E+02 -0.72517967397E+03  0.10441439441E+04  0.93118829906E+02 0.  0.
          2    1    3    3  502    0 -0.35864674190E+03 -0.91363257390E+02 -0.11563124273E+04  0.12140976731E+04  0.00000000000E+00 0. -1.
         -2    1    3    3    0  502 -0.34302341752E+03 -0.12232626339E+01 -0.11642765431E+04  0.12137571546E+04  0.00000000000E+00 0.  1.
         11    1    5    5    0    0  0.21076364529E+02  0.51046153329E+02 -0.84352205589E+02  0.10082270329E+03  0.00000000000E+00 0.  1.
        -11    1    5    5    0    0 -0.64316359723E+02  0.69625264902E+02 -0.22802585625E+03  0.24694141564E+03  0.00000000000E+00 0. -1.
          5    1    6    6  503    0  0.47946609322E+03 -0.59791897261E+02 -0.48759479746E+03  0.68646455264E+03  0.47000000000E+01 0. -1.
         -5    1    6    6    0  503  0.26544406140E+03  0.31706999053E+02 -0.23758487651E+03  0.35767939145E+03  0.47000000000E+01 0.  1.
<mgrwt>
<rscale>  0 0.80685659E+03</rscale>
<asrwt>0</asrwt>
<pdfrwt beam="1">  1        1 0.35508941E-01 0.80685659E+03</pdfrwt>
<pdfrwt beam="2">  1       -1 0.55214683E+00 0.80685659E+03</pdfrwt>
<totfact> 0.92924367E-02</totfact>
</mgrwt>
</event>
<event>
12    1  0.3127365E-008  0.1276075E+04  0.7818608E-02  0.9048756E-01
         -2   -1    0    0    0  501 -0.00000000000E+00  0.00000000000E+00  0.13039885547E+04  0.13039885547E+04  0.00000000000E+00 0.  1.
          2   -1    0    0  501    0  0.00000000000E+00 -0.00000000000E+00 -0.13903075271E+04  0.13903075271E+04  0.00000000000E+00 0. -1.
         23    2    1    2    0    0  0.11199341933E+04  0.58080438353E+03  0.16259376805E+03  0.12752985168E+04  0.91450774890E+02 0.  0.
    5000000    2    1    2    0    0 -0.11199341933E+04 -0.58080438353E+03 -0.24891274045E+03  0.14189975650E+04  0.60000850631E+03 0.  0.
         23    2    4    4    0    0 -0.16588729989E+03 -0.15817986858E+03 -0.27755833389E+03  0.37111532202E+03  0.90268967196E+02 0.  0.
         23    2    4    4    0    0 -0.95404689344E+03 -0.42262451496E+03  0.28645593444E+02  0.10478822429E+04  0.91758757036E+02 0.  0.
          2    1    3    3  502    0  0.55490625297E+03  0.29414501439E+03  0.35194253088E+02  0.62903169596E+03  0.00000000000E+00 0.  1.
         -2    1    3    3    0  502  0.56502794036E+03  0.28665936914E+03  0.12739951496E+03  0.64626682084E+03  0.00000000000E+00 0. -1.
         11    1    5    5    0    0 -0.14917564716E+03 -0.91194525888E+02 -0.17412295732E+03  0.24675619449E+03  0.00000000000E+00 0.  1.
        -11    1    5    5    0    0 -0.16711652734E+02 -0.66985342689E+02 -0.10343537657E+03  0.12435912753E+03  0.00000000000E+00 0. -1.
          5    1    6    6  503    0 -0.36549478885E+03 -0.11927772511E+03  0.30905568477E+02  0.38573418380E+03  0.47000000000E+01 0. -1.
         -5    1    6    6    0  503 -0.58855210459E+03 -0.30334678984E+03 -0.22599750330E+01  0.66214805913E+03  0.47000000000E+01 0.  1.
<mgrwt>
<rscale>  0 0.12760753E+04</rscale>
<asrwt>0</asrwt>
<pdfrwt beam="1">  1        2 0.21389347E+00 0.12760753E+04</pdfrwt>
<pdfrwt beam="2">  1       -2 0.20061362E+00 0.12760753E+04</pdfrwt>
<totfact> 0.18594214E+00</totfact>
</mgrwt>
</event>
<event>
12    1  0.3127365E-008  0.6836287E+03  0.7818608E-02  0.9745646E-01
         -2   -1    0    0    0  501 -0.00000000000E+00  0.00000000000E+00  0.57674388670E+03  0.57674388670E+03  0.00000000000E+00 0.  1.
          2   -1    0    0  501    0  0.00000000000E+00 -0.00000000000E+00 -0.10649003254E+04  0.10649003254E+04  0.00000000000E+00 0. -1.
         23    2    1    2    0    0 -0.71724313434E+02  0.65925397899E+03 -0.26437965858E+03  0.71980580084E+03  0.91997832025E+02 0.  0.
    5000000    2    1    2    0    0  0.71724313434E+02 -0.65925397899E+03 -0.22377678011E+03  0.92183841125E+03  0.59995818453E+03 0.  0.
         23    2    4    4    0    0  0.10394302053E+03 -0.31104901049E+03  0.17708181654E+03  0.38361436934E+03  0.90809559922E+02 0.  0.
         23    2    4    4    0    0 -0.32218707101E+02 -0.34820496850E+03 -0.40085859664E+03  0.53822404191E+03  0.81931432371E+02 0.  0.
          1    1    3    3  502    0  0.18514492335E+02  0.15460268276E+03 -0.44131563306E+02  0.16184057224E+03  0.00000000000E+00 0. -1.
         -1    1    3    3    0  502 -0.90238805769E+02  0.50465129624E+03 -0.22024809528E+03  0.55796522861E+03  0.00000000000E+00 0.  1.
         11    1    5    5    0    0  0.11794410963E+03 -0.23805373427E+03  0.14495554050E+03  0.30264253191E+03  0.00000000000E+00 0.  1.
        -11    1    5    5    0    0 -0.14001089093E+02 -0.72995276217E+02  0.32126276038E+02  0.80971837436E+02  0.00000000000E+00 0. -1.
          5    1    6    6  503    0 -0.58696822710E+02 -0.20988404832E+03 -0.23334352671E+03  0.31932416475E+03  0.47000000000E+01 0. -1.
         -5    1    6    6    0  503  0.26478115610E+02 -0.13832092019E+03 -0.16751506993E+03  0.21889987716E+03  0.47000000000E+01 0.  1.
<mgrwt>
<rscale>  0 0.68362873E+03</rscale>
<asrwt>0</asrwt>
<pdfrwt beam="1">  1        2 0.16383082E+00 0.68362873E+03</pdfrwt>
<pdfrwt beam="2">  1       -2 0.88729829E-01 0.68362873E+03</pdfrwt>
<totfact> 0.25626310E+01</totfact>
</mgrwt>
</event>
<event>
12    1  0.3127365E-008  0.1136780E+04  0.7818608E-02  0.9170067E-01
          2   -1    0    0  501    0  0.00000000000E+00  0.00000000000E+00  0.27098802564E+04  0.27098802564E+04  0.00000000000E+00 0. -1.
         -2   -1    0    0    0  501 -0.00000000000E+00 -0.00000000000E+00 -0.48886249512E+03  0.48886249512E+03  0.00000000000E+00 0.  1.
         23    2    1    2    0    0  0.10456084501E+04  0.19589207263E+03  0.12058593371E+04  0.16106116585E+04  0.91117717721E+02 0.  0.
    5000000    2    1    2    0    0 -0.10456084501E+04 -0.19589207263E+03  0.10151584242E+04  0.15881310930E+04  0.59995250438E+03 0.  0.
         23    2    4    4    0    0 -0.62839439962E+03  0.15464728669E+03  0.67169067896E+03  0.93749439391E+03  0.94509606162E+02 0.  0.
         23    2    4    4    0    0 -0.41721405048E+03 -0.35053935932E+03  0.34346774520E+03  0.65063669913E+03  0.91720313530E+02 0.  0.
          3    1    3    3  502    0  0.93467695912E+03  0.14819869226E+03  0.10518773271E+04  0.14149310166E+04  0.00000000000E+00 0. -1.
         -3    1    3    3    0  502  0.11093149098E+03  0.47693380367E+02  0.15398201001E+03  0.19568064193E+03  0.00000000000E+00 0.  1.
         13    1    5    5    0    0 -0.49069122623E+03  0.15984349463E+03  0.53790488080E+03  0.74543241348E+03  0.00000000000E+00 0. -1.
        -13    1    5    5    0    0 -0.13770317339E+03 -0.51962079363E+01  0.13378579815E+03  0.19206198043E+03  0.00000000000E+00 0.  1.
          5    1    6    6  503    0 -0.16627989681E+03 -0.19915111699E+03  0.15976441019E+03  0.30472434797E+03  0.47000000000E+01 0. -1.
         -5    1    6    6    0  503 -0.25093415367E+03 -0.15138824233E+03  0.18370333501E+03  0.34591235117E+03  0.47000000000E+01 0.  1.
<mgrwt>
<rscale>  0 0.11367796E+04</rscale>
<asrwt>0</asrwt>
<pdfrwt beam="1">  1        2 0.41690465E+00 0.11367796E+04</pdfrwt>
<pdfrwt beam="2">  1       -2 0.75209616E-01 0.11367796E+04</pdfrwt>
<totfact> 0.41454369E+00</totfact>
</mgrwt>
</event>
<event>
12    1  0.3127365E-008  0.6711559E+03  0.7818608E-02  0.9767872E-01
          2   -1    0    0  501    0  0.00000000000E+00  0.00000000000E+00  0.10503667671E+04  0.10503667671E+04  0.00000000000E+00 0. -1.
         -2   -1    0    0    0  501 -0.00000000000E+00 -0.00000000000E+00 -0.53612560557E+03  0.53612560557E+03  0.00000000000E+00 0.  1.
         23    2    1    2    0    0 -0.96729934518E+02 -0.58559768632E+03  0.52430383384E+01  0.60068715224E+03  0.92283448974E+02 0.  0.
    5000000    2    1    2    0    0  0.96729934518E+02  0.58559768632E+03  0.50899812320E+03  0.98580522043E+03  0.60037614272E+03 0.  0.
         23    2    4    4    0    0 -0.68512795348E+02  0.56755878815E+03  0.54174109628E+03  0.79283843948E+03  0.91062586043E+02 0.  0.
         23    2    4    4    0    0  0.16524272987E+03  0.18038898174E+02 -0.32742973089E+02  0.19296678095E+03  0.92377024433E+02 0.  0.
          4    1    3    3  502    0 -0.17331694657E+01 -0.12350930532E+03 -0.31597161505E+02  0.12749875683E+03  0.00000000000E+00 0.  1.
         -4    1    3    3    0  502 -0.94996765052E+02 -0.46208838100E+03  0.36840199843E+02  0.47318839541E+03  0.00000000000E+00 0. -1.
         11    1    5    5    0    0 -0.82532464645E+02  0.34007625478E+03  0.35091416382E+03  0.49558472248E+03  0.00000000000E+00 0. -1.
        -11    1    5    5    0    0  0.14019669297E+02  0.22748253337E+03  0.19082693247E+03  0.29725371700E+03  0.00000000000E+00 0.  1.
          5    1    6    6  503    0  0.13447429209E+03  0.26008153011E+02  0.12345627926E+02  0.13760183060E+03  0.47000000000E+01 0. -1.
         -5    1    6    6    0  503  0.30768437778E+02 -0.79692548375E+01 -0.45088601015E+02  0.55364950352E+02  0.47000000000E+01 0.  1.
<mgrwt>
<rscale>  0 0.67115589E+03</rscale>
<asrwt>0</asrwt>
<pdfrwt beam="1">  1        2 0.16159489E+00 0.67115589E+03</pdfrwt>
<pdfrwt beam="2">  1       -2 0.82480862E-01 0.67115589E+03</pdfrwt>
<totfact> 0.30940741E+01</totfact>
</mgrwt>
</event>
<event>
12    1  0.3127365E-008  0.8700887E+03  0.7818608E-02  0.9463764E-01
          3   -1    0    0  501    0  0.00000000000E+00  0.00000000000E+00  0.29354160335E+03  0.29354160335E+03  0.00000000000E+00 0. -1.
         -3   -1    0    0    0  501 -0.00000000000E+00 -0.00000000000E+00 -0.26309772576E+04  0.26309772576E+04  0.00000000000E+00 0.  1.
         23    2    1    2    0    0  0.43069310589E+03  0.64012115704E+03 -0.11167402570E+04  0.13608304412E+04  0.97463023984E+02 0.  0.
    5000000    2    1    2    0    0 -0.43069310589E+03 -0.64012115704E+03 -0.12206953973E+04  0.15636884197E+04  0.59981044830E+03 0.  0.
         23    2    4    4    0    0 -0.47565968990E+02  0.96615486776E+02 -0.15803699760E+03  0.21168932523E+03  0.90772265112E+02 0.  0.
         23    2    4    4    0    0 -0.38312713690E+03 -0.73673664382E+03 -0.10626583997E+04  0.13519990945E+04  0.95348789931E+02 0.  0.
          4    1    3    3  502    0  0.23271875844E+03  0.27250052081E+03 -0.47023977583E+03  0.59121908050E+03  0.00000000000E+00 0. -1.
         -4    1    3    3    0  502  0.19797434746E+03  0.36762063623E+03 -0.64650048113E+03  0.76961136071E+03  0.00000000000E+00 0.  1.
         11    1    5    5    0    0 -0.45697678653E+02  0.10783751228E+03 -0.16176945312E+03  0.19971620578E+03  0.00000000000E+00 0. -1.
        -11    1    5    5    0    0 -0.18682903368E+01 -0.11222025503E+02  0.37324555151E+01  0.11973119449E+02  0.00000000000E+00 0.  1.
          5    1    6    6  503    0 -0.25699275736E+03 -0.39279065193E+03 -0.58837532088E+03  0.75268677535E+03  0.47000000000E+01 0. -1.
         -5    1    6    6    0  503 -0.12613437955E+03 -0.34394599189E+03 -0.47428307879E+03  0.59931231913E+03  0.47000000000E+01 0.  1.
<mgrwt>
<rscale>  0 0.87008872E+03</rscale>
<asrwt>0</asrwt>
<pdfrwt beam="1">  1        3 0.45160248E-01 0.87008872E+03</pdfrwt>
<pdfrwt beam="2">  1       -3 0.40476572E+00 0.87008872E+03</pdfrwt>
<totfact> 0.12960507E-01</totfact>
</mgrwt>
</event>
<event>
12    1  0.3127365E-008  0.9495746E+03  0.7818608E-02  0.9365648E-01
          2   -1    0    0  501    0  0.00000000000E+00  0.00000000000E+00  0.16181355325E+04  0.16181355325E+04  0.00000000000E+00 0. -1.
         -2   -1    0    0    0  501 -0.00000000000E+00 -0.00000000000E+00 -0.57005361432E+03  0.57005361432E+03  0.00000000000E+00 0.  1.
         23    2    1    2    0    0 -0.49735938776E+03 -0.70719257715E+03  0.46774436669E+03  0.98715450068E+03  0.90562209959E+02 0.  0.
    5000000    2    1    2    0    0  0.49735938776E+03  0.70719257715E+03  0.58033755152E+03  0.12010346462E+04  0.59850216861E+03 0.  0.
         23    2    4    4    0    0  0.19939657916E+03 -0.48639892145E+02  0.19141796289E+03  0.29570687481E+03  0.93149795512E+02 0.  0.
         23    2    4    4    0    0  0.29796280859E+03  0.75583246929E+03  0.38891958863E+03  0.90532777136E+03  0.91078923091E+02 0.  0.
          2    1    3    3  502    0 -0.27568209353E+02 -0.67536658266E+02  0.62395509310E+02  0.95991697342E+02  0.00000000000E+00 0. -1.
         -2    1    3    3    0  502 -0.46979117840E+03 -0.63965591888E+03  0.40534885738E+03  0.89116280333E+03  0.00000000000E+00 0.  1.
         13    1    5    5    0    0  0.11036008192E+03 -0.66177701092E+02  0.14469585941E+03  0.19363813554E+03  0.00000000000E+00 0.  1.
        -13    1    5    5    0    0  0.89036497241E+02  0.17537808947E+02  0.46722103482E+02  0.10206873928E+03  0.00000000000E+00 0. -1.
          5    1    6    6  503    0  0.20246704797E+03  0.47138961262E+03  0.29011564055E+03  0.58939820774E+03  0.47000000000E+01 0. -1.
         -5    1    6    6    0  503  0.95495760628E+02  0.28444285667E+03  0.98803948071E+02  0.31592956361E+03  0.47000000000E+01 0.  1.
<mgrwt>
<rscale>  0 0.94957465E+03</rscale>
<asrwt>0</asrwt>
<pdfrwt beam="1">  1        2 0.24894393E+00 0.94957465E+03</pdfrwt>
<pdfrwt beam="2">  1       -2 0.87700557E-01 0.94957465E+03</pdfrwt>
<totfact> 0.12251735E+01</totfact>
</mgrwt>
</event>
<event>
12    1  0.3127365E-008  0.1050286E+04  0.7818608E-02  0.9255049E-01
          2   -1    0    0  501    0  0.00000000000E+00  0.00000000000E+00  0.32931908287E+04  0.32931908287E+04  0.00000000000E+00 0. -1.
         -2   -1    0    0    0  501 -0.00000000000E+00 -0.00000000000E+00 -0.34802864037E+03  0.34802864037E+03  0.00000000000E+00 0.  1.
         23    2    1    2    0    0  0.74224274893E+03  0.64648393881E+03  0.13303677756E+04  0.16574503904E+04  0.91638402206E+02 0.  0.
    5000000    2    1    2    0    0 -0.74224274893E+03 -0.64648393881E+03  0.16147944127E+04  0.19837690787E+04  0.59909346569E+03 0.  0.
         23    2    4    4    0    0 -0.27492315594E+03 -0.57461332357E+03  0.70512850094E+03  0.95459916320E+03  0.91050240211E+02 0.  0.
         23    2    4    4    0    0 -0.46731959299E+03 -0.71870615237E+02  0.90966591179E+03  0.10291699155E+04  0.90253290909E+02 0.  0.
          3    1    3    3  502    0  0.30062003899E+03  0.23113608380E+03  0.44898947695E+03  0.58769707119E+03  0.00000000000E+00 0. -1.
         -3    1    3    3    0  502  0.44162270994E+03  0.41534785500E+03  0.88137829862E+03  0.10697533192E+04  0.00000000000E+00 0.  1.
         13    1    5    5    0    0 -0.15180088371E+03 -0.40169065354E+03  0.50457102083E+03  0.66256381165E+03  0.00000000000E+00 0.  1.
        -13    1    5    5    0    0 -0.12312227223E+03 -0.17292267003E+03  0.20055748011E+03  0.29203535155E+03  0.00000000000E+00 0. -1.
          5    1    6    6  503    0 -0.41822820016E+03 -0.69972327419E+02  0.74467792287E+03  0.85695872294E+03  0.47000000000E+01 0. -1.
         -5    1    6    6    0  503 -0.49091392833E+02 -0.18982878182E+01  0.16498798892E+03  0.17221119254E+03  0.47000000000E+01 0.  1.
<mgrwt>
<rscale>  0 0.10502862E+04</rscale>
<asrwt>0</asrwt>
<pdfrwt beam="1">  1        2 0.50664472E+00 0.10502862E+04</pdfrwt>
<pdfrwt beam="2">  1       -2 0.53542870E-01 0.10502862E+04</pdfrwt>
<totfact> 0.37856342E+00</totfact>
</mgrwt>
</event>
<event>
12    1  0.3127365E-008  0.8770671E+03  0.7818608E-02  0.9454712E-01
         -1   -1    0    0    0  501 -0.00000000000E+00  0.00000000000E+00  0.15945340654E+04  0.15945340654E+04  0.00000000000E+00 0.  1.
          1   -1    0    0  501    0  0.00000000000E+00 -0.00000000000E+00 -0.57748072752E+03  0.57748072752E+03  0.00000000000E+00 0. -1.
         23    2    1    2    0    0  0.72595447497E+03 -0.30391894301E+03  0.58811266319E+02  0.79442734185E+03  0.90991278615E+02 0.  0.
    5000000    2    1    2    0    0 -0.72595447497E+03  0.30391894301E+03  0.95824207161E+03  0.13775874511E+04  0.60011889990E+03 0.  0.
         23    2    4    4    0    0 -0.16494282112E+03  0.34754569293E+03  0.54599472440E+03  0.67401828406E+03  0.90533227353E+02 0.  0.
         23    2    4    4    0    0 -0.56101165385E+03 -0.43626749920E+02  0.41224734721E+03  0.70356916705E+03  0.91784140717E+02 0.  0.
          1    1    3    3  502    0  0.47555271684E+03 -0.24510628660E+03  0.36514281469E+02  0.53624693097E+03  0.00000000000E+00 0. -1.
         -1    1    3    3    0  502  0.25040175813E+03 -0.58812656412E+02  0.22296984850E+02  0.25818041088E+03  0.00000000000E+00 0.  1.
         11    1    5    5    0    0 -0.98172299217E+01  0.95994368885E+02  0.17345633030E+03  0.19849029040E+03  0.00000000000E+00 0.  1.
        -11    1    5    5    0    0 -0.15512559120E+03  0.25155132405E+03  0.37253839410E+03  0.47552799366E+03  0.00000000000E+00 0. -1.
          5    1    6    6  503    0 -0.13816583142E+03  0.27825385067E+02  0.11123116430E+03  0.17960654481E+03  0.47000000000E+01 0. -1.
         -5    1    6    6    0  503 -0.42284582243E+03 -0.71452134986E+02  0.30101618290E+03  0.52396262224E+03  0.47000000000E+01 0.  1.
<mgrwt>
<rscale>  0 0.87706714E+03</rscale>
<asrwt>0</asrwt>
<pdfrwt beam="1">  1        1 0.88843190E-01 0.87706714E+03</pdfrwt>
<pdfrwt beam="2">  1       -1 0.24531293E+00 0.87706714E+03</pdfrwt>
<totfact> 0.27718271E+00</totfact>
</mgrwt>
</event>
<event>
12    1  0.3127365E-008  0.1105133E+04  0.7818608E-02  0.9200203E-01
         -1   -1    0    0    0  501 -0.00000000000E+00  0.00000000000E+00  0.13576072097E+04  0.13576072097E+04  0.00000000000E+00 0.  1.
          1   -1    0    0  501    0  0.00000000000E+00 -0.00000000000E+00 -0.92085192420E+03  0.92085192420E+03  0.00000000000E+00 0. -1.
         23    2    1    2    0    0 -0.63166882080E+03 -0.81998071642E+03  0.17404555758E+03  0.10535397161E+04  0.90995619878E+02 0.  0.
    5000000    2    1    2    0    0  0.63166882080E+03  0.81998071642E+03  0.26270972789E+03  0.12249194178E+04  0.60003108620E+03 0.  0.
         23    2    4    4    0    0  0.70632899531E+03  0.63816732348E+03  0.11655393335E+03  0.96316336433E+03  0.89110406971E+02 0.  0.
         23    2    4    4    0    0 -0.74660174516E+02  0.18181339294E+03  0.14615579454E+03  0.26175605342E+03  0.92328022382E+02 0.  0.
          1    1    3    3  502    0 -0.29671829494E+03 -0.31173753702E+03  0.72390305806E+02  0.43641997538E+03  0.00000000000E+00 0. -1.
         -1    1    3    3    0  502 -0.33495052586E+03 -0.50824317940E+03  0.10165525177E+03  0.61711974072E+03  0.00000000000E+00 0.  1.
         13    1    5    5    0    0  0.25817054969E+03  0.28653726412E+03  0.65871478970E+02  0.39127316315E+03  0.00000000000E+00 0. -1.
        -13    1    5    5    0    0  0.44815844562E+03  0.35163005937E+03  0.50682454375E+02  0.57189020118E+03  0.00000000000E+00 0.  1.
          5    1    6    6  503    0 -0.72338144522E+02  0.60422524653E+02  0.49939021014E+02  0.10676930485E+03  0.47000000000E+01 0. -1.
         -5    1    6    6    0  503 -0.23220299936E+01  0.12139086828E+03  0.96216773527E+02  0.15498674857E+03  0.47000000000E+01 0.  1.
<mgrwt>
<rscale>  0 0.11051334E+04</rscale>
<asrwt>0</asrwt>
<pdfrwt beam="1">  1        1 0.14166953E+00 0.11051334E+04</pdfrwt>
<pdfrwt beam="2">  1       -1 0.20886265E+00 0.11051334E+04</pdfrwt>
<totfact> 0.22713369E+00</totfact>
</mgrwt>
</event>
<event>
12    1  0.3127365E-008  0.4667623E+03  0.7818608E-02  0.1022838E+00
          2   -1    0    0  501    0  0.00000000000E+00  0.00000000000E+00  0.13403892512E+04  0.13403892512E+04  0.00000000000E+00 0. -1.
         -2   -1    0    0    0  501 -0.00000000000E+00 -0.00000000000E+00 -0.24277016650E+03  0.24277016650E+03  0.00000000000E+00 0.  1.
         23    2    1    2    0    0  0.21870078418E+03 -0.34221244894E+03  0.40703304703E+03  0.58222032384E+03  0.91461526914E+02 0.  0.
    5000000    2    1    2    0    0 -0.21870078418E+03  0.34221244894E+03  0.69058603765E+03  0.10009390939E+04  0.60002550029E+03 0.  0.
         23    2    4    4    0    0 -0.11571673870E+02 -0.29799182385E+02  0.52585317183E+03  0.53505212329E+03  0.93473640184E+02 0.  0.
         23    2    4    4    0    0 -0.20712911031E+03  0.37201163132E+03  0.16473286583E+03  0.46588697057E+03  0.92836577298E+02 0.  0.
          1    1    3    3  502    0  0.20915300521E+03 -0.27494861599E+03  0.31266675490E+03  0.46594229325E+03  0.00000000000E+00 0. -1.
         -1    1    3    3    0  502  0.95477789713E+01 -0.67263832951E+02  0.94366292130E+02  0.11627803059E+03  0.00000000000E+00 0.  1.
         13    1    5    5    0    0  0.34918190396E+02  0.59615894658E+01  0.28340422217E+03  0.28560947763E+03  0.00000000000E+00 0. -1.
        -13    1    5    5    0    0 -0.46489864266E+02 -0.35760771851E+02  0.24244894966E+03  0.24944264566E+03  0.00000000000E+00 0.  1.
          5    1    6    6  503    0 -0.12451011797E+03  0.23500219583E+03  0.54436364321E+02  0.27150360823E+03  0.47000000000E+01 0. -1.
         -5    1    6    6    0  503 -0.82618992342E+02  0.13700943550E+03  0.11029650151E+03  0.19438336234E+03  0.47000000000E+01 0.  1.
<mgrwt>
<rscale>  0 0.46676225E+03</rscale>
<asrwt>0</asrwt>
<pdfrwt beam="1">  1        2 0.20621373E+00 0.46676225E+03</pdfrwt>
<pdfrwt beam="2">  1       -2 0.37349257E-01 0.46676225E+03</pdfrwt>
<totfact> 0.11080554E+02</totfact>
</mgrwt>
</event>
<event>
12    1  0.3127365E-008  0.1251362E+04  0.7818608E-02  0.9069051E-01
          1   -1    0    0  501    0  0.00000000000E+00  0.00000000000E+00  0.18387206358E+04  0.18387206358E+04  0.00000000000E+00 0. -1.
         -1   -1    0    0    0  501 -0.00000000000E+00 -0.00000000000E+00 -0.93956896432E+03  0.93956896432E+03  0.00000000000E+00 0.  1.
         23    2    1    2    0    0 -0.43271015041E+03  0.11473388944E+04  0.64890741410E+03  0.13903468162E+04  0.91426607548E+02 0.  0.
    5000000    2    1    2    0    0  0.43271015041E+03 -0.11473388944E+04  0.25024425741E+03  0.13879427839E+04  0.60011529749E+03 0.  0.
         23    2    4    4    0    0 -0.13608906015E+02 -0.13736633484E+03 -0.13634239966E+03  0.21453345672E+03  0.91545845550E+02 0.  0.
         23    2    4    4    0    0  0.44631905642E+03 -0.10099725595E+04  0.38658665707E+03  0.11734093272E+04  0.90525878148E+02 0.  0.
          3    1    3    3  502    0 -0.14541120777E+03  0.50540943602E+03  0.25952722023E+03  0.58646184480E+03  0.00000000000E+00 0. -1.
         -3    1    3    3    0  502 -0.28729894264E+03  0.64192945833E+03  0.38938019388E+03  0.80388497144E+03  0.00000000000E+00 0.  1.
         11    1    5    5    0    0 -0.43658857622E+02 -0.27210829087E+02 -0.43502228281E+02  0.67371870494E+02  0.00000000000E+00 0.  1.
        -11    1    5    5    0    0  0.30049951607E+02 -0.11015550575E+03 -0.92840171380E+02  0.14716158623E+03  0.00000000000E+00 0. -1.
          5    1    6    6  503    0  0.14683848864E+03 -0.23599492184E+03  0.97364292894E+02  0.29454548106E+03  0.47000000000E+01 0. -1.
         -5    1    6    6    0  503  0.29948056778E+03 -0.77397763768E+03  0.28922236418E+03  0.87886384614E+03  0.47000000000E+01 0.  1.
<mgrwt>
<rscale>  0 0.12513618E+04</rscale>
<asrwt>0</asrwt>
<pdfrwt beam="1">  1        1 0.28288010E+00 0.12513618E+04</pdfrwt>
<pdfrwt beam="2">  1       -1 0.14454907E+00 0.12513618E+04</pdfrwt>
<totfact> 0.14421382E+00</totfact>
</mgrwt>
</event>
<event>
12    1  0.3127365E-008  0.6273681E+03  0.7818608E-02  0.9850198E-01
         -2   -1    0    0    0  501 -0.00000000000E+00  0.00000000000E+00  0.55303026591E+03  0.55303026591E+03  0.00000000000E+00 0.  1.
          2   -1    0    0  501    0  0.00000000000E+00 -0.00000000000E+00 -0.91650282157E+03  0.91650282157E+03  0.00000000000E+00 0. -1.
         23    2    1    2    0    0 -0.20596505398E+03  0.50544545062E+03 -0.35674765227E+03  0.65832669245E+03  0.90710746771E+02 0.  0.
    5000000    2    1    2    0    0  0.20596505398E+03 -0.50544545062E+03 -0.67249033882E+01  0.81120639502E+03  0.60009489581E+03 0.  0.
         23    2    4    4    0    0 -0.91727955182E+02 -0.33335234648E+03  0.18799904743E+03  0.40554679436E+03  0.97911980431E+02 0.  0.
         23    2    4    4    0    0  0.29769300917E+03 -0.17209310414E+03 -0.19472395082E+03  0.40565960066E+03  0.91679498157E+02 0.  0.
          2    1    3    3  502    0 -0.16236887584E+03  0.36572907389E+03 -0.21356309525E+03  0.45357535535E+03  0.00000000000E+00 0. -1.
         -2    1    3    3    0  502 -0.43596178148E+02  0.13971637673E+03 -0.14318455702E+03  0.20475133711E+03  0.00000000000E+00 0.  1.
         13    1    5    5    0    0 -0.43726172601E+02 -0.34889402341E+02  0.18205200575E+02  0.58827526669E+02  0.00000000000E+00 0.  1.
        -13    1    5    5    0    0 -0.48001782581E+02 -0.29846294414E+03  0.16979384686E+03  0.34671926769E+03  0.00000000000E+00 0. -1.
          5    1    6    6  503    0  0.16625515504E+03 -0.13245904768E+03 -0.81716988700E+02  0.22778483737E+03  0.47000000000E+01 0. -1.
         -5    1    6    6    0  503  0.13143785412E+03 -0.39634056456E+02 -0.11300696212E+03  0.17787476329E+03  0.47000000000E+01 0.  1.
<mgrwt>
<rscale>  0 0.62736812E+03</rscale>
<asrwt>0</asrwt>
<pdfrwt beam="1">  1        2 0.14100043E+00 0.62736812E+03</pdfrwt>
<pdfrwt beam="2">  1       -2 0.85081580E-01 0.62736812E+03</pdfrwt>
<totfact> 0.35304999E+01</totfact>
</mgrwt>
</event>
<event>
12    1  0.4189375E-008  0.1014961E+04  0.7818608E-02  0.9292286E-01
         -2   -1    0    0    0  501 -0.00000000000E+00  0.00000000000E+00  0.13655757088E+04  0.13655757088E+04  0.00000000000E+00 0.  1.
          2   -1    0    0  501    0  0.00000000000E+00 -0.00000000000E+00 -0.91415287734E+03  0.91415287734E+03  0.00000000000E+00 0. -1.
         23    2    1    2    0    0 -0.97124485030E+03 -0.25975388605E+03  0.45901557386E+03  0.11088865607E+04  0.90252240503E+02 0.  0.
    5000000    2    1    2    0    0  0.97124485030E+03  0.25975388605E+03 -0.75927424369E+01  0.11708420254E+04  0.60002063145E+03 0.  0.
         23    2    4    4    0    0  0.82610358111E+03  0.20521315216E+03  0.21729947791E+03  0.88324587652E+03  0.91349059892E+02 0.  0.
         23    2    4    4    0    0  0.14514126918E+03  0.54540733890E+02 -0.22489222035E+03  0.28759614888E+03  0.89968630106E+02 0.  0.
          4    1    3    3  502    0 -0.58222475680E+03 -0.11451537505E+03  0.24832108283E+03  0.64324396517E+03  0.00000000000E+00 0. -1.
         -4    1    3    3    0  502 -0.38902009349E+03 -0.14523851100E+03  0.21069449103E+03  0.46564259553E+03  0.00000000000E+00 0.  1.
         11    1    5    5    0    0  0.38632628626E+03  0.90507596945E+02  0.54670866645E+02  0.40053530209E+03  0.00000000000E+00 0.  1.
        -11    1    5    5    0    0  0.43977729485E+03  0.11470555521E+03  0.16262861127E+03  0.48271057443E+03  0.00000000000E+00 0. -1.
          5    1    6    6  503    0  0.89866511141E+02  0.68169436472E+02 -0.10230614594E+03  0.15235386241E+03  0.47000000000E+01 0. -1.
         -5    1    6    6    0  503  0.55274758042E+02 -0.13628702582E+02 -0.12258607441E+03  0.13524228647E+03  0.47000000000E+01 0.  1.
<mgrwt>
<rscale>  0 0.10149614E+04</rscale>
<asrwt>0</asrwt>
<pdfrwt beam="1">  1        2 0.14063890E+00 0.10149614E+04</pdfrwt>
<pdfrwt beam="2">  1       -2 0.21008857E+00 0.10149614E+04</pdfrwt>
<totfact> 0.32521223E+00</totfact>
</mgrwt>
</event>
<event>
12    1  0.3127365E-008  0.8873042E+03  0.7818608E-02  0.9441592E-01
          1   -1    0    0  501    0  0.00000000000E+00  0.00000000000E+00  0.53504060378E+03  0.53504060378E+03  0.00000000000E+00 0. -1.
         -1   -1    0    0    0  501 -0.00000000000E+00 -0.00000000000E+00 -0.17685843215E+04  0.17685843215E+04  0.00000000000E+00 0.  1.
         23    2    1    2    0    0  0.85810831717E+03  0.16580846521E+03 -0.65180666902E+03  0.10943589588E+04  0.94484209685E+02 0.  0.
    5000000    2    1    2    0    0 -0.85810831717E+03 -0.16580846521E+03 -0.58173704867E+03  0.12092659664E+04  0.60005320814E+03 0.  0.
         23    2    4    4    0    0 -0.24666902576E+03 -0.10504142647E+03  0.87566513252E+02  0.29591992209E+03  0.89562249289E+02 0.  0.
         23    2    4    4    0    0 -0.61143929141E+03 -0.60767038736E+02 -0.66930356192E+03  0.91334604433E+03  0.93183145569E+02 0.  0.
          4    1    3    3  502    0  0.17969393645E+03  0.12168662049E+02 -0.96734168523E+02  0.20443944456E+03  0.00000000000E+00 0.  1.
         -4    1    3    3    0  502  0.67841438072E+03  0.15363980316E+03 -0.55507250049E+03  0.88991951428E+03  0.00000000000E+00 0. -1.
         11    1    5    5    0    0 -0.22798615033E+03 -0.12094111693E+03  0.78289579044E+02  0.26969185507E+03  0.00000000000E+00 0.  1.
        -11    1    5    5    0    0 -0.18682875436E+02  0.15899690453E+02  0.92769342086E+01  0.26228067016E+02  0.00000000000E+00 0. -1.
          5    1    6    6  503    0 -0.62554444176E+02 -0.20169133549E+02 -0.11277417055E+03  0.13061376642E+03  0.47000000000E+01 0. -1.
         -5    1    6    6    0  503 -0.54888484723E+03 -0.40597905187E+02 -0.55652939137E+03  0.78273227791E+03  0.47000000000E+01 0.  1.
<mgrwt>
<rscale>  0 0.88730417E+03</rscale>
<asrwt>0</asrwt>
<pdfrwt beam="1">  1        1 0.82313940E-01 0.88730417E+03</pdfrwt>
<pdfrwt beam="2">  1       -1 0.27208989E+00 0.88730417E+03</pdfrwt>
<totfact> 0.20721308E+00</totfact>
</mgrwt>
</event>
<event>
12    1  0.3127365E-008  0.6105576E+03  0.7818608E-02  0.9883741E-01
         -1   -1    0    0    0  501 -0.00000000000E+00  0.00000000000E+00  0.37857159622E+03  0.37857159622E+03  0.00000000000E+00 0.  1.
          1   -1    0    0  501    0  0.00000000000E+00 -0.00000000000E+00 -0.10913602259E+04  0.10913602259E+04  0.00000000000E+00 0. -1.
         23    2    1    2    0    0  0.20384749493E+03  0.43621574910E+03 -0.42368737040E+03  0.64809686478E+03  0.93169616045E+02 0.  0.
    5000000    2    1    2    0    0 -0.20384749493E+03 -0.43621574910E+03 -0.28910125924E+03  0.82183495730E+03  0.59999598165E+03 0.  0.
         23    2    4    4    0    0 -0.35601032147E+03 -0.12478162573E+03 -0.24880123737E+03  0.46110908055E+03  0.91682742840E+02 0.  0.
         23    2    4    4    0    0  0.15216282654E+03 -0.31143412336E+03 -0.40300021866E+02  0.36072587674E+03  0.91402009912E+02 0.  0.
          4    1    3    3  502    0  0.13939447659E+03  0.37067492965E+03 -0.31697086872E+03  0.50724871137E+03  0.00000000000E+00 0. -1.
         -4    1    3    3    0  502  0.64453018346E+02  0.65540819448E+02 -0.10671650168E+03  0.14084815341E+03  0.00000000000E+00 0.  1.
         13    1    5    5    0    0 -0.13511184211E+03 -0.21190798145E+02 -0.47416448532E+02  0.14475005836E+03  0.00000000000E+00 0.  1.
        -13    1    5    5    0    0 -0.22089847936E+03 -0.10359082759E+03 -0.20138478884E+03  0.31635902219E+03  0.00000000000E+00 0. -1.
          5    1    6    6  503    0  0.11287387298E+03 -0.27987386493E+03 -0.57551805620E+02  0.30725265142E+03  0.47000000000E+01 0. -1.
         -5    1    6    6    0  503  0.39288953561E+02 -0.31560258428E+02  0.17251783754E+02  0.53473225325E+02  0.47000000000E+01 0.  1.
<mgrwt>
<rscale>  0 0.61055757E+03</rscale>
<asrwt>0</asrwt>
<pdfrwt beam="1">  1        1 0.16790157E+00 0.61055757E+03</pdfrwt>
<pdfrwt beam="2">  1       -1 0.58241784E-01 0.61055757E+03</pdfrwt>
<totfact> 0.40105868E+01</totfact>
</mgrwt>
</event>
<event>
12    1  0.3127365E-008  0.6871014E+03  0.7818608E-02  0.9739548E-01
          2   -1    0    0  501    0  0.00000000000E+00  0.00000000000E+00  0.34264311070E+04  0.34264311070E+04  0.00000000000E+00 0.  1.
         -2   -1    0    0    0  501 -0.00000000000E+00 -0.00000000000E+00 -0.18267543406E+03  0.18267543406E+03  0.00000000000E+00 0. -1.
         23    2    1    2    0    0  0.38495536656E+03  0.46479592413E+03  0.20787327126E+04  0.21664448744E+04  0.90154412565E+02 0.  0.
    5000000    2    1    2    0    0 -0.38495536656E+03 -0.46479592413E+03  0.11650229603E+04  0.14426616666E+04  0.59980688637E+03 0.  0.
         23    2    4    4    0    0 -0.35674482667E+03 -0.77541738858E+02  0.27182371589E+03  0.46436428261E+03  0.92013378468E+02 0.  0.
         23    2    4    4    0    0 -0.28210539885E+02 -0.38725418527E+03  0.89319924439E+03  0.97829738398E+03  0.92191337755E+02 0.  0.
          4    1    3    3  502    0  0.30716554819E+03  0.30971667229E+03  0.15263015228E+04  0.15874102902E+04  0.00000000000E+00 0. -1.
         -4    1    3    3    0  502  0.77789818364E+02  0.15507925184E+03  0.55243118987E+03  0.57903458423E+03  0.00000000000E+00 0.  1.
         13    1    5    5    0    0 -0.11832048389E+03 -0.69012702927E+02  0.83548504418E+02  0.16044576237E+03  0.00000000000E+00 0.  1.
        -13    1    5    5    0    0 -0.23842434279E+03 -0.85290359312E+01  0.18827521147E+03  0.30391852023E+03  0.00000000000E+00 0. -1.
          5    1    6    6  503    0 -0.30884316189E+01 -0.18504864813E+03  0.53559854370E+03  0.56669253621E+03  0.47000000000E+01 0. -1.
         -5    1    6    6    0  503 -0.25122108267E+02 -0.20220553714E+03  0.35760070070E+03  0.41160484778E+03  0.47000000000E+01 0.  1.
<mgrwt>
<rscale>  0 0.68710138E+03</rscale>
<asrwt>0</asrwt>
<pdfrwt beam="1">  1        2 0.52714320E+00 0.68710138E+03</pdfrwt>
<pdfrwt beam="2">  1       -2 0.28103916E-01 0.68710138E+03</pdfrwt>
<totfact> 0.11532074E+01</totfact>
</mgrwt>
</event>
<event>
12    1  0.3127365E-008  0.1295451E+04  0.7818608E-02  0.9033180E-01
         -2   -1    0    0    0  501 -0.00000000000E+00  0.00000000000E+00  0.10761110232E+04  0.10761110232E+04  0.00000000000E+00 0.  1.
          2   -1    0    0  501    0  0.00000000000E+00 -0.00000000000E+00 -0.23029634213E+04  0.23029634213E+04  0.00000000000E+00 0. -1.
         23    2    1    2    0    0 -0.11808245811E+04  0.34838747476E+03  0.35720999495E+03  0.12851541296E+04  0.91113294403E+02 0.  0.
    5000000    2    1    2    0    0  0.11808245811E+04 -0.34838747476E+03 -0.15840623931E+04  0.20939203149E+04  0.59960661766E+03 0.  0.
         23    2    4    4    0    0  0.55174432984E+02 -0.20003405512E+03 -0.21706508544E+03  0.31447750647E+03  0.93386345337E+02 0.  0.
         23    2    4    4    0    0  0.11256501481E+04 -0.14835341965E+03 -0.13669973077E+04  0.17794428084E+04  0.92941251301E+02 0.  0.
          1    1    3    3  502    0 -0.35298227855E+03  0.12944445473E+03  0.73602838254E+02  0.38310538188E+03  0.00000000000E+00 0. -1.
         -1    1    3    3    0  502 -0.82784230257E+03  0.21894302003E+03  0.28360715669E+03  0.90204874773E+03  0.00000000000E+00 0.  1.
         11    1    5    5    0    0 -0.11487629262E+02 -0.93170573642E+02 -0.13396431593E+03  0.16358227093E+03  0.00000000000E+00 0. -1.
        -11    1    5    5    0    0  0.66662062246E+02 -0.10686348147E+03 -0.83100769510E+02  0.15089523554E+03  0.00000000000E+00 0.  1.
          5    1    6    6  503    0  0.11186415444E+03  0.11218848852E+02 -0.14915541189E+03  0.18683917821E+03  0.47000000000E+01 0. -1.
         -5    1    6    6    0  503  0.10137859937E+04 -0.15957226850E+03 -0.12178418958E+04  0.15926036302E+04  0.47000000000E+01 0.  1.
<mgrwt>
<rscale>  0 0.12954515E+04</rscale>
<asrwt>0</asrwt>
<pdfrwt beam="1">  1        2 0.35430206E+00 0.12954515E+04</pdfrwt>
<pdfrwt beam="2">  1       -2 0.16555554E+00 0.12954515E+04</pdfrwt>
<totfact> 0.99799667E-01</totfact>
</mgrwt>
</event>
<event>
12    1  0.3127365E-008  0.7919141E+03  0.7818608E-02  0.9571795E-01
          2   -1    0    0  501    0  0.00000000000E+00  0.00000000000E+00  0.20757757164E+04  0.20757757164E+04  0.00000000000E+00 0. -1.
         -2   -1    0    0    0  501 -0.00000000000E+00 -0.00000000000E+00 -0.37245381126E+03  0.37245381126E+03  0.00000000000E+00 0.  1.
         23    2    1    2    0    0 -0.41083400386E+03  0.60419295825E+03  0.39890925165E+03  0.83749039552E+03  0.91803387731E+02 0.  0.
    5000000    2    1    2    0    0  0.41083400386E+03 -0.60419295825E+03  0.13044126535E+04  0.16107391322E+04  0.59929497889E+03 0.  0.
         23    2    4    4    0    0 -0.70222899785E+02 -0.15439676579E+03  0.57504861594E+02  0.19776150907E+03  0.83864106873E+02 0.  0.
         23    2    4    4    0    0  0.48105690365E+03 -0.44979619246E+03  0.12469077919E+04  0.14129776231E+04  0.89411199138E+02 0.  0.
          4    1    3    3  502    0 -0.12235845597E+03  0.25733763452E+03  0.16607584144E+03  0.32981121115E+03  0.00000000000E+00 0. -1.
         -4    1    3    3    0  502 -0.28847554789E+03  0.34685532373E+03  0.23283341021E+03  0.50767918437E+03  0.00000000000E+00 0.  1.
         11    1    5    5    0    0 -0.83194913653E+02 -0.90416938984E+02  0.47439510203E+02  0.13170847976E+03  0.00000000000E+00 0.  1.
        -11    1    5    5    0    0  0.12972013868E+02 -0.63979826808E+02  0.10065351391E+02  0.66053029308E+02  0.00000000000E+00 0. -1.
          5    1    6    6  503    0  0.26842438180E+03 -0.27474929162E+03  0.63902183889E+03  0.74559360417E+03  0.47000000000E+01 0. -1.
         -5    1    6    6    0  503  0.21263252184E+03 -0.17504690084E+03  0.60788595304E+03  0.66738401895E+03  0.47000000000E+01 0.  1.
<mgrwt>
<rscale>  0 0.79191405E+03</rscale>
<asrwt>0</asrwt>
<pdfrwt beam="1">  1        2 0.31935010E+00 0.79191405E+03</pdfrwt>
<pdfrwt beam="2">  1       -2 0.57300587E-01 0.79191405E+03</pdfrwt>
<totfact> 0.17819297E+01</totfact>
</mgrwt>
</event>
<event>
12    1  0.3127365E-008  0.6449342E+03  0.7818608E-02  0.9816332E-01
         -2   -1    0    0    0  501 -0.00000000000E+00  0.00000000000E+00  0.16429583302E+03  0.16429583302E+03  0.00000000000E+00 0.  1.
          2   -1    0    0  501    0  0.00000000000E+00 -0.00000000000E+00 -0.29938810551E+04  0.29938810551E+04  0.00000000000E+00 0. -1.
         23    2    1    2    0    0 -0.87055737892E+02 -0.56048619315E+03 -0.12557670121E+04  0.13809401800E+04  0.91222353629E+02 0.  0.
    5000000    2    1    2    0    0  0.87055737892E+02  0.56048619315E+03 -0.15738182099E+04  0.17772367081E+04  0.59995256849E+03 0.  0.
         23    2    4    4    0    0  0.24710641194E+03  0.38073918785E+03 -0.53570563964E+03  0.70784374447E+03  0.89656713435E+02 0.  0.
         23    2    4    4    0    0 -0.16005067405E+03  0.17974700531E+03 -0.10381125703E+04  0.10693929636E+04  0.89433762347E+02 0.  0.
          3    1    3    3  502    0 -0.71281155984E+02 -0.25004735350E+03 -0.49530889142E+03  0.55940645341E+03  0.00000000000E+00 0. -1.
         -3    1    3    3    0  502 -0.15774581908E+02 -0.31043883965E+03 -0.76045812071E+03  0.82153372661E+03  0.00000000000E+00 0.  1.
         13    1    5    5    0    0  0.22879624693E+03  0.28836246088E+03 -0.41458775663E+03  0.55442189657E+03  0.00000000000E+00 0. -1.
        -13    1    5    5    0    0  0.18310165009E+02  0.92376726965E+02 -0.12111788301E+03  0.15342184790E+03  0.00000000000E+00 0.  1.
          5    1    6    6  503    0 -0.37034192775E+02  0.10796430414E+03 -0.46744234859E+03  0.48119877562E+03  0.47000000000E+01 0. -1.
         -5    1    6    6    0  503 -0.12301648127E+03  0.71782701165E+02 -0.57067022168E+03  0.58819418797E+03  0.47000000000E+01 0.  1.
<mgrwt>
<rscale>  0 0.64493418E+03</rscale>
<asrwt>0</asrwt>
<pdfrwt beam="1">  1        2 0.46059710E+00 0.64493418E+03</pdfrwt>
<pdfrwt beam="2">  1       -2 0.25276281E-01 0.64493418E+03</pdfrwt>
<totfact> 0.26584287E+01</totfact>
</mgrwt>
</event>
<event>
12    1  0.3127365E-008  0.4823456E+03  0.7818608E-02  0.1018493E+00
         -2   -1    0    0    0  501 -0.00000000000E+00  0.00000000000E+00  0.23123917003E+03  0.23123917003E+03  0.00000000000E+00 0.  1.
          2   -1    0    0  501    0  0.00000000000E+00 -0.00000000000E+00 -0.18585918782E+04  0.18585918782E+04  0.00000000000E+00 0. -1.
         23    2    1    2    0    0 -0.25455029062E+03 -0.38552129784E+03 -0.29063585030E+03  0.55354873186E+03  0.92328107976E+02 0.  0.
    5000000    2    1    2    0    0  0.25455029062E+03  0.38552129784E+03 -0.13367168579E+04  0.15362823164E+04  0.59994072704E+03 0.  0.
         23    2    4    4    0    0  0.13690929953E+03  0.15665935157E+03 -0.12192515569E+04  0.12399097538E+04  0.86692155210E+02 0.  0.
         23    2    4    4    0    0  0.11764099110E+03  0.22886194626E+03 -0.11746530096E+03  0.29637256259E+03  0.88438711495E+02 0.  0.
          3    1    3    3  502    0 -0.57019496462E+02 -0.31492598162E+02 -0.49877048138E+02  0.82041005886E+02  0.00000000000E+00 0.  1.
         -3    1    3    3    0  502 -0.19753079416E+03 -0.35402869967E+03 -0.24075880217E+03  0.47150772598E+03  0.00000000000E+00 0. -1.
         13    1    5    5    0    0  0.14433092498E+02  0.74870950808E+02 -0.49472368763E+03  0.50056518111E+03  0.00000000000E+00 0.  1.
        -13    1    5    5    0    0  0.12247620703E+03  0.81788400764E+02 -0.72452786930E+03  0.73934457270E+03  0.00000000000E+00 0. -1.
          5    1    6    6  503    0  0.51477230021E+02  0.27364350994E+02 -0.38479468805E+02  0.70010516606E+02  0.47000000000E+01 0. -1.
         -5    1    6    6    0  503  0.66163761075E+02  0.20149759527E+03 -0.78985832151E+02  0.22636204598E+03  0.47000000000E+01 0.  1.
<mgrwt>
<rscale>  0 0.48234558E+03</rscale>
<asrwt>0</asrwt>
<pdfrwt beam="1">  1        2 0.28593723E+00 0.48234558E+03</pdfrwt>
<pdfrwt beam="2">  1       -2 0.35575255E-01 0.48234558E+03</pdfrwt>
<totfact> 0.63311328E+01</totfact>
</mgrwt>
</event>
<event>
12    1  0.3127365E-008  0.3726059E+03  0.7818608E-02  0.1053701E+00
          2   -1    0    0  501    0  0.00000000000E+00  0.00000000000E+00  0.66519759171E+03  0.66519759171E+03  0.00000000000E+00 0. -1.
         -2   -1    0    0    0  501 -0.00000000000E+00 -0.00000000000E+00 -0.37221486702E+03  0.37221486702E+03  0.00000000000E+00 0.  1.
         23    2    1    2    0    0  0.16743354672E+03  0.25683244213E+03  0.81259557599E+02  0.33122041661E+03  0.95430355630E+02 0.  0.
    5000000    2    1    2    0    0 -0.16743354672E+03 -0.25683244213E+03  0.21172316710E+03  0.70619204212E+03  0.59990299630E+03 0.  0.
         23    2    4    4    0    0 -0.23066195605E+03 -0.21449979323E+03 -0.12420375160E+03  0.34975172696E+03  0.87661846534E+02 0.  0.
         23    2    4    4    0    0  0.63228409327E+02 -0.42332648908E+02  0.33592691869E+03  0.35644031516E+03  0.91721963904E+02 0.  0.
          4    1    3    3  502    0  0.14160407591E+03  0.17161860509E+03  0.20533558243E+02  0.22344190955E+03  0.00000000000E+00 0. -1.
         -4    1    3    3    0  502  0.25829470808E+02  0.85213837043E+02  0.60725999356E+02  0.10777850706E+03  0.00000000000E+00 0.  1.
         11    1    5    5    0    0 -0.21438960820E+03 -0.21075880078E+03 -0.93566452165E+02  0.31486005968E+03  0.00000000000E+00 0. -1.
        -11    1    5    5    0    0 -0.16272347849E+02 -0.37409924418E+01 -0.30637299430E+02  0.34891667277E+02  0.00000000000E+00 0.  1.
          5    1    6    6  503    0  0.73782437864E+02 -0.60010270463E+02  0.30018520766E+03  0.31492591128E+03  0.47000000000E+01 0. -1.
         -5    1    6    6    0  503 -0.10554028538E+02  0.17677621555E+02  0.35741711030E+02  0.41514403881E+02  0.47000000000E+01 0.  1.
<mgrwt>
<rscale>  0 0.37260592E+03</rscale>
<asrwt>0</asrwt>
<pdfrwt beam="1">  1        2 0.10233809E+00 0.37260592E+03</pdfrwt>
<pdfrwt beam="2">  1       -2 0.57263826E-01 0.37260592E+03</pdfrwt>
<totfact> 0.12988652E+02</totfact>
</mgrwt>
</event>
<event>
12    1  0.3938047E-008  0.1290821E+04  0.7818608E-02  0.9036876E-01
          2   -1    0    0  501    0  0.00000000000E+00  0.00000000000E+00  0.25210499127E+04  0.25210499127E+04  0.00000000000E+00 0. -1.
         -2   -1    0    0    0  501 -0.00000000000E+00 -0.00000000000E+00 -0.85485930302E+03  0.85485930302E+03  0.00000000000E+00 0.  1.
         23    2    1    2    0    0 -0.47513221168E+03  0.11561670663E+04  0.61014391339E+02  0.12547914985E+04  0.91137506054E+02 0.  0.
    5000000    2    1    2    0    0  0.47513221168E+03 -0.11561670663E+04  0.16051762184E+04  0.21211177172E+04  0.60006397520E+03 0.  0.
         23    2    4    4    0    0  0.45695509314E+03 -0.11538444532E+04  0.16012936582E+04  0.20279685615E+04  0.91379031500E+02 0.  0.
         23    2    4    4    0    0  0.18177118541E+02 -0.23226130998E+01  0.38825602048E+01  0.93149155684E+02  0.91246308204E+02 0.  0.
          2    1    3    3  502    0 -0.29638783562E+03  0.83003802996E+03  0.47456812644E+02  0.88264433910E+03  0.00000000000E+00 0. -1.
         -2    1    3    3    0  502 -0.17874437605E+03  0.32612903638E+03  0.13557578694E+02  0.37214715944E+03  0.00000000000E+00 0.  1.
         13    1    5    5    0    0  0.19630552271E+03 -0.59242377590E+03  0.85057197281E+03  0.10549760516E+04  0.00000000000E+00 0.  1.
        -13    1    5    5    0    0  0.26064957043E+03 -0.56142067734E+03  0.75072168536E+03  0.97299250993E+03  0.00000000000E+00 0. -1.
          5    1    6    6  503    0  0.20742191670E+02 -0.41034029346E+02 -0.16497529891E+02  0.49074316828E+02  0.47000000000E+01 0. -1.
         -5    1    6    6    0  503 -0.25650731298E+01  0.38711416246E+02  0.20380090095E+02  0.44074838856E+02  0.47000000000E+01 0.  1.
<mgrwt>
<rscale>  0 0.12908214E+04</rscale>
<asrwt>0</asrwt>
<pdfrwt beam="1">  1        2 0.38785383E+00 0.12908214E+04</pdfrwt>
<pdfrwt beam="2">  1       -2 0.13151682E+00 0.12908214E+04</pdfrwt>
<totfact> 0.13831092E+00</totfact>
</mgrwt>
</event>
<event>
12    1  0.3127365E-008  0.6147181E+03  0.7818608E-02  0.9875333E-01
          2   -1    0    0  501    0  0.00000000000E+00  0.00000000000E+00  0.40834627829E+04  0.40834627829E+04  0.00000000000E+00 0. -1.
         -2   -1    0    0    0  501 -0.00000000000E+00 -0.00000000000E+00 -0.12644673724E+03  0.12644673724E+03  0.00000000000E+00 0.  1.
         23    2    1    2    0    0 -0.47916062970E+03  0.96421951897E+02  0.26062145363E+04  0.26532102855E+04  0.90986304547E+02 0.  0.
    5000000    2    1    2    0    0  0.47916062970E+03 -0.96421951897E+02  0.13508015093E+04  0.15566992347E+04  0.59979637196E+03 0.  0.
         23    2    4    4    0    0  0.28920712267E+03  0.21764246885E+03  0.48191336200E+03  0.60957576227E+03  0.91285910305E+02 0.  0.
         23    2    4    4    0    0  0.18995350703E+03 -0.31406442075E+03  0.86888814734E+03  0.94712347244E+03  0.85775662236E+02 0.  0.
          3    1    3    3  502    0 -0.29404037733E+03  0.18519558580E+02  0.14405664067E+04  0.14703857621E+04  0.00000000000E+00 0. -1.
         -3    1    3    3    0  502 -0.18512025237E+03  0.77902393317E+02  0.11656481297E+04  0.11828245233E+04  0.00000000000E+00 0.  1.
         11    1    5    5    0    0  0.67833601364E+01  0.97678896151E+01 -0.18956065833E+01  0.12042382098E+02  0.00000000000E+00 0.  1.
        -11    1    5    5    0    0  0.28242376253E+03  0.20787457923E+03  0.48380896859E+03  0.59753338017E+03  0.00000000000E+00 0. -1.
          5    1    6    6  503    0  0.96239121204E+02 -0.10654573968E+03  0.41773181452E+03  0.44174191782E+03  0.47000000000E+01 0. -1.
         -5    1    6    6    0  503  0.93714385827E+02 -0.20751868106E+03  0.45115633282E+03  0.50538155462E+03  0.47000000000E+01 0.  1.
<mgrwt>
<rscale>  0 0.61471811E+03</rscale>
<asrwt>0</asrwt>
<pdfrwt beam="1">  1        2 0.62822494E+00 0.61471811E+03</pdfrwt>
<pdfrwt beam="2">  1       -2 0.19453347E-01 0.61471811E+03</pdfrwt>
<totfact> 0.74772603E+00</totfact>
</mgrwt>
</event>
<event>
12    1  0.3127365E-008  0.2074430E+03  0.7818608E-02  0.1143607E+00
         -2   -1    0    0    0  501 -0.00000000000E+00  0.00000000000E+00  0.31950838205E+03  0.31950838205E+03  0.00000000000E+00 0.  1.
          2   -1    0    0  501    0  0.00000000000E+00 -0.00000000000E+00 -0.59154660559E+03  0.59154660559E+03  0.00000000000E+00 0. -1.
         23    2    1    2    0    0 -0.52881930006E+02  0.16671771499E+03 -0.20177795241E+03  0.28227619215E+03  0.91510718278E+02 0.  0.
    5000000    2    1    2    0    0  0.52881930006E+02 -0.16671771499E+03 -0.70260271132E+02  0.62877879549E+03  0.59986246169E+03 0.  0.
         23    2    4    4    0    0  0.57875907479E+02 -0.12442744593E+03  0.24724887909E+03  0.29726878001E+03  0.91678292899E+02 0.  0.
         23    2    4    4    0    0 -0.49939774730E+01 -0.42290269060E+02 -0.31750915023E+03  0.33151001547E+03  0.85284366756E+02 0.  0.
          4    1    3    3  502    0 -0.28207902875E+02  0.42018674917E+02 -0.90640843939E+01  0.51414126972E+02  0.00000000000E+00 0.  1.
         -4    1    3    3    0  502 -0.24674027131E+02  0.12469904008E+03 -0.19271386801E+03  0.23086206517E+03  0.00000000000E+00 0. -1.
         13    1    5    5    0    0  0.79337943720E+02 -0.11878265322E+03  0.21355467517E+03  0.25692299879E+03  0.00000000000E+00 0. -1.
        -13    1    5    5    0    0 -0.21462036241E+02 -0.56447927109E+01  0.33694203926E+02  0.40345781224E+02  0.00000000000E+00 0.  1.
          5    1    6    6  503    0 -0.11163181562E+02 -0.55501089740E+02 -0.11346125239E+03  0.12688787719E+03  0.47000000000E+01 0. -1.
         -5    1    6    6    0  503  0.61692040893E+01  0.13210820680E+02 -0.20404789784E+03  0.20462213828E+03  0.47000000000E+01 0.  1.
<mgrwt>
<rscale>  0 0.20744297E+03</rscale>
<asrwt>0</asrwt>
<pdfrwt beam="1">  1        2 0.91007170E-01 0.20744297E+03</pdfrwt>
<pdfrwt beam="2">  1       -2 0.49155136E-01 0.20744297E+03</pdfrwt>
<totfact> 0.20734475E+02</totfact>
</mgrwt>
</event>
<event>
12    1  0.3127365E-008  0.1083409E+04  0.7818608E-02  0.9221515E-01
         -2   -1    0    0    0  501 -0.00000000000E+00  0.00000000000E+00  0.71056223546E+03  0.71056223546E+03  0.00000000000E+00 0.  1.
          2   -1    0    0  501    0  0.00000000000E+00 -0.00000000000E+00 -0.22072743630E+04  0.22072743630E+04  0.00000000000E+00 0. -1.
         23    2    1    2    0    0 -0.12434878440E+03  0.10386865242E+04 -0.74233346456E+02  0.10530025533E+04  0.94717853310E+02 0.  0.
    5000000    2    1    2    0    0  0.12434878440E+03 -0.10386865242E+04 -0.14224787811E+04  0.18648340452E+04  0.59985649768E+03 0.  0.
         23    2    4    4    0    0 -0.37869848201E+02 -0.89459074780E+03 -0.81494246384E+03  0.12137614029E+04  0.85783404036E+02 0.  0.
         23    2    4    4    0    0  0.16221863261E+03 -0.14409577639E+03 -0.60753631727E+03  0.65107264230E+03  0.87844927075E+02 0.  0.
          1    1    3    3  502    0 -0.11500598775E+03  0.90593614896E+03 -0.95684730966E+02  0.91820599592E+03  0.00000000000E+00 0. -1.
         -1    1    3    3    0  502 -0.93427966521E+01  0.13275037524E+03  0.21451384510E+02  0.13479655734E+03  0.00000000000E+00 0.  1.
         13    1    5    5    0    0 -0.43206777364E+02 -0.55296651353E+03 -0.55310251912E+03  0.78330146646E+03  0.00000000000E+00 0. -1.
        -13    1    5    5    0    0  0.53369291627E+01 -0.34162423427E+03 -0.26183994472E+03  0.43045993647E+03  0.00000000000E+00 0.  1.
          5    1    6    6  503    0  0.13601388549E+02  0.33894884135E+01 -0.11378100239E+03  0.11473749565E+03  0.47000000000E+01 0. -1.
         -5    1    6    6    0  503  0.14861724406E+03 -0.14748526480E+03 -0.49375531488E+03  0.53633514665E+03  0.47000000000E+01 0.  1.
<mgrwt>
<rscale>  0 0.10834091E+04</rscale>
<asrwt>0</asrwt>
<pdfrwt beam="1">  1        2 0.33958067E+00 0.10834091E+04</pdfrwt>
<pdfrwt beam="2">  1       -2 0.10931727E+00 0.10834091E+04</pdfrwt>
<totfact> 0.33856595E+00</totfact>
</mgrwt>
</event>
<event>
12    1  0.3127365E-008  0.9015400E+03  0.7818608E-02  0.9423658E-01
          1   -1    0    0  501    0  0.00000000000E+00  0.00000000000E+00  0.18085460307E+04  0.18085460307E+04  0.00000000000E+00 0. -1.
         -1   -1    0    0    0  501 -0.00000000000E+00 -0.00000000000E+00 -0.15827310750E+04  0.15827310750E+04  0.00000000000E+00 0.  1.
         23    2    1    2    0    0  0.68537896043E+03 -0.41482520980E+03  0.15404424798E+04  0.17387900983E+04  0.92756121955E+02 0.  0.
    5000000    2    1    2    0    0 -0.68537896043E+03  0.41482520980E+03 -0.13146275241E+04  0.16524870075E+04  0.60053601781E+03 0.  0.
         23    2    4    4    0    0  0.15760904032E+01  0.27797045520E+03 -0.43713524790E+03  0.52587068453E+03  0.90458243833E+02 0.  0.
         23    2    4    4    0    0 -0.68695505083E+03  0.13685475460E+03 -0.87749227619E+03  0.11266163229E+04  0.92925661716E+02 0.  0.
          4    1    3    3  502    0  0.45562762698E+03 -0.23399918884E+03  0.92210139211E+03  0.10548095241E+04  0.00000000000E+00 0. -1.
         -4    1    3    3    0  502  0.22975133345E+03 -0.18082602096E+03  0.61834108769E+03  0.68398057414E+03  0.00000000000E+00 0.  1.
         11    1    5    5    0    0 -0.43455419338E+02  0.11856938277E+03 -0.17552926708E+03  0.21623504712E+03  0.00000000000E+00 0.  1.
        -11    1    5    5    0    0  0.45031509741E+02  0.15940107242E+03 -0.26160598081E+03  0.30963563741E+03  0.00000000000E+00 0. -1.
          5    1    6    6  503    0 -0.11696203768E+03 -0.11378110589E+02 -0.14359805000E+03  0.18561268713E+03  0.47000000000E+01 0. -1.
         -5    1    6    6    0  503 -0.56999301315E+03  0.14823286519E+03 -0.73389422619E+03  0.94100363580E+03  0.47000000000E+01 0.  1.
<mgrwt>
<rscale>  0 0.90154004E+03</rscale>
<asrwt>0</asrwt>
<pdfrwt beam="1">  1        1 0.27823785E+00 0.90154004E+03</pdfrwt>
<pdfrwt beam="2">  1       -1 0.24349709E+00 0.90154004E+03</pdfrwt>
<totfact> 0.31922193E-01</totfact>
</mgrwt>
</event>
<event>
12    1  0.3127365E-008  0.1285553E+04  0.7818608E-02  0.9041101E-01
         -2   -1    0    0    0  501 -0.00000000000E+00  0.00000000000E+00  0.14757562577E+04  0.14757562577E+04  0.00000000000E+00 0.  1.
          2   -1    0    0  501    0  0.00000000000E+00 -0.00000000000E+00 -0.13532431200E+04  0.13532431200E+04  0.00000000000E+00 0. -1.
         23    2    1    2    0    0  0.10603060237E+04  0.67762955699E+03  0.54165315681E+03  0.13731449652E+04  0.93318126355E+02 0.  0.
    5000000    2    1    2    0    0 -0.10603060237E+04 -0.67762955699E+03 -0.41914001906E+03  0.14558544125E+04  0.60033576809E+03 0.  0.
         23    2    4    4    0    0 -0.50012694720E+03 -0.12099256760E+03 -0.40437172256E+03  0.66078894948E+03  0.91429650671E+02 0.  0.
         23    2    4    4    0    0 -0.56017907653E+03 -0.55663698938E+03 -0.14768296500E+02  0.79506546305E+03  0.90915632438E+02 0.  0.
          4    1    3    3  502    0  0.84601753359E+03  0.49463201246E+03  0.41945460754E+03  0.10659965585E+04  0.00000000000E+00 0. -1.
         -4    1    3    3    0  502  0.21428849014E+03  0.18299754453E+03  0.12219854927E+03  0.30714840672E+03  0.00000000000E+00 0.  1.
         13    1    5    5    0    0 -0.46646946590E+03 -0.12331524683E+03 -0.40006157109E+03  0.62677721191E+03  0.00000000000E+00 0. -1.
        -13    1    5    5    0    0 -0.33657481306E+02  0.23226792274E+01 -0.43101514678E+01  0.34011737567E+02  0.00000000000E+00 0.  1.
          5    1    6    6  503    0 -0.48859417203E+03 -0.51596773098E+03  0.34132485189E+01  0.71061994386E+03  0.47000000000E+01 0. -1.
         -5    1    6    6    0  503 -0.71584904496E+02 -0.40669258409E+02 -0.18181545019E+02  0.84445519186E+02  0.47000000000E+01 0. -1.
<mgrwt>
<rscale>  0 0.12855526E+04</rscale>
<asrwt>0</asrwt>
<pdfrwt beam="1">  1        2 0.20819125E+00 0.12855526E+04</pdfrwt>
<pdfrwt beam="2">  1       -2 0.22703942E+00 0.12855526E+04</pdfrwt>
<totfact> 0.13215084E+00</totfact>
</mgrwt>
</event>
<event>
12    1  0.3127365E-008  0.1477215E+04  0.7818608E-02  0.8899748E-01
          2   -1    0    0  501    0  0.00000000000E+00  0.00000000000E+00  0.25508227401E+04  0.25508227401E+04  0.00000000000E+00 0. -1.
         -2   -1    0    0    0  501 -0.00000000000E+00 -0.00000000000E+00 -0.92758561448E+03  0.92758561448E+03  0.00000000000E+00 0.  1.
         23    2    1    2    0    0 -0.14421187466E+04 -0.71067879567E+02  0.11402833466E+04  0.18420815699E+04  0.90891567616E+02 0.  0.
    5000000    2    1    2    0    0  0.14421187466E+04  0.71067879567E+02  0.48295377909E+03  0.16363267847E+04  0.59963644887E+03 0.  0.
         23    2    4    4    0    0  0.88190028078E+03  0.24358880830E+03  0.90584378713E+02  0.92520035003E+03  0.10347243723E+03 0.  0.
         23    2    4    4    0    0  0.56021846580E+03 -0.17252092873E+03  0.39236940038E+03  0.71112643466E+03  0.90215627466E+02 0.  0.
          2    1    3    3  502    0 -0.53506043610E+03  0.70857911537E+01  0.38612913862E+03  0.65987543552E+03  0.00000000000E+00 0.  1.
         -2    1    3    3    0  502 -0.90705831048E+03 -0.78153670721E+02  0.75415420795E+03  0.11822061344E+04  0.00000000000E+00 0. -1.
         11    1    5    5    0    0  0.72255652020E+02  0.37700400617E+02 -0.15875864735E+02  0.83031575540E+02  0.00000000000E+00 0.  1.
        -11    1    5    5    0    0  0.80964462876E+03  0.20588840768E+03  0.10646024345E+03  0.84216877449E+03  0.00000000000E+00 0. -1.
          5    1    6    6  503    0  0.50205331705E+03 -0.12675222767E+03  0.32835852996E+03  0.61315990947E+03  0.47000000000E+01 0. -1.
         -5    1    6    6    0  503  0.58165148752E+02 -0.45768701059E+02  0.64010870421E+02  0.97966525191E+02  0.47000000000E+01 0.  1.
<mgrwt>
<rscale>  0 0.14772145E+04</rscale>
<asrwt>0</asrwt>
<pdfrwt beam="1">  1        2 0.39243426E+00 0.14772145E+04</pdfrwt>
<pdfrwt beam="2">  1       -2 0.14270548E+00 0.14772145E+04</pdfrwt>
<totfact> 0.10536857E+00</totfact>
</mgrwt>
</event>
<event>
12    1  0.3127365E-008  0.1956033E+04  0.7818608E-02  0.8627457E-01
          2   -1    0    0  501    0  0.00000000000E+00  0.00000000000E+00  0.18344981988E+04  0.18344981988E+04  0.00000000000E+00 0.  1.
         -2   -1    0    0    0  501 -0.00000000000E+00 -0.00000000000E+00 -0.21859251897E+04  0.21859251897E+04  0.00000000000E+00 0. -1.
         23    2    1    2    0    0  0.16176943197E+04  0.10844269921E+04 -0.35961069260E+03  0.19825108365E+04  0.90069714982E+02 0.  0.
    5000000    2    1    2    0    0 -0.16176943197E+04 -0.10844269921E+04  0.81837016825E+01  0.20379125520E+04  0.60008647983E+03 0.  0.
         23    2    4    4    0    0 -0.20997652914E+03 -0.18910707485E+03 -0.19415630245E+03  0.35506355952E+03  0.92313774557E+02 0.  0.
         23    2    4    4    0    0 -0.14077177905E+04 -0.89531991726E+03  0.20234000413E+03  0.16828489924E+04  0.88159639244E+02 0.  0.
          2    1    3    3  502    0  0.10903826825E+04  0.73289832350E+03 -0.19957095193E+03  0.13288727974E+04  0.00000000000E+00 0. -1.
         -2    1    3    3    0  502  0.52731163716E+03  0.35152866861E+03 -0.16003974067E+03  0.65363803908E+03  0.00000000000E+00 0.  1.
         11    1    5    5    0    0 -0.19409918258E+03 -0.19855389229E+03 -0.17380203808E+03  0.32757486055E+03  0.00000000000E+00 0.  1.
        -11    1    5    5    0    0 -0.15877346561E+02  0.94468174398E+01 -0.20354264361E+02  0.27488698973E+02  0.00000000000E+00 0. -1.
          5    1    6    6  503    0 -0.94528310758E+03 -0.60751442067E+03  0.17721551209E+03  0.11375681749E+04  0.47000000000E+01 0. -1.
         -5    1    6    6    0  503 -0.46243468297E+03 -0.28780549660E+03  0.25124492040E+02  0.54528081755E+03  0.47000000000E+01 0.  1.
<mgrwt>
<rscale>  0 0.19560332E+04</rscale>
<asrwt>0</asrwt>
<pdfrwt beam="1">  1        2 0.28223049E+00 0.19560332E+04</pdfrwt>
<pdfrwt beam="2">  1       -2 0.33629618E+00 0.19560332E+04</pdfrwt>
<totfact> 0.14014690E-01</totfact>
</mgrwt>
</event>
<event>
12    1  0.3127365E-008  0.4204365E+03  0.7818608E-02  0.1036924E+00
          1   -1    0    0  501    0  0.00000000000E+00  0.00000000000E+00  0.33117403638E+03  0.33117403638E+03  0.00000000000E+00 0. -1.
         -1   -1    0    0    0  501 -0.00000000000E+00 -0.00000000000E+00 -0.11182649734E+04  0.11182649734E+04  0.00000000000E+00 0.  1.
         23    2    1    2    0    0 -0.70687843579E+02 -0.32999237766E+03  0.63570469170E+02  0.35527029944E+03  0.91016704870E+02 0.  0.
    5000000    2    1    2    0    0  0.70687843579E+02  0.32999237766E+03 -0.85066140618E+03  0.10941687103E+04  0.59974044232E+03 0.  0.
         23    2    4    4    0    0  0.65177797502E+02  0.38773370782E+03 -0.89194712863E+03  0.97907391200E+03  0.91817598625E+02 0.  0.
         23    2    4    4    0    0  0.55100460780E+01 -0.57741330152E+02  0.41285722446E+02  0.11509479834E+03  0.90431631142E+02 0.  0.
          2    1    3    3  502    0 -0.40769126063E+02 -0.16688623792E+03  0.78287488491E+02  0.18879107209E+03  0.00000000000E+00 0. -1.
         -2    1    3    3    0  502 -0.29918717516E+02 -0.16310613974E+03 -0.14717019321E+02  0.16647922735E+03  0.00000000000E+00 0.  1.
         11    1    5    5    0    0  0.22729866988E+02  0.32824178560E+03 -0.76164115566E+03  0.82967256594E+03  0.00000000000E+00 0.  1.
        -11    1    5    5    0    0  0.42447930514E+02  0.59491922214E+02 -0.13030597297E+03  0.14940134606E+03  0.00000000000E+00 0. -1.
          5    1    6    6  503    0  0.18020219889E+02  0.16999260573E+02  0.28579930424E+02  0.38113063481E+02  0.47000000000E+01 0. -1.
         -5    1    6    6    0  503 -0.12510173811E+02 -0.74740590725E+02  0.12705792023E+02  0.76981734857E+02  0.47000000000E+01 0.  1.
<mgrwt>
<rscale>  0 0.42043650E+03</rscale>
<asrwt>0</asrwt>
<pdfrwt beam="1">  1        1 0.50949851E-01 0.42043650E+03</pdfrwt>
<pdfrwt beam="2">  1       -1 0.17204077E+00 0.42043650E+03</pdfrwt>
<totfact> 0.19662968E+01</totfact>
</mgrwt>
</event>
<event>
12    1  0.3127365E-008  0.7642753E+03  0.7818608E-02  0.9613217E-01
          2   -1    0    0  501    0  0.00000000000E+00  0.00000000000E+00  0.12479711601E+04  0.12479711601E+04  0.00000000000E+00 0. -1.
         -2   -1    0    0    0  501 -0.00000000000E+00 -0.00000000000E+00 -0.91232977219E+03  0.91232977219E+03  0.00000000000E+00 0.  1.
         23    2    1    2    0    0 -0.57326362672E+02 -0.75619658161E+03 -0.47401349542E+03  0.89906787241E+03  0.92274934097E+02 0.  0.
    5000000    2    1    2    0    0  0.57326362672E+02  0.75619658161E+03  0.80965488330E+03  0.12612330599E+04  0.60004018141E+03 0.  0.
         23    2    4    4    0    0  0.35102260166E+02  0.34069714234E+03  0.75139508339E+03  0.83100618716E+03  0.93112836364E+02 0.  0.
         23    2    4    4    0    0  0.22224102506E+02  0.41549943927E+03  0.58259799913E+02  0.43022687269E+03  0.92559510221E+02 0.  0.
          4    1    3    3  502    0  0.12187628506E+02 -0.11678247149E+03 -0.44053523056E+02  0.12540891846E+03  0.00000000000E+00 0.  1.
         -4    1    3    3    0  502 -0.69513991178E+02 -0.63941411013E+03 -0.42995997236E+03  0.77365895395E+03  0.00000000000E+00 0. -1.
         13    1    5    5    0    0 -0.85362303806E+01  0.25801182818E+03  0.59833792918E+03  0.65165270521E+03  0.00000000000E+00 0. -1.
        -13    1    5    5    0    0  0.43638490547E+02  0.82685314164E+02  0.15305715421E+03  0.17935348196E+03  0.00000000000E+00 0.  1.
          5    1    6    6  503    0  0.61328405264E+01  0.20233065585E+03 -0.17838324260E+02  0.20326239653E+03  0.47000000000E+01 0. -1.
         -5    1    6    6    0  503  0.16091261979E+02  0.21316878342E+03  0.76098124173E+02  0.22696447616E+03  0.47000000000E+01 0.  1.
<mgrwt>
<rscale>  0 0.76427533E+03</rscale>
<asrwt>0</asrwt>
<pdfrwt beam="1">  1        2 0.19199556E+00 0.76427533E+03</pdfrwt>
<pdfrwt beam="2">  1       -2 0.14035843E+00 0.76427533E+03</pdfrwt>
<totfact> 0.64512447E+00</totfact>
</mgrwt>
</event>
<event>
12    1  0.3127365E-008  0.6685868E+03  0.7818608E-02  0.9772514E-01
          1   -1    0    0  501    0  0.00000000000E+00  0.00000000000E+00  0.41574852033E+04  0.41574852033E+04  0.00000000000E+00 0. -1.
         -1   -1    0    0    0  501 -0.00000000000E+00 -0.00000000000E+00 -0.16184466688E+03  0.16184466688E+03  0.00000000000E+00 0.  1.
         23    2    1    2    0    0 -0.65456577880E+03 -0.79304818497E+02  0.24090619716E+04  0.24994487271E+04  0.94439098701E+02 0.  0.
    5000000    2    1    2    0    0  0.65456577880E+03  0.79304818497E+02  0.15865785649E+04  0.18198811431E+04  0.59999184960E+03 0.  0.
         23    2    4    4    0    0  0.33206180456E+03  0.10103353307E+03  0.13803766322E+04  0.14259203433E+04  0.85652565214E+02 0.  0.
         23    2    4    4    0    0  0.32250397424E+03 -0.21728714573E+02  0.20620193267E+03  0.39396079980E+03  0.90581037239E+02 0.  0.
          2    1    3    3  502    0 -0.63120419616E+03 -0.81787272698E+02  0.22368247188E+04  0.23256166318E+04  0.00000000000E+00 0. -1.
         -2    1    3    3    0  502 -0.23361582642E+02  0.24824542014E+01  0.17223725272E+03  0.17383209528E+03  0.00000000000E+00 0.  1.
         11    1    5    5    0    0  0.13718018809E+03  0.75558020827E+02  0.72425816703E+03  0.74099751081E+03  0.00000000000E+00 0.  1.
        -11    1    5    5    0    0  0.19488161647E+03  0.25475512243E+02  0.65611846516E+03  0.68492283251E+03  0.00000000000E+00 0. -1.
          5    1    6    6  503    0  0.56949289506E+02  0.35370739427E+01  0.80205427458E+00  0.57257888176E+02  0.47000000000E+01 0. -1.
         -5    1    6    6    0  503  0.26555468473E+03 -0.25265788516E+02  0.20539987839E+03  0.33670291163E+03  0.47000000000E+01 0.  1.
<mgrwt>
<rscale>  0 0.66858678E+03</rscale>
<asrwt>0</asrwt>
<pdfrwt beam="1">  1        1 0.63961303E+00 0.66858678E+03</pdfrwt>
<pdfrwt beam="2">  1       -1 0.24899183E-01 0.66858678E+03</pdfrwt>
<totfact> 0.11053193E+00</totfact>
</mgrwt>
</event>
<event>
12    1  0.3127365E-008  0.8968737E+03  0.7818608E-02  0.9429498E-01
         -1   -1    0    0    0  501 -0.00000000000E+00  0.00000000000E+00  0.14126881502E+04  0.14126881502E+04  0.00000000000E+00 0.  1.
          1   -1    0    0  501    0  0.00000000000E+00 -0.00000000000E+00 -0.58767861737E+03  0.58767861737E+03  0.00000000000E+00 0. -1.
         23    2    1    2    0    0 -0.78667571085E+03 -0.14717531807E+03  0.23563883631E+03  0.83943214937E+03  0.92743861939E+02 0.  0.
    5000000    2    1    2    0    0  0.78667571085E+03  0.14717531807E+03  0.58937069656E+03  0.11609346182E+04  0.59991009459E+03 0.  0.
         23    2    4    4    0    0  0.79635514453E+03 -0.24582174779E+02  0.41665714653E+03  0.90281847794E+03  0.81806031608E+02 0.  0.
         23    2    4    4    0    0 -0.96794336841E+01  0.17175749285E+03  0.17271355004E+03  0.25811614031E+03  0.84850714418E+02 0.  0.
          4    1    3    3  502    0 -0.35257591764E+03 -0.19625776155E+02  0.11011451029E+03  0.36989208449E+03  0.00000000000E+00 0. -1.
         -4    1    3    3    0  502 -0.43409979321E+03 -0.12754954191E+03  0.12552432602E+03  0.46954006488E+03  0.00000000000E+00 0.  1.
         11    1    5    5    0    0  0.27004511469E+03  0.11515679829E+02  0.10417941981E+03  0.28967279190E+03  0.00000000000E+00 0.  1.
        -11    1    5    5    0    0  0.52631002984E+03 -0.36097854607E+02  0.31247772671E+03  0.61314568604E+03  0.00000000000E+00 0. -1.
          5    1    6    6  503    0  0.23037631613E+02  0.14744149368E+03  0.12151888908E+03  0.19250625167E+03  0.47000000000E+01 0. -1.
         -5    1    6    6    0  503 -0.32717065297E+02  0.24315999169E+02  0.51194660954E+02  0.65609888641E+02  0.47000000000E+01 0.  1.
<mgrwt>
<rscale>  0 0.89687373E+03</rscale>
<asrwt>0</asrwt>
<pdfrwt beam="1">  1        1 0.90412095E-01 0.89687373E+03</pdfrwt>
<pdfrwt beam="2">  1       -1 0.21733664E+00 0.89687373E+03</pdfrwt>
<totfact> 0.41185547E+00</totfact>
</mgrwt>
</event>
<event>
12    1  0.3127365E-008  0.7383675E+03  0.7818608E-02  0.9653779E-01
         -2   -1    0    0    0  501 -0.00000000000E+00  0.00000000000E+00  0.23950873319E+03  0.23950873319E+03  0.00000000000E+00 0.  1.
          2   -1    0    0  501    0  0.00000000000E+00 -0.00000000000E+00 -0.29194533554E+04  0.29194533554E+04  0.00000000000E+00 0. -1.
         23    2    1    2    0    0 -0.71550704047E+03  0.55930160855E+02 -0.13648568595E+04  0.15450576545E+04  0.96386726662E+02 0.  0.
    5000000    2    1    2    0    0  0.71550704047E+03 -0.55930160855E+02 -0.13150877627E+04  0.16139044341E+04  0.60012764542E+03 0.  0.
         23    2    4    4    0    0  0.44568581181E+03 -0.11078986181E+03 -0.12229456466E+04  0.13094876185E+04  0.90837943243E+02 0.  0.
         23    2    4    4    0    0  0.26982122866E+03  0.54859700957E+02 -0.92142116106E+02  0.30441681563E+03  0.91467731215E+02 0.  0.
          3    1    3    3  502    0 -0.52124687903E+03 -0.21179362186E+01 -0.96916526614E+03  0.11004472307E+04  0.00000000000E+00 0. -1.
         -3    1    3    3    0  502 -0.19426016144E+03  0.58048097074E+02 -0.39569159332E+03  0.44461042377E+03  0.00000000000E+00 0.  1.
         11    1    5    5    0    0  0.36271752963E+03 -0.64694198864E+02 -0.88925344566E+03  0.96255962739E+03  0.00000000000E+00 0. -1.
        -11    1    5    5    0    0  0.82968282180E+02 -0.46095662949E+02 -0.33369220099E+03  0.34692799107E+03  0.00000000000E+00 0.  1.
          5    1    6    6  503    0 -0.84406241634E-01  0.15970055545E+02 -0.10674176421E+02  0.19775688124E+02  0.47000000000E+01 0. -1.
         -5    1    6    6    0  503  0.26990563490E+03  0.38889645413E+02 -0.81467939685E+02  0.28464112750E+03  0.47000000000E+01 0.  1.
<mgrwt>
<rscale>  0 0.73836746E+03</rscale>
<asrwt>0</asrwt>
<pdfrwt beam="1">  1        2 0.44914668E+00 0.73836746E+03</pdfrwt>
<pdfrwt beam="2">  1       -2 0.36847497E-01 0.73836746E+03</pdfrwt>
<totfact> 0.14386210E+01</totfact>
</mgrwt>
</event>
<event>
12    1  0.3127365E-008  0.8200461E+03  0.7818608E-02  0.9531446E-01
         -2   -1    0    0    0  501 -0.00000000000E+00  0.00000000000E+00  0.87831946906E+03  0.87831946906E+03  0.00000000000E+00 0.  1.
          2   -1    0    0  501    0  0.00000000000E+00 -0.00000000000E+00 -0.11001961147E+04  0.11001961147E+04  0.00000000000E+00 0. -1.
         23    2    1    2    0    0  0.10200895130E+03  0.75821572438E+03 -0.55457300506E+03  0.95089011874E+03  0.10650769521E+03 0.  0.
    5000000    2    1    2    0    0 -0.10200895130E+03 -0.75821572438E+03  0.33269635943E+03  0.10276254650E+04  0.60002526440E+03 0.  0.
         23    2    4    4    0    0  0.14913448954E+03 -0.31739105300E+03  0.36028405302E+03  0.51126134909E+03  0.92765250565E+02 0.  0.
         23    2    4    4    0    0 -0.25114344084E+03 -0.44082467137E+03 -0.27587693583E+02  0.51636411592E+03  0.92040211914E+02 0.  0.
          2    1    3    3  502    0  0.92698258383E+02  0.29788409221E+03 -0.22022104995E+03  0.38187067227E+03  0.00000000000E+00 0. -1.
         -2    1    3    3    0  502  0.93106929187E+01  0.46033163217E+03 -0.33435195511E+03  0.56901944647E+03  0.00000000000E+00 0.  1.
         13    1    5    5    0    0  0.11648497754E+03 -0.28547019547E+03  0.26891298615E+03  0.40911633628E+03  0.00000000000E+00 0. -1.
        -13    1    5    5    0    0  0.32649512002E+02 -0.31920857533E+02  0.91371066868E+02  0.10214501280E+03  0.00000000000E+00 0.  1.
          5    1    6    6  503    0 -0.23737257730E+02 -0.10739637673E+03  0.12314382112E+02  0.11077532733E+03  0.47000000000E+01 0. -1.
         -5    1    6    6    0  503 -0.22740618311E+03 -0.33342829464E+03 -0.39902075695E+02  0.40558878859E+03  0.47000000000E+01 0.  1.
<mgrwt>
<rscale>  0 0.82004611E+03</rscale>
<asrwt>0</asrwt>
<pdfrwt beam="1">  1        2 0.16926094E+00 0.82004611E+03</pdfrwt>
<pdfrwt beam="2">  1       -2 0.13512607E+00 0.82004611E+03</pdfrwt>
<totfact> 0.86609441E+00</totfact>
</mgrwt>
</event>
<event>
12    1  0.3127365E-008  0.5732379E+03  0.7818608E-02  0.9962539E-01
         -1   -1    0    0    0  501 -0.00000000000E+00  0.00000000000E+00  0.26527636007E+03  0.26527636007E+03  0.00000000000E+00 0.  1.
          1   -1    0    0  501    0  0.00000000000E+00 -0.00000000000E+00 -0.13746980321E+04  0.13746980321E+04  0.00000000000E+00 0. -1.
         23    2    1    2    0    0  0.34906109425E+03 -0.26888257122E+03 -0.54504397759E+03  0.70580245830E+03  0.83322794039E+02 0.  0.
    5000000    2    1    2    0    0 -0.34906109425E+03  0.26888257122E+03 -0.56437769447E+03  0.93417193390E+03  0.60001127943E+03 0.  0.
         23    2    4    4    0    0 -0.17355010104E+03 -0.15846670096E+03 -0.30693482019E+03  0.39719328804E+03  0.91226045253E+02 0.  0.
         23    2    4    4    0    0 -0.17551099321E+03  0.42734927218E+03 -0.25744287428E+03  0.53697864586E+03  0.92939353454E+02 0.  0.
          2    1    3    3  502    0  0.10140232203E+03 -0.76616355622E+02 -0.10158092832E+03  0.16269966767E+03  0.00000000000E+00 0.  1.
         -2    1    3    3    0  502  0.24765877221E+03 -0.19226621560E+03 -0.44346304927E+03  0.54310279062E+03  0.00000000000E+00 0. -1.
         13    1    5    5    0    0 -0.69606813666E+02 -0.81444408426E+02 -0.72279894422E+02  0.12923886145E+03  0.00000000000E+00 0. -1.
        -13    1    5    5    0    0 -0.10394328737E+03 -0.77022292532E+02 -0.23465492577E+03  0.26795442658E+03  0.00000000000E+00 0.  1.
          5    1    6    6  503    0 -0.91021961057E+02  0.12076596702E+03 -0.10586054804E+03  0.18465633435E+03  0.47000000000E+01 0. -1.
         -5    1    6    6    0  503 -0.84489032151E+02  0.30658330516E+03 -0.15158232624E+03  0.35232231151E+03  0.47000000000E+01 0.  1.
<mgrwt>
<rscale>  0 0.57323795E+03</rscale>
<asrwt>0</asrwt>
<pdfrwt beam="1">  1        1 0.21149201E+00 0.57323795E+03</pdfrwt>
<pdfrwt beam="2">  1       -1 0.40811747E-01 0.57323795E+03</pdfrwt>
<totfact> 0.49326108E+01</totfact>
</mgrwt>
</event>
<event>
12    1  0.3127365E-008  0.5095005E+03  0.7818608E-02  0.1011328E+00
         -2   -1    0    0    0  501 -0.00000000000E+00  0.00000000000E+00  0.55353417853E+03  0.55353417853E+03  0.00000000000E+00 0.  1.
          2   -1    0    0  501    0  0.00000000000E+00 -0.00000000000E+00 -0.58687382491E+03  0.58687382491E+03  0.00000000000E+00 0. -1.
         23    2    1    2    0    0 -0.10002045827E+03 -0.33228720650E+03  0.19805759587E+03  0.40965384347E+03  0.90391263446E+02 0.  0.
    5000000    2    1    2    0    0  0.10002045827E+03  0.33228720650E+03 -0.23139724226E+03  0.73075415997E+03  0.60003173159E+03 0.  0.
         23    2    4    4    0    0  0.22997286392E+03  0.42732280322E+03 -0.23318911031E+03  0.54620663049E+03  0.92044694202E+02 0.  0.
         23    2    4    4    0    0 -0.12995240565E+03 -0.95035596722E+02  0.17918680501E+01  0.18454752948E+03  0.90195274079E+02 0.  0.
          1    1    3    3  502    0 -0.81662190230E+02 -0.12015304949E+03  0.89739361384E+02  0.17075895759E+03  0.00000000000E+00 0. -1.
         -1    1    3    3    0  502 -0.18358268038E+02 -0.21213415701E+03  0.10831823449E+03  0.23889488588E+03  0.00000000000E+00 0.  1.
         13    1    5    5    0    0  0.98749739271E+02  0.24209451683E+03 -0.16506380903E+03  0.30920434527E+03  0.00000000000E+00 0. -1.
        -13    1    5    5    0    0  0.13122312465E+03  0.18522828639E+03 -0.68125301277E+02  0.23700228522E+03  0.00000000000E+00 0.  1.
          5    1    6    6  503    0 -0.69358422403E+02 -0.86486970052E+02  0.32903486271E+02  0.11573813613E+03  0.47000000000E+01 0. -1.
         -5    1    6    6    0  503 -0.60593983251E+02 -0.85486266702E+01 -0.31111618221E+02  0.68809393345E+02  0.47000000000E+01 0.  1.
<mgrwt>
<rscale>  0 0.50950048E+03</rscale>
<asrwt>0</asrwt>
<pdfrwt beam="1">  1        2 0.90288281E-01 0.50950048E+03</pdfrwt>
<pdfrwt beam="2">  1       -2 0.85159104E-01 0.50950048E+03</pdfrwt>
<totfact> 0.63041238E+01</totfact>
</mgrwt>
</event>
<event>
12    1  0.3127365E-008  0.3688231E+03  0.7818608E-02  0.1055144E+00
         -1   -1    0    0    0  501 -0.00000000000E+00  0.00000000000E+00  0.14659056019E+04  0.14659056019E+04  0.00000000000E+00 0.  1.
          1   -1    0    0  501    0  0.00000000000E+00 -0.00000000000E+00 -0.16520170994E+03  0.16520170994E+03  0.00000000000E+00 0. -1.
         23    2    1    2    0    0  0.29422455464E+03  0.48497187778E+02  0.36628770544E+03  0.48113393932E+03  0.91668525867E+02 0.  0.
    5000000    2    1    2    0    0 -0.29422455464E+03 -0.48497187778E+02  0.93441618653E+03  0.11499733725E+04  0.60032081599E+03 0.  0.
         23    2    4    4    0    0  0.25506506755E+02 -0.64540363744E+02  0.76921996798E+03  0.77863311748E+03  0.98763009562E+02 0.  0.
         23    2    4    4    0    0 -0.31973106139E+03  0.16043175966E+02  0.16519621855E+03  0.37134025505E+03  0.90102493232E+02 0.  0.
          3    1    3    3  502    0  0.23202208296E+03 -0.16738196520E+01  0.27506037383E+03  0.35985449547E+03  0.00000000000E+00 0. -1.
         -3    1    3    3    0  502  0.62202471672E+02  0.50171007430E+02  0.91227331606E+02  0.12127944385E+03  0.00000000000E+00 0.  1.
         13    1    5    5    0    0  0.53579224055E+02 -0.32436755615E+02  0.25234082962E+03  0.25999763587E+03  0.00000000000E+00 0.  1.
        -13    1    5    5    0    0 -0.28072717300E+02 -0.32103608129E+02  0.51687913836E+03  0.51863548161E+03  0.00000000000E+00 0. -1.
          5    1    6    6  503    0 -0.27062473827E+03  0.12082065684E+02  0.17268417862E+03  0.32128747380E+03  0.47000000000E+01 0. -1.
         -5    1    6    6    0  503 -0.49106323120E+02  0.39611102818E+01 -0.74879600710E+01  0.50052781252E+02  0.47000000000E+01 0.  1.
<mgrwt>
<rscale>  0 0.36882310E+03</rscale>
<asrwt>0</asrwt>
<pdfrwt beam="1">  1        1 0.25415649E-01 0.36882310E+03</pdfrwt>
<pdfrwt beam="2">  1       -1 0.22552393E+00 0.36882310E+03</pdfrwt>
<totfact> 0.20947585E+01</totfact>
</mgrwt>
</event>
<event>
12    1  0.3127365E-008  0.1123051E+04  0.7818608E-02  0.9183011E-01
          1   -1    0    0  501    0  0.00000000000E+00  0.00000000000E+00  0.20962010954E+04  0.20962010954E+04  0.00000000000E+00 0. -1.
         -1   -1    0    0    0  501 -0.00000000000E+00 -0.00000000000E+00 -0.10472269281E+04  0.10472269281E+04  0.00000000000E+00 0.  1.
         23    2    1    2    0    0  0.40798702955E+02 -0.10879440136E+04 -0.46268330915E+03  0.11864703937E+04  0.91375268453E+02 0.  0.
    5000000    2    1    2    0    0 -0.40798702955E+02  0.10879440136E+04  0.15116574765E+04  0.19569576297E+04  0.59940647937E+03 0.  0.
         23    2    4    4    0    0  0.14457090735E+03  0.22403244827E+03  0.69412898688E+03  0.74965831966E+03  0.95295648799E+02 0.  0.
         23    2    4    4    0    0 -0.18536961031E+03  0.86391156534E+03  0.81752848960E+03  0.12072993101E+04  0.92269754890E+02 0.  0.
          4    1    3    3  502    0 -0.41742040103E+01 -0.63245562083E+03 -0.30676949407E+03  0.70294029533E+03  0.00000000000E+00 0. -1.
         -4    1    3    3    0  502  0.44972906965E+02 -0.45548839277E+03 -0.15591381509E+03  0.48353009839E+03  0.00000000000E+00 0.  1.
         11    1    5    5    0    0  0.31147971956E+02  0.87340381489E+02  0.14142169632E+03  0.16911130828E+03  0.00000000000E+00 0.  1.
        -11    1    5    5    0    0  0.11342293540E+03  0.13669206678E+03  0.55270729056E+03  0.58054701138E+03  0.00000000000E+00 0. -1.
          5    1    6    6  503    0 -0.14369087713E+03  0.53405350422E+03  0.46353900144E+03  0.72163059067E+03  0.47000000000E+01 0. -1.
         -5    1    6    6    0  503 -0.41678733177E+02  0.32985806112E+03  0.35398948817E+03  0.48566871941E+03  0.47000000000E+01 0.  1.
<mgrwt>
<rscale>  0 0.11230515E+04</rscale>
<asrwt>0</asrwt>
<pdfrwt beam="1">  1        1 0.32249247E+00 0.11230515E+04</pdfrwt>
<pdfrwt beam="2">  1       -1 0.16111184E+00 0.11230515E+04</pdfrwt>
<totfact> 0.73014110E-01</totfact>
</mgrwt>
</event>
<event>
12    1  0.3127365E-008  0.6178159E+03  0.7818608E-02  0.9869118E-01
          2   -1    0    0  501    0  0.00000000000E+00  0.00000000000E+00  0.73454540960E+03  0.73454540960E+03  0.00000000000E+00 0.  1.
         -2   -1    0    0    0  501 -0.00000000000E+00 -0.00000000000E+00 -0.54173640625E+03  0.54173640625E+03  0.00000000000E+00 0. -1.
         23    2    1    2    0    0  0.11211829643E+03  0.46819331711E+03  0.11497634409E+03  0.50311635531E+03  0.90172128184E+02 0.  0.
    5000000    2    1    2    0    0 -0.11211829643E+03 -0.46819331711E+03  0.77832659266E+02  0.77316546053E+03  0.59995950858E+03 0.  0.
         23    2    4    4    0    0 -0.32059565323E+03 -0.16074236329E+03 -0.38073265685E+02  0.37193246214E+03  0.90909309781E+02 0.  0.
         23    2    4    4    0    0  0.20847735680E+03 -0.30745095382E+03  0.11590592495E+03  0.40123299840E+03  0.97799991102E+02 0.  0.
          4    1    3    3  502    0 -0.75384726026E+01  0.13782756316E+03  0.41633390101E+02  0.14417560441E+03  0.00000000000E+00 0. -1.
         -4    1    3    3    0  502  0.11965676903E+03  0.33036575395E+03  0.73342953988E+02  0.35894075090E+03  0.00000000000E+00 0.  1.
         11    1    5    5    0    0 -0.21510835537E+03 -0.13552303898E+03 -0.60125912083E+02  0.26125317979E+03  0.00000000000E+00 0.  1.
        -11    1    5    5    0    0 -0.10548729786E+03 -0.25219324312E+02  0.22052646399E+02  0.11067928235E+03  0.00000000000E+00 0. -1.
          5    1    6    6  503    0  0.15145636963E+03 -0.13899345139E+03  0.50975638326E+02  0.21184621104E+03  0.47000000000E+01 0. -1.
         -5    1    6    6    0  503  0.57020987174E+02 -0.16845750243E+03  0.64930286624E+02  0.18938678735E+03  0.47000000000E+01 0.  1.
<mgrwt>
<rscale>  0 0.61781588E+03</rscale>
<asrwt>0</asrwt>
<pdfrwt beam="1">  1        2 0.11300699E+00 0.61781588E+03</pdfrwt>
<pdfrwt beam="2">  1       -2 0.83344062E-01 0.61781588E+03</pdfrwt>
<totfact> 0.49734113E+01</totfact>
</mgrwt>
</event>
<event>
12    1  0.3127365E-008  0.6524918E+03  0.7818608E-02  0.9802115E-01
         -1   -1    0    0    0  501 -0.00000000000E+00  0.00000000000E+00  0.75970921414E+03  0.75970921414E+03  0.00000000000E+00 0.  1.
          1   -1    0    0  501    0  0.00000000000E+00 -0.00000000000E+00 -0.70479876419E+03  0.70479876419E+03  0.00000000000E+00 0. -1.
         23    2    1    2    0    0  0.51699513876E+03 -0.10837514675E+03 -0.27144326360E+03  0.60104965591E+03  0.92466737696E+02 0.  0.
    5000000    2    1    2    0    0 -0.51699513876E+03  0.10837514675E+03  0.32635371356E+03  0.86345832242E+03  0.60002031822E+03 0.  0.
         23    2    4    4    0    0  0.22317618899E+02 -0.16426844686E+03  0.72272740253E+02  0.20220673183E+03  0.90454489482E+02 0.  0.
         23    2    4    4    0    0 -0.53931275766E+03  0.27264359361E+03  0.25408097330E+03  0.66125159059E+03  0.86624161501E+02 0.  0.
          4    1    3    3  502    0  0.18498879162E+03  0.90956264559E+00 -0.11725631821E+03  0.21902220091E+03  0.00000000000E+00 0. -1.
         -4    1    3    3    0  502  0.33200634713E+03 -0.10928470939E+03 -0.15418694540E+03  0.38202745500E+03  0.00000000000E+00 0.  1.
         11    1    5    5    0    0  0.29187699548E-01 -0.17948436650E+02 -0.20717609222E+02  0.27411066415E+02  0.00000000000E+00 0. -1.
        -11    1    5    5    0    0  0.22288431200E+02 -0.14632001021E+03  0.92990349475E+02  0.17479566542E+03  0.00000000000E+00 0.  1.
          5    1    6    6  503    0 -0.38537413074E+03  0.20046524594E+03  0.22312984944E+03  0.48837337682E+03  0.47000000000E+01 0. -1.
         -5    1    6    6    0  503 -0.15393862691E+03  0.72178347668E+02  0.30951123868E+02  0.17287821377E+03  0.47000000000E+01 0.  1.
<mgrwt>
<rscale>  0 0.65249177E+03</rscale>
<asrwt>0</asrwt>
<pdfrwt beam="1">  1        1 0.10843058E+00 0.65249177E+03</pdfrwt>
<pdfrwt beam="2">  1       -1 0.11687834E+00 0.65249177E+03</pdfrwt>
<totfact> 0.18507150E+01</totfact>
</mgrwt>
</event>
<event>
12    1  0.3127365E-008  0.4056339E+03  0.7818608E-02  0.1041846E+00
         -1   -1    0    0    0  501 -0.00000000000E+00  0.00000000000E+00  0.49527127767E+03  0.49527127767E+03  0.00000000000E+00 0.  1.
          1   -1    0    0  501    0  0.00000000000E+00 -0.00000000000E+00 -0.70915131196E+03  0.70915131196E+03  0.00000000000E+00 0. -1.
         23    2    1    2    0    0 -0.28626791311E+03 -0.10173342098E+02 -0.41216303982E+03  0.51034807043E+03  0.92325330427E+02 0.  0.
    5000000    2    1    2    0    0  0.28626791311E+03  0.10173342098E+02  0.19828300553E+03  0.69407451920E+03  0.60030864808E+03 0.  0.
         23    2    4    4    0    0  0.38575055844E+02 -0.18754141247E+03  0.28282646817E+03  0.35354112651E+03  0.91327436814E+02 0.  0.
         23    2    4    4    0    0  0.24769285726E+03  0.19771475457E+03 -0.84543462637E+02  0.34053339269E+03  0.91501468574E+02 0.  0.
          1    1    3    3  502    0 -0.15191560855E+03 -0.34759953028E+02 -0.27910878085E+03  0.31966907577E+03  0.00000000000E+00 0. -1.
         -1    1    3    3    0  502 -0.13435230455E+03  0.24586610930E+02 -0.13305425897E+03  0.19067899467E+03  0.00000000000E+00 0.  1.
         13    1    5    5    0    0  0.30138264972E+02 -0.28909584217E+02  0.19688997971E+02  0.46170723584E+02  0.00000000000E+00 0.  1.
        -13    1    5    5    0    0  0.84367908713E+01 -0.15863182825E+03  0.26313747020E+03  0.30737040293E+03  0.00000000000E+00 0. -1.
          5    1    6    6  503    0  0.16719949636E+03  0.11691233426E+03 -0.10241373922E+02  0.20433096003E+03  0.47000000000E+01 0. -1.
         -5    1    6    6    0  503  0.80493360902E+02  0.80802420305E+02 -0.74302088715E+02  0.13620243267E+03  0.47000000000E+01 0.  1.
<mgrwt>
<rscale>  0 0.40563388E+03</rscale>
<asrwt>0</asrwt>
<pdfrwt beam="1">  1        1 0.10910020E+00 0.40563388E+03</pdfrwt>
<pdfrwt beam="2">  1       -1 0.76195582E-01 0.40563388E+03</pdfrwt>
<totfact> 0.49284716E+01</totfact>
</mgrwt>
</event>
<event>
12    1  0.3127365E-008  0.6763695E+03  0.7818608E-02  0.9758519E-01
          2   -1    0    0  501    0  0.00000000000E+00  0.00000000000E+00  0.84922419138E+03  0.84922419138E+03  0.00000000000E+00 0. -1.
         -2   -1    0    0    0  501 -0.00000000000E+00 -0.00000000000E+00 -0.86912592143E+03  0.86912592143E+03  0.00000000000E+00 0.  1.
         23    2    1    2    0    0  0.50373553698E+03  0.25551796999E+03 -0.50412802598E+03  0.76253391105E+03  0.90961391408E+02 0.  0.
    5000000    2    1    2    0    0 -0.50373553698E+03 -0.25551796999E+03  0.48422629593E+03  0.95581620176E+03  0.60005881518E+03 0.  0.
         23    2    4    4    0    0 -0.57964184252E+03 -0.90959630305E+02  0.24572757647E+03  0.64286626456E+03  0.92933698570E+02 0.  0.
         23    2    4    4    0    0  0.75906305537E+02 -0.16455833968E+03  0.23849871946E+03  0.31294993720E+03  0.90635587011E+02 0.  0.
          1    1    3    3  502    0  0.18177532545E+03  0.10218310242E+03 -0.24495362104E+03  0.32169229369E+03  0.00000000000E+00 0. -1.
         -1    1    3    3    0  502  0.32196021153E+03  0.15333486757E+03 -0.25917440494E+03  0.44084161736E+03  0.00000000000E+00 0.  1.
         11    1    5    5    0    0 -0.23864950926E+03  0.30004139941E+01  0.75436555466E+02  0.25030634162E+03  0.00000000000E+00 0.  1.
        -11    1    5    5    0    0 -0.34099233326E+03 -0.93960044300E+02  0.17029102101E+03  0.39255992294E+03  0.00000000000E+00 0. -1.
          5    1    6    6  503    0  0.49255383809E+02 -0.29746898952E+02  0.11250617663E+03  0.12645434200E+03  0.47000000000E+01 0. -1.
         -5    1    6    6    0  503  0.26650921728E+02 -0.13481144073E+03  0.12599254283E+03  0.18649559520E+03  0.47000000000E+01 0.  1.
<mgrwt>
<rscale>  0 0.67636951E+03</rscale>
<asrwt>0</asrwt>
<pdfrwt beam="1">  1        2 0.13064987E+00 0.67636951E+03</pdfrwt>
<pdfrwt beam="2">  1       -2 0.13371168E+00 0.67636951E+03</pdfrwt>
<totfact> 0.13160111E+01</totfact>
</mgrwt>
</event>
<event>
12    1  0.3127365E-008  0.6398414E+03  0.7818608E-02  0.9826030E-01
          2   -1    0    0  501    0  0.00000000000E+00  0.00000000000E+00  0.61968206324E+03  0.61968206324E+03  0.00000000000E+00 0.  1.
         -2   -1    0    0    0  501 -0.00000000000E+00 -0.00000000000E+00 -0.75663372154E+03  0.75663372154E+03  0.00000000000E+00 0. -1.
         23    2    1    2    0    0  0.33863928432E+03 -0.38969073498E+03 -0.24276518542E+03  0.57768113060E+03  0.90802640821E+02 0.  0.
    5000000    2    1    2    0    0 -0.33863928432E+03  0.38969073498E+03  0.10581352712E+03  0.79863465419E+03  0.60007114123E+03 0.  0.
         23    2    4    4    0    0 -0.33461874708E+03  0.52068183257E+03  0.42434351510E+02  0.62682095114E+03  0.89579874623E+02 0.  0.
         23    2    4    4    0    0 -0.40205372413E+01 -0.13099109759E+03  0.63379175612E+02  0.17181370304E+03  0.91258951808E+02 0.  0.
          2    1    3    3  502    0  0.18947178821E+03 -0.15897916510E+03 -0.89102226732E+02  0.26289378135E+03  0.00000000000E+00 0. -1.
         -2    1    3    3    0  502  0.14916749611E+03 -0.23071156989E+03 -0.15366295869E+03  0.31478734925E+03  0.00000000000E+00 0.  1.
         13    1    5    5    0    0 -0.18658838157E+03  0.27124032443E+03  0.66125826057E+02  0.33579631119E+03  0.00000000000E+00 0.  1.
        -13    1    5    5    0    0 -0.14803036551E+03  0.24944150814E+03 -0.23691474547E+02  0.29102463996E+03  0.00000000000E+00 0. -1.
          5    1    6    6  503    0  0.19425245241E+02 -0.48728115410E+02 -0.15978286126E+02  0.55037850717E+02  0.47000000000E+01 0. -1.
         -5    1    6    6    0  503 -0.23445782482E+02 -0.82262982181E+02  0.79357461737E+02  0.11677585233E+03  0.47000000000E+01 0.  1.
<mgrwt>
<rscale>  0 0.63984141E+03</rscale>
<asrwt>0</asrwt>
<pdfrwt beam="1">  1        2 0.95335702E-01 0.63984141E+03</pdfrwt>
<pdfrwt beam="2">  1       -2 0.11640519E+00 0.63984141E+03</pdfrwt>
<totfact> 0.27925882E+01</totfact>
</mgrwt>
</event>
<event>
12    1  0.3127365E-008  0.5211217E+03  0.7818608E-02  0.1008408E+00
          2   -1    0    0  501    0  0.00000000000E+00  0.00000000000E+00  0.68832305144E+03  0.68832305144E+03  0.00000000000E+00 0. -1.
         -2   -1    0    0    0  501 -0.00000000000E+00 -0.00000000000E+00 -0.51169091543E+03  0.51169091543E+03  0.00000000000E+00 0.  1.
         23    2    1    2    0    0 -0.37789876729E+03 -0.20484998829E+03 -0.61428414740E+01  0.43966502949E+03  0.92177045076E+02 0.  0.
    5000000    2    1    2    0    0  0.37789876729E+03  0.20484998829E+03  0.18277497749E+03  0.76034893738E+03  0.59996068051E+03 0.  0.
         23    2    4    4    0    0 -0.76950654352E+02 -0.51049284475E+01 -0.11896910188E+03  0.16875469430E+03  0.91526150077E+02 0.  0.
         23    2    4    4    0    0  0.45484942164E+03  0.20995491673E+03  0.30174407937E+03  0.59159424307E+03  0.89247944363E+02 0.  0.
          4    1    3    3  502    0 -0.22543849272E+03 -0.12839019634E+03  0.41133076983E+02  0.26267562989E+03  0.00000000000E+00 0. -1.
         -4    1    3    3    0  502 -0.15246027456E+03 -0.76459791951E+02 -0.47275918457E+02  0.17698939960E+03  0.00000000000E+00 0.  1.
         11    1    5    5    0    0 -0.90957665066E+02 -0.13456077116E+02 -0.65601078691E+02  0.11295071656E+03  0.00000000000E+00 0. -1.
        -11    1    5    5    0    0  0.14007010714E+02  0.83511486689E+01 -0.53368023189E+02  0.55803977746E+02  0.00000000000E+00 0.  1.
          5    1    6    6  503    0  0.90507524177E+02  0.66456029708E+02  0.10297387294E+03  0.15242612744E+03  0.47000000000E+01 0. -1.
         -5    1    6    6    0  503  0.36434189746E+03  0.14349888703E+03  0.19877020643E+03  0.43916811563E+03  0.47000000000E+01 0.  1.
<mgrwt>
<rscale>  0 0.52112173E+03</rscale>
<asrwt>0</asrwt>
<pdfrwt beam="1">  1        2 0.10589585E+00 0.52112173E+03</pdfrwt>
<pdfrwt beam="2">  1       -2 0.78721680E-01 0.52112173E+03</pdfrwt>
<totfact> 0.61925873E+01</totfact>
</mgrwt>
</event>
<event>
12    1  0.3127365E-008  0.1494579E+04  0.7818608E-02  0.8888066E-01
          1   -1    0    0  501    0  0.00000000000E+00  0.00000000000E+00  0.32325928677E+04  0.32325928677E+04  0.00000000000E+00 0. -1.
         -1   -1    0    0    0  501 -0.00000000000E+00 -0.00000000000E+00 -0.87123113108E+03  0.87123113108E+03  0.00000000000E+00 0.  1.
         23    2    1    2    0    0  0.50472770744E+03 -0.13495422942E+04  0.20580030173E+04  0.25138959836E+04  0.91006235455E+02 0.  0.
    5000000    2    1    2    0    0 -0.50472770744E+03  0.13495422942E+04  0.30335871933E+03  0.15899280151E+04  0.59985841498E+03 0.  0.
         23    2    4    4    0    0 -0.57919340260E+03  0.80256657195E+03  0.26751686360E+03  0.10289813061E+04  0.87516603742E+02 0.  0.
         23    2    4    4    0    0  0.74465695164E+02  0.54697572230E+03  0.35841855735E+02  0.56094670903E+03  0.92999952731E+02 0.  0.
          1    1    3    3  502    0  0.18122301207E+03 -0.38823167961E+03  0.65403035748E+03  0.78187040209E+03  0.00000000000E+00 0. -1.
         -1    1    3    3    0  502  0.32350469537E+03 -0.96131061464E+03  0.14039726598E+04  0.17320255816E+04  0.00000000000E+00 0.  1.
         13    1    5    5    0    0 -0.10215484078E+03  0.11679821267E+03  0.13068213649E+02  0.15571837459E+03  0.00000000000E+00 0.  1.
        -13    1    5    5    0    0 -0.47703856182E+03  0.68576835928E+03  0.25444864995E+03  0.87326293149E+03  0.00000000000E+00 0. -1.
          5    1    6    6  503    0  0.14355574047E+02  0.33931673358E+03  0.54132788321E+02  0.34393949608E+03  0.47000000000E+01 0. -1.
         -5    1    6    6    0  503  0.60110121116E+02  0.20765898871E+03 -0.18290932586E+02  0.21700721294E+03  0.47000000000E+01 0.  1.
<mgrwt>
<rscale>  0 0.14945788E+04</rscale>
<asrwt>0</asrwt>
<pdfrwt beam="1">  1        1 0.49732197E+00 0.14945788E+04</pdfrwt>
<pdfrwt beam="2">  1       -1 0.13403556E+00 0.14945788E+04</pdfrwt>
<totfact> 0.18024518E-01</totfact>
</mgrwt>
</event>
<event>
12    1  0.3127365E-008  0.4918235E+03  0.7818608E-02  0.1015935E+00
         -3   -1    0    0    0  501 -0.00000000000E+00  0.00000000000E+00  0.12676930834E+04  0.12676930834E+04  0.00000000000E+00 0.  1.
          3   -1    0    0  501    0  0.00000000000E+00 -0.00000000000E+00 -0.28542435241E+03  0.28542435241E+03  0.00000000000E+00 0. -1.
         23    2    1    2    0    0 -0.43835012667E+03  0.53666658671E+02  0.45512121315E+03  0.64041469341E+03  0.89245263592E+02 0.  0.
    5000000    2    1    2    0    0  0.43835012667E+03 -0.53666658671E+02  0.52714751782E+03  0.91270274238E+03  0.60009236506E+03 0.  0.
         23    2    4    4    0    0  0.10805836911E+03 -0.13651133376E+03 -0.78984397272E+02  0.21174020360E+03  0.91013314569E+02 0.  0.
         23    2    4    4    0    0  0.33029175755E+03  0.82844675086E+02  0.60613191509E+03  0.70096253878E+03  0.89424252779E+02 0.  0.
          2    1    3    3  502    0 -0.34834361710E+03  0.59027460399E+02  0.31249915041E+03  0.47168128611E+03  0.00000000000E+00 0. -1.
         -2    1    3    3    0  502 -0.90006509564E+02 -0.53608017278E+01  0.14262206275E+03  0.16873340731E+03  0.00000000000E+00 0.  1.
         11    1    5    5    0    0  0.47823844400E+02 -0.27055337521E+01 -0.32226837170E+02  0.57732218388E+02  0.00000000000E+00 0.  1.
        -11    1    5    5    0    0  0.60234524713E+02 -0.13380580001E+03 -0.46757560102E+02  0.15400798521E+03  0.00000000000E+00 0. -1.
          5    1    6    6  503    0  0.24233458297E+03  0.86557116860E+02  0.38707269953E+03  0.46482851602E+03  0.47000000000E+01 0. -1.
         -5    1    6    6    0  503  0.87957174588E+02 -0.37124417746E+01  0.21905921555E+03  0.23613402276E+03  0.47000000000E+01 0.  1.
<mgrwt>
<rscale>  0 0.49182347E+03</rscale>
<asrwt>0</asrwt>
<pdfrwt beam="1">  1        3 0.43911440E-01 0.49182347E+03</pdfrwt>
<pdfrwt beam="2">  1       -3 0.19502970E+00 0.49182347E+03</pdfrwt>
<totfact> 0.21526997E+00</totfact>
</mgrwt>
</event>
<event>
12    1  0.3127365E-008  0.5144917E+03  0.7818608E-02  0.1010064E+00
         -2   -1    0    0    0  501 -0.00000000000E+00  0.00000000000E+00  0.60212007890E+03  0.60212007890E+03  0.00000000000E+00 0. -1.
          2   -1    0    0  501    0  0.00000000000E+00 -0.00000000000E+00 -0.50054877612E+03  0.50054877612E+03  0.00000000000E+00 0.  1.
         23    2    1    2    0    0 -0.36154200378E+03 -0.16150389959E+02  0.13235022461E+03  0.40123766838E+03  0.11181068365E+03 0.  0.
    5000000    2    1    2    0    0  0.36154200378E+03  0.16150389959E+02 -0.30778921840E+02  0.70143118664E+03  0.60007075580E+03 0.  0.
         23    2    4    4    0    0 -0.11306730537E+03 -0.10014226491E+03 -0.94657168124E+02  0.19983632210E+03  0.90343164590E+02 0.  0.
         23    2    4    4    0    0  0.47460930915E+03  0.11629265486E+03  0.63878246284E+02  0.50159486454E+03  0.93482618081E+02 0.  0.
          3    1    3    3  502    0 -0.15203158803E+03  0.87833149069E+01  0.21011976271E+00  0.15228524069E+03  0.00000000000E+00 0. -1.
         -3    1    3    3    0  502 -0.20951041575E+03 -0.24933704866E+02  0.13214010485E+03  0.24895242770E+03  0.00000000000E+00 0.  1.
         11    1    5    5    0    0 -0.81243978266E+02 -0.11505524230E+03 -0.75272779445E+02  0.15970060774E+03  0.00000000000E+00 0.  1.
        -11    1    5    5    0    0 -0.31823327100E+02  0.14912977398E+02 -0.19384388679E+02  0.40135714358E+02  0.00000000000E+00 0. -1.
          5    1    6    6  503    0  0.34729110052E+03  0.71038496681E+02  0.61065396682E+01  0.35456587024E+03  0.47000000000E+01 0. -1.
         -5    1    6    6    0  503  0.12731820862E+03  0.45254158184E+02  0.57771706616E+02  0.14702899430E+03  0.47000000000E+01 0.  1.
<mgrwt>
<rscale>  0 0.51449170E+03</rscale>
<asrwt>0</asrwt>
<pdfrwt beam="1">  1        2 0.77007504E-01 0.51449170E+03</pdfrwt>
<pdfrwt beam="2">  1       -2 0.92633858E-01 0.51449170E+03</pdfrwt>
<totfact> 0.62582540E+01</totfact>
</mgrwt>
</event>
<event>
12    1  0.3127365E-008  0.5877868E+03  0.7818608E-02  0.9931073E-01
          2   -1    0    0  501    0  0.00000000000E+00  0.00000000000E+00  0.19170037815E+04  0.19170037815E+04  0.00000000000E+00 0. -1.
         -2   -1    0    0    0  501 -0.00000000000E+00 -0.00000000000E+00 -0.21632551579E+03  0.21632551579E+03  0.00000000000E+00 0.  1.
         23    2    1    2    0    0  0.25121920342E+03  0.42636453085E+03  0.56180985625E+03  0.75424759207E+03  0.91440222180E+02 0.  0.
    5000000    2    1    2    0    0 -0.25121920342E+03 -0.42636453085E+03  0.11388684095E+04  0.13790817053E+04  0.59995607698E+03 0.  0.
         23    2    4    4    0    0  0.12511260555E+03 -0.11064933769E+03  0.66090130591E+03  0.68736355953E+03  0.88213869794E+02 0.  0.
         23    2    4    4    0    0 -0.37633180897E+03 -0.31571519315E+03  0.47796710358E+03  0.69171814572E+03  0.93379480556E+02 0.  0.
          1    1    3    3  502    0  0.19636564077E+03  0.25528741568E+03  0.38824526523E+03  0.50444575076E+03  0.00000000000E+00 0. -1.
         -1    1    3    3    0  502  0.54853562647E+02  0.17107711516E+03  0.17356459102E+03  0.24980184131E+03  0.00000000000E+00 0.  1.
         13    1    5    5    0    0  0.11540008395E+03 -0.68233559944E+02  0.37657979852E+03  0.39973158836E+03  0.00000000000E+00 0. -1.
        -13    1    5    5    0    0  0.97125215936E+01 -0.42415777749E+02  0.28432150738E+03  0.28763197117E+03  0.00000000000E+00 0.  1.
          5    1    6    6  503    0 -0.23848825660E+03 -0.15493984441E+03  0.23157390737E+03  0.36678545296E+03  0.47000000000E+01 0.  1.
         -5    1    6    6    0  503 -0.13784355236E+03 -0.16077534874E+03  0.24639319621E+03  0.32493269277E+03  0.47000000000E+01 0. -1.
<mgrwt>
<rscale>  0 0.58778685E+03</rscale>
<asrwt>0</asrwt>
<pdfrwt beam="1">  1        2 0.29492365E+00 0.58778685E+03</pdfrwt>
<pdfrwt beam="2">  1       -2 0.33280850E-01 0.58778685E+03</pdfrwt>
<totfact> 0.65680346E+01</totfact>
</mgrwt>
</event>
<event>
12    1  0.3127365E-008  0.6583107E+03  0.7818608E-02  0.9791309E-01
         -2   -1    0    0    0  501 -0.00000000000E+00  0.00000000000E+00  0.21500544086E+03  0.21500544086E+03  0.00000000000E+00 0.  1.
          2   -1    0    0  501    0  0.00000000000E+00 -0.00000000000E+00 -0.21850468672E+04  0.21850468672E+04  0.00000000000E+00 0. -1.
         23    2    1    2    0    0 -0.51537844257E+03  0.98308404566E+02 -0.10846716166E+04  0.12087679788E+04  0.96581723486E+02 0.  0.
    5000000    2    1    2    0    0  0.51537844257E+03 -0.98308404566E+02 -0.88536980981E+03  0.11912843293E+04  0.59999930971E+03 0.  0.
         23    2    4    4    0    0  0.63322895858E+03 -0.85159376140E+02 -0.75315828744E+03  0.99194756068E+03  0.92095189222E+02 0.  0.
         23    2    4    4    0    0 -0.11785051601E+03 -0.13149028426E+02 -0.13221152237E+03  0.19933676862E+03  0.90518614687E+02 0.  0.
          4    1    3    3  502    0 -0.29673489808E+03  0.25811681872E+02 -0.69443427223E+03  0.75561683485E+03  0.00000000000E+00 0. -1.
         -4    1    3    3    0  502 -0.21864354449E+03  0.72496722694E+02 -0.39023734433E+03  0.45315114395E+03  0.00000000000E+00 0.  1.
         13    1    5    5    0    0  0.53675925625E+03 -0.47448363055E+02 -0.59341906297E+03  0.80156598645E+03  0.00000000000E+00 0.  1.
        -13    1    5    5    0    0  0.96469702323E+02 -0.37711013085E+02 -0.15973922447E+03  0.19038157424E+03  0.00000000000E+00 0. -1.
          5    1    6    6  503    0  0.90095752393E+01 -0.16060469942E+02 -0.51248705174E+01  0.19684141804E+02  0.47000000000E+01 0. -1.
         -5    1    6    6    0  503 -0.12686009125E+03  0.29114415158E+01 -0.12708665185E+03  0.17965262682E+03  0.47000000000E+01 0.  1.
<mgrwt>
<rscale>  0 0.65831069E+03</rscale>
<asrwt>0</asrwt>
<pdfrwt beam="1">  1        2 0.33616105E+00 0.65831069E+03</pdfrwt>
<pdfrwt beam="2">  1       -2 0.33077761E-01 0.65831069E+03</pdfrwt>
<totfact> 0.47018784E+01</totfact>
</mgrwt>
</event>
<event>
12    1  0.3127365E-008  0.1026644E+04  0.7818608E-02  0.9279795E-01
         -2   -1    0    0    0  501 -0.00000000000E+00  0.00000000000E+00  0.63081171769E+03  0.63081171769E+03  0.00000000000E+00 0.  1.
          2   -1    0    0  501    0  0.00000000000E+00 -0.00000000000E+00 -0.24820845706E+04  0.24820845706E+04  0.00000000000E+00 0. -1.
         23    2    1    2    0    0 -0.20185071784E+03  0.97142281406E+03 -0.16620402481E+04  0.19378400002E+04  0.91869931361E+02 0.  0.
    5000000    2    1    2    0    0  0.20185071784E+03 -0.97142281406E+03 -0.18923260488E+03  0.11750562881E+04  0.60045175118E+03 0.  0.
         23    2    4    4    0    0  0.12676025863E+03 -0.11275948237E+03 -0.23904590750E+03  0.30675836091E+03  0.90415054405E+02 0.  0.
         23    2    4    4    0    0  0.75090459206E+02 -0.85866333169E+03  0.49813302627E+02  0.86829792719E+03  0.92296430028E+02 0.  0.
          2    1    3    3  502    0 -0.41579791505E+02  0.42303899182E+03 -0.71426055545E+03  0.83117928796E+03  0.00000000000E+00 0. -1.
         -2    1    3    3    0  502 -0.16027092633E+03  0.54838382224E+03 -0.94777969261E+03  0.11066607123E+04  0.00000000000E+00 0.  1.
         11    1    5    5    0    0 -0.14023256337E+01 -0.49030945631E+02 -0.64397180613E+02  0.80950583799E+02  0.00000000000E+00 0. -1.
        -11    1    5    5    0    0  0.12816258426E+03 -0.63728536742E+02 -0.17464872689E+03  0.22580777711E+03  0.00000000000E+00 0.  1.
          5    1    6    6  503    0  0.56708438373E+02 -0.27975352043E+03  0.45340030350E+02  0.28906000680E+03  0.47000000000E+01 0. -1.
         -5    1    6    6    0  503  0.18382020833E+02 -0.57890981126E+03  0.44732722769E+01  0.57923792040E+03  0.47000000000E+01 0.  1.
<mgrwt>
<rscale>  0 0.10266441E+04</rscale>
<asrwt>0</asrwt>
<pdfrwt beam="1">  1        2 0.38185917E+00 0.10266441E+04</pdfrwt>
<pdfrwt beam="2">  1       -2 0.97047956E-01 0.10266441E+04</pdfrwt>
<totfact> 0.31760537E+00</totfact>
</mgrwt>
</event>
<event>
12    1  0.3289763E-008  0.6257388E+03  0.7818608E-02  0.9853400E-01
          1   -1    0    0  501    0  0.00000000000E+00  0.00000000000E+00  0.12189144909E+04  0.12189144909E+04  0.00000000000E+00 0. -1.
         -1   -1    0    0    0  501 -0.00000000000E+00 -0.00000000000E+00 -0.53377295876E+03  0.53377295876E+03  0.00000000000E+00 0.  1.
         23    2    1    2    0    0  0.20444957653E+03 -0.54381323536E+03  0.70409088241E+03  0.91730297930E+03  0.90378763196E+02 0.  0.
    5000000    2    1    2    0    0 -0.20444957653E+03  0.54381323536E+03 -0.18949350227E+02  0.83538447040E+03  0.59997972567E+03 0.  0.
         23    2    4    4    0    0 -0.27434389811E+03  0.28445084093E+03  0.22363882886E+03  0.46287489617E+03  0.89788576063E+02 0.  0.
         23    2    4    4    0    0  0.69894321581E+02  0.25936239443E+03 -0.24258817909E+03  0.37250957423E+03  0.88092510637E+02 0.  0.
          3    1    3    3  502    0  0.14074307171E+03 -0.30714297638E+03  0.34808656925E+03  0.48508729097E+03  0.00000000000E+00 0. -1.
         -3    1    3    3    0  502  0.63706504824E+02 -0.23667025898E+03  0.35600431316E+03  0.43221568833E+03  0.00000000000E+00 0.  1.
         13    1    5    5    0    0 -0.16339233960E+03  0.13995440331E+03  0.75279786795E+02  0.22792836144E+03  0.00000000000E+00 0. -1.
        -13    1    5    5    0    0 -0.11095155851E+03  0.14449643762E+03  0.14835904206E+03  0.23494653473E+03  0.00000000000E+00 0.  1.
          5    1    6    6  503    0  0.18371543832E+02  0.13778182507E+03 -0.17667801515E+03  0.22485229815E+03  0.47000000000E+01 0. -1.
         -5    1    6    6    0  503  0.51522777749E+02  0.12158056936E+03 -0.65910163933E+02  0.14765727609E+03  0.47000000000E+01 0.  1.
<mgrwt>
<rscale>  0 0.62573883E+03</rscale>
<asrwt>0</asrwt>
<pdfrwt beam="1">  1        1 0.18752531E+00 0.62573883E+03</pdfrwt>
<pdfrwt beam="2">  1       -1 0.82118917E-01 0.62573883E+03</pdfrwt>
<totfact> 0.16051423E+01</totfact>
</mgrwt>
</event>
<event>
12    1  0.3127365E-008  0.4991950E+03  0.7818608E-02  0.1013989E+00
         -2   -1    0    0    0  501 -0.00000000000E+00  0.00000000000E+00  0.40153727786E+03  0.40153727786E+03  0.00000000000E+00 0. -1.
          2   -1    0    0  501    0  0.00000000000E+00 -0.00000000000E+00 -0.11208882156E+04  0.11208882156E+04  0.00000000000E+00 0.  1.
         23    2    1    2    0    0  0.46147272520E+03 -0.13302306034E+03 -0.28872097042E+02  0.48927180220E+03  0.88888063032E+02 0.  0.
    5000000    2    1    2    0    0 -0.46147272520E+03  0.13302306034E+03 -0.69047884067E+03  0.10331536912E+04  0.59999442464E+03 0.  0.
         23    2    4    4    0    0 -0.12788187800E+03  0.38592506474E+02 -0.65288032749E+03  0.67241367906E+03  0.89689896237E+02 0.  0.
         23    2    4    4    0    0 -0.33359084720E+03  0.94430553871E+02 -0.37598513174E+02  0.36074001216E+03  0.92302358273E+02 0.  0.
          2    1    3    3  502    0  0.23604197668E+03 -0.22007556874E+02 -0.98805088442E+01  0.23727151487E+03  0.00000000000E+00 0. -1.
         -2    1    3    3    0  502  0.22543074852E+03 -0.11101550347E+03 -0.18991588198E+02  0.25200028733E+03  0.00000000000E+00 0.  1.
         11    1    5    5    0    0 -0.52787008882E+02 -0.22755142591E+02 -0.15821461041E+03  0.16833338281E+03  0.00000000000E+00 0. -1.
        -11    1    5    5    0    0 -0.75094869122E+02  0.61347649065E+02 -0.49466571708E+03  0.50408029625E+03  0.00000000000E+00 0.  1.
          5    1    6    6  503    0 -0.31379811343E+03  0.66110740953E+02 -0.48136628106E+02  0.32431329147E+03  0.47000000000E+01 0. -1.
         -5    1    6    6    0  503 -0.19792733769E+02  0.28319812918E+02  0.10538114932E+02  0.36426720688E+02  0.47000000000E+01 0.  1.
<mgrwt>
<rscale>  0 0.49919505E+03</rscale>
<asrwt>0</asrwt>
<pdfrwt beam="1">  1        2 0.17244434E+00 0.49919505E+03</pdfrwt>
<pdfrwt beam="2">  1       -2 0.61774967E-01 0.49919505E+03</pdfrwt>
<totfact> 0.53815117E+01</totfact>
</mgrwt>
</event>
<event>
12    1  0.3127365E-008  0.5565583E+03  0.7818608E-02  0.9999872E-01
          1   -1    0    0  501    0  0.00000000000E+00  0.00000000000E+00  0.78491571707E+03  0.78491571707E+03  0.00000000000E+00 0. -1.
         -1   -1    0    0    0  501 -0.00000000000E+00 -0.00000000000E+00 -0.53111367589E+03  0.53111367589E+03  0.00000000000E+00 0.  1.
         23    2    1    2    0    0 -0.37729295478E+03  0.17126192919E+03  0.38865771440E+03  0.57455404000E+03  0.85888903887E+02 0.  0.
    5000000    2    1    2    0    0  0.37729295478E+03 -0.17126192919E+03 -0.13485567321E+03  0.74147535296E+03  0.59993251648E+03 0.  0.
         23    2    4    4    0    0  0.15553546998E+03  0.20626249156E+03 -0.10585873923E+03  0.29343157047E+03  0.90335574558E+02 0.  0.
         23    2    4    4    0    0  0.22175748479E+03 -0.37752442074E+03 -0.28996933987E+02  0.44804378249E+03  0.90561241879E+02 0.  0.
          3    1    3    3  502    0 -0.33107898252E+03  0.13821493013E+03  0.29263055818E+03  0.46297872862E+03  0.00000000000E+00 0. -1.
         -3    1    3    3    0  502 -0.46213972261E+02  0.33046999055E+02  0.96027156221E+02  0.11157531138E+03  0.00000000000E+00 0.  1.
         11    1    5    5    0    0  0.82553513024E+02  0.10358160988E+03 -0.10237839748E+03  0.16740838894E+03  0.00000000000E+00 0.  1.
        -11    1    5    5    0    0  0.72981956959E+02  0.10268088168E+03 -0.34803417489E+01  0.12602318153E+03  0.00000000000E+00 0. -1.
          5    1    6    6  503    0  0.11230269370E+03 -0.15985210673E+03  0.28987783028E+02  0.19755245532E+03  0.47000000000E+01 0. -1.
         -5    1    6    6    0  503  0.10945479109E+03 -0.21767231401E+03 -0.57984717016E+02  0.25049132717E+03  0.47000000000E+01 0.  1.
<mgrwt>
<rscale>  0 0.55655832E+03</rscale>
<asrwt>0</asrwt>
<pdfrwt beam="1">  1        1 0.12075626E+00 0.55655832E+03</pdfrwt>
<pdfrwt beam="2">  1       -1 0.81709796E-01 0.55655832E+03</pdfrwt>
<totfact> 0.35623270E+01</totfact>
</mgrwt>
</event>
<event>
12    1  0.3127365E-008  0.1488404E+04  0.7818608E-02  0.8892201E-01
          1   -1    0    0  501    0  0.00000000000E+00  0.00000000000E+00  0.45540453231E+04  0.45540453231E+04  0.00000000000E+00 0. -1.
         -1   -1    0    0    0  501 -0.00000000000E+00 -0.00000000000E+00 -0.74376191314E+03  0.74376191314E+03  0.00000000000E+00 0.  1.
         23    2    1    2    0    0 -0.10118443582E+04 -0.10732838513E+04  0.33161194890E+04  0.36304792275E+04  0.89239709183E+02 0.  0.
    5000000    2    1    2    0    0  0.10118443582E+04  0.10732838513E+04  0.49416392094E+03  0.16673280087E+04  0.60001456388E+03 0.  0.
         23    2    4    4    0    0  0.52927859012E+03  0.38357395088E+03 -0.48407666892E+02  0.66179750402E+03  0.91475856720E+02 0.  0.
         23    2    4    4    0    0  0.48256576810E+03  0.68970990046E+03  0.54257158784E+03  0.10055305046E+04  0.90211975271E+02 0.  0.
          4    1    3    3  502    0 -0.45644807699E+03 -0.50066622312E+03  0.16290642607E+04  0.17643304337E+04  0.00000000000E+00 0. -1.
         -4    1    3    3    0  502 -0.55539628123E+03 -0.57261762823E+03  0.16870552283E+04  0.18661487938E+04  0.00000000000E+00 0.  1.
         13    1    5    5    0    0  0.15655501146E+03  0.15142808972E+03  0.14105807590E+02  0.21826339999E+03  0.00000000000E+00 0.  1.
        -13    1    5    5    0    0  0.37272357866E+03  0.23214586116E+03 -0.62513474482E+02  0.44353410403E+03  0.00000000000E+00 0. -1.
          5    1    6    6  503    0  0.49865845087E+02  0.11356066457E+03  0.10457858301E+03  0.16230032984E+03  0.47000000000E+01 0. -1.
         -5    1    6    6    0  503  0.43269992301E+03  0.57614923590E+03  0.43799300483E+03  0.84323017479E+03  0.47000000000E+01 0.  1.
<mgrwt>
<rscale>  0 0.14884037E+04</rscale>
<asrwt>0</asrwt>
<pdfrwt beam="1">  1        1 0.70062234E+00 0.14884037E+04</pdfrwt>
<pdfrwt beam="2">  1       -1 0.11442491E+00 0.14884037E+04</pdfrwt>
<totfact> 0.19257033E-02</totfact>
</mgrwt>
</event>
<event>
12    1  0.3127365E-008  0.3951909E+03  0.7818608E-02  0.1045458E+00
         -2   -1    0    0    0  501 -0.00000000000E+00  0.00000000000E+00  0.42755006998E+03  0.42755006998E+03  0.00000000000E+00 0.  1.
          2   -1    0    0  501    0  0.00000000000E+00 -0.00000000000E+00 -0.16965092395E+04  0.16965092395E+04  0.00000000000E+00 0. -1.
         23    2    1    2    0    0 -0.61957474919E+02  0.25644051405E+03 -0.14236371194E+04  0.14506104623E+04  0.89037068692E+02 0.  0.
    5000000    2    1    2    0    0  0.61957474919E+02 -0.25644051405E+03  0.15467794990E+03  0.67344884718E+03  0.60000634633E+03 0.  0.
         23    2    4    4    0    0  0.24907495779E+03 -0.11622238949E+03 -0.11020824145E+03  0.30859829973E+03  0.86839367199E+02 0.  0.
         23    2    4    4    0    0 -0.18711748287E+03 -0.14021812456E+03  0.26488619135E+03  0.36485054745E+03  0.90978858838E+02 0.  0.
          3    1    3    3  502    0 -0.58035439761E+02  0.18882498693E+03 -0.83300315928E+03  0.85610586456E+03  0.00000000000E+00 0. -1.
         -3    1    3    3    0  502 -0.39220351583E+01  0.67615527114E+02 -0.59063396016E+03  0.59450459777E+03  0.00000000000E+00 0.  1.
         11    1    5    5    0    0  0.65972928804E+02 -0.34028517097E+02 -0.73693093056E+02  0.10459942292E+03  0.00000000000E+00 0. -1.
        -11    1    5    5    0    0  0.18310202899E+03 -0.82193872391E+02 -0.36515148395E+02  0.20399887681E+03  0.00000000000E+00 0.  1.
          5    1    6    6  503    0 -0.15557107082E+03 -0.65367544020E+02  0.16546778989E+03  0.23638306491E+03  0.47000000000E+01 0. -1.
         -5    1    6    6    0  503 -0.31546412056E+02 -0.74850580540E+02  0.99418401460E+02  0.12846748254E+03  0.47000000000E+01 0.  1.
<mgrwt>
<rscale>  0 0.39519093E+03</rscale>
<asrwt>0</asrwt>
<pdfrwt beam="1">  1        2 0.26100142E+00 0.39519093E+03</pdfrwt>
<pdfrwt beam="2">  1       -2 0.65776934E-01 0.39519093E+03</pdfrwt>
<totfact> 0.22914592E+01</totfact>
</mgrwt>
</event>
<event>
12    1  0.3127365E-008  0.1068731E+04  0.7818608E-02  0.9236216E-01
         -1   -1    0    0    0  501 -0.00000000000E+00  0.00000000000E+00  0.11382476489E+04  0.11382476489E+04  0.00000000000E+00 0.  1.
          1   -1    0    0  501    0  0.00000000000E+00 -0.00000000000E+00 -0.29168969380E+04  0.29168969380E+04  0.00000000000E+00 0. -1.
         23    2    1    2    0    0  0.93630910466E+03 -0.41307469045E+03 -0.24748517698E+04  0.26796447689E+04  0.91100855643E+02 0.  0.
    5000000    2    1    2    0    0 -0.93630910466E+03  0.41307469045E+03  0.69620248064E+03  0.13754998180E+04  0.59999701315E+03 0.  0.
         23    2    4    4    0    0 -0.79851116228E+03  0.49044066919E+03  0.72847509840E+03  0.11903096407E+04  0.89492711936E+02 0.  0.
         23    2    4    4    0    0 -0.13779794237E+03 -0.77365978741E+02 -0.32272617756E+02  0.18519017725E+03  0.90995122416E+02 0.  0.
          3    1    3    3  502    0  0.82870083662E+03 -0.33235267955E+03 -0.21423625232E+04  0.23209740544E+04  0.00000000000E+00 0. -1.
         -3    1    3    3    0  502  0.10760826804E+03 -0.80722010901E+02 -0.33248924655E+03  0.35867071453E+03  0.00000000000E+00 0.  1.
         11    1    5    5    0    0 -0.38127910280E+03  0.28115611837E+03  0.39220742233E+03  0.61501965762E+03  0.00000000000E+00 0.  1.
        -11    1    5    5    0    0 -0.41723205948E+03  0.20928455082E+03  0.33626767606E+03  0.57528998308E+03  0.00000000000E+00 0. -1.
          5    1    6    6  503    0 -0.10001851223E+03 -0.84277681037E+02  0.56690435770E+01  0.13099869604E+03  0.47000000000E+01 0. -1.
         -5    1    6    6    0  503 -0.37779430146E+02  0.69117022960E+01 -0.37941661333E+02  0.54191481207E+02  0.47000000000E+01 0.  1.
<mgrwt>
<rscale>  0 0.10687314E+04</rscale>
<asrwt>0</asrwt>
<pdfrwt beam="1">  1        1 0.44875337E+00 0.10687314E+04</pdfrwt>
<pdfrwt beam="2">  1       -1 0.17511502E+00 0.10687314E+04</pdfrwt>
<totfact> 0.15714555E-01</totfact>
</mgrwt>
</event>
<event>
12    1  0.3127365E-008  0.2445288E+03  0.7818608E-02  0.1116812E+00
          2   -1    0    0  501    0  0.00000000000E+00  0.00000000000E+00  0.17132465412E+04  0.17132465412E+04  0.00000000000E+00 0. -1.
         -2   -1    0    0    0  501 -0.00000000000E+00 -0.00000000000E+00 -0.11687945368E+03  0.11687945368E+03  0.00000000000E+00 0.  1.
         23    2    1    2    0    0  0.10970204028E+03  0.10636001417E+03  0.81024424548E+03  0.82947290652E+03  0.90457587151E+02 0.  0.
    5000000    2    1    2    0    0 -0.10970204028E+03 -0.10636001417E+03  0.78612284206E+03  0.10006530884E+04  0.59997540799E+03 0.  0.
         23    2    4    4    0    0 -0.67519741718E+02 -0.18568360644E+03  0.83618301034E+03  0.86396498587E+03  0.90532606253E+02 0.  0.
         23    2    4    4    0    0 -0.42182298560E+02  0.79323592265E+02 -0.50060168280E+02  0.13668810250E+03  0.90033539949E+02 0.  0.
          2    1    3    3  502    0  0.57432273621E+01  0.64810097267E+02  0.26709528269E+03  0.27490584462E+03  0.00000000000E+00 0. -1.
         -2    1    3    3    0  502  0.10395881292E+03  0.41549916904E+02  0.54314896279E+03  0.55456706191E+03  0.00000000000E+00 0.  1.
         13    1    5    5    0    0 -0.60825858111E+02 -0.15699719128E+03  0.52376884803E+03  0.55016516543E+03  0.00000000000E+00 0. -1.
        -13    1    5    5    0    0 -0.66938836065E+01 -0.28686415154E+02  0.31241416231E+03  0.31379982043E+03  0.00000000000E+00 0.  1.
          5    1    6    6  503    0 -0.61131434644E+02  0.50664863206E+02 -0.61100410306E+02  0.10029621531E+03  0.47000000000E+01 0. -1.
         -5    1    6    6    0  503  0.18949136084E+02  0.28658729058E+02  0.11040242027E+02  0.36391887194E+02  0.47000000000E+01 0.  1.
<mgrwt>
<rscale>  0 0.24452875E+03</rscale>
<asrwt>0</asrwt>
<pdfrwt beam="1">  1        2 0.26357637E+00 0.24452875E+03</pdfrwt>
<pdfrwt beam="2">  1       -2 0.17981456E-01 0.24452875E+03</pdfrwt>
<totfact> 0.26829673E+02</totfact>
</mgrwt>
</event>
<event>
12    1  0.3127365E-008  0.7081008E+03  0.7818608E-02  0.9703478E-01
         -2   -1    0    0    0  501 -0.00000000000E+00  0.00000000000E+00  0.13766722283E+04  0.13766722283E+04  0.00000000000E+00 0.  1.
          2   -1    0    0  501    0  0.00000000000E+00 -0.00000000000E+00 -0.85375475680E+03  0.85375475680E+03  0.00000000000E+00 0. -1.
         23    2    1    2    0    0 -0.10239502446E+03  0.58922930437E+03  0.10647757378E+04  0.12247312185E+04  0.92429819976E+02 0.  0.
    5000000    2    1    2    0    0  0.10239502446E+03 -0.58922930437E+03 -0.54185826631E+03  0.10056957666E+04  0.60011472236E+03 0.  0.
         23    2    4    4    0    0 -0.15511076288E+03 -0.50388258838E+03 -0.46492157257E+03  0.70896924810E+03  0.92348873753E+02 0.  0.
         23    2    4    4    0    0  0.25750578733E+03 -0.85346715991E+02 -0.76936693740E+02  0.29672651848E+03  0.92380081657E+02 0.  0.
          3    1    3    3  502    0 -0.68450720037E+02  0.16831247992E+03  0.28610461370E+03  0.33892542240E+03  0.00000000000E+00 0. -1.
         -3    1    3    3    0  502 -0.33944304418E+02  0.42091682445E+03  0.77867112412E+03  0.88580579613E+03  0.00000000000E+00 0.  1.
         13    1    5    5    0    0 -0.11454800788E+03 -0.38213303521E+03 -0.29561051294E+03  0.49652037025E+03  0.00000000000E+00 0. -1.
        -13    1    5    5    0    0 -0.40562754993E+02 -0.12174955316E+03 -0.16931105963E+03  0.21244887785E+03  0.00000000000E+00 0.  1.
          5    1    6    6  503    0  0.29538065085E+02 -0.44031103791E+02 -0.26969878425E+02  0.59671599042E+02  0.47000000000E+01 0. -1.
         -5    1    6    6    0  503  0.22796772225E+03 -0.41315612200E+02 -0.49966815314E+02  0.23705491944E+03  0.47000000000E+01 0.  1.
<mgrwt>
<rscale>  0 0.70810078E+03</rscale>
<asrwt>0</asrwt>
<pdfrwt beam="1">  1        2 0.13134689E+00 0.70810078E+03</pdfrwt>
<pdfrwt beam="2">  1       -2 0.21179573E+00 0.70810078E+03</pdfrwt>
<totfact> 0.36259172E+00</totfact>
</mgrwt>
</event>
<event>
12    1  0.3127365E-008  0.9023068E+03  0.7818608E-02  0.9422702E-01
         -2   -1    0    0    0  501 -0.00000000000E+00  0.00000000000E+00  0.12029048958E+04  0.12029048958E+04  0.00000000000E+00 0. -1.
          2   -1    0    0  501    0  0.00000000000E+00 -0.00000000000E+00 -0.12978722246E+04  0.12978722246E+04  0.00000000000E+00 0.  1.
         23    2    1    2    0    0 -0.30411778611E+03  0.79922961334E+03 -0.85204932021E+03  0.12106747931E+04  0.92140154001E+02 0.  0.
    5000000    2    1    2    0    0  0.30411778611E+03 -0.79922961334E+03  0.75708199148E+03  0.12901023273E+04  0.59994605623E+03 0.  0.
         23    2    4    4    0    0  0.21665308483E+03 -0.94847213023E+02  0.72061655511E+01  0.25359372491E+03  0.91232096928E+02 0.  0.
         23    2    4    4    0    0  0.87464701282E+02 -0.70438240031E+03  0.74987582593E+03  0.10365086024E+04  0.90728653925E+02 0.  0.
          4    1    3    3  502    0 -0.19461438415E+03  0.46827081983E+03 -0.56409314676E+03  0.75852053198E+03  0.00000000000E+00 0. -1.
         -4    1    3    3    0  502 -0.10950340196E+03  0.33095879351E+03 -0.28795617345E+03  0.45215426115E+03  0.00000000000E+00 0.  1.
         11    1    5    5    0    0  0.65501506773E+02 -0.17609433983E+02 -0.38251497811E+02  0.77869869908E+02  0.00000000000E+00 0.  1.
        -11    1    5    5    0    0  0.15115157805E+03 -0.77237779040E+02  0.45457663363E+02  0.17572385500E+03  0.00000000000E+00 0. -1.
          5    1    6    6  503    0  0.46458593216E+02 -0.53358644497E+03  0.51378207442E+03  0.74220415328E+03  0.47000000000E+01 0. -1.
         -5    1    6    6    0  503  0.41006108066E+02 -0.17079595534E+03  0.23609375150E+03  0.29430444910E+03  0.47000000000E+01 0.  1.
<mgrwt>
<rscale>  0 0.90230684E+03</rscale>
<asrwt>0</asrwt>
<pdfrwt beam="1">  1        2 0.19967265E+00 0.90230684E+03</pdfrwt>
<pdfrwt beam="2">  1       -2 0.18506229E+00 0.90230684E+03</pdfrwt>
<totfact> 0.27863377E+00</totfact>
</mgrwt>
</event>
<event>
12    1  0.3127365E-008  0.6808504E+03  0.7818608E-02  0.9750553E-01
          2   -1    0    0  501    0  0.00000000000E+00  0.00000000000E+00  0.11135862157E+04  0.11135862157E+04  0.00000000000E+00 0. -1.
         -2   -1    0    0    0  501 -0.00000000000E+00 -0.00000000000E+00 -0.52532119569E+03  0.52532119569E+03  0.00000000000E+00 0.  1.
         23    2    1    2    0    0  0.16546836484E+03  0.53666101425E+03  0.58596324502E+03  0.81676233686E+03  0.91449255995E+02 0.  0.
    5000000    2    1    2    0    0 -0.16546836484E+03 -0.53666101425E+03  0.23017749419E+01  0.82214507449E+03  0.60044350389E+03 0.  0.
         23    2    4    4    0    0  0.13947813494E+03  0.33278558221E+02 -0.20007081628E+02  0.16883052795E+03  0.86843832770E+02 0.  0.
         23    2    4    4    0    0 -0.30494649979E+03 -0.56993957247E+03  0.22308856570E+02  0.65331454654E+03  0.92188543970E+02 0.  0.
          4    1    3    3  502    0  0.11207086830E+02  0.93600833232E+02  0.14473041576E+03  0.17272408061E+03  0.00000000000E+00 0. -1.
         -4    1    3    3    0  502  0.15426127801E+03  0.44306018101E+03  0.44123282926E+03  0.64403825625E+03  0.00000000000E+00 0.  1.
         11    1    5    5    0    0  0.87826312016E+02  0.88413656840E+01 -0.52890703382E+02  0.10290314540E+03  0.00000000000E+00 0. -1.
        -11    1    5    5    0    0  0.51651822926E+02  0.24437192538E+02  0.32883621753E+02  0.65927382553E+02  0.00000000000E+00 0.  1.
          5    1    6    6  503    0 -0.18907680744E+03 -0.43873474050E+03  0.20256298686E+02  0.47819516860E+03  0.47000000000E+01 0.  1.
         -5    1    6    6    0  503 -0.11586969235E+03 -0.13120483197E+03  0.20525578844E+01  0.17511937794E+03  0.47000000000E+01 0.  1.
<mgrwt>
<rscale>  0 0.68085039E+03</rscale>
<asrwt>0</asrwt>
<pdfrwt beam="1">  1        2 0.17132096E+00 0.68085039E+03</pdfrwt>
<pdfrwt beam="2">  1       -2 0.80818646E-01 0.68085039E+03</pdfrwt>
<totfact> 0.29592883E+01</totfact>
</mgrwt>
</event>
<event>
12    1  0.3127365E-008  0.5782650E+03  0.7818608E-02  0.9951554E-01
         -2   -1    0    0    0  501 -0.00000000000E+00  0.00000000000E+00  0.23279521451E+03  0.23279521451E+03  0.00000000000E+00 0. -1.
          2   -1    0    0  501    0  0.00000000000E+00 -0.00000000000E+00 -0.19717204128E+04  0.19717204128E+04  0.00000000000E+00 0.  1.
         23    2    1    2    0    0  0.40267858732E+03 -0.27339317485E+03 -0.10837288469E+04  0.11914329031E+04  0.90278880117E+02 0.  0.
    5000000    2    1    2    0    0 -0.40267858732E+03  0.27339317485E+03 -0.65519635139E+03  0.10130827242E+04  0.60013371389E+03 0.  0.
         23    2    4    4    0    0 -0.47055936723E+03  0.27719001105E+03 -0.28104655204E+03  0.62101119814E+03  0.91691458122E+02 0.  0.
         23    2    4    4    0    0  0.67880779910E+02 -0.37968362061E+01 -0.37414979935E+03  0.39207152610E+03  0.95445235473E+02 0.  0.
          1    1    3    3  502    0  0.67291264442E+02 -0.66560850783E+02 -0.14268754955E+03  0.17122557614E+03  0.00000000000E+00 0. -1.
         -1    1    3    3    0  502  0.33538732288E+03 -0.20683232406E+03 -0.94104129736E+03  0.10202073269E+04  0.00000000000E+00 0.  1.
         13    1    5    5    0    0 -0.37400869512E+03  0.25340631259E+03 -0.20647321684E+03  0.49671767892E+03  0.00000000000E+00 0.  1.
        -13    1    5    5    0    0 -0.96550672115E+02  0.23783698467E+02 -0.74573335192E+02  0.12429351922E+03  0.00000000000E+00 0. -1.
          5    1    6    6  503    0 -0.24879465881E+01 -0.37919260327E+02 -0.10565125722E+03  0.11237587969E+03  0.47000000000E+01 0. -1.
         -5    1    6    6    0  503  0.70368726498E+02  0.34122424121E+02 -0.26849854213E+03  0.27969564641E+03  0.47000000000E+01 0.  1.
<mgrwt>
<rscale>  0 0.57826505E+03</rscale>
<asrwt>0</asrwt>
<pdfrwt beam="1">  1        2 0.30334158E+00 0.57826505E+03</pdfrwt>
<pdfrwt beam="2">  1       -2 0.35814651E-01 0.57826505E+03</pdfrwt>
<totfact> 0.53478078E+01</totfact>
</mgrwt>
</event>
<event>
12    1  0.3127365E-008  0.4265570E+03  0.7818608E-02  0.1034953E+00
          2   -1    0    0  501    0  0.00000000000E+00  0.00000000000E+00  0.94121454881E+03  0.94121454881E+03  0.00000000000E+00 0. -1.
         -2   -1    0    0    0  501 -0.00000000000E+00 -0.00000000000E+00 -0.32055351157E+03  0.32055351157E+03  0.00000000000E+00 0.  1.
         23    2    1    2    0    0  0.21483788421E+03 -0.61224450722E+02 -0.13082830747E+03  0.27455267497E+03  0.91429620143E+02 0.  0.
    5000000    2    1    2    0    0 -0.21483788421E+03  0.61224450722E+02  0.75148934471E+03  0.98721538541E+03  0.59996185888E+03 0.  0.
         23    2    4    4    0    0 -0.19936997790E+03 -0.23537907634E+03  0.31338129216E+03  0.45054545251E+03  0.98141086337E+02 0.  0.
         23    2    4    4    0    0 -0.15467906305E+02  0.29660352706E+03  0.43810805255E+03  0.53666993290E+03  0.88673799838E+02 0.  0.
          1    1    3    3  502    0  0.81029515790E+02  0.74979208729E+01 -0.84130399010E+02  0.11704667994E+03  0.00000000000E+00 0. -1.
         -1    1    3    3    0  502  0.13380836842E+03 -0.68722371595E+02 -0.46697908460E+02  0.15750599503E+03  0.00000000000E+00 0.  1.
         11    1    5    5    0    0 -0.38077212959E+02 -0.12279363187E+01  0.24989476317E+02  0.45561561660E+02  0.00000000000E+00 0.  1.
        -11    1    5    5    0    0 -0.16129276495E+03 -0.23415114002E+03  0.28839181585E+03  0.40498389085E+03  0.00000000000E+00 0. -1.
          5    1    6    6  503    0  0.96268260755E+01  0.11540574075E+03  0.10394428994E+03  0.15568450851E+03  0.47000000000E+01 0. -1.
         -5    1    6    6    0  503 -0.25094732380E+02  0.18119778632E+03  0.33416376261E+03  0.38098542439E+03  0.47000000000E+01 0.  1.
<mgrwt>
<rscale>  0 0.42655695E+03</rscale>
<asrwt>0</asrwt>
<pdfrwt beam="1">  1        2 0.14480224E+00 0.42655695E+03</pdfrwt>
<pdfrwt beam="2">  1       -2 0.49315925E-01 0.42655695E+03</pdfrwt>
<totfact> 0.11167687E+02</totfact>
</mgrwt>
</event>
<event>
12    1  0.3127365E-008  0.3732440E+03  0.7818608E-02  0.1053459E+00
          1   -1    0    0  501    0  0.00000000000E+00  0.00000000000E+00  0.16999897319E+04  0.16999897319E+04  0.00000000000E+00 0. -1.
         -1   -1    0    0    0  501 -0.00000000000E+00 -0.00000000000E+00 -0.30881317652E+03  0.30881317652E+03  0.00000000000E+00 0.  1.
         23    2    1    2    0    0 -0.20027340225E+03  0.25013153910E+03  0.12761421056E+04  0.13189718865E+04  0.92048580402E+02 0.  0.
    5000000    2    1    2    0    0  0.20027340225E+03 -0.25013153910E+03  0.11503444974E+03  0.68983102190E+03  0.59996557539E+03 0.  0.
         23    2    4    4    0    0  0.15026976866E+03  0.86781467090E+01  0.30521812402E+03  0.35226602172E+03  0.90977652344E+02 0.  0.
         23    2    4    4    0    0  0.50003633586E+02 -0.25880968581E+03 -0.19018367427E+03  0.33756500018E+03  0.91090518434E+02 0.  0.
          4    1    3    3  502    0 -0.39238639803E+02  0.11209430077E+03  0.38301330262E+03  0.40100373203E+03  0.00000000000E+00 0. -1.
         -4    1    3    3    0  502 -0.16103476244E+03  0.13803723833E+03  0.89312880301E+03  0.91796815448E+03  0.00000000000E+00 0.  1.
         13    1    5    5    0    0  0.10274513956E+03 -0.34772583440E+01  0.10827462504E+03  0.14930522247E+03  0.00000000000E+00 0. -1.
        -13    1    5    5    0    0  0.47524629101E+02  0.12155405053E+02  0.19694349898E+03  0.20296079925E+03  0.00000000000E+00 0.  1.
          5    1    6    6  503    0  0.22783479029E+02 -0.11648793010E+03 -0.14123309861E+03  0.18454647902E+03  0.47000000000E+01 0. -1.
         -5    1    6    6    0  503  0.27220154557E+02 -0.14232175571E+03 -0.48950575666E+02  0.15301852116E+03  0.47000000000E+01 0.  1.
<mgrwt>
<rscale>  0 0.37324399E+03</rscale>
<asrwt>0</asrwt>
<pdfrwt beam="1">  1        1 0.26153688E+00 0.37324399E+03</pdfrwt>
<pdfrwt beam="2">  1       -1 0.47509720E-01 0.37324399E+03</pdfrwt>
<totfact> 0.23451996E+01</totfact>
</mgrwt>
</event>
<event>
12    1  0.3127365E-008  0.1346824E+04  0.7818608E-02  0.8993236E-01
          1   -1    0    0  501    0  0.00000000000E+00  0.00000000000E+00  0.13195924718E+04  0.13195924718E+04  0.00000000000E+00 0. -1.
         -1   -1    0    0    0  501 -0.00000000000E+00 -0.00000000000E+00 -0.14488968986E+04  0.14488968986E+04  0.00000000000E+00 0.  1.
         23    2    1    2    0    0  0.11832231258E+04  0.50862393393E+03  0.21296815988E+03  0.13070427044E+04  0.65497499079E+02 0.  0.
    5000000    2    1    2    0    0 -0.11832231258E+04 -0.50862393393E+03 -0.34227258665E+03  0.14614466660E+04  0.59996713443E+03 0.  0.
         23    2    4    4    0    0 -0.11314714966E+04 -0.59723397077E+03 -0.32692047448E+03  0.13236412277E+04  0.90735547020E+02 0.  0.
         23    2    4    4    0    0 -0.51751629239E+02  0.88610036836E+02 -0.15352112170E+02  0.13780543836E+03  0.90690031081E+02 0.  0.
          4    1    3    3  502    0  0.35373079547E+03  0.17747970208E+03  0.46014438233E+02  0.39842420715E+03  0.00000000000E+00 0. -1.
         -4    1    3    3    0  502  0.82949233037E+03  0.33114423185E+03  0.16695372165E+03  0.90861849728E+03  0.00000000000E+00 0.  1.
         11    1    5    5    0    0 -0.83763151304E+03 -0.41015962288E+03 -0.20809376415E+03  0.95559430856E+03  0.00000000000E+00 0. -1.
        -11    1    5    5    0    0 -0.29383998356E+03 -0.18707434788E+03 -0.11882671033E+03  0.36804691910E+03  0.00000000000E+00 0.  1.
          5    1    6    6  503    0 -0.62436728905E+02  0.92269909581E+02  0.76308935198E+01  0.11176941382E+03  0.47000000000E+01 0. -1.
         -5    1    6    6    0  503  0.10685099666E+02 -0.36598727445E+01 -0.22983005689E+02  0.26036024541E+02  0.47000000000E+01 0.  1.
<mgrwt>
<rscale>  0 0.13468236E+04</rscale>
<asrwt>0</asrwt>
<pdfrwt beam="1">  1        1 0.20301423E+00 0.13468236E+04</pdfrwt>
<pdfrwt beam="2">  1       -1 0.22290722E+00 0.13468236E+04</pdfrwt>
<totfact> 0.88801809E-01</totfact>
</mgrwt>
</event>
<event>
12    1  0.3127365E-008  0.3358157E+03  0.7818608E-02  0.1068592E+00
          1   -1    0    0  501    0  0.00000000000E+00  0.00000000000E+00  0.21345069408E+03  0.21345069408E+03  0.00000000000E+00 0. -1.
         -1   -1    0    0    0  501 -0.00000000000E+00 -0.00000000000E+00 -0.10339151487E+04  0.10339151487E+04  0.00000000000E+00 0.  1.
         23    2    1    2    0    0 -0.61241902656E+01 -0.26295493992E+03 -0.30852499185E+03  0.41598638189E+03  0.93135348767E+02 0.  0.
    5000000    2    1    2    0    0  0.61241902656E+01  0.26295493992E+03 -0.51193946278E+03  0.83137946089E+03  0.59993915384E+03 0.  0.
         23    2    4    4    0    0  0.86757185742E+02  0.27033860885E+03 -0.60763678664E+03  0.67685986312E+03  0.91142948757E+02 0.  0.
         23    2    4    4    0    0 -0.80632995476E+02 -0.73836689372E+01  0.95697323857E+02  0.15451959778E+03  0.90344506074E+02 0.  0.
          3    1    3    3  502    0  0.23547467555E+02 -0.14771557040E+03 -0.22658625955E+03  0.27150636454E+03  0.00000000000E+00 0. -1.
         -3    1    3    3    0  502 -0.29671657821E+02 -0.11523936951E+03 -0.81938732301E+02  0.14448001735E+03  0.00000000000E+00 0.  1.
         11    1    5    5    0    0 -0.83088618202E+00  0.43319992865E+02 -0.17705522280E+03  0.18227963154E+03  0.00000000000E+00 0.  1.
        -11    1    5    5    0    0  0.87588071924E+02  0.22701861599E+03 -0.43058156383E+03  0.49458023157E+03  0.00000000000E+00 0. -1.
          5    1    6    6  503    0  0.16000882591E+02  0.78900859267E+01  0.34224801246E+02  0.38880698553E+02  0.47000000000E+01 0. -1.
         -5    1    6    6    0  503 -0.96633878067E+02 -0.15273754864E+02  0.61472522611E+02  0.11563889923E+03  0.47000000000E+01 0.  1.
<mgrwt>
<rscale>  0 0.33581567E+03</rscale>
<asrwt>0</asrwt>
<pdfrwt beam="1">  1        1 0.32838568E-01 0.33581567E+03</pdfrwt>
<pdfrwt beam="2">  1       -1 0.15906387E+00 0.33581567E+03</pdfrwt>
<totfact> 0.43479872E+01</totfact>
</mgrwt>
</event>
<event>
12    1  0.3127365E-008  0.1258971E+04  0.7818608E-02  0.9062750E-01
          1   -1    0    0  501    0  0.00000000000E+00  0.00000000000E+00  0.20835058864E+04  0.20835058864E+04  0.00000000000E+00 0. -1.
         -1   -1    0    0    0  501 -0.00000000000E+00 -0.00000000000E+00 -0.80834408008E+03  0.80834408008E+03  0.00000000000E+00 0.  1.
         23    2    1    2    0    0  0.11505294138E+04 -0.33484407805E+03  0.89603682405E+03  0.14990699848E+04  0.92143044290E+02 0.  0.
    5000000    2    1    2    0    0 -0.11505294138E+04  0.33484407805E+03  0.37912498232E+03  0.13927799818E+04  0.60021815769E+03 0.  0.
         23    2    4    4    0    0 -0.75679022685E+03  0.47710023481E+03  0.34301317938E+03  0.96252928447E+03  0.91915726183E+02 0.  0.
         23    2    4    4    0    0 -0.39373918692E+03 -0.14225615677E+03  0.36111802933E+02  0.43025069729E+03  0.92435051525E+02 0.  0.
          1    1    3    3  502    0  0.24520479814E+03 -0.99395010052E+02  0.16448787746E+03  0.31154618098E+03  0.00000000000E+00 0. -1.
         -1    1    3    3    0  502  0.90532461564E+03 -0.23544906800E+03  0.73154894659E+03  0.11875238038E+04  0.00000000000E+00 0.  1.
         11    1    5    5    0    0 -0.14572953940E+03  0.11911515747E+03  0.10427171407E+03  0.21516995549E+03  0.00000000000E+00 0. -1.
        -11    1    5    5    0    0 -0.61106068745E+03  0.35798507735E+03  0.23874146531E+03  0.74735932898E+03  0.00000000000E+00 0.  1.
          5    1    6    6  503    0 -0.34791480277E+03 -0.14096543150E+03  0.56884447780E+02  0.37970237459E+03  0.47000000000E+01 0. -1.
         -5    1    6    6    0  503 -0.45824384150E+02 -0.12907252707E+01 -0.20772644847E+02  0.50548322705E+02  0.47000000000E+01 0.  1.
<mgrwt>
<rscale>  0 0.12589711E+04</rscale>
<asrwt>0</asrwt>
<pdfrwt beam="1">  1        1 0.32053936E+00 0.12589711E+04</pdfrwt>
<pdfrwt beam="2">  1       -1 0.12436063E+00 0.12589711E+04</pdfrwt>
<totfact> 0.14494192E+00</totfact>
</mgrwt>
</event>
<event>
12    1  0.3127365E-008  0.4324975E+03  0.7818608E-02  0.1033074E+00
          2   -1    0    0  501    0  0.00000000000E+00  0.00000000000E+00  0.23097821402E+04  0.23097821402E+04  0.00000000000E+00 0.  1.
         -2   -1    0    0    0  501 -0.00000000000E+00 -0.00000000000E+00 -0.13484313870E+03  0.13484313870E+03  0.00000000000E+00 0. -1.
         23    2    1    2    0    0 -0.52735240274E+02  0.34990834791E+03  0.11385270137E+04  0.11960041345E+04  0.94685115548E+02 0.  0.
    5000000    2    1    2    0    0  0.52735240274E+02 -0.34990834791E+03  0.10364119877E+04  0.12486211444E+04  0.59974002406E+03 0.  0.
         23    2    4    4    0    0  0.13803398211E+03 -0.34526461251E+03  0.10552001073E+04  0.11223698536E+04  0.89475074401E+02 0.  0.
         23    2    4    4    0    0 -0.85298741835E+02 -0.46437354058E+01 -0.18788119554E+02  0.12625129083E+03  0.91043700297E+02 0.  0.
          4    1    3    3  502    0 -0.47881010476E+02  0.68759440118E+02  0.22071808177E+03  0.23608668618E+03  0.00000000000E+00 0. -1.
         -4    1    3    3    0  502 -0.48542297978E+01  0.28114890780E+03  0.91780893198E+03  0.95991744828E+03  0.00000000000E+00 0.  1.
         13    1    5    5    0    0  0.66092250284E+02 -0.25372697969E+03  0.65343928201E+03  0.70407986837E+03  0.00000000000E+00 0.  1.
        -13    1    5    5    0    0  0.71941731826E+02 -0.91537632823E+02  0.40176082528E+03  0.41828998522E+03  0.00000000000E+00 0. -1.
          5    1    6    6  503    0 -0.37543199652E+02 -0.44932195994E+02  0.56187053645E+01  0.59008930909E+02  0.47000000000E+01 0. -1.
         -5    1    6    6    0  503 -0.47755542183E+02  0.40288460589E+02 -0.24406824918E+02  0.67242359926E+02  0.47000000000E+01 0.  1.
<mgrwt>
<rscale>  0 0.43249747E+03</rscale>
<asrwt>0</asrwt>
<pdfrwt beam="1">  1        2 0.35535107E+00 0.43249747E+03</pdfrwt>
<pdfrwt beam="2">  1       -2 0.20745100E-01 0.43249747E+03</pdfrwt>
<totfact> 0.97068371E+01</totfact>
</mgrwt>
</event>
<event>
12    1  0.3127365E-008  0.5574505E+03  0.7818608E-02  0.9997840E-01
          2   -1    0    0  501    0  0.00000000000E+00  0.00000000000E+00  0.82250136281E+03  0.82250136281E+03  0.00000000000E+00 0. -1.
         -2   -1    0    0    0  501 -0.00000000000E+00 -0.00000000000E+00 -0.81394048023E+03  0.81394048023E+03  0.00000000000E+00 0.  1.
         23    2    1    2    0    0 -0.23573446249E+03  0.38476486549E+03 -0.53781577515E+03  0.70821852626E+03  0.93343100528E+02 0.  0.
    5000000    2    1    2    0    0  0.23573446249E+03 -0.38476486549E+03  0.54637665773E+03  0.92822331678E+03  0.59954677482E+03 0.  0.
         23    2    4    4    0    0 -0.96766559261E+02  0.26005729631E+02  0.31716635085E+03  0.34457294942E+03  0.89977543845E+02 0.  0.
         23    2    4    4    0    0  0.33250102175E+03 -0.41077059512E+03  0.22921030688E+03  0.58365036736E+03  0.93920047200E+02 0.  0.
          2    1    3    3  502    0 -0.38169749739E+02  0.14506797005E+03 -0.18401234737E+03  0.23740722338E+03  0.00000000000E+00 0. -1.
         -2    1    3    3    0  502 -0.19756471275E+03  0.23969689543E+03 -0.35380342779E+03  0.47081130288E+03  0.00000000000E+00 0.  1.
         13    1    5    5    0    0 -0.63752103382E+02 -0.21915205238E+02  0.23070249705E+03  0.24035026327E+03  0.00000000000E+00 0.  1.
        -13    1    5    5    0    0 -0.33014455879E+02  0.47920934869E+02  0.86463853798E+02  0.10422268615E+03  0.00000000000E+00 0. -1.
          5    1    6    6  503    0  0.25153357681E+03 -0.31662691862E+03  0.21657950574E+03  0.45874886176E+03  0.47000000000E+01 0. -1.
         -5    1    6    6    0  503  0.80967444938E+02 -0.94143676499E+02  0.12630801133E+02  0.12490150560E+03  0.47000000000E+01 0.  1.
<mgrwt>
<rscale>  0 0.55745054E+03</rscale>
<asrwt>0</asrwt>
<pdfrwt beam="1">  1        2 0.12653867E+00 0.55745054E+03</pdfrwt>
<pdfrwt beam="2">  1       -2 0.12522161E+00 0.55745054E+03</pdfrwt>
<totfact> 0.16454681E+01</totfact>
</mgrwt>
</event>
<event>
12    1  0.3127365E-008  0.1319099E+04  0.7818608E-02  0.9014555E-01
          2   -1    0    0  501    0  0.00000000000E+00  0.00000000000E+00  0.10811978286E+04  0.10811978286E+04  0.00000000000E+00 0. -1.
         -2   -1    0    0    0  501 -0.00000000000E+00 -0.00000000000E+00 -0.19711481003E+04  0.19711481003E+04  0.00000000000E+00 0.  1.
         23    2    1    2    0    0  0.80241004623E+03  0.10360084342E+04  0.78343954416E+02  0.13159332731E+04  0.91472651464E+02 0.  0.
    5000000    2    1    2    0    0 -0.80241004623E+03 -0.10360084342E+04 -0.96829422606E+03  0.17364126558E+04  0.60029979598E+03 0.  0.
         23    2    4    4    0    0 -0.38983717855E+03 -0.42281542291E+03 -0.76999970459E+03  0.96580996342E+03  0.95621298627E+02 0.  0.
         23    2    4    4    0    0 -0.41257286768E+03 -0.61319301126E+03 -0.19829452148E+03  0.77060269238E+03  0.91026106459E+02 0.  0.
          3    1    3    3  502    0  0.56550239123E+03  0.78599635701E+03  0.78970796253E+02  0.97150379021E+03  0.00000000000E+00 0. -1.
         -3    1    3    3    0  502  0.23690765500E+03  0.25001207716E+03 -0.62684183686E+00  0.34442948284E+03  0.00000000000E+00 0.  1.
         11    1    5    5    0    0 -0.12814618024E+03 -0.85644815137E+02 -0.16971959621E+03  0.22926233709E+03  0.00000000000E+00 0.  1.
        -11    1    5    5    0    0 -0.26169099831E+03 -0.33717060778E+03 -0.60028010838E+03  0.73654762633E+03  0.00000000000E+00 0. -1.
          5    1    6    6  503    0 -0.22619149942E+03 -0.41347369675E+03 -0.13197041285E+03  0.48945007118E+03  0.47000000000E+01 0. -1.
         -5    1    6    6    0  503 -0.18638136826E+03 -0.19971931451E+03 -0.66324108624E+02  0.28115262120E+03  0.47000000000E+01 0.  1.
<mgrwt>
<rscale>  0 0.13190995E+04</rscale>
<asrwt>0</asrwt>
<pdfrwt beam="1">  1        2 0.16633813E+00 0.13190995E+04</pdfrwt>
<pdfrwt beam="2">  1       -2 0.30325355E+00 0.13190995E+04</pdfrwt>
<totfact> 0.65515143E-01</totfact>
</mgrwt>
</event>
<event>
12    1  0.3127365E-008  0.7981183E+03  0.7818608E-02  0.9562745E-01
         -2   -1    0    0    0  501 -0.00000000000E+00  0.00000000000E+00  0.43662650768E+03  0.43662650768E+03  0.00000000000E+00 0. -1.
          2   -1    0    0  501    0  0.00000000000E+00 -0.00000000000E+00 -0.19491637825E+04  0.19491637825E+04  0.00000000000E+00 0.  1.
         23    2    1    2    0    0  0.52385428488E+03  0.46985117329E+03 -0.12824135680E+03  0.72104311927E+03  0.90960966457E+02 0.  0.
    5000000    2    1    2    0    0 -0.52385428488E+03 -0.46985117329E+03 -0.13842959180E+04  0.16647471709E+04  0.59993709467E+03 0.  0.
         23    2    4    4    0    0 -0.26329579834E+03  0.64525716332E+02 -0.68215697982E+03  0.74039385451E+03  0.96729877433E+02 0.  0.
         23    2    4    4    0    0 -0.26055848655E+03 -0.53437688962E+03 -0.70213893815E+03  0.92435331635E+03  0.89334091586E+02 0.  0.
          1    1    3    3  502    0  0.25552428495E+03  0.27705021188E+03 -0.39750796091E+02  0.37898496790E+03  0.00000000000E+00 0. -1.
         -1    1    3    3    0  502  0.26832999993E+03  0.19280096140E+03 -0.88490560709E+02  0.34205815137E+03  0.00000000000E+00 0.  1.
         11    1    5    5    0    0 -0.13152712474E+03  0.81781832228E+02 -0.35993305120E+03  0.39184110807E+03  0.00000000000E+00 0.  1.
        -11    1    5    5    0    0 -0.13176867360E+03 -0.17256115896E+02 -0.32222392862E+03  0.34855274644E+03  0.00000000000E+00 0. -1.
          5    1    6    6  503    0 -0.17472563777E+03 -0.25732844893E+03 -0.36833345815E+03  0.48211887074E+03  0.47000000000E+01 0. -1.
         -5    1    6    6    0  503 -0.85832848773E+02 -0.27704844069E+03 -0.33380548000E+03  0.44223444562E+03  0.47000000000E+01 0.  1.
<mgrwt>
<rscale>  0 0.79811833E+03</rscale>
<asrwt>0</asrwt>
<pdfrwt beam="1">  1        2 0.29987135E+00 0.79811833E+03</pdfrwt>
<pdfrwt beam="2">  1       -2 0.67173309E-01 0.79811833E+03</pdfrwt>
<totfact> 0.14887918E+01</totfact>
</mgrwt>
</event>
<event>
12    1  0.3127365E-008  0.8692935E+03  0.7818608E-02  0.9464802E-01
         -2   -1    0    0    0  501 -0.00000000000E+00  0.00000000000E+00  0.21841848670E+03  0.21841848670E+03  0.00000000000E+00 0.  1.
          2   -1    0    0  501    0  0.00000000000E+00 -0.00000000000E+00 -0.36319379926E+04  0.36319379926E+04  0.00000000000E+00 0. -1.
         23    2    1    2    0    0  0.32694689455E+03  0.71452627639E+03 -0.14658302365E+04  0.16657957138E+04  0.93675004869E+02 0.  0.
    5000000    2    1    2    0    0 -0.32694689455E+03 -0.71452627639E+03 -0.19476892694E+04  0.21845607654E+04  0.60114072917E+03 0.  0.
         23    2    4    4    0    0  0.91628244604E+01 -0.57019752434E+03 -0.14519571716E+04  0.15625804653E+04  0.90933538666E+02 0.  0.
         23    2    4    4    0    0 -0.33610971901E+03 -0.14432875205E+03 -0.49573209782E+03  0.62198030010E+03  0.85490637034E+02 0.  0.
          4    1    3    3  502    0  0.27085262310E+03  0.49468028772E+03 -0.10709690070E+04  0.12103901621E+04  0.00000000000E+00 0. -1.
         -4    1    3    3    0  502  0.56094271452E+02  0.21984598867E+03 -0.39486122950E+03  0.45540555177E+03  0.00000000000E+00 0.  1.
         13    1    5    5    0    0  0.39697655476E+02 -0.37912551850E+03 -0.10332377915E+04  0.11013139409E+04  0.00000000000E+00 0. -1.
        -13    1    5    5    0    0 -0.30534831016E+02 -0.19107200585E+03 -0.41871938009E+03  0.46126652446E+03  0.00000000000E+00 0.  1.
          5    1    6    6  503    0 -0.88845502842E+01  0.72246828222E+01 -0.33403655466E+02  0.35623383811E+02  0.47000000000E+01 0. -1.
         -5    1    6    6    0  503 -0.32722516873E+03 -0.15155343487E+03 -0.46232844236E+03  0.58635691629E+03  0.47000000000E+01 0.  1.
<mgrwt>
<rscale>  0 0.86929346E+03</rscale>
<asrwt>0</asrwt>
<pdfrwt beam="1">  1        2 0.55875963E+00 0.86929346E+03</pdfrwt>
<pdfrwt beam="2">  1       -2 0.33602848E-01 0.86929346E+03</pdfrwt>
<totfact> 0.57637656E+00</totfact>
</mgrwt>
</event>
<event>
12    1  0.3127365E-008  0.3736458E+03  0.7818608E-02  0.1053308E+00
         -3   -1    0    0    0  501 -0.00000000000E+00  0.00000000000E+00  0.21057942196E+03  0.21057942196E+03  0.00000000000E+00 0.  1.
          3   -1    0    0  501    0  0.00000000000E+00 -0.00000000000E+00 -0.70343727543E+03  0.70343727543E+03  0.00000000000E+00 0. -1.
         23    2    1    2    0    0 -0.11669847016E+03 -0.62386663101E+02 -0.12447363485E+03  0.19752283085E+03  0.77530344146E+02 0.  0.
    5000000    2    1    2    0    0  0.11669847016E+03  0.62386663101E+02 -0.36838421862E+03  0.71649386653E+03  0.60012157067E+03 0.  0.
         23    2    4    4    0    0  0.20838482337E+03 -0.20834074299E+03 -0.13644123311E+03  0.33739462984E+03  0.91590536358E+02 0.  0.
         23    2    4    4    0    0 -0.91686353208E+02  0.27072740609E+03 -0.23194298551E+03  0.37909923669E+03  0.90658518417E+02 0.  0.
          1    1    3    3  502    0 -0.17386420147E+00 -0.30605198283E+02 -0.13318319944E+02  0.33377927389E+02  0.00000000000E+00 0. -1.
         -1    1    3    3    0  502 -0.11652460596E+03 -0.31781464818E+02 -0.11115531491E+03  0.16414490346E+03  0.00000000000E+00 0.  1.
         13    1    5    5    0    0  0.14799134311E+03 -0.83907950672E+02 -0.80262969192E+02  0.18810668793E+03  0.00000000000E+00 0. -1.
        -13    1    5    5    0    0  0.60393480264E+02 -0.12443279232E+03 -0.56178263915E+02  0.14928794191E+03  0.00000000000E+00 0.  1.
          5    1    6    6  503    0 -0.44292026932E+02  0.17455042412E+03 -0.19529461097E+03  0.26569100339E+03  0.47000000000E+01 0. -1.
         -5    1    6    6    0  503 -0.47394326276E+02  0.96176981975E+02 -0.36648374544E+02  0.11340823331E+03  0.47000000000E+01 0.  1.
<mgrwt>
<rscale>  0 0.37364582E+03</rscale>
<asrwt>0</asrwt>
<pdfrwt beam="1">  1        3 0.10822112E+00 0.37364582E+03</pdfrwt>
<pdfrwt beam="2">  1       -3 0.32396834E-01 0.37364582E+03</pdfrwt>
<totfact> 0.17615383E+01</totfact>
</mgrwt>
</event>
<event>
12    1  0.3127365E-008  0.5638981E+03  0.7818608E-02  0.9983273E-01
          1   -1    0    0  501    0  0.00000000000E+00  0.00000000000E+00  0.24197930760E+03  0.24197930760E+03  0.00000000000E+00 0. -1.
         -1   -1    0    0    0  501 -0.00000000000E+00 -0.00000000000E+00 -0.25434818611E+04  0.25434818611E+04  0.00000000000E+00 0.  1.
         23    2    1    2    0    0  0.47998636671E+03 -0.23920391423E+03 -0.28473794207E+03  0.61406806194E+03  0.91643135210E+02 0.  0.
    5000000    2    1    2    0    0 -0.47998636671E+03  0.23920391423E+03 -0.20167646114E+04  0.21713931067E+04  0.60000258443E+03 0.  0.
         23    2    4    4    0    0 -0.27932514461E+03  0.61435814909E+02 -0.17703541205E+04  0.17961887491E+04  0.10170257953E+03 0.  0.
         23    2    4    4    0    0 -0.20066122210E+03  0.17776809932E+03 -0.24641049094E+03  0.37520435766E+03  0.90519372333E+02 0.  0.
          1    1    3    3  502    0  0.18752055972E+03 -0.44554504146E+02 -0.10185432874E+03  0.21799855147E+03  0.00000000000E+00 0. -1.
         -1    1    3    3    0  502  0.29246580699E+03 -0.19464941009E+03 -0.18288361333E+03  0.39606951048E+03  0.00000000000E+00 0.  1.
         13    1    5    5    0    0 -0.28262190473E+03  0.46709773773E+02 -0.16251780972E+04  0.16502305268E+04  0.00000000000E+00 0.  1.
        -13    1    5    5    0    0  0.32967601228E+01  0.14726041136E+02 -0.14517602324E+03  0.14595822224E+03  0.00000000000E+00 0. -1.
          5    1    6    6  503    0 -0.82654259066E+02  0.20095103556E+02 -0.62040344433E+02  0.10538801671E+03  0.47000000000E+01 0. -1.
         -5    1    6    6    0  503 -0.11800696303E+03  0.15767299577E+03 -0.18437014651E+03  0.26981634095E+03  0.47000000000E+01 0.  1.
<mgrwt>
<rscale>  0 0.56389811E+03</rscale>
<asrwt>0</asrwt>
<pdfrwt beam="1">  1        1 0.37227586E-01 0.56389811E+03</pdfrwt>
<pdfrwt beam="2">  1       -1 0.39130490E+00 0.56389811E+03</pdfrwt>
<totfact> 0.10533455E+00</totfact>
</mgrwt>
</event>
<event>
12    1  0.3127365E-008  0.4813994E+03  0.7818608E-02  0.1018751E+00
          2   -1    0    0  501    0  0.00000000000E+00  0.00000000000E+00  0.15210370666E+04  0.15210370666E+04  0.00000000000E+00 0. -1.
         -2   -1    0    0    0  501 -0.00000000000E+00 -0.00000000000E+00 -0.23979425720E+03  0.23979425720E+03  0.00000000000E+00 0.  1.
         23    2    1    2    0    0 -0.36261286658E+03  0.22829913346E+03  0.68293255205E+03  0.81132907544E+03  0.90826277302E+02 0.  0.
    5000000    2    1    2    0    0  0.36261286658E+03 -0.22829913346E+03  0.59831025739E+03  0.94950224841E+03  0.59997564141E+03 0.  0.
         23    2    4    4    0    0  0.68823100051E+01  0.26249697615E+01  0.49437693910E+03  0.50418201082E+03  0.98674644475E+02 0.  0.
         23    2    4    4    0    0  0.35573055658E+03 -0.23092410322E+03  0.10393331829E+03  0.44532023759E+03  0.87394559472E+02 0.  0.
          4    1    3    3  502    0 -0.19164677626E+03  0.15917145306E+03  0.44861537155E+03  0.51314694768E+03  0.00000000000E+00 0. -1.
         -4    1    3    3    0  502 -0.17096609032E+03  0.69127680400E+02  0.23431718050E+03  0.29818212776E+03  0.00000000000E+00 0.  1.
         11    1    5    5    0    0 -0.15004850766E+02  0.46717387951E+02  0.21783019088E+03  0.22328827095E+03  0.00000000000E+00 0. -1.
        -11    1    5    5    0    0  0.21887160771E+02 -0.44092418190E+02  0.27654674822E+03  0.28089373987E+03  0.00000000000E+00 0.  1.
          5    1    6    6  503    0  0.12514029996E+03 -0.12578385655E+03  0.64228361638E+02  0.18875657784E+03  0.47000000000E+01 0. -1.
         -5    1    6    6    0  503  0.23059025662E+03 -0.10514024667E+03  0.39704956650E+02  0.25656365974E+03  0.47000000000E+01 0.  1.
<mgrwt>
<rscale>  0 0.48139939E+03</rscale>
<asrwt>0</asrwt>
<pdfrwt beam="1">  1        2 0.23400570E+00 0.48139939E+03</pdfrwt>
<pdfrwt beam="2">  1       -2 0.36891425E-01 0.48139939E+03</pdfrwt>
<totfact> 0.89921060E+01</totfact>
</mgrwt>
</event>
<event>
12    1  0.3127365E-008  0.5978600E+03  0.7818608E-02  0.9909856E-01
          2   -1    0    0  501    0  0.00000000000E+00  0.00000000000E+00  0.17721438844E+04  0.17721438844E+04  0.00000000000E+00 0. -1.
         -2   -1    0    0    0  501 -0.00000000000E+00 -0.00000000000E+00 -0.24391093690E+03  0.24391093690E+03  0.00000000000E+00 0.  1.
         23    2    1    2    0    0 -0.17736313486E+03  0.47145963847E+03  0.43866268995E+03  0.67405822074E+03  0.90540913824E+02 0.  0.
    5000000    2    1    2    0    0  0.17736313486E+03 -0.47145963847E+03  0.10895702575E+04  0.13419966005E+04  0.60004971245E+03 0.  0.
         23    2    4    4    0    0 -0.11432131825E+02  0.83866457822E+02  0.46128668661E+03  0.47781841799E+03  0.91437174799E+02 0.  0.
         23    2    4    4    0    0  0.18879526669E+03 -0.55532609630E+03  0.62828357089E+03  0.86417818252E+03  0.89626780243E+02 0.  0.
          3    1    3    3  502    0 -0.10335123245E+03  0.28899500734E+03  0.32359746163E+03  0.44599877656E+03  0.00000000000E+00 0. -1.
         -3    1    3    3    0  502 -0.74011902419E+02  0.18246463113E+03  0.11506522832E+03  0.22805944419E+03  0.00000000000E+00 0.  1.
         11    1    5    5    0    0  0.25458210034E+02  0.44779792712E+02  0.35497707914E+03  0.35869496374E+03  0.00000000000E+00 0.  1.
        -11    1    5    5    0    0 -0.36890341859E+02  0.39086665110E+02  0.10630960747E+03  0.11912345425E+03  0.00000000000E+00 0. -1.
          5    1    6    6  503    0  0.88859800338E+02 -0.26944259586E+03  0.23936576815E+03  0.37123232287E+03  0.47000000000E+01 0. -1.
         -5    1    6    6    0  503  0.99935466352E+02 -0.28588350043E+03  0.38891780274E+03  0.49294585965E+03  0.47000000000E+01 0.  1.
<mgrwt>
<rscale>  0 0.59786002E+03</rscale>
<asrwt>0</asrwt>
<pdfrwt beam="1">  1        2 0.27263751E+00 0.59786002E+03</pdfrwt>
<pdfrwt beam="2">  1       -2 0.37524761E-01 0.59786002E+03</pdfrwt>
<totfact> 0.62531356E+01</totfact>
</mgrwt>
</event>
<event>
12    1  0.3127365E-008  0.4979895E+03  0.7818608E-02  0.1014305E+00
         -1   -1    0    0    0  501 -0.00000000000E+00  0.00000000000E+00  0.14408762166E+03  0.14408762166E+03  0.00000000000E+00 0.  1.
          1   -1    0    0  501    0  0.00000000000E+00 -0.00000000000E+00 -0.20008138264E+04  0.20008138264E+04  0.00000000000E+00 0. -1.
         23    2    1    2    0    0  0.25866481141E+03  0.24348606201E+03 -0.49347425722E+03  0.61367053253E+03  0.82956210760E+02 0.  0.
    5000000    2    1    2    0    0 -0.25866481141E+03 -0.24348606201E+03 -0.13632519475E+04  0.15312309155E+04  0.60001608080E+03 0.  0.
         23    2    4    4    0    0 -0.23200588356E+03 -0.40332923215E+03 -0.71271680879E+03  0.85550891620E+03  0.86191975490E+02 0.  0.
         23    2    4    4    0    0 -0.26658927846E+02  0.15984317013E+03 -0.65053513874E+03  0.67572199935E+03  0.84520507574E+02 0.  0.
          3    1    3    3  502    0  0.13019905473E+03  0.16198586926E+03 -0.33309543945E+03  0.39261149687E+03  0.00000000000E+00 0. -1.
         -3    1    3    3    0  502  0.12846575668E+03  0.81500192752E+02 -0.16037881776E+03  0.22105903566E+03  0.00000000000E+00 0.  1.
         11    1    5    5    0    0 -0.13813002778E+03 -0.31488183020E+03 -0.53344430864E+03  0.63465998928E+03  0.00000000000E+00 0. -1.
        -11    1    5    5    0    0 -0.93875855788E+02 -0.88447401947E+02 -0.17927250015E+03  0.22084892692E+03  0.00000000000E+00 0.  1.
          5    1    6    6  503    0 -0.76601184131E+01  0.19277536757E+02 -0.19271804495E+02  0.28701799351E+02  0.47000000000E+01 0.  1.
         -5    1    6    6    0  503 -0.18998809433E+02  0.14056563338E+03 -0.63126333425E+03  0.64702020000E+03  0.47000000000E+01 0. -1.
<mgrwt>
<rscale>  0 0.49798949E+03</rscale>
<asrwt>0</asrwt>
<pdfrwt beam="1">  1        1 0.30781753E+00 0.49798949E+03</pdfrwt>
<pdfrwt beam="2">  1       -1 0.22167325E-01 0.49798949E+03</pdfrwt>
<totfact> 0.54795828E+01</totfact>
</mgrwt>
</event>
<event>
12    1  0.3127365E-008  0.4927559E+03  0.7818608E-02  0.1015687E+00
         -2   -1    0    0    0  501 -0.00000000000E+00  0.00000000000E+00  0.44659373299E+03  0.44659373299E+03  0.00000000000E+00 0.  1.
          2   -1    0    0  501    0  0.00000000000E+00 -0.00000000000E+00 -0.63969618947E+03  0.63969618947E+03  0.00000000000E+00 0. -1.
         23    2    1    2    0    0  0.35400357911E+03 -0.60593619946E+02 -0.73231747318E+02  0.37685743958E+03  0.87570087070E+02 0.  0.
    5000000    2    1    2    0    0 -0.35400357911E+03  0.60593619946E+02 -0.11987070916E+03  0.70943248288E+03  0.59994611428E+03 0.  0.
         23    2    4    4    0    0 -0.38532785173E+03 -0.13707181606E+03 -0.21578014506E+03  0.47094490669E+03  0.89228908227E+02 0.  0.
         23    2    4    4    0    0  0.31324272613E+02  0.19766543601E+03  0.95909435901E+02  0.23848757618E+03  0.87320498461E+02 0.  0.
          4    1    3    3  502    0  0.24728490853E+02  0.14423967762E+02 -0.20127480744E+02  0.34995208057E+02  0.00000000000E+00 0.  1.
         -4    1    3    3    0  502  0.32927508826E+03 -0.75017587708E+02 -0.53104266574E+02  0.34186223153E+03  0.00000000000E+00 0. -1.
         13    1    5    5    0    0 -0.23382875953E+03 -0.38003704639E+02 -0.13566682043E+03  0.27299387633E+03  0.00000000000E+00 0. -1.
        -13    1    5    5    0    0 -0.15149909219E+03 -0.99068111424E+02 -0.80113324629E+02  0.19795103036E+03  0.00000000000E+00 0.  1.
          5    1    6    6  503    0  0.27242962576E+02  0.11174483632E+03  0.79779546107E+01  0.11538988350E+03  0.47000000000E+01 0. -1.
         -5    1    6    6    0  503  0.40813100365E+01  0.85920599693E+02  0.87931481290E+02  0.12309769269E+03  0.47000000000E+01 0.  1.
<mgrwt>
<rscale>  0 0.49275593E+03</rscale>
<asrwt>0</asrwt>
<pdfrwt beam="1">  1        2 0.98414798E-01 0.49275593E+03</pdfrwt>
<pdfrwt beam="2">  1       -2 0.68706728E-01 0.49275593E+03</pdfrwt>
<totfact> 0.91571963E+01</totfact>
</mgrwt>
</event>
<event>
12    1  0.3127365E-008  0.8113581E+03  0.7818608E-02  0.9543721E-01
          2   -1    0    0  501    0  0.00000000000E+00  0.00000000000E+00  0.60605927582E+03  0.60605927582E+03  0.00000000000E+00 0. -1.
         -2   -1    0    0    0  501 -0.00000000000E+00 -0.00000000000E+00 -0.12794021020E+04  0.12794021020E+04  0.00000000000E+00 0.  1.
         23    2    1    2    0    0 -0.57046403972E+03 -0.44670268677E+03 -0.59354415591E+03  0.94106446537E+03  0.91297053556E+02 0.  0.
    5000000    2    1    2    0    0  0.57046403972E+03  0.44670268677E+03 -0.79798670255E+02  0.94439691242E+03  0.60045415265E+03 0.  0.
         23    2    4    4    0    0  0.42022053953E+03  0.83474572631E+01 -0.17203103034E+03  0.46316281734E+03  0.90940299580E+02 0.  0.
         23    2    4    4    0    0  0.15024350020E+03  0.43835522951E+03  0.92232360081E+02  0.48123409508E+03  0.91383967029E+02 0.  0.
          2    1    3    3  502    0 -0.28569417859E+03 -0.18218519072E+03 -0.31745034773E+03  0.46431382778E+03  0.00000000000E+00 0. -1.
         -2    1    3    3    0  502 -0.28476986114E+03 -0.26451749605E+03 -0.27609380818E+03  0.47675063759E+03  0.00000000000E+00 0.  1.
         13    1    5    5    0    0  0.31427420259E+03  0.29719231453E+02 -0.92420445810E+02  0.32892711340E+03  0.00000000000E+00 0.  1.
        -13    1    5    5    0    0  0.10594633694E+03 -0.21371774190E+02 -0.79610584526E+02  0.13423570394E+03  0.00000000000E+00 0. -1.
          5    1    6    6  503    0 -0.47978695764E+01  0.88465900590E+02  0.60889973176E+01  0.88929190978E+02  0.47000000000E+01 0. -1.
         -5    1    6    6    0  503  0.15504136977E+03  0.34988932892E+03  0.86143362763E+02  0.39230490410E+03  0.47000000000E+01 0.  1.
<mgrwt>
<rscale>  0 0.81135814E+03</rscale>
<asrwt>0</asrwt>
<pdfrwt beam="1">  1        2 0.93239890E-01 0.81135814E+03</pdfrwt>
<pdfrwt beam="2">  1       -2 0.19683109E+00 0.81135814E+03</pdfrwt>
<totfact> 0.69240484E+00</totfact>
</mgrwt>
</event>
<event>
12    1  0.3127365E-008  0.1614710E+04  0.7818608E-02  0.8811562E-01
         -2   -1    0    0    0  501 -0.00000000000E+00  0.00000000000E+00  0.14582891877E+04  0.14582891877E+04  0.00000000000E+00 0.  1.
          2   -1    0    0  501    0  0.00000000000E+00 -0.00000000000E+00 -0.18979877997E+04  0.18979877997E+04  0.00000000000E+00 0. -1.
         23    2    1    2    0    0  0.14003805693E+04 -0.77932299865E+03 -0.76461125856E+02  0.16068749614E+04  0.88265295936E+02 0.  0.
    5000000    2    1    2    0    0 -0.14003805693E+04  0.77932299865E+03 -0.36323748611E+03  0.17494020261E+04  0.60004658350E+03 0.  0.
         23    2    4    4    0    0 -0.11501024228E+04  0.51853128761E+03 -0.55526549140E+02  0.12655998603E+04  0.83961477321E+02 0.  0.
         23    2    4    4    0    0 -0.25027814658E+03  0.26079171105E+03 -0.30771093697E+03  0.48380216579E+03  0.93418668822E+02 0.  0.
          4    1    3    3  502    0  0.34920064540E+03 -0.19593466638E+03 -0.57410637613E+02  0.40450891900E+03  0.00000000000E+00 0. -1.
         -4    1    3    3    0  502  0.10511799239E+04 -0.58338833227E+03 -0.19050488244E+02  0.12023660424E+04  0.00000000000E+00 0.  1.
         13    1    5    5    0    0 -0.30324797047E+03  0.16527883390E+03  0.11699562048E+02  0.34556230159E+03  0.00000000000E+00 0. -1.
        -13    1    5    5    0    0 -0.84685445230E+03  0.35325245371E+03 -0.67226111188E+02  0.92003755872E+03  0.00000000000E+00 0.  1.
          5    1    6    6  503    0 -0.14910954234E+03  0.18323287307E+03 -0.24935869971E+03  0.34352553400E+03  0.47000000000E+01 0. -1.
         -5    1    6    6    0  503 -0.10116860424E+03  0.77558837978E+02 -0.58352237260E+02  0.14027663179E+03  0.47000000000E+01 0.  1.
<mgrwt>
<rscale>  0 0.16147097E+04</rscale>
<asrwt>0</asrwt>
<pdfrwt beam="1">  1        2 0.29199812E+00 0.16147097E+04</pdfrwt>
<pdfrwt beam="2">  1       -2 0.22435218E+00 0.16147097E+04</pdfrwt>
<totfact> 0.65542575E-01</totfact>
</mgrwt>
</event>
<event>
12    1  0.3127365E-008  0.8164603E+03  0.7818608E-02  0.9536492E-01
         -1   -1    0    0    0  501 -0.00000000000E+00  0.00000000000E+00  0.31574870931E+03  0.31574870931E+03  0.00000000000E+00 0.  1.
          1   -1    0    0  501    0  0.00000000000E+00 -0.00000000000E+00 -0.21564791213E+04  0.21564791213E+04  0.00000000000E+00 0. -1.
         23    2    1    2    0    0 -0.88387737611E+02  0.70228399447E+03 -0.67578057773E+03  0.98287443352E+03  0.91364992168E+02 0.  0.
    5000000    2    1    2    0    0  0.88387737611E+02 -0.70228399447E+03 -0.11649498342E+04  0.14893533970E+04  0.60004185187E+03 0.  0.
         23    2    4    4    0    0 -0.23369381659E+03 -0.40375502388E+03 -0.67597116615E+03  0.82607113951E+03  0.88462369647E+02 0.  0.
         23    2    4    4    0    0  0.32208155420E+03 -0.29852897058E+03 -0.48897866807E+03  0.66328225754E+03  0.89370808994E+02 0.  0.
          1    1    3    3  502    0 -0.29577511857E+02  0.53529082801E+03 -0.52431770888E+03  0.74988009682E+03  0.00000000000E+00 0. -1.
         -1    1    3    3    0  502 -0.58810225754E+02  0.16699316645E+03 -0.15146286885E+03  0.23299433670E+03  0.00000000000E+00 0.  1.
         11    1    5    5    0    0 -0.72310138856E+02 -0.60397316062E+02 -0.11191343831E+03  0.14629152280E+03  0.00000000000E+00 0.  1.
        -11    1    5    5    0    0 -0.16138367773E+03 -0.34335770782E+03 -0.56405772784E+03  0.67977961671E+03  0.00000000000E+00 0. -1.
          5    1    6    6  503    0  0.76207806840E+02 -0.29992876537E+02 -0.11558219877E+03  0.14173403662E+03  0.47000000000E+01 0. -1.
         -5    1    6    6    0  503  0.24587374736E+03 -0.26853609405E+03 -0.37339646931E+03  0.52154822092E+03  0.47000000000E+01 0.  1.
<mgrwt>
<rscale>  0 0.81646027E+03</rscale>
<asrwt>0</asrwt>
<pdfrwt beam="1">  1        1 0.33176603E+00 0.81646027E+03</pdfrwt>
<pdfrwt beam="2">  1       -1 0.48576723E-01 0.81646027E+03</pdfrwt>
<totfact> 0.10262366E+01</totfact>
</mgrwt>
</event>
<event>
12    1  0.3127365E-008  0.5374960E+03  0.7818608E-02  0.1004430E+00
          1   -1    0    0  501    0  0.00000000000E+00  0.00000000000E+00  0.37635326724E+04  0.37635326724E+04  0.00000000000E+00 0. -1.
         -1   -1    0    0    0  501 -0.00000000000E+00 -0.00000000000E+00 -0.12447288930E+03  0.12447288930E+03  0.00000000000E+00 0.  1.
         23    2    1    2    0    0 -0.41639938663E+03  0.30199136024E+03  0.20224608142E+04  0.20885389749E+04  0.84024245692E+02 0.  0.
    5000000    2    1    2    0    0  0.41639938663E+03 -0.30199136024E+03  0.16165989690E+04  0.17994665869E+04  0.60008377743E+03 0.  0.
         23    2    4    4    0    0 -0.11826525393E+01 -0.90711334807E+02  0.10562900882E+04  0.10638164150E+04  0.87901475571E+02 0.  0.
         23    2    4    4    0    0  0.41758203917E+03 -0.21128002544E+03  0.56030888077E+03  0.73565017190E+03  0.90670419427E+02 0.  0.
          3    1    3    3  502    0 -0.54557626956E+02  0.28556251156E+02  0.15478561329E+03  0.16658505401E+03  0.00000000000E+00 0. -1.
         -3    1    3    3    0  502 -0.36184175967E+03  0.27343510909E+03  0.18676752009E+04  0.19219539209E+04  0.00000000000E+00 0.  1.
         11    1    5    5    0    0  0.56308107955E+01 -0.51795304742E+02  0.93073509020E+03  0.93219218391E+03  0.00000000000E+00 0. -1.
        -11    1    5    5    0    0 -0.68134633348E+01 -0.38916030065E+02  0.12555499798E+03  0.13162423104E+03  0.00000000000E+00 0.  1.
          5    1    6    6  503    0  0.30616591471E+03 -0.16084476784E+03  0.34836423170E+03  0.49090562698E+03  0.47000000000E+01 0. -1.
         -5    1    6    6    0  503  0.11141612446E+03 -0.50435257596E+02  0.21194464907E+03  0.24474454492E+03  0.47000000000E+01 0.  1.
<mgrwt>
<rscale>  0 0.53749599E+03</rscale>
<asrwt>0</asrwt>
<pdfrwt beam="1">  1        1 0.57900494E+00 0.53749599E+03</pdfrwt>
<pdfrwt beam="2">  1       -1 0.19149678E-01 0.53749599E+03</pdfrwt>
<totfact> 0.38451161E+00</totfact>
</mgrwt>
</event>
<event>
12    1  0.3127365E-008  0.5019065E+03  0.7818608E-02  0.1013282E+00
         -2   -1    0    0    0  501 -0.00000000000E+00  0.00000000000E+00  0.79840270861E+03  0.79840270861E+03  0.00000000000E+00 0.  1.
          2   -1    0    0  501    0  0.00000000000E+00 -0.00000000000E+00 -0.60418742024E+03  0.60418742024E+03  0.00000000000E+00 0. -1.
         23    2    1    2    0    0  0.46146685510E+03  0.99444799122E+02  0.38459894019E+03  0.61576361244E+03  0.91692721571E+02 0.  0.
    5000000    2    1    2    0    0 -0.46146685510E+03 -0.99444799122E+02 -0.19038365182E+03  0.78682651640E+03  0.60000758795E+03 0.  0.
         23    2    4    4    0    0 -0.88782493062E+02  0.64150826400E+02 -0.31861898002E+03  0.35044331350E+03  0.96409553187E+02 0.  0.
         23    2    4    4    0    0 -0.37268436203E+03 -0.16359562552E+03  0.12823532820E+03  0.43638320290E+03  0.91262467536E+02 0.  0.
          3    1    3    3  502    0  0.35138068297E+03  0.50060079850E+02  0.24514651323E+03  0.43135972101E+03  0.00000000000E+00 0. -1.
         -3    1    3    3    0  502  0.11008617212E+03  0.49384719272E+02  0.13945242696E+03  0.18440389143E+03  0.00000000000E+00 0.  1.
         11    1    5    5    0    0 -0.28647902851E+02  0.52210499831E+02 -0.59550673102E+02  0.84219482884E+02  0.00000000000E+00 0.  1.
        -11    1    5    5    0    0 -0.60134590211E+02  0.11940326569E+02 -0.25906830692E+03  0.26622383061E+03  0.00000000000E+00 0. -1.
          5    1    6    6  503    0 -0.25818757312E+03 -0.10639083275E+03  0.43108002332E+02  0.28259550964E+03  0.47000000000E+01 0. -1.
         -5    1    6    6    0  503 -0.11449678892E+03 -0.57204792773E+02  0.85127325865E+02  0.15378769326E+03  0.47000000000E+01 0.  1.
<mgrwt>
<rscale>  0 0.50190652E+03</rscale>
<asrwt>0</asrwt>
<pdfrwt beam="1">  1        2 0.92951911E-01 0.50190652E+03</pdfrwt>
<pdfrwt beam="2">  1       -2 0.12283119E+00 0.50190652E+03</pdfrwt>
<totfact> 0.25608981E+01</totfact>
</mgrwt>
</event>
<event>
12    1  0.3127365E-008  0.9530957E+03  0.7818608E-02  0.9361539E-01
          1   -1    0    0  501    0  0.00000000000E+00  0.00000000000E+00  0.18164890537E+04  0.18164890537E+04  0.00000000000E+00 0. -1.
         -1   -1    0    0    0  501 -0.00000000000E+00 -0.00000000000E+00 -0.65140963978E+03  0.65140963978E+03  0.00000000000E+00 0.  1.
         23    2    1    2    0    0 -0.61245651903E+03 -0.67441605729E+03  0.10149140666E+04  0.13668444884E+04  0.90957610837E+02 0.  0.
    5000000    2    1    2    0    0  0.61245651903E+03  0.67441605729E+03  0.15016534731E+03  0.11010542050E+04  0.59985892079E+03 0.  0.
         23    2    4    4    0    0  0.34157925332E+03  0.11394910447E+03 -0.15427891814E+03  0.40238151301E+03  0.91913615567E+02 0.  0.
         23    2    4    4    0    0  0.27087726571E+03  0.56046695282E+03  0.30444426545E+03  0.69867269202E+03  0.89216150588E+02 0.  0.
          3    1    3    3  502    0 -0.55703223876E+03 -0.60537003914E+03  0.95217357989E+03  0.12583291801E+04  0.00000000000E+00 0. -1.
         -3    1    3    3    0  502 -0.55424280261E+02 -0.69046018148E+02  0.62740486666E+02  0.10851530828E+03  0.00000000000E+00 0.  1.
         13    1    5    5    0    0  0.23574144734E+03  0.37987360063E+02 -0.12210432323E+03  0.26819122892E+03  0.00000000000E+00 0. -1.
        -13    1    5    5    0    0  0.10583780598E+03  0.75961744406E+02 -0.32174594909E+02  0.13419028409E+03  0.00000000000E+00 0.  1.
          5    1    6    6  503    0  0.26749958982E+03  0.51731769320E+03  0.29937065254E+03  0.65484235038E+03  0.47000000000E+01 0. -1.
         -5    1    6    6    0  503  0.33776758876E+01  0.43149259617E+02  0.50736129143E+01  0.43830341635E+02  0.47000000000E+01 0.  1.
<mgrwt>
<rscale>  0 0.95309572E+03</rscale>
<asrwt>0</asrwt>
<pdfrwt beam="1">  1        1 0.27945985E+00 0.95309572E+03</pdfrwt>
<pdfrwt beam="2">  1       -1 0.10021687E+00 0.95309572E+03</pdfrwt>
<totfact> 0.38228178E+00</totfact>
</mgrwt>
</event>
<event>
12    1  0.3127365E-008  0.1085525E+04  0.7818608E-02  0.9219416E-01
          1   -1    0    0  501    0  0.00000000000E+00  0.00000000000E+00  0.91910661695E+03  0.91910661695E+03  0.00000000000E+00 0. -1.
         -1   -1    0    0    0  501 -0.00000000000E+00 -0.00000000000E+00 -0.13492516073E+04  0.13492516073E+04  0.00000000000E+00 0.  1.
         23    2    1    2    0    0  0.97403590049E+03  0.33458552892E+03 -0.16652728835E+03  0.10475907756E+04  0.94982544241E+02 0.  0.
    5000000    2    1    2    0    0 -0.97403590049E+03 -0.33458552892E+03 -0.26361770204E+03  0.12207674487E+04  0.60007121195E+03 0.  0.
         23    2    4    4    0    0 -0.30321586842E+03 -0.35180213436E+03 -0.26818940460E+03  0.54336974786E+03  0.87295598711E+02 0.  0.
         23    2    4    4    0    0 -0.67082003206E+03  0.17216605435E+02  0.45717025534E+01  0.67739770085E+03  0.92470631741E+02 0.  0.
          4    1    3    3  502    0  0.90083030349E+03  0.29086517009E+03 -0.17210002089E+03  0.96214146571E+03  0.00000000000E+00 0. -1.
         -4    1    3    3    0  502  0.73205596999E+02  0.43720358834E+02  0.55727325424E+01  0.85449309866E+02  0.00000000000E+00 0.  1.
         13    1    5    5    0    0 -0.19289570681E+03 -0.18101492445E+03 -0.18929030615E+03  0.32527830635E+03  0.00000000000E+00 0.  1.
        -13    1    5    5    0    0 -0.11032016161E+03 -0.17078720991E+03 -0.78899098448E+02  0.21809144152E+03  0.00000000000E+00 0. -1.
          5    1    6    6  503    0 -0.52686610522E+03  0.72787264979E+01  0.40905946020E+02  0.52852271390E+03  0.47000000000E+01 0. -1.
         -5    1    6    6    0  503 -0.14395392685E+03  0.99378789367E+01 -0.36334243467E+02  0.14887498695E+03  0.47000000000E+01 0.  1.
<mgrwt>
<rscale>  0 0.10855249E+04</rscale>
<asrwt>0</asrwt>
<pdfrwt beam="1">  1        1 0.14140102E+00 0.10855249E+04</pdfrwt>
<pdfrwt beam="2">  1       -1 0.20757717E+00 0.10855249E+04</pdfrwt>
<totfact> 0.23302986E+00</totfact>
</mgrwt>
</event>
<event>
12    1  0.3127365E-008  0.4546823E+03  0.7818608E-02  0.1026335E+00
          2   -1    0    0  501    0  0.00000000000E+00  0.00000000000E+00  0.28437085839E+03  0.28437085839E+03  0.00000000000E+00 0.  1.
         -2   -1    0    0    0  501 -0.00000000000E+00 -0.00000000000E+00 -0.89000123168E+03  0.89000123168E+03  0.00000000000E+00 0. -1.
         23    2    1    2    0    0  0.26640202616E+03  0.12137104145E+03 -0.58624658680E+02  0.31141830342E+03  0.88563761526E+02 0.  0.
    5000000    2    1    2    0    0 -0.26640202616E+03 -0.12137104145E+03 -0.54700571460E+03  0.86295378665E+03  0.59981081754E+03 0.  0.
         23    2    4    4    0    0 -0.12053756180E+03 -0.32438405462E+03 -0.45882571595E+03  0.58151611608E+03  0.88801108883E+02 0.  0.
         23    2    4    4    0    0 -0.14586446436E+03  0.20301301318E+03 -0.88179998649E+02  0.28143767057E+03  0.94555405845E+02 0.  0.
          2    1    3    3  502    0  0.23501130707E+03  0.72061474829E+02 -0.34659037430E+02  0.24824266249E+03  0.00000000000E+00 0. -1.
         -2    1    3    3    0  502  0.31390719093E+02  0.49309566618E+02 -0.23965621250E+02  0.63175640931E+02  0.00000000000E+00 0.  1.
         13    1    5    5    0    0 -0.79457395628E+02 -0.11391635387E+03 -0.13935666172E+03  0.19675033054E+03  0.00000000000E+00 0.  1.
        -13    1    5    5    0    0 -0.41080166176E+02 -0.21046770075E+03 -0.31946905423E+03  0.38476578554E+03  0.00000000000E+00 0. -1.
          5    1    6    6  503    0 -0.52738741723E+02  0.97588016626E+02 -0.86397929004E+02  0.14068222348E+03  0.47000000000E+01 0. -1.
         -5    1    6    6    0  503 -0.93125722633E+02  0.10542499655E+03 -0.17820696457E+01  0.14075544709E+03  0.47000000000E+01 0.  1.
<mgrwt>
<rscale>  0 0.45468235E+03</rscale>
<asrwt>0</asrwt>
<pdfrwt beam="1">  1        2 0.43749364E-01 0.45468235E+03</pdfrwt>
<pdfrwt beam="2">  1       -2 0.13692326E+00 0.45468235E+03</pdfrwt>
<totfact> 0.45827663E+01</totfact>
</mgrwt>
</event>
<event>
12    1  0.3127365E-008  0.9650555E+03  0.7818608E-02  0.9347724E-01
          1   -1    0    0  501    0  0.00000000000E+00  0.00000000000E+00  0.90523703008E+03  0.90523703008E+03  0.00000000000E+00 0. -1.
         -1   -1    0    0    0  501 -0.00000000000E+00 -0.00000000000E+00 -0.12225004163E+04  0.12225004163E+04  0.00000000000E+00 0.  1.
         23    2    1    2    0    0 -0.86853300672E+03 -0.10042798887E+03 -0.55713229934E+03  0.10406227804E+04  0.89799818638E+02 0.  0.
    5000000    2    1    2    0    0  0.86853300672E+03  0.10042798887E+03  0.23986891315E+03  0.10871146659E+04  0.59987151681E+03 0.  0.
         23    2    4    4    0    0  0.16016413978E+03  0.26870068216E+03  0.84319861017E+02  0.33691387991E+03  0.92458181086E+02 0.  0.
         23    2    4    4    0    0  0.70836886695E+03 -0.16827269328E+03  0.15554905213E+03  0.75020078603E+03  0.92214753553E+02 0.  0.
          1    1    3    3  502    0 -0.53495021357E+03 -0.69536812385E+02 -0.39393985559E+03  0.66797882384E+03  0.00000000000E+00 0. -1.
         -1    1    3    3    0  502 -0.33358279315E+03 -0.30891176490E+02 -0.16319244374E+03  0.37264395657E+03  0.00000000000E+00 0.  1.
         11    1    5    5    0    0  0.82893177136E+02  0.57940628197E+02  0.16968052894E+02  0.10254906158E+03  0.00000000000E+00 0.  1.
        -11    1    5    5    0    0  0.77270962640E+02  0.21076005396E+03  0.67351808122E+02  0.23436481833E+03  0.00000000000E+00 0. -1.
          5    1    6    6  503    0  0.36922331325E+03 -0.11466919278E+03  0.43973443804E+02  0.38914089039E+03  0.47000000000E+01 0. -1.
         -5    1    6    6    0  503  0.33914555370E+03 -0.53603500508E+02  0.11157560833E+03  0.36105989563E+03  0.47000000000E+01 0.  1.
<mgrwt>
<rscale>  0 0.96505548E+03</rscale>
<asrwt>0</asrwt>
<pdfrwt beam="1">  1        1 0.13926724E+00 0.96505548E+03</pdfrwt>
<pdfrwt beam="2">  1       -1 0.18807699E+00 0.96505548E+03</pdfrwt>
<totfact> 0.33101733E+00</totfact>
</mgrwt>
</event>
<event>
12    1  0.3127365E-008  0.6751733E+03  0.7818608E-02  0.9760657E-01
          2   -1    0    0  501    0  0.00000000000E+00  0.00000000000E+00  0.64028805100E+03  0.64028805100E+03  0.00000000000E+00 0.  1.
         -2   -1    0    0    0  501 -0.00000000000E+00 -0.00000000000E+00 -0.87682439187E+03  0.87682439187E+03  0.00000000000E+00 0. -1.
         23    2    1    2    0    0 -0.16528285107E+03  0.59050239527E+03 -0.22444815661E+03  0.65902208950E+03  0.89003594152E+02 0.  0.
    5000000    2    1    2    0    0  0.16528285107E+03 -0.59050239527E+03 -0.12088184264E+02  0.85809035337E+03  0.60013451048E+03 0.  0.
         23    2    4    4    0    0  0.12266451554E+03 -0.63781470972E+03 -0.15766499528E+03  0.67454602374E+03  0.91103787484E+02 0.  0.
         23    2    4    4    0    0  0.42618335529E+02  0.47312314449E+02  0.14557681102E+03  0.18354432963E+03  0.91875651898E+02 0.  0.
          2    1    3    3  502    0 -0.69942711630E+02  0.14175145740E+03 -0.85310168347E+02  0.17961983022E+03  0.00000000000E+00 0. -1.
         -2    1    3    3    0  502 -0.95340139438E+02  0.44875093787E+03 -0.13913798826E+03  0.47940225929E+03  0.00000000000E+00 0.  1.
         13    1    5    5    0    0  0.90989911727E+02 -0.31188324155E+03 -0.43680831504E+02  0.32780838220E+03  0.00000000000E+00 0. -1.
        -13    1    5    5    0    0  0.31674603812E+02 -0.32593146817E+03 -0.11398416378E+03  0.34673764154E+03  0.00000000000E+00 0.  1.
          5    1    6    6  503    0  0.18041764672E+02  0.52406762479E+02  0.14779205554E+03  0.15791312708E+03  0.47000000000E+01 0.  1.
         -5    1    6    6    0  503  0.24576570857E+02 -0.50944480301E+01 -0.22152445158E+01  0.25631202548E+02  0.47000000000E+01 0. -1.
<mgrwt>
<rscale>  0 0.67517326E+03</rscale>
<asrwt>0</asrwt>
<pdfrwt beam="1">  1        2 0.98505854E-01 0.67517326E+03</pdfrwt>
<pdfrwt beam="2">  1       -2 0.13489606E+00 0.67517326E+03</pdfrwt>
<totfact> 0.18493735E+01</totfact>
</mgrwt>
</event>
<event>
12    1  0.3127365E-008  0.1277179E+04  0.7818608E-02  0.9047860E-01
          2   -1    0    0  501    0  0.00000000000E+00  0.00000000000E+00  0.25079380659E+04  0.25079380659E+04  0.00000000000E+00 0. -1.
         -2   -1    0    0    0  501 -0.00000000000E+00 -0.00000000000E+00 -0.65615566091E+03  0.65615566091E+03  0.00000000000E+00 0.  1.
         23    2    1    2    0    0  0.65750639654E+03 -0.10157411976E+04  0.92718379782E+03  0.15272702529E+04  0.94020148077E+02 0.  0.
    5000000    2    1    2    0    0 -0.65750639654E+03  0.10157411976E+04  0.92459860713E+03  0.16368234739E+04  0.60021967511E+03 0.  0.
         23    2    4    4    0    0 -0.98123311716E+00  0.50168728757E+03  0.38637941681E+03  0.63983754440E+03  0.91716586083E+02 0.  0.
         23    2    4    4    0    0 -0.65652516343E+03  0.51405391006E+03  0.53821919032E+03  0.99698592951E+03  0.94996495484E+02 0.  0.
          1    1    3    3  502    0  0.52779449381E+03 -0.74384799978E+03  0.71159462112E+03  0.11568248698E+04  0.00000000000E+00 0. -1.
         -1    1    3    3    0  502  0.12971190274E+03 -0.27189319786E+03  0.21558917670E+03  0.37044538310E+03  0.00000000000E+00 0.  1.
         11    1    5    5    0    0  0.20555814098E+02  0.29236140889E+03  0.27429840744E+03  0.40141917148E+03  0.00000000000E+00 0. -1.
        -11    1    5    5    0    0 -0.21537047215E+02  0.20932587868E+03  0.11208100936E+03  0.23841837292E+03  0.00000000000E+00 0.  1.
          5    1    6    6  503    0 -0.49300480958E+03  0.34149032545E+03  0.35629778821E+03  0.69759557663E+03  0.47000000000E+01 0. -1.
         -5    1    6    6    0  503 -0.16352035385E+03  0.17256358461E+03  0.18192140211E+03  0.29939035289E+03  0.47000000000E+01 0.  1.
<mgrwt>
<rscale>  0 0.12771793E+04</rscale>
<asrwt>0</asrwt>
<pdfrwt beam="1">  1        2 0.38583662E+00 0.12771793E+04</pdfrwt>
<pdfrwt beam="2">  1       -2 0.10094703E+00 0.12771793E+04</pdfrwt>
<totfact> 0.27119502E+00</totfact>
</mgrwt>
</event>
<event>
12    1  0.3127365E-008  0.5713312E+03  0.7818608E-02  0.9966737E-01
         -2   -1    0    0    0  501 -0.00000000000E+00  0.00000000000E+00  0.27420652025E+03  0.27420652025E+03  0.00000000000E+00 0.  1.
          2   -1    0    0  501    0  0.00000000000E+00 -0.00000000000E+00 -0.13649055205E+04  0.13649055205E+04  0.00000000000E+00 0. -1.
         23    2    1    2    0    0 -0.24911376796E+03  0.37819475275E+03 -0.51735093411E+03  0.69370462209E+03  0.92115000330E+02 0.  0.
    5000000    2    1    2    0    0  0.24911376796E+03 -0.37819475275E+03 -0.57334806612E+03  0.94540741865E+03  0.59998186799E+03 0.  0.
         23    2    4    4    0    0  0.39897089086E+03 -0.30575482658E+03 -0.24398036681E+03  0.56591175391E+03  0.89810400811E+02 0.  0.
         23    2    4    4    0    0 -0.14985712291E+03 -0.72439926178E+02 -0.32936769930E+03  0.37949566474E+03  0.88482642485E+02 0.  0.
          1    1    3    3  502    0 -0.13181042422E+03  0.16156801562E+03 -0.29894394516E+03  0.36448003231E+03  0.00000000000E+00 0. -1.
         -1    1    3    3    0  502 -0.11730334373E+03  0.21662673713E+03 -0.21840698895E+03  0.32922458978E+03  0.00000000000E+00 0.  1.
         11    1    5    5    0    0  0.24648806366E+03 -0.19478096247E+03 -0.10356661269E+03  0.33079001214E+03  0.00000000000E+00 0. -1.
        -11    1    5    5    0    0  0.15248282720E+03 -0.11097386411E+03 -0.14041375412E+03  0.23512174177E+03  0.00000000000E+00 0.  1.
          5    1    6    6  503    0 -0.11749909538E+03 -0.89865812134E+02 -0.28906418291E+03  0.32474927782E+03  0.47000000000E+01 0. -1.
         -5    1    6    6    0  503 -0.32358027526E+02  0.17425885956E+02 -0.40303516398E+02  0.54746386920E+02  0.47000000000E+01 0.  1.
<mgrwt>
<rscale>  0 0.57133125E+03</rscale>
<asrwt>0</asrwt>
<pdfrwt beam="1">  1        2 0.20998547E+00 0.57133125E+03</pdfrwt>
<pdfrwt beam="2">  1       -2 0.42185617E-01 0.57133125E+03</pdfrwt>
<totfact> 0.83689229E+01</totfact>
</mgrwt>
</event>
<event>
12    1  0.3127365E-008  0.8329435E+03  0.7818608E-02  0.9513520E-01
          2   -1    0    0  501    0  0.00000000000E+00  0.00000000000E+00  0.20129195792E+04  0.20129195792E+04  0.00000000000E+00 0. -1.
         -2   -1    0    0    0  501 -0.00000000000E+00 -0.00000000000E+00 -0.41616050220E+03  0.41616050220E+03  0.00000000000E+00 0.  1.
         23    2    1    2    0    0 -0.69824557591E+03 -0.25063570734E+03  0.11593386200E+04  0.13794350927E+04  0.91706036381E+02 0.  0.
    5000000    2    1    2    0    0  0.69824557591E+03  0.25063570734E+03  0.43742045696E+03  0.10496449887E+04  0.60004400169E+03 0.  0.
         23    2    4    4    0    0  0.62167112124E+03  0.38834547901E+03  0.44998657644E+03  0.86505713073E+03  0.92459322906E+02 0.  0.
         23    2    4    4    0    0  0.76574454665E+02 -0.13770977167E+03 -0.12566119484E+02  0.18458785792E+03  0.95326500058E+02 0.  0.
          1    1    3    3  502    0 -0.58762245461E+03 -0.18299654250E+03  0.91327678840E+03  0.11013003114E+04  0.00000000000E+00 0. -1.
         -1    1    3    3    0  502 -0.11062312129E+03 -0.67639164844E+02  0.24606183161E+03  0.27813478128E+03  0.00000000000E+00 0.  1.
         13    1    5    5    0    0  0.51248823695E+03  0.35874600849E+03  0.38638349095E+03  0.73527892238E+03  0.00000000000E+00 0. -1.
        -13    1    5    5    0    0  0.10918288429E+03  0.29599470515E+02  0.63603085499E+02  0.12977820835E+03  0.00000000000E+00 0.  1.
          5    1    6    6  503    0 -0.13364819882E+02 -0.64404163357E+02  0.87542206314E+01  0.66522485274E+02  0.47000000000E+01 0. -1.
         -5    1    6    6    0  503  0.89939274547E+02 -0.73305608312E+02 -0.21320340115E+02  0.11806537265E+03  0.47000000000E+01 0.  1.
<mgrwt>
<rscale>  0 0.83294348E+03</rscale>
<asrwt>0</asrwt>
<pdfrwt beam="1">  1        2 0.30967993E+00 0.83294348E+03</pdfrwt>
<pdfrwt beam="2">  1       -2 0.64024694E-01 0.83294348E+03</pdfrwt>
<totfact> 0.15166695E+01</totfact>
</mgrwt>
</event>
<event>
12    1  0.3127365E-008  0.4565302E+03  0.7818608E-02  0.1025792E+00
         -1   -1    0    0    0  501 -0.00000000000E+00  0.00000000000E+00  0.23905543314E+03  0.23905543314E+03  0.00000000000E+00 0.  1.
          1   -1    0    0  501    0  0.00000000000E+00 -0.00000000000E+00 -0.10537602033E+04  0.10537602033E+04  0.00000000000E+00 0. -1.
         23    2    1    2    0    0 -0.27009991622E+03  0.11248213560E+03 -0.41009549302E+03  0.51154547672E+03  0.88849680842E+02 0.  0.
    5000000    2    1    2    0    0  0.27009991622E+03 -0.11248213560E+03 -0.40460927710E+03  0.78127015967E+03  0.60088950707E+03 0.  0.
         23    2    4    4    0    0 -0.14813765481E+03 -0.93411282427E+02 -0.78647305987E+01  0.19715331117E+03  0.90206106548E+02 0.  0.
         23    2    4    4    0    0  0.41823757104E+03 -0.19070853178E+02 -0.39674454650E+03  0.58411684851E+03  0.92194871158E+02 0.  0.
          3    1    3    3  502    0 -0.12961559747E+03  0.66777931778E+01 -0.18125667836E+03  0.22293223069E+03  0.00000000000E+00 0. -1.
         -3    1    3    3    0  502 -0.14048431876E+03  0.10580434243E+03 -0.22883881466E+03  0.28861324603E+03  0.00000000000E+00 0.  1.
         13    1    5    5    0    0 -0.59954781297E+02 -0.67237693733E+02  0.33739602547E+02  0.96196902439E+02  0.00000000000E+00 0. -1.
        -13    1    5    5    0    0 -0.88182873516E+02 -0.26173588694E+02 -0.41604333146E+02  0.10095640873E+03  0.00000000000E+00 0.  1.
          5    1    6    6  503    0  0.90487921523E+02 -0.35064500544E+02 -0.12311164999E+03  0.15683160238E+03  0.47000000000E+01 0. -1.
         -5    1    6    6    0  503  0.32774964951E+03  0.15993647366E+02 -0.27363289651E+03  0.42728524613E+03  0.47000000000E+01 0.  1.
<mgrwt>
<rscale>  0 0.45653019E+03</rscale>
<asrwt>0</asrwt>
<pdfrwt beam="1">  1        1 0.16211695E+00 0.45653019E+03</pdfrwt>
<pdfrwt beam="2">  1       -1 0.36777759E-01 0.45653019E+03</pdfrwt>
<totfact> 0.10254146E+02</totfact>
</mgrwt>
</event>
<event>
12    1  0.3127365E-008  0.1528700E+04  0.7818608E-02  0.8865589E-01
          2   -1    0    0  501    0  0.00000000000E+00  0.00000000000E+00  0.30335192070E+04  0.30335192070E+04  0.00000000000E+00 0. -1.
         -2   -1    0    0    0  501 -0.00000000000E+00 -0.00000000000E+00 -0.10362355242E+04  0.10362355242E+04  0.00000000000E+00 0.  1.
         23    2    1    2    0    0 -0.43738729749E+03 -0.14544132186E+04  0.41520327144E+02  0.15218790937E+04  0.88128200467E+02 0.  0.
    5000000    2    1    2    0    0  0.43738729749E+03  0.14544132186E+04  0.19557633557E+04  0.25478756375E+04  0.60002875111E+03 0.  0.
         23    2    4    4    0    0  0.40407509600E+03  0.97691387418E+03  0.16824766458E+04  0.19890789675E+04  0.89833592059E+02 0.  0.
         23    2    4    4    0    0  0.33312201483E+02  0.47749934444E+03  0.27328670986E+03  0.55879667003E+03  0.91938925070E+02 0.  0.
          1    1    3    3  502    0 -0.24420835920E+03 -0.94677855205E+03  0.10033346022E+02  0.97781798784E+03  0.00000000000E+00 0. -1.
         -1    1    3    3    0  502 -0.19317893828E+03 -0.50763466657E+03  0.31486981122E+02  0.54406110584E+03  0.00000000000E+00 0.  1.
         13    1    5    5    0    0  0.56008129107E+02  0.16801196695E+03  0.22665006712E+03  0.28763724462E+03  0.00000000000E+00 0. -1.
        -13    1    5    5    0    0  0.34806696690E+03  0.80890190723E+03  0.14558265787E+04  0.17014417228E+04  0.00000000000E+00 0.  1.
          5    1    6    6  503    0  0.17168761121E+02  0.27602296824E+03  0.20888641909E+03  0.34661083571E+03  0.47000000000E+01 0. -1.
         -5    1    6    6    0  503  0.16143440362E+02  0.20147637620E+03  0.64400290773E+02  0.21218583432E+03  0.47000000000E+01 0.  1.
<mgrwt>
<rscale>  0 0.15286998E+04</rscale>
<asrwt>0</asrwt>
<pdfrwt beam="1">  1        2 0.46669526E+00 0.15286998E+04</pdfrwt>
<pdfrwt beam="2">  1       -2 0.15942085E+00 0.15286998E+04</pdfrwt>
<totfact> 0.39814280E-01</totfact>
</mgrwt>
</event>
<event>
12    1  0.3127365E-008  0.4231512E+03  0.7818608E-02  0.1036046E+00
         -2   -1    0    0    0  501 -0.00000000000E+00  0.00000000000E+00  0.17436734230E+03  0.17436734230E+03  0.00000000000E+00 0. -1.
          2   -1    0    0  501    0  0.00000000000E+00 -0.00000000000E+00 -0.12806871455E+04  0.12806871455E+04  0.00000000000E+00 0.  1.
         23    2    1    2    0    0  0.35368657111E+02  0.26477123437E+03 -0.26434633301E+03  0.38724789826E+03  0.93419497297E+02 0.  0.
    5000000    2    1    2    0    0 -0.35368657111E+02 -0.26477123437E+03 -0.84197347017E+03  0.10678065895E+04  0.59994736409E+03 0.  0.
         23    2    4    4    0    0  0.22700010422E+03 -0.18061664726E+03 -0.20406180365E+03  0.36636117212E+03  0.91803421227E+02 0.  0.
         23    2    4    4    0    0 -0.26236876133E+03 -0.84154587114E+02 -0.63791166652E+03  0.70144541739E+03  0.95786313442E+02 0.  0.
          4    1    3    3  502    0  0.33971552179E+02  0.18915231257E+03 -0.24069452820E+03  0.30800409025E+03  0.00000000000E+00 0. -1.
         -4    1    3    3    0  502  0.13971049328E+01  0.75618921806E+02 -0.23651804813E+02  0.79243808012E+02  0.00000000000E+00 0.  1.
         11    1    5    5    0    0  0.16289811887E+02 -0.43923544941E+02 -0.75407317517E+01  0.47449956868E+02  0.00000000000E+00 0.  1.
        -11    1    5    5    0    0  0.21071029233E+03 -0.13669310232E+03 -0.19652107190E+03  0.31891121526E+03  0.00000000000E+00 0. -1.
          5    1    6    6  503    0 -0.22268408984E+03 -0.89734477604E+02 -0.59921297016E+03  0.64553756974E+03  0.47000000000E+01 0. -1.
         -5    1    6    6    0  503 -0.39684671488E+02  0.55798904906E+01 -0.38698696365E+02  0.55907847655E+02  0.47000000000E+01 0.  1.
<mgrwt>
<rscale>  0 0.42315123E+03</rscale>
<asrwt>0</asrwt>
<pdfrwt beam="1">  1        2 0.19702879E+00 0.42315123E+03</pdfrwt>
<pdfrwt beam="2">  1       -2 0.26825745E-01 0.42315123E+03</pdfrwt>
<totfact> 0.22261361E+02</totfact>
</mgrwt>
</event>
<event>
12    1  0.3127365E-008  0.5703411E+03  0.7818608E-02  0.9968924E-01
          1   -1    0    0  501    0  0.00000000000E+00  0.00000000000E+00  0.53022249307E+03  0.53022249307E+03  0.00000000000E+00 0. -1.
         -1   -1    0    0    0  501 -0.00000000000E+00 -0.00000000000E+00 -0.84035815713E+03  0.84035815713E+03  0.00000000000E+00 0.  1.
         23    2    1    2    0    0  0.41405810408E+03 -0.75126987939E+02  0.20324543081E+03  0.47577036015E+03  0.89221928861E+02 0.  0.
    5000000    2    1    2    0    0 -0.41405810408E+03  0.75126987939E+02 -0.51338109487E+03  0.89481029005E+03  0.60003093981E+03 0.  0.
         23    2    4    4    0    0 -0.53348462594E+03 -0.28133126541E+02 -0.44078411604E+03  0.69857895548E+03  0.91239252382E+02 0.  0.
         23    2    4    4    0    0  0.11942652186E+03  0.10326011448E+03 -0.72596978835E+02  0.19623133456E+03  0.91165069859E+02 0.  0.
          1    1    3    3  502    0  0.28103872218E+03 -0.39028968721E+02  0.90860718919E+02  0.29792900833E+03  0.00000000000E+00 0. -1.
         -1    1    3    3    0  502  0.13301938190E+03 -0.36098019218E+02  0.11238471189E+03  0.17784135182E+03  0.00000000000E+00 0.  1.
         13    1    5    5    0    0 -0.38211259316E+03  0.70079749265E+01 -0.35214901628E+03  0.51968074357E+03  0.00000000000E+00 0.  1.
        -13    1    5    5    0    0 -0.15137203277E+03 -0.35141101468E+02 -0.88635099755E+02  0.17889821192E+03  0.00000000000E+00 0. -1.
          5    1    6    6  503    0  0.98984489056E+02  0.27370337084E+02 -0.49983063571E+02  0.11431299607E+03  0.47000000000E+01 0. -1.
         -5    1    6    6    0  503  0.20442032803E+02  0.75889777396E+02 -0.22613915264E+02  0.81918338496E+02  0.47000000000E+01 0.  1.
<mgrwt>
<rscale>  0 0.57034109E+03</rscale>
<asrwt>0</asrwt>
<pdfrwt beam="1">  1        1 0.81572691E-01 0.57034109E+03</pdfrwt>
<pdfrwt beam="2">  1       -1 0.12928587E+00 0.57034109E+03</pdfrwt>
<totfact> 0.22019757E+01</totfact>
</mgrwt>
</event>
<event>
12    1  0.3127365E-008  0.7182555E+03  0.7818608E-02  0.9686512E-01
         -2   -1    0    0    0  501 -0.00000000000E+00  0.00000000000E+00  0.67034169635E+03  0.67034169635E+03  0.00000000000E+00 0.  1.
          2   -1    0    0  501    0  0.00000000000E+00 -0.00000000000E+00 -0.21703184197E+04  0.21703184197E+04  0.00000000000E+00 0. -1.
         23    2    1    2    0    0  0.71230956158E+03 -0.84596211969E+01 -0.17369230061E+04  0.18795761303E+04  0.91915307145E+02 0.  0.
    5000000    2    1    2    0    0 -0.71230956158E+03  0.84596211969E+01  0.23694628280E+03  0.96108398573E+03  0.60006867106E+03 0.  0.
         23    2    4    4    0    0 -0.40519307610E+03  0.46556527361E+02  0.41780257029E+03  0.59095710325E+03  0.91227029828E+02 0.  0.
         23    2    4    4    0    0 -0.30711648547E+03 -0.38096906164E+02 -0.18085628750E+03  0.37012688248E+03  0.92265933594E+02 0.  0.
          4    1    3    3  502    0  0.49740771575E+03 -0.37919373037E+02 -0.11360789154E+04  0.12407770213E+04  0.00000000000E+00 0. -1.
         -4    1    3    3    0  502  0.21490184583E+03  0.29459751840E+02 -0.60084409069E+03  0.63879910898E+03  0.00000000000E+00 0.  1.
         13    1    5    5    0    0 -0.96789291237E+02  0.60665527308E+01  0.15936523136E+03  0.18655360336E+03  0.00000000000E+00 0. -1.
        -13    1    5    5    0    0 -0.30840378487E+03  0.40489974630E+02  0.25843733894E+03  0.40440349989E+03  0.00000000000E+00 0.  1.
          5    1    6    6  503    0 -0.10332358673E+03  0.79501339560E+01 -0.10554133996E+03  0.14798659617E+03  0.47000000000E+01 0. -1.
         -5    1    6    6    0  503 -0.20379289874E+03 -0.46047040120E+02 -0.75314947531E+02  0.22214028631E+03  0.47000000000E+01 0.  1.
<mgrwt>
<rscale>  0 0.71825548E+03</rscale>
<asrwt>0</asrwt>
<pdfrwt beam="1">  1        2 0.33389514E+00 0.71825548E+03</pdfrwt>
<pdfrwt beam="2">  1       -2 0.10312949E+00 0.71825548E+03</pdfrwt>
<totfact> 0.43094984E+00</totfact>
</mgrwt>
</event>
<event>
12    1  0.3127365E-008  0.1858317E+04  0.7818608E-02  0.8675888E-01
         -1   -1    0    0    0  501 -0.00000000000E+00  0.00000000000E+00  0.14340821996E+04  0.14340821996E+04  0.00000000000E+00 0.  1.
          1   -1    0    0  501    0  0.00000000000E+00 -0.00000000000E+00 -0.24210915654E+04  0.24210915654E+04  0.00000000000E+00 0. -1.
         23    2    1    2    0    0 -0.34592849895E+03  0.17779411598E+04 -0.56721265734E+03  0.19014753326E+04  0.11461652594E+03 0.  0.
    5000000    2    1    2    0    0  0.34592849895E+03 -0.17779411598E+04 -0.41979670848E+03  0.19536984324E+04  0.59997249470E+03 0.  0.
         23    2    4    4    0    0  0.57258858495E+02 -0.14762997181E+04 -0.33770490363E+03  0.15180247171E+04  0.87263996568E+02 0.  0.
         23    2    4    4    0    0  0.28866964046E+03 -0.30164144162E+03 -0.82091804847E+02  0.43567371532E+03  0.93567094502E+02 0.  0.
          4    1    3    3  502    0 -0.73885935907E+02  0.40977655812E+03 -0.80784057206E+02  0.42414858600E+03  0.00000000000E+00 0.  1.
         -4    1    3    3    0  502 -0.27204256305E+03  0.13681646017E+04 -0.48642860014E+03  0.14773267466E+04  0.00000000000E+00 0. -1.
         11    1    5    5    0    0  0.44851471177E+01 -0.18512673775E+03 -0.13191814407E+02  0.18565034216E+03  0.00000000000E+00 0. -1.
        -11    1    5    5    0    0  0.52773711377E+02 -0.12911729804E+04 -0.32451308923E+03  0.13323743749E+04  0.00000000000E+00 0.  1.
          5    1    6    6  503    0  0.52805964322E+01  0.62130976882E+01 -0.16269557269E+01  0.95511395393E+01  0.47000000000E+01 0. -1.
         -5    1    6    6    0  503  0.28338904403E+03 -0.30785453931E+03 -0.80464849120E+02  0.42612257578E+03  0.47000000000E+01 0.  1.
<mgrwt>
<rscale>  0 0.18583166E+04</rscale>
<asrwt>0</asrwt>
<pdfrwt beam="1">  1        1 0.37247562E+00 0.18583166E+04</pdfrwt>
<pdfrwt beam="2">  1       -1 0.22062803E+00 0.18583166E+04</pdfrwt>
<totfact> 0.15192413E-01</totfact>
</mgrwt>
</event>
<event>
12    1  0.3127365E-008  0.3479112E+03  0.7818608E-02  0.1063476E+00
          1   -1    0    0  501    0  0.00000000000E+00  0.00000000000E+00  0.46115109016E+03  0.46115109016E+03  0.00000000000E+00 0. -1.
         -1   -1    0    0    0  501 -0.00000000000E+00 -0.00000000000E+00 -0.52654739466E+03  0.52654739466E+03  0.00000000000E+00 0.  1.
         23    2    1    2    0    0 -0.16917326232E+03 -0.78183824386E+02 -0.25707181014E+03  0.33086625865E+03  0.93028288503E+02 0.  0.
    5000000    2    1    2    0    0  0.16917326232E+03  0.78183824386E+02  0.19167550565E+03  0.65683222617E+03  0.59996397458E+03 0.  0.
         23    2    4    4    0    0 -0.81296659169E+02  0.19873191423E+03 -0.90512204275E+02  0.25010951460E+03  0.90877883152E+02 0.  0.
         23    2    4    4    0    0  0.25046992149E+03 -0.12054808985E+03  0.28218770992E+03  0.40672271157E+03  0.92338707684E+02 0.  0.
          2    1    3    3  502    0 -0.48797861983E+02  0.30069971312E+01 -0.12640581788E+03  0.13553119257E+03  0.00000000000E+00 0. -1.
         -2    1    3    3    0  502 -0.12037540034E+03 -0.81190821517E+02 -0.13066599226E+03  0.19533506607E+03  0.00000000000E+00 0.  1.
         13    1    5    5    0    0 -0.14093343449E+02  0.11050666104E+03 -0.83052854394E+02  0.13895366525E+03  0.00000000000E+00 0.  1.
        -13    1    5    5    0    0 -0.67203315720E+02  0.88225253191E+02 -0.74593498810E+01  0.11115584935E+03  0.00000000000E+00 0. -1.
          5    1    6    6  503    0  0.13315573507E+03 -0.49151580844E+02  0.20417869933E+03  0.24871139689E+03  0.47000000000E+01 0. -1.
         -5    1    6    6    0  503  0.11731418642E+03 -0.71396509002E+02  0.78009010591E+02  0.15801131468E+03  0.47000000000E+01 0.  1.
<mgrwt>
<rscale>  0 0.34791122E+03</rscale>
<asrwt>0</asrwt>
<pdfrwt beam="1">  1        1 0.70946322E-01 0.34791122E+03</pdfrwt>
<pdfrwt beam="2">  1       -1 0.81007291E-01 0.34791122E+03</pdfrwt>
<totfact> 0.79879615E+01</totfact>
</mgrwt>
</event>
<event>
12    1  0.3127365E-008  0.7854020E+03  0.7818608E-02  0.9581391E-01
         -1   -1    0    0    0  501 -0.00000000000E+00  0.00000000000E+00  0.57503500929E+03  0.57503500929E+03  0.00000000000E+00 0.  1.
          1   -1    0    0  501    0  0.00000000000E+00 -0.00000000000E+00 -0.13958739242E+04  0.13958739242E+04  0.00000000000E+00 0. -1.
         23    2    1    2    0    0  0.18550155609E+03 -0.74592281027E+03 -0.57875847843E+03  0.96620705095E+03  0.88221441595E+02 0.  0.
    5000000    2    1    2    0    0 -0.18550155609E+03  0.74592281027E+03 -0.24208043648E+03  0.10047018825E+04  0.60000939064E+03 0.  0.
         23    2    4    4    0    0  0.17776455955E+00  0.30426834947E+03 -0.38237222847E+03  0.49716012098E+03  0.91544550361E+02 0.  0.
         23    2    4    4    0    0 -0.18567932065E+03  0.44165446080E+03  0.14029179200E+03  0.50754176155E+03  0.91549876894E+02 0.  0.
          3    1    3    3  502    0 -0.99288953834E+01 -0.32733597359E+02 -0.25153169450E+02  0.42458842341E+02  0.00000000000E+00 0. -1.
         -3    1    3    3    0  502  0.19543045148E+03 -0.71318921291E+03 -0.55360530898E+03  0.92374820861E+03  0.00000000000E+00 0.  1.
         11    1    5    5    0    0  0.31334478486E+02  0.72546790328E+02 -0.13750979298E+03  0.15859958857E+03  0.00000000000E+00 0. -1.
        -11    1    5    5    0    0 -0.31156713926E+02  0.23172155914E+03 -0.24486243549E+03  0.33856053241E+03  0.00000000000E+00 0.  1.
          5    1    6    6  503    0 -0.94981148886E+02  0.31064279203E+03  0.12224399703E+03  0.34711100198E+03  0.47000000000E+01 0. -1.
         -5    1    6    6    0  503 -0.90698171768E+02  0.13101166877E+03  0.18047794967E+02  0.16043075958E+03  0.47000000000E+01 0.  1.
<mgrwt>
<rscale>  0 0.78540195E+03</rscale>
<asrwt>0</asrwt>
<pdfrwt beam="1">  1        1 0.21474983E+00 0.78540195E+03</pdfrwt>
<pdfrwt beam="2">  1       -1 0.88466925E-01 0.78540195E+03</pdfrwt>
<totfact> 0.10011671E+01</totfact>
</mgrwt>
</event>
<event>
12    1  0.3127365E-008  0.7827528E+03  0.7818608E-02  0.9585323E-01
         -1   -1    0    0    0  501 -0.00000000000E+00  0.00000000000E+00  0.57499797752E+03  0.57499797752E+03  0.00000000000E+00 0.  1.
          1   -1    0    0  501    0  0.00000000000E+00 -0.00000000000E+00 -0.12943876611E+04  0.12943876611E+04  0.00000000000E+00 0. -1.
         23    2    1    2    0    0 -0.59302030632E+03 -0.38134059673E+03 -0.61121940236E+03  0.93738677550E+03  0.89504606782E+02 0.  0.
    5000000    2    1    2    0    0  0.59302030632E+03  0.38134059673E+03 -0.10817028119E+03  0.93199886310E+03  0.59985609663E+03 0.  0.
         23    2    4    4    0    0  0.67786292590E+03  0.36549672374E+03 -0.15941900021E+02  0.77560681786E+03  0.90696142997E+02 0.  0.
         23    2    4    4    0    0 -0.84842619584E+02  0.15843872988E+02 -0.92228381171E+02  0.15639204524E+03  0.92212250335E+02 0.  0.
          3    1    3    3  502    0 -0.30722231750E+03 -0.22969633271E+03 -0.28453020658E+03  0.47760171282E+03  0.00000000000E+00 0. -1.
         -3    1    3    3    0  502 -0.28579798881E+03 -0.15164426402E+03 -0.32668919578E+03  0.45978506267E+03  0.00000000000E+00 0.  1.
         11    1    5    5    0    0  0.20202955421E+03  0.10745640443E+03 -0.46272905864E+02  0.23346092059E+03  0.00000000000E+00 0. -1.
        -11    1    5    5    0    0  0.47583337169E+03  0.25804031931E+03  0.30331005842E+02  0.54214589726E+03  0.00000000000E+00 0.  1.
          5    1    6    6  503    0 -0.22181700077E+02  0.11058699176E+02 -0.89854269630E+02  0.93328465200E+02  0.47000000000E+01 0. -1.
         -5    1    6    6    0  503 -0.62660919507E+02  0.47851738115E+01 -0.23741115409E+01  0.63063580040E+02  0.47000000000E+01 0.  1.
<mgrwt>
<rscale>  0 0.78275282E+03</rscale>
<asrwt>0</asrwt>
<pdfrwt beam="1">  1        1 0.19913656E+00 0.78275282E+03</pdfrwt>
<pdfrwt beam="2">  1       -1 0.88461228E-01 0.78275282E+03</pdfrwt>
<totfact> 0.11802235E+01</totfact>
</mgrwt>
</event>
<event>
12    1  0.3127365E-008  0.5048807E+03  0.7818608E-02  0.1012513E+00
          2   -1    0    0  501    0  0.00000000000E+00  0.00000000000E+00  0.13043230813E+04  0.13043230813E+04  0.00000000000E+00 0.  1.
         -2   -1    0    0    0  501 -0.00000000000E+00 -0.00000000000E+00 -0.51938816093E+03  0.51938816093E+03  0.00000000000E+00 0. -1.
         23    2    1    2    0    0 -0.43063282523E+03  0.22957495570E+03 -0.23015450849E+03  0.54752999626E+03  0.93105899786E+02 0.  0.
    5000000    2    1    2    0    0  0.43063282523E+03 -0.22957495570E+03  0.10150894289E+04  0.12761812460E+04  0.60006894069E+03 0.  0.
         23    2    4    4    0    0  0.32550566860E+03 -0.21764675602E+03  0.10559904969E+04  0.11306779887E+04  0.99963663788E+02 0.  0.
         23    2    4    4    0    0  0.10512715663E+03 -0.11928199675E+02 -0.40901067972E+02  0.14550325727E+03  0.91127929340E+02 0.  0.
          4    1    3    3  502    0 -0.20223075634E+03  0.60494000744E+02 -0.11955383457E+03  0.24259002926E+03  0.00000000000E+00 0. -1.
         -4    1    3    3    0  502 -0.22840206889E+03  0.16908095495E+03 -0.11060067392E+03  0.30493996699E+03  0.00000000000E+00 0.  1.
         13    1    5    5    0    0  0.11980783646E+03 -0.26081222507E+02  0.29730669127E+03  0.32159822220E+03  0.00000000000E+00 0.  1.
        -13    1    5    5    0    0  0.20569783214E+03 -0.19156553351E+03  0.75868380558E+03  0.80907976655E+03  0.00000000000E+00 0. -1.
          5    1    6    6  503    0  0.10317191871E+02 -0.11107474897E+02 -0.47757699784E+02  0.50326020460E+02  0.47000000000E+01 0. -1.
         -5    1    6    6    0  503  0.94809964755E+02 -0.82072477780E+00  0.68566318122E+01  0.95177236805E+02  0.47000000000E+01 0.  1.
<mgrwt>
<rscale>  0 0.50488068E+03</rscale>
<asrwt>0</asrwt>
<pdfrwt beam="1">  1        2 0.20066509E+00 0.50488068E+03</pdfrwt>
<pdfrwt beam="2">  1       -2 0.79905871E-01 0.50488068E+03</pdfrwt>
<totfact> 0.24040470E+01</totfact>
</mgrwt>
</event>
<event>
12    1  0.3127365E-008  0.1436544E+04  0.7818608E-02  0.8927783E-01
          2   -1    0    0  501    0  0.00000000000E+00  0.00000000000E+00  0.12516120293E+04  0.12516120293E+04  0.00000000000E+00 0. -1.
         -2   -1    0    0    0  501 -0.00000000000E+00 -0.00000000000E+00 -0.22741821956E+04  0.22741821956E+04  0.00000000000E+00 0.  1.
         23    2    1    2    0    0 -0.10472352869E+04 -0.91647435981E+03 -0.13879102726E+04  0.19670391126E+04  0.79504385114E+02 0.  0.
    5000000    2    1    2    0    0  0.10472352869E+04  0.91647435981E+03  0.36534010630E+03  0.15587551124E+04  0.59968083930E+03 0.  0.
         23    2    4    4    0    0  0.93092287209E+03  0.52343226860E+03  0.13771815251E+03  0.10805424601E+04  0.89481757753E+02 0.  0.
         23    2    4    4    0    0  0.11631241479E+03  0.39304209120E+03  0.22762195380E+03  0.47821265233E+03  0.94153723839E+02 0.  0.
          2    1    3    3  502    0 -0.82474774888E+03 -0.67759233119E+03 -0.10701881634E+04  0.15115035302E+04  0.00000000000E+00 0. -1.
         -2    1    3    3    0  502 -0.22248753799E+03 -0.23888202861E+03 -0.31772210920E+03  0.45553558240E+03  0.00000000000E+00 0.  1.
         11    1    5    5    0    0  0.38545834554E+02  0.11974437817E+02  0.20672749247E+02  0.45348992094E+02  0.00000000000E+00 0. -1.
        -11    1    5    5    0    0  0.89237703753E+03  0.51145783079E+03  0.11704540326E+03  0.10351934680E+04  0.00000000000E+00 0.  1.
          5    1    6    6  503    0  0.12033915210E+02  0.57038671259E+02  0.73929677968E+02  0.94265117720E+02  0.47000000000E+01 0. -1.
         -5    1    6    6    0  503  0.10427849958E+03  0.33600341994E+03  0.15369227583E+03  0.38394753461E+03  0.47000000000E+01 0.  1.
<mgrwt>
<rscale>  0 0.14365441E+04</rscale>
<asrwt>0</asrwt>
<pdfrwt beam="1">  1        2 0.19255570E+00 0.14365441E+04</pdfrwt>
<pdfrwt beam="2">  1       -2 0.34987418E+00 0.14365441E+04</pdfrwt>
<totfact> 0.26186703E-01</totfact>
</mgrwt>
</event>
<event>
12    1  0.3127365E-008  0.9689404E+03  0.7818608E-02  0.9343282E-01
          2   -1    0    0  501    0  0.00000000000E+00  0.00000000000E+00  0.28975436071E+04  0.28975436071E+04  0.00000000000E+00 0. -1.
         -2   -1    0    0    0  501 -0.00000000000E+00 -0.00000000000E+00 -0.35345290740E+03  0.35345290740E+03  0.00000000000E+00 0.  1.
         23    2    1    2    0    0 -0.50521894564E+03 -0.74298784990E+03  0.14808356708E+04  0.17351970931E+04  0.10371856068E+03 0.  0.
    5000000    2    1    2    0    0  0.50521894564E+03  0.74298784990E+03  0.10632550289E+04  0.15157994214E+04  0.59988290636E+03 0.  0.
         23    2    4    4    0    0 -0.14774018757E+01 -0.64400663952E+02  0.18673191079E+03  0.21798752120E+03  0.92196120632E+02 0.  0.
         23    2    4    4    0    0  0.50669634751E+03  0.80738851385E+03  0.87652311809E+03  0.12978119002E+04  0.86055510316E+02 0.  0.
          1    1    3    3  502    0 -0.27612823389E+03 -0.44180794164E+03  0.76612836112E+03  0.92649539911E+03  0.00000000000E+00 0. -1.
         -1    1    3    3    0  502 -0.22909071175E+03 -0.30117990825E+03  0.71470730967E+03  0.80870169398E+03  0.00000000000E+00 0.  1.
         13    1    5    5    0    0  0.22544711672E+02 -0.53325320715E+02  0.18216512133E+03  0.19114388633E+03  0.00000000000E+00 0. -1.
        -13    1    5    5    0    0 -0.24022113547E+02 -0.11075343237E+02  0.45667894608E+01  0.26843634871E+02  0.00000000000E+00 0.  1.
          5    1    6    6  503    0  0.16187893316E+03  0.22349331908E+03  0.30100719721E+03  0.40838887772E+03  0.47000000000E+01 0. -1.
         -5    1    6    6    0  503  0.34481741435E+03  0.58389519477E+03  0.57551592089E+03  0.88942302247E+03  0.47000000000E+01 0.  1.
<mgrwt>
<rscale>  0 0.96894039E+03</rscale>
<asrwt>0</asrwt>
<pdfrwt beam="1">  1        2 0.44577592E+00 0.96894039E+03</pdfrwt>
<pdfrwt beam="2">  1       -2 0.54377372E-01 0.96894039E+03</pdfrwt>
<totfact> 0.65782380E+00</totfact>
</mgrwt>
</event>
<event>
12    1  0.3127365E-008  0.9862237E+03  0.7818608E-02  0.9323785E-01
          1   -1    0    0  501    0  0.00000000000E+00  0.00000000000E+00  0.16300037243E+04  0.16300037243E+04  0.00000000000E+00 0. -1.
         -1   -1    0    0    0  501 -0.00000000000E+00 -0.00000000000E+00 -0.14375678713E+04  0.14375678713E+04  0.00000000000E+00 0.  1.
         23    2    1    2    0    0  0.47588106059E+03 -0.81222029969E+03  0.12239968945E+04  0.15475520682E+04  0.10288054721E+03 0.  0.
    5000000    2    1    2    0    0 -0.47588106059E+03  0.81222029969E+03 -0.10315610415E+04  0.15200195274E+04  0.60014713388E+03 0.  0.
         23    2    4    4    0    0 -0.27899246098E+03  0.12996635911E+03 -0.81124538877E+02  0.33077805014E+03  0.90027106282E+02 0.  0.
         23    2    4    4    0    0 -0.19688859961E+03  0.68225394057E+03 -0.95043650257E+03  0.11892414772E+04  0.82037708732E+02 0.  0.
          3    1    3    3  502    0  0.21357364260E+03 -0.30332757657E+03  0.54695088559E+03  0.66089075554E+03  0.00000000000E+00 0. -1.
         -3    1    3    3    0  502  0.26230741799E+03 -0.50889272312E+03  0.67704600893E+03  0.88666131267E+03  0.00000000000E+00 0.  1.
         11    1    5    5    0    0 -0.15682535473E+03  0.11077974083E+03 -0.77509812647E+02  0.20706065276E+03  0.00000000000E+00 0.  1.
        -11    1    5    5    0    0 -0.12216710624E+03  0.19186618284E+02 -0.36147262301E+01  0.12371739738E+03  0.00000000000E+00 0. -1.
          5    1    6    6  503    0 -0.92361842300E+02  0.20810959490E+03 -0.26787805295E+03  0.35159785929E+03  0.47000000000E+01 0. -1.
         -5    1    6    6    0  503 -0.10452675731E+03  0.47414434567E+03 -0.68255844963E+03  0.83764361794E+03  0.47000000000E+01 0.  1.
<mgrwt>
<rscale>  0 0.98622375E+03</rscale>
<asrwt>0</asrwt>
<pdfrwt beam="1">  1        1 0.25076980E+00 0.98622375E+03</pdfrwt>
<pdfrwt beam="2">  1       -1 0.22116429E+00 0.98622375E+03</pdfrwt>
<totfact> 0.58222652E-01</totfact>
</mgrwt>
</event>
<event>
12    1  0.3127365E-008  0.1841204E+04  0.7818608E-02  0.8684690E-01
         -2   -1    0    0    0  501 -0.00000000000E+00  0.00000000000E+00  0.23879777039E+04  0.23879777039E+04  0.00000000000E+00 0.  1.
          2   -1    0    0  501    0  0.00000000000E+00 -0.00000000000E+00 -0.19106404299E+04  0.19106404299E+04  0.00000000000E+00 0. -1.
         23    2    1    2    0    0  0.15016948890E+04  0.10447704482E+04  0.12573409938E+04  0.22213286235E+04  0.82229249568E+02 0.  0.
    5000000    2    1    2    0    0 -0.15016948890E+04 -0.10447704482E+04 -0.78000371987E+03  0.20772895104E+04  0.60007755982E+03 0.  0.
         23    2    4    4    0    0 -0.41131675828E+03 -0.41955309557E+03  0.92532702842E+00  0.59469175938E+03  0.91930173490E+02 0.  0.
         23    2    4    4    0    0 -0.10903781307E+04 -0.62521735264E+03 -0.78092904690E+03  0.14825977510E+04  0.91786213440E+02 0.  0.
          1    1    3    3  502    0  0.11819093931E+04  0.85941471278E+03  0.98807713974E+03  0.17640294488E+04  0.00000000000E+00 0. -1.
         -1    1    3    3    0  502  0.31978549590E+03  0.18535573543E+03  0.26926385410E+03  0.45729917469E+03  0.00000000000E+00 0.  1.
         11    1    5    5    0    0  0.45092847334E+01 -0.24089066587E+01  0.24979752064E+01  0.56900228672E+01  0.00000000000E+00 0. -1.
        -11    1    5    5    0    0 -0.41582604301E+03 -0.41714418891E+03 -0.15726481780E+01  0.58900173651E+03  0.00000000000E+00 0.  1.
          5    1    6    6  503    0 -0.74895914618E+03 -0.41264982704E+03 -0.48341674691E+03  0.98231029904E+03  0.47000000000E+01 0.  1.
         -5    1    6    6    0  503 -0.34141898455E+03 -0.21256752559E+03 -0.29751229999E+03  0.50028745196E+03  0.47000000000E+01 0. -1.
<mgrwt>
<rscale>  0 0.18412035E+04</rscale>
<asrwt>0</asrwt>
<pdfrwt beam="1">  1        2 0.29394468E+00 0.18412035E+04</pdfrwt>
<pdfrwt beam="2">  1       -2 0.36738119E+00 0.18412035E+04</pdfrwt>
<totfact> 0.81631067E-02</totfact>
</mgrwt>
</event>
<event>
12    1  0.3127365E-008  0.8490992E+03  0.7818608E-02  0.9491547E-01
          2   -1    0    0  501    0  0.00000000000E+00  0.00000000000E+00  0.19982817600E+04  0.19982817600E+04  0.00000000000E+00 0. -1.
         -2   -1    0    0    0  501 -0.00000000000E+00 -0.00000000000E+00 -0.80615145461E+03  0.80615145461E+03  0.00000000000E+00 0.  1.
         23    2    1    2    0    0 -0.68522669752E+03  0.36289828164E+03 -0.44281882897E+03  0.89804488178E+03  0.95735597202E+02 0.  0.
    5000000    2    1    2    0    0  0.68522669752E+03 -0.36289828164E+03  0.16349491344E+04  0.19063883328E+04  0.60002251107E+03 0.  0.
         23    2    4    4    0    0 -0.40439759256E+02 -0.11141727911E+03  0.78521360858E+02  0.16839761806E+03  0.90238403383E+02 0.  0.
         23    2    4    4    0    0  0.72566645678E+03 -0.25148100254E+03  0.15564277735E+04  0.17379907148E+04  0.91158155805E+02 0.  0.
          2    1    3    3  502    0 -0.23838903144E+03  0.15344939396E+03 -0.11701087044E+03  0.30670440267E+03  0.00000000000E+00 0. -1.
         -2    1    3    3    0  502 -0.44683766608E+03  0.20944888769E+03 -0.32580795853E+03  0.59134047910E+03  0.00000000000E+00 0.  1.
         13    1    5    5    0    0 -0.66870807422E+02 -0.54743708134E+02  0.44359173078E+02  0.97140695394E+02  0.00000000000E+00 0. -1.
        -13    1    5    5    0    0  0.26431048165E+02 -0.56673570974E+02  0.34162187780E+02  0.71256922667E+02  0.00000000000E+00 0.  1.
          5    1    6    6  503    0  0.31741782107E+03 -0.68084540438E+02  0.60793214776E+03  0.68919747828E+03  0.47000000000E+01 0. -1.
         -5    1    6    6    0  503  0.40824863570E+03 -0.18339646210E+03  0.94849562574E+03  0.10487932365E+04  0.47000000000E+01 0.  1.
<mgrwt>
<rscale>  0 0.84909924E+03</rscale>
<asrwt>0</asrwt>
<pdfrwt beam="1">  1        2 0.30742796E+00 0.84909924E+03</pdfrwt>
<pdfrwt beam="2">  1       -2 0.12402330E+00 0.84909924E+03</pdfrwt>
<totfact> 0.33398658E+00</totfact>
</mgrwt>
</event>
<event>
12    1  0.3127365E-008  0.1433231E+04  0.7818608E-02  0.8930109E-01
         -2   -1    0    0    0  501 -0.00000000000E+00  0.00000000000E+00  0.11275872257E+04  0.11275872257E+04  0.00000000000E+00 0. -1.
          2   -1    0    0  501    0  0.00000000000E+00 -0.00000000000E+00 -0.23227078775E+04  0.23227078775E+04  0.00000000000E+00 0.  1.
         23    2    1    2    0    0  0.10300696567E+04  0.96801220075E+03 -0.12846205356E+04  0.19120282715E+04  0.86666441193E+02 0.  0.
    5000000    2    1    2    0    0 -0.10300696567E+04 -0.96801220075E+03  0.89499883787E+02  0.15382668317E+04  0.60013623274E+03 0.  0.
         23    2    4    4    0    0 -0.10509854088E+03 -0.54133841540E+02  0.17644629164E+03  0.23168264701E+03  0.92560137190E+02 0.  0.
         23    2    4    4    0    0 -0.92497111583E+03 -0.91387835921E+03 -0.86946407856E+02  0.13065841847E+04  0.94113406586E+02 0.  0.
          3    1    3    3  502    0  0.64557839798E+03  0.64015064832E+03 -0.87064136611E+03  0.12588012984E+04  0.00000000000E+00 0. -1.
         -3    1    3    3    0  502  0.38449125872E+03  0.32786155242E+03 -0.41397916953E+03  0.65322697310E+03  0.00000000000E+00 0.  1.
         11    1    5    5    0    0 -0.94806145031E+02 -0.10296873333E+01  0.12625762450E+03  0.15789317001E+03  0.00000000000E+00 0.  1.
        -11    1    5    5    0    0 -0.10292395845E+02 -0.53104154206E+02  0.50188667147E+02  0.73789477002E+02  0.00000000000E+00 0. -1.
          5    1    6    6  503    0 -0.61633745234E+03 -0.66395208475E+03 -0.42434637235E+02  0.90693275078E+03  0.47000000000E+01 0. -1.
         -5    1    6    6    0  503 -0.30863366349E+03 -0.24992627445E+03 -0.44511770621E+02  0.39965143391E+03  0.47000000000E+01 0.  1.
<mgrwt>
<rscale>  0 0.14332315E+04</rscale>
<asrwt>0</asrwt>
<pdfrwt beam="1">  1        2 0.35733967E+00 0.14332315E+04</pdfrwt>
<pdfrwt beam="2">  1       -2 0.17347496E+00 0.14332315E+04</pdfrwt>
<totfact> 0.84039869E-01</totfact>
</mgrwt>
</event>
<event>
12    1  0.3127365E-008  0.1180499E+04  0.7818608E-02  0.9130099E-01
          2   -1    0    0  501    0  0.00000000000E+00  0.00000000000E+00  0.10956556147E+04  0.10956556147E+04  0.00000000000E+00 0. -1.
         -2   -1    0    0    0  501 -0.00000000000E+00 -0.00000000000E+00 -0.16466448966E+04  0.16466448966E+04  0.00000000000E+00 0.  1.
         23    2    1    2    0    0 -0.82696560122E+03  0.80006316416E+03  0.29775820764E+03  0.11916966103E+04  0.86646918614E+02 0.  0.
    5000000    2    1    2    0    0  0.82696560122E+03 -0.80006316416E+03 -0.84874748950E+03  0.15506039010E+04  0.60002248665E+03 0.  0.
         23    2    4    4    0    0  0.58428949353E+03 -0.73303474822E+03 -0.39127216947E+03  0.10202947440E+04  0.95777344241E+02 0.  0.
         23    2    4    4    0    0  0.24267610769E+03 -0.67028415936E+02 -0.45747532004E+03  0.53030915696E+03  0.92518277811E+02 0.  0.
          4    1    3    3  502    0 -0.21399213073E+03  0.24940552816E+03  0.11038319616E+03  0.34667015949E+03  0.00000000000E+00 0. -1.
         -4    1    3    3    0  502 -0.61297347049E+03  0.55065763601E+03  0.18737501149E+03  0.84502645080E+03  0.00000000000E+00 0.  1.
         11    1    5    5    0    0  0.32638335937E+03 -0.34823055594E+03 -0.22984628783E+03  0.52973572033E+03  0.00000000000E+00 0. -1.
        -11    1    5    5    0    0  0.25790613417E+03 -0.38480419229E+03 -0.16142588163E+03  0.49055902367E+03  0.00000000000E+00 0.  1.
          5    1    6    6  503    0  0.19068027095E+03 -0.10660079874E+02 -0.31362738947E+03  0.36722858339E+03  0.47000000000E+01 0. -1.
         -5    1    6    6    0  503  0.51995836742E+02 -0.56368336062E+02 -0.14384793057E+03  0.16308057358E+03  0.47000000000E+01 0.  1.
<mgrwt>
<rscale>  0 0.11804986E+04</rscale>
<asrwt>0</asrwt>
<pdfrwt beam="1">  1        2 0.16856240E+00 0.11804986E+04</pdfrwt>
<pdfrwt beam="2">  1       -2 0.25332998E+00 0.11804986E+04</pdfrwt>
<totfact> 0.13111709E+00</totfact>
</mgrwt>
</event>
<event>
12    1  0.3127365E-008  0.5998554E+03  0.7818608E-02  0.9905706E-01
          2   -1    0    0  501    0  0.00000000000E+00  0.00000000000E+00  0.14193651327E+04  0.14193651327E+04  0.00000000000E+00 0. -1.
         -2   -1    0    0    0  501 -0.00000000000E+00 -0.00000000000E+00 -0.33942110749E+03  0.33942110749E+03  0.00000000000E+00 0.  1.
         23    2    1    2    0    0 -0.17957160698E+03  0.43645109169E+03  0.82336269692E+03  0.95345219372E+03  0.91702985593E+02 0.  0.
    5000000    2    1    2    0    0  0.17957160698E+03 -0.43645109169E+03  0.25658132829E+03  0.80533404647E+03  0.59999452573E+03 0.  0.
         23    2    4    4    0    0  0.37075520987E+03 -0.19519719848E+03  0.22172865430E+03  0.48279794644E+03  0.91481632105E+02 0.  0.
         23    2    4    4    0    0 -0.19118360289E+03 -0.24125389320E+03  0.34852673999E+02  0.32253610003E+03  0.89778705362E+02 0.  0.
          2    1    3    3  502    0 -0.56070072147E+02  0.16177080323E+03  0.38774562676E+03  0.42386355923E+03  0.00000000000E+00 0. -1.
         -2    1    3    3    0  502 -0.12350153483E+03  0.27468028846E+03  0.43561707016E+03  0.52958863449E+03  0.00000000000E+00 0.  1.
         13    1    5    5    0    0  0.28455890199E+03 -0.15619424481E+03  0.12599604078E+03  0.34820312047E+03  0.00000000000E+00 0. -1.
        -13    1    5    5    0    0  0.86196307872E+02 -0.39002953673E+02  0.95732613518E+02  0.13459482597E+03  0.00000000000E+00 0.  1.
          5    1    6    6  503    0 -0.69267540307E+02 -0.94628772997E+02 -0.29870517877E+02  0.12110712059E+03  0.47000000000E+01 0. -1.
         -5    1    6    6    0  503 -0.12191606258E+03 -0.14662512021E+03  0.64723191875E+02  0.20142897944E+03  0.47000000000E+01 0.  1.
<mgrwt>
<rscale>  0 0.59985538E+03</rscale>
<asrwt>0</asrwt>
<pdfrwt beam="1">  1        2 0.21836386E+00 0.59985538E+03</pdfrwt>
<pdfrwt beam="2">  1       -2 0.52218633E-01 0.59985538E+03</pdfrwt>
<totfact> 0.50695156E+01</totfact>
</mgrwt>
</event>
<event>
12    1  0.3127365E-008  0.4538406E+03  0.7818608E-02  0.1026583E+00
          1   -1    0    0  501    0  0.00000000000E+00  0.00000000000E+00  0.23956653205E+04  0.23956653205E+04  0.00000000000E+00 0. -1.
         -1   -1    0    0    0  501 -0.00000000000E+00 -0.00000000000E+00 -0.15653206866E+03  0.15653206866E+03  0.00000000000E+00 0.  1.
         23    2    1    2    0    0 -0.25404789821E+03  0.36883155327E+02  0.16526068071E+04  0.16747617883E+04  0.88414293088E+02 0.  0.
    5000000    2    1    2    0    0  0.25404789821E+03 -0.36883155327E+02  0.58652644474E+03  0.87743560077E+03  0.59998271758E+03 0.  0.
         23    2    4    4    0    0 -0.17680259493E+03  0.46161126304E+02  0.15871095365E+03  0.25811566771E+03  0.89691270210E+02 0.  0.
         23    2    4    4    0    0  0.43085049314E+03 -0.83044281631E+02  0.42781549109E+03  0.61931993306E+03  0.89457168097E+02 0.  0.
          2    1    3    3  502    0 -0.21947381751E+03  0.43246487621E+02  0.15552003695E+04  0.15712056532E+04  0.00000000000E+00 0. -1.
         -2    1    3    3    0  502 -0.34574080693E+02 -0.63633322934E+01  0.97406437576E+02  0.10355613519E+03  0.00000000000E+00 0.  1.
         13    1    5    5    0    0 -0.99947660685E+02 -0.17598604117E+02  0.61018192641E+02  0.11841649200E+03  0.00000000000E+00 0.  1.
        -13    1    5    5    0    0 -0.76854934248E+02  0.63759730422E+02  0.97692761007E+02  0.13969917571E+03  0.00000000000E+00 0. -1.
          5    1    6    6  503    0  0.24150279484E+03 -0.22237562817E+01  0.21925548798E+03  0.32622630797E+03  0.47000000000E+01 0. -1.
         -5    1    6    6    0  503  0.18934769830E+03 -0.80820525350E+02  0.20856000311E+03  0.29309362509E+03  0.47000000000E+01 0.  1.
<mgrwt>
<rscale>  0 0.45384061E+03</rscale>
<asrwt>0</asrwt>
<pdfrwt beam="1">  1        1 0.36856387E+00 0.45384061E+03</pdfrwt>
<pdfrwt beam="2">  1       -1 0.24081858E-01 0.45384061E+03</pdfrwt>
<totfact> 0.26312334E+01</totfact>
</mgrwt>
</event>
<event>
12    1  0.3127365E-008  0.6070324E+03  0.7818608E-02  0.9890923E-01
          1   -1    0    0  501    0  0.00000000000E+00  0.00000000000E+00  0.82767083717E+03  0.82767083717E+03  0.00000000000E+00 0. -1.
         -1   -1    0    0    0  501 -0.00000000000E+00 -0.00000000000E+00 -0.63488283190E+03  0.63488283190E+03  0.00000000000E+00 0.  1.
         23    2    1    2    0    0  0.33338508692E+03 -0.49342137764E+03  0.11728347663E+03  0.61396728012E+03  0.92682981564E+02 0.  0.
    5000000    2    1    2    0    0 -0.33338508692E+03  0.49342137764E+03  0.75504528639E+02  0.84858638896E+03  0.59982301855E+03 0.  0.
         23    2    4    4    0    0 -0.21232027611E+03  0.25319862771E+03 -0.24487926456E+03  0.42100516964E+03  0.89944727052E+02 0.  0.
         23    2    4    4    0    0 -0.12106481080E+03  0.24022274993E+03  0.32038379320E+03  0.42758121932E+03  0.88409649754E+02 0.  0.
          4    1    3    3  502    0  0.19147751941E+03 -0.29856200320E+03  0.24022631079E+02  0.35549964416E+03  0.00000000000E+00 0. -1.
         -4    1    3    3    0  502  0.14190756751E+03 -0.19485937444E+03  0.93260845556E+02  0.25846763596E+03  0.00000000000E+00 0.  1.
         13    1    5    5    0    0 -0.24518139830E+02  0.42838118951E+01 -0.42563175090E+02  0.49306329196E+02  0.00000000000E+00 0.  1.
        -13    1    5    5    0    0 -0.18780213629E+03  0.24891481582E+03 -0.20231608947E+03  0.37169884044E+03  0.00000000000E+00 0. -1.
          5    1    6    6  503    0  0.45833080641E+01  0.68341593102E+02  0.98174339434E+02  0.11979929459E+03  0.47000000000E+01 0. -1.
         -5    1    6    6    0  503 -0.12564811887E+03  0.17188115683E+03  0.22220945377E+03  0.30778192473E+03  0.47000000000E+01 0.  1.
<mgrwt>
<rscale>  0 0.60703237E+03</rscale>
<asrwt>0</asrwt>
<pdfrwt beam="1">  1        1 0.12733398E+00 0.60703237E+03</pdfrwt>
<pdfrwt beam="2">  1       -1 0.97674282E-01 0.60703237E+03</pdfrwt>
<totfact> 0.22013898E+01</totfact>
</mgrwt>
</event>
<event>
12    1  0.3127365E-008  0.6320840E+03  0.7818608E-02  0.9840990E-01
          2   -1    0    0  501    0  0.00000000000E+00  0.00000000000E+00  0.15258923305E+04  0.15258923305E+04  0.00000000000E+00 0. -1.
         -2   -1    0    0    0  501 -0.00000000000E+00 -0.00000000000E+00 -0.38740258733E+03  0.38740258733E+03  0.00000000000E+00 0.  1.
         23    2    1    2    0    0 -0.17430919160E+03 -0.48894028793E+03  0.96689580212E+03  0.11012472877E+04  0.91715849605E+02 0.  0.
    5000000    2    1    2    0    0  0.17430919160E+03  0.48894028793E+03  0.17159394101E+03  0.81204763010E+03  0.60044198180E+03 0.  0.
         23    2    4    4    0    0  0.32357459958E+03  0.46047983123E+03  0.83031744179E+01  0.56997598506E+03  0.89785769330E+02 0.  0.
         23    2    4    4    0    0 -0.14926540798E+03  0.28460456697E+02  0.16329076660E+03  0.24207164503E+03  0.94045984814E+02 0.  0.
          2    1    3    3  502    0 -0.25648040905E+02 -0.19817297670E+03  0.33924987055E+03  0.39372684105E+03  0.00000000000E+00 0. -1.
         -2    1    3    3    0  502 -0.14866115070E+03 -0.29076731123E+03  0.62764593158E+03  0.70752044665E+03  0.00000000000E+00 0.  1.
         11    1    5    5    0    0  0.23803732544E+03  0.32969349999E+03 -0.34040332509E+02  0.40806655888E+03  0.00000000000E+00 0.  1.
        -11    1    5    5    0    0  0.85537274139E+02  0.13078633124E+03  0.42343506927E+02  0.16190942618E+03  0.00000000000E+00 0. -1.
          5    1    6    6  503    0 -0.79821399668E+02  0.58473377654E+02  0.11680779033E+03  0.15315593890E+03  0.47000000000E+01 0. -1.
         -5    1    6    6    0  503 -0.69444008311E+02 -0.30012920957E+02  0.46482976271E+02  0.88915706136E+02  0.47000000000E+01 0.  1.
<mgrwt>
<rscale>  0 0.63208405E+03</rscale>
<asrwt>0</asrwt>
<pdfrwt beam="1">  1        2 0.23475266E+00 0.63208405E+03</pdfrwt>
<pdfrwt beam="2">  1       -2 0.59600399E-01 0.63208405E+03</pdfrwt>
<totfact> 0.33482940E+01</totfact>
</mgrwt>
</event>
<event>
12    1  0.3127365E-008  0.1579078E+04  0.7818608E-02  0.8833506E-01
          2   -1    0    0  501    0  0.00000000000E+00  0.00000000000E+00  0.21940474652E+04  0.21940474652E+04  0.00000000000E+00 0. -1.
         -2   -1    0    0    0  501 -0.00000000000E+00 -0.00000000000E+00 -0.14188305285E+04  0.14188305285E+04  0.00000000000E+00 0.  1.
         23    2    1    2    0    0  0.14700990004E+04  0.49424875976E+03  0.11190523921E+04  0.19146989911E+04  0.91219860021E+02 0.  0.
    5000000    2    1    2    0    0 -0.14700990004E+04 -0.49424875976E+03 -0.34383545540E+03  0.16981790026E+04  0.60009682316E+03 0.  0.
         23    2    4    4    0    0 -0.28904838770E+03 -0.26906961301E+03 -0.27665228677E+03  0.49056284953E+03  0.90376957743E+02 0.  0.
         23    2    4    4    0    0 -0.11810506127E+04 -0.22517914675E+03 -0.67183168637E+02  0.12076161531E+04  0.90757904649E+02 0.  0.
          3    1    3    3  502    0  0.40242320684E+03  0.10151208812E+03  0.32974559018E+03  0.53007668850E+03  0.00000000000E+00 0. -1.
         -3    1    3    3    0  502  0.10676757935E+04  0.39273667164E+03  0.78930680190E+03  0.13846223026E+04  0.00000000000E+00 0.  1.
         11    1    5    5    0    0 -0.26294107874E+03 -0.20560035981E+03 -0.24964132974E+03  0.41680968362E+03  0.00000000000E+00 0. -1.
        -11    1    5    5    0    0 -0.26107308959E+02 -0.63469253199E+02 -0.27010957023E+02  0.73753165912E+02  0.00000000000E+00 0.  1.
          5    1    6    6  503    0 -0.62011769234E+03 -0.96824560508E+02 -0.74993161067E+02  0.63211313234E+03  0.47000000000E+01 0. -1.
         -5    1    6    6    0  503 -0.56093292032E+03 -0.12835458624E+03  0.78099924301E+01  0.57550302075E+03  0.47000000000E+01 0.  1.
<mgrwt>
<rscale>  0 0.15790776E+04</rscale>
<asrwt>0</asrwt>
<pdfrwt beam="1">  1        2 0.33754576E+00 0.15790776E+04</pdfrwt>
<pdfrwt beam="2">  1       -2 0.21828162E+00 0.15790776E+04</pdfrwt>
<totfact> 0.49069287E-01</totfact>
</mgrwt>
</event>
<event>
12    1  0.3127365E-008  0.4292197E+03  0.7818608E-02  0.1034107E+00
         -2   -1    0    0    0  501 -0.00000000000E+00  0.00000000000E+00  0.32441818748E+03  0.32441818748E+03  0.00000000000E+00 0.  1.
          2   -1    0    0  501    0  0.00000000000E+00 -0.00000000000E+00 -0.67944013230E+03  0.67944013230E+03  0.00000000000E+00 0. -1.
         23    2    1    2    0    0  0.13419655731E+03 -0.21937900126E+03 -0.32512021906E+02  0.27577487571E+03  0.94121667611E+02 0.  0.
    5000000    2    1    2    0    0 -0.13419655731E+03  0.21937900126E+03 -0.32250992291E+03  0.72808344408E+03  0.59996415641E+03 0.  0.
         23    2    4    4    0    0 -0.25087653914E+03 -0.70684573836E+02 -0.95762242647E+01  0.27645622399E+03  0.91656930124E+02 0.  0.
         23    2    4    4    0    0  0.11667998183E+03  0.29006357510E+03 -0.31293369865E+03  0.45162722009E+03  0.91041476368E+02 0.  0.
          2    1    3    3  502    0  0.62882305660E+02 -0.18327098303E+03 -0.18741622597E+02  0.19466300625E+03  0.00000000000E+00 0. -1.
         -2    1    3    3    0  502  0.71314251652E+02 -0.36108018233E+02 -0.13770399309E+02  0.81111869455E+02  0.00000000000E+00 0.  1.
         13    1    5    5    0    0 -0.73000621328E+02 -0.42584577226E+02 -0.40536683709E+02  0.93732383187E+02  0.00000000000E+00 0.  1.
        -13    1    5    5    0    0 -0.17787591781E+03 -0.28099996609E+02  0.30960459444E+02  0.18272384080E+03  0.00000000000E+00 0. -1.
          5    1    6    6  503    0  0.22622777517E+02  0.14744781010E+03 -0.10505149321E+03  0.18251178863E+03  0.47000000000E+01 0. -1.
         -5    1    6    6    0  503  0.94057204313E+02  0.14261576500E+03 -0.20788220544E+03  0.26911543146E+03  0.47000000000E+01 0.  1.
<mgrwt>
<rscale>  0 0.42921974E+03</rscale>
<asrwt>0</asrwt>
<pdfrwt beam="1">  1        2 0.10452925E+00 0.42921974E+03</pdfrwt>
<pdfrwt beam="2">  1       -2 0.49910491E-01 0.42921974E+03</pdfrwt>
<totfact> 0.16671142E+02</totfact>
</mgrwt>
</event>
<event>
12    1  0.3127365E-008  0.5430271E+03  0.7818608E-02  0.1003121E+00
          2   -1    0    0  501    0  0.00000000000E+00  0.00000000000E+00  0.33882233014E+04  0.33882233014E+04  0.00000000000E+00 0. -1.
         -2   -1    0    0    0  501 -0.00000000000E+00 -0.00000000000E+00 -0.11041852388E+03  0.11041852388E+03  0.00000000000E+00 0.  1.
         23    2    1    2    0    0  0.35739145639E+03  0.14732832100E+03  0.54052865391E+03  0.66983726108E+03  0.84121598636E+02 0.  0.
    5000000    2    1    2    0    0 -0.35739145639E+03 -0.14732832100E+03  0.27372761236E+04  0.28288045642E+04  0.60001699836E+03 0.  0.
         23    2    4    4    0    0  0.14201227992E+03 -0.12832559888E+02  0.99081432180E+03  0.10051443659E+04  0.90939615677E+02 0.  0.
         23    2    4    4    0    0 -0.49940373631E+03 -0.13449576111E+03  0.17464618018E+04  0.18236601983E+04  0.90080476486E+02 0.  0.
          1    1    3    3  502    0  0.14038644860E+03  0.17088804632E+02  0.21817671061E+03  0.26000280623E+03  0.00000000000E+00 0. -1.
         -1    1    3    3    0  502  0.21700500779E+03  0.13023951637E+03  0.32235194330E+03  0.40983445485E+03  0.00000000000E+00 0.  1.
         11    1    5    5    0    0  0.85802129734E+02  0.37525832579E+02  0.55192556641E+03  0.55981427673E+03  0.00000000000E+00 0. -1.
        -11    1    5    5    0    0  0.56210150186E+02 -0.50358392466E+02  0.43888875539E+03  0.44533008913E+03  0.00000000000E+00 0.  1.
          5    1    6    6  503    0 -0.49043943765E+03 -0.12031631835E+03  0.17136262514E+04  0.17864892606E+04  0.47000000000E+01 0. -1.
         -5    1    6    6    0  503 -0.89642986643E+01 -0.14179442765E+02  0.32835550330E+02  0.37170937749E+02  0.47000000000E+01 0.  1.
<mgrwt>
<rscale>  0 0.54302706E+03</rscale>
<asrwt>0</asrwt>
<pdfrwt beam="1">  1        2 0.52126504E+00 0.54302706E+03</pdfrwt>
<pdfrwt beam="2">  1       -2 0.16987468E-01 0.54302706E+03</pdfrwt>
<totfact> 0.30692857E+01</totfact>
</mgrwt>
</event>
<event>
12    1  0.4651440E-008  0.1464161E+04  0.7818608E-02  0.8908642E-01
         -2   -1    0    0    0  501 -0.00000000000E+00  0.00000000000E+00  0.11894765684E+04  0.11894765684E+04  0.00000000000E+00 0.  1.
          2   -1    0    0  501    0  0.00000000000E+00 -0.00000000000E+00 -0.18911859626E+04  0.18911859626E+04  0.00000000000E+00 0. -1.
         23    2    1    2    0    0 -0.11520381214E+04  0.85668194101E+03 -0.24614926558E+03  0.14593752638E+04  0.89949532687E+02 0.  0.
    5000000    2    1    2    0    0  0.11520381214E+04 -0.85668194101E+03 -0.45556012859E+03  0.16212872672E+04  0.59995132362E+03 0.  0.
         23    2    4    4    0    0  0.45825153645E+02 -0.95580890492E+01 -0.16838922520E+03  0.19586925943E+03  0.88422473701E+02 0.  0.
         23    2    4    4    0    0  0.11062129677E+04 -0.84712385196E+03 -0.28717090340E+03  0.14254180077E+04  0.89573536507E+02 0.  0.
          1    1    3    3  502    0 -0.49020305519E+03  0.30997058749E+03 -0.10481806665E+03  0.58937901856E+03  0.00000000000E+00 0. -1.
         -1    1    3    3    0  502 -0.66183506619E+03  0.54671135352E+03 -0.14133119893E+03  0.86999624522E+03  0.00000000000E+00 0.  1.
         11    1    5    5    0    0  0.62794578327E+02  0.16626706296E+02 -0.13694840396E+03  0.15157332146E+03  0.00000000000E+00 0.  1.
        -11    1    5    5    0    0 -0.16969424681E+02 -0.26184795345E+02 -0.31440821232E+02  0.44295937974E+02  0.00000000000E+00 0. -1.
          5    1    6    6  503    0  0.30055516272E+03 -0.21205809667E+03 -0.38782235747E+02  0.36990295215E+03  0.47000000000E+01 0. -1.
         -5    1    6    6    0  503  0.80565780501E+03 -0.63506575529E+03 -0.24838866765E+03  0.10555150556E+04  0.47000000000E+01 0.  1.
<mgrwt>
<rscale>  0 0.14641608E+04</rscale>
<asrwt>0</asrwt>
<pdfrwt beam="1">  1        2 0.29095168E+00 0.14641608E+04</pdfrwt>
<pdfrwt beam="2">  1       -2 0.18299640E+00 0.14641608E+04</pdfrwt>
<totfact> 0.12539697E+00</totfact>
</mgrwt>
</event>
<event>
12    1  0.3127365E-008  0.7519687E+03  0.7818608E-02  0.9632267E-01
          1   -1    0    0  501    0  0.00000000000E+00  0.00000000000E+00  0.13101853592E+04  0.13101853592E+04  0.00000000000E+00 0. -1.
         -1   -1    0    0    0  501 -0.00000000000E+00 -0.00000000000E+00 -0.93782045106E+03  0.93782045106E+03  0.00000000000E+00 0.  1.
         23    2    1    2    0    0  0.57933358695E+03 -0.41148975752E+03  0.92175804680E+03  0.11673142082E+04  0.89628891537E+02 0.  0.
    5000000    2    1    2    0    0 -0.57933358695E+03  0.41148975752E+03 -0.54939313868E+03  0.10806916021E+04  0.60092453144E+03 0.  0.
         23    2    4    4    0    0 -0.26423021587E+03  0.49223012493E+01  0.52250406867E+02  0.28362020195E+03  0.88704441314E+02 0.  0.
         23    2    4    4    0    0 -0.31510337107E+03  0.40656745627E+03 -0.60164354555E+03  0.79707140013E+03  0.93598237457E+02 0.  0.
          4    1    3    3  502    0  0.36279021879E+03 -0.27496907646E+03  0.65446669714E+03  0.79721477252E+03  0.00000000000E+00 0.  1.
         -4    1    3    3    0  502  0.21654336816E+03 -0.13652068105E+03  0.26729134966E+03  0.37009943563E+03  0.00000000000E+00 0. -1.
         13    1    5    5    0    0 -0.39315629736E+02 -0.31373831989E+02  0.21114196597E+01  0.50343759973E+02  0.00000000000E+00 0. -1.
        -13    1    5    5    0    0 -0.22491458614E+03  0.36296133238E+02  0.50138987207E+02  0.23327644198E+03  0.00000000000E+00 0.  1.
          5    1    6    6  503    0 -0.11131082174E+03  0.15290290242E+03 -0.29162343663E+03  0.34761431990E+03  0.47000000000E+01 0. -1.
         -5    1    6    6    0  503 -0.20379254933E+03  0.25366455385E+03 -0.31002010892E+03  0.44945708024E+03  0.47000000000E+01 0.  1.
<mgrwt>
<rscale>  0 0.75196874E+03</rscale>
<asrwt>0</asrwt>
<pdfrwt beam="1">  1        1 0.20156698E+00 0.75196874E+03</pdfrwt>
<pdfrwt beam="2">  1       -1 0.14428007E+00 0.75196874E+03</pdfrwt>
<totfact> 0.35852718E+00</totfact>
</mgrwt>
</event>
<event>
12    1  0.3127365E-008  0.6579835E+03  0.7818608E-02  0.9791913E-01
          4   -1    0    0  501    0  0.00000000000E+00  0.00000000000E+00  0.32862428744E+03  0.32862428744E+03  0.00000000000E+00 0. -1.
         -4   -1    0    0    0  501 -0.00000000000E+00 -0.00000000000E+00 -0.14447220479E+04  0.14447220479E+04  0.00000000000E+00 0.  1.
         23    2    1    2    0    0 -0.29001381617E+03 -0.45321397900E+03 -0.62273792540E+03  0.82838147223E+03  0.94352612450E+02 0.  0.
    5000000    2    1    2    0    0  0.29001381617E+03  0.45321397900E+03 -0.49335983510E+03  0.94496486314E+03  0.60003645003E+03 0.  0.
         23    2    4    4    0    0 -0.15642725063E+03  0.14282926946E+03 -0.25410737002E+03  0.34390723598E+03  0.93978436397E+02 0.  0.
         23    2    4    4    0    0  0.44644106680E+03  0.31038470953E+03 -0.23925246507E+03  0.60105762716E+03  0.91543623981E+02 0.  0.
          2    1    3    3  502    0 -0.22521806919E+03 -0.28943203207E+03 -0.46259981259E+03  0.59033267442E+03  0.00000000000E+00 0. -1.
         -2    1    3    3    0  502 -0.64795746984E+02 -0.16378194693E+03 -0.16013811281E+03  0.23804879782E+03  0.00000000000E+00 0.  1.
         13    1    5    5    0    0 -0.24220159342E+02  0.74163823088E+02 -0.12189298732E+03  0.14472314650E+03  0.00000000000E+00 0. -1.
        -13    1    5    5    0    0 -0.13220709128E+03  0.68665446375E+02 -0.13221438270E+03  0.19918408949E+03  0.00000000000E+00 0.  1.
          5    1    6    6  503    0  0.43694680150E+03  0.29426945958E+03 -0.24490236666E+03  0.58096151454E+03  0.47000000000E+01 0. -1.
         -5    1    6    6    0  503  0.94942652985E+01  0.16115249953E+02  0.56499015858E+01  0.20096112622E+02  0.47000000000E+01 0.  1.
<mgrwt>
<rscale>  0 0.65798355E+03</rscale>
<asrwt>0</asrwt>
<pdfrwt beam="1">  1        4 0.50557583E-01 0.65798355E+03</pdfrwt>
<pdfrwt beam="2">  1       -4 0.22226493E+00 0.65798355E+03</pdfrwt>
<totfact> 0.70742744E-01</totfact>
</mgrwt>
</event>
<event>
12    1  0.3127365E-008  0.3740894E+03  0.7818608E-02  0.1053140E+00
          2   -1    0    0  501    0  0.00000000000E+00  0.00000000000E+00  0.32975514616E+03  0.32975514616E+03  0.00000000000E+00 0. -1.
         -2   -1    0    0    0  501 -0.00000000000E+00 -0.00000000000E+00 -0.55623045547E+03  0.55623045547E+03  0.00000000000E+00 0.  1.
         23    2    1    2    0    0 -0.97933051938E+02  0.14991894004E+03 -0.15905521127E+03  0.25622782862E+03  0.91036084481E+02 0.  0.
    5000000    2    1    2    0    0  0.97933051938E+02 -0.14991894004E+03 -0.67420098041E+02  0.62975777301E+03  0.59998567633E+03 0.  0.
         23    2    4    4    0    0 -0.15531112689E+03  0.11029898182E+03  0.79549459971E+02  0.22756863085E+03  0.95770317110E+02 0.  0.
         23    2    4    4    0    0  0.25324417883E+03 -0.26021792186E+03 -0.14696955801E+03  0.40218914216E+03  0.91159607934E+02 0.  0.
          3    1    3    3  502    0 -0.98849697341E+02  0.14734865506E+03 -0.11358575268E+03  0.21067655784E+03  0.00000000000E+00 0. -1.
         -3    1    3    3    0  502  0.91664540312E+00  0.25702849793E+01 -0.45469458600E+02  0.45551270773E+02  0.00000000000E+00 0.  1.
         13    1    5    5    0    0 -0.16168558187E+03  0.10909577500E+03  0.55690698937E+02  0.20284370697E+03  0.00000000000E+00 0. -1.
        -13    1    5    5    0    0  0.63744549815E+01  0.12032068187E+01  0.23858761034E+02  0.24724923883E+02  0.00000000000E+00 0.  1.
          5    1    6    6  503    0  0.23272417561E+03 -0.21620096531E+03 -0.15373481198E+03  0.35293042052E+03  0.47000000000E+01 0. -1.
         -5    1    6    6    0  503  0.20520003219E+02 -0.44016956549E+02  0.67652539677E+01  0.49258721636E+02  0.47000000000E+01 0.  1.
<mgrwt>
<rscale>  0 0.37408936E+03</rscale>
<asrwt>0</asrwt>
<pdfrwt beam="1">  1        2 0.50731561E-01 0.37408936E+03</pdfrwt>
<pdfrwt beam="2">  1       -2 0.85573915E-01 0.37408936E+03</pdfrwt>
<totfact> 0.12086948E+02</totfact>
</mgrwt>
</event>
<event>
12    1  0.3127365E-008  0.1341138E+04  0.7818608E-02  0.8997564E-01
         -2   -1    0    0    0  501 -0.00000000000E+00  0.00000000000E+00  0.17875626730E+04  0.17875626730E+04  0.00000000000E+00 0.  1.
          2   -1    0    0  501    0  0.00000000000E+00 -0.00000000000E+00 -0.10193411564E+04  0.10193411564E+04  0.00000000000E+00 0. -1.
         23    2    1    2    0    0 -0.45759876447E+03  0.11963298217E+04  0.32354682661E+03  0.13242214402E+04  0.90984625113E+02 0.  0.
    5000000    2    1    2    0    0  0.45759876447E+03 -0.11963298217E+04  0.44467469001E+03  0.14826823893E+04  0.60000817992E+03 0.  0.
         23    2    4    4    0    0  0.57131823345E+03 -0.81396835046E+03  0.37928251205E+03  0.10683309736E+04  0.92340921093E+02 0.  0.
         23    2    4    4    0    0 -0.11371946897E+03 -0.38236147128E+03  0.65392177957E+02  0.41435141574E+03  0.90986517910E+02 0.  0.
          4    1    3    3  502    0 -0.28798538574E+03  0.86810755702E+03  0.22970342644E+03  0.94303233087E+03  0.00000000000E+00 0. -1.
         -4    1    3    3    0  502 -0.16961337873E+03  0.32822226472E+03  0.93843400171E+02  0.38118910931E+03  0.00000000000E+00 0.  1.
         11    1    5    5    0    0  0.16271569968E+02 -0.38141003622E+02  0.34704685032E+02  0.54073240236E+02  0.00000000000E+00 0.  1.
        -11    1    5    5    0    0  0.55504666348E+03 -0.77582734683E+03  0.34457782702E+03  0.10142577333E+04  0.00000000000E+00 0. -1.
          5    1    6    6  503    0 -0.11910790757E+03 -0.35345452237E+03  0.39879943314E+02  0.37513903144E+03  0.47000000000E+01 0. -1.
         -5    1    6    6    0  503  0.53884385984E+01 -0.28906948912E+02  0.25512234643E+02  0.39212384299E+02  0.47000000000E+01 0.  1.
<mgrwt>
<rscale>  0 0.13411378E+04</rscale>
<asrwt>0</asrwt>
<pdfrwt beam="1">  1        2 0.15682172E+00 0.13411378E+04</pdfrwt>
<pdfrwt beam="2">  1       -2 0.27500964E+00 0.13411378E+04</pdfrwt>
<totfact> 0.10631050E+00</totfact>
</mgrwt>
</event>
<event>
12    1  0.3127365E-008  0.6954101E+03  0.7818608E-02  0.9725114E-01
         -1   -1    0    0    0  501 -0.00000000000E+00  0.00000000000E+00  0.19509422658E+04  0.19509422658E+04  0.00000000000E+00 0.  1.
          1   -1    0    0  501    0  0.00000000000E+00 -0.00000000000E+00 -0.33021817002E+03  0.33021817002E+03  0.00000000000E+00 0. -1.
         23    2    1    2    0    0 -0.62530295208E+03  0.20885950679E+02  0.11031351914E+04  0.12715960872E+04  0.92786602599E+02 0.  0.
    5000000    2    1    2    0    0  0.62530295208E+03 -0.20885950679E+02  0.51758890437E+03  0.10095643486E+04  0.59990157133E+03 0.  0.
         23    2    4    4    0    0  0.18338885032E+03 -0.20180549473E+03 -0.16362040837E+02  0.28747457544E+03  0.89537629053E+02 0.  0.
         23    2    4    4    0    0  0.44191410176E+03  0.18091954405E+03  0.53395094520E+03  0.72208977319E+03  0.91049842997E+02 0.  0.
          1    1    3    3  502    0 -0.44375684236E+03 -0.25972642136E+02  0.79821571702E+03  0.91364273334E+03  0.00000000000E+00 0. -1.
         -1    1    3    3    0  502 -0.18154610971E+03  0.46858592815E+02  0.30491947440E+03  0.35795335387E+03  0.00000000000E+00 0.  1.
         13    1    5    5    0    0  0.11729000556E+03 -0.83617446392E+02 -0.41153506104E+02  0.14980798981E+03  0.00000000000E+00 0. -1.
        -13    1    5    5    0    0  0.66098844762E+02 -0.11818804834E+03  0.24791465267E+02  0.13766658563E+03  0.00000000000E+00 0.  1.
          5    1    6    6  503    0  0.14530865602E+03  0.80409749769E+02  0.13009962324E+03  0.21101738160E+03  0.47000000000E+01 0. -1.
         -5    1    6    6    0  503  0.29660544574E+03  0.10050979428E+03  0.40385132197E+03  0.51107239159E+03  0.47000000000E+01 0.  1.
<mgrwt>
<rscale>  0 0.69541007E+03</rscale>
<asrwt>0</asrwt>
<pdfrwt beam="1">  1        1 0.50802796E-01 0.69541007E+03</pdfrwt>
<pdfrwt beam="2">  1       -1 0.30014496E+00 0.69541007E+03</pdfrwt>
<totfact> 0.26978187E+00</totfact>
</mgrwt>
</event>
<event>
12    1  0.3127365E-008  0.4582153E+03  0.7818608E-02  0.1025300E+00
          1   -1    0    0  501    0  0.00000000000E+00  0.00000000000E+00  0.73719689339E+03  0.73719689339E+03  0.00000000000E+00 0. -1.
         -1   -1    0    0    0  501 -0.00000000000E+00 -0.00000000000E+00 -0.42837151439E+03  0.42837151439E+03  0.00000000000E+00 0.  1.
         23    2    1    2    0    0 -0.37892023649E+03  0.97778121628E+02  0.16439677652E+03  0.43473152231E+03  0.93936625845E+02 0.  0.
    5000000    2    1    2    0    0  0.37892023649E+03 -0.97778121628E+02  0.14442860248E+03  0.73083688546E+03  0.60010151246E+03 0.  0.
         23    2    4    4    0    0  0.25309274949E+03 -0.21676983482E+03 -0.15015375327E+03  0.37700557146E+03  0.92422671216E+02 0.  0.
         23    2    4    4    0    0  0.12582748700E+03  0.11899171319E+03  0.29458235575E+03  0.35383131401E+03  0.91794608561E+02 0.  0.
          3    1    3    3  502    0 -0.17139745876E+03  0.20173161623E+02  0.11601805330E+03  0.20795248017E+03  0.00000000000E+00 0. -1.
         -3    1    3    3    0  502 -0.20752277773E+03  0.77604960005E+02  0.48378723218E+02  0.22677904214E+03  0.00000000000E+00 0.  1.
         11    1    5    5    0    0  0.14122997545E+03 -0.15241219888E+03 -0.50187143158E+02  0.21376186206E+03  0.00000000000E+00 0. -1.
        -11    1    5    5    0    0  0.11186277404E+03 -0.64357635941E+02 -0.99966610113E+02  0.16324370939E+03  0.00000000000E+00 0.  1.
          5    1    6    6  503    0  0.93587617484E+02  0.43666714833E+02  0.21937707230E+03  0.24251559534E+03  0.47000000000E+01 0. -1.
         -5    1    6    6    0  503  0.32239869512E+02  0.75324998361E+02  0.75205283444E+02  0.11131571867E+03  0.47000000000E+01 0.  1.
<mgrwt>
<rscale>  0 0.45821534E+03</rscale>
<asrwt>0</asrwt>
<pdfrwt beam="1">  1        1 0.11341491E+00 0.45821534E+03</pdfrwt>
<pdfrwt beam="2">  1       -1 0.65903310E-01 0.45821534E+03</pdfrwt>
<totfact> 0.61921989E+01</totfact>
</mgrwt>
</event>
<event>
12    1  0.3127365E-008  0.1849947E+04  0.7818608E-02  0.8680180E-01
         -2   -1    0    0    0  501 -0.00000000000E+00  0.00000000000E+00  0.17592847427E+04  0.17592847427E+04  0.00000000000E+00 0. -1.
          2   -1    0    0  501    0  0.00000000000E+00 -0.00000000000E+00 -0.27471715844E+04  0.27471715844E+04  0.00000000000E+00 0.  1.
         23    2    1    2    0    0  0.31776819626E+03  0.17954707256E+04 -0.16651249506E+04  0.24709358283E+04  0.90504217911E+02 0.  0.
    5000000    2    1    2    0    0 -0.31776819626E+03 -0.17954707256E+04  0.67723810896E+03  0.20355204988E+04  0.60000040973E+03 0.  0.
         23    2    4    4    0    0 -0.22177405937E+03 -0.17515124202E+04  0.68568315285E+03  0.18959004139E+04  0.85425417413E+02 0.  0.
         23    2    4    4    0    0 -0.95994136893E+02 -0.43958305471E+02 -0.84450438963E+01  0.13962008490E+03  0.90968359357E+02 0.  0.
          1    1    3    3  502    0  0.56755084933E+02  0.20759462139E+03 -0.16811605205E+03  0.27309279275E+03  0.00000000000E+00 0. -1.
         -1    1    3    3    0  502  0.26101311133E+03  0.15878761042E+04 -0.14970088985E+04  0.21978430356E+04  0.00000000000E+00 0.  1.
         11    1    5    5    0    0 -0.15595196504E+03 -0.91155956108E+03  0.34349573115E+03  0.98653492899E+03  0.00000000000E+00 0.  1.
        -11    1    5    5    0    0 -0.65822094331E+02 -0.83995285908E+03  0.34218742171E+03  0.90936548491E+03  0.00000000000E+00 0. -1.
          5    1    6    6  503    0 -0.64901883282E+01 -0.87624334773E+01 -0.37263728392E+02  0.39109822789E+02  0.47000000000E+01 0. -1.
         -5    1    6    6    0  503 -0.89503948565E+02 -0.35195871994E+02  0.28818684495E+02  0.10051026211E+03  0.47000000000E+01 0.  1.
<mgrwt>
<rscale>  0 0.18499473E+04</rscale>
<asrwt>0</asrwt>
<pdfrwt beam="1">  1        2 0.42264178E+00 0.18499473E+04</pdfrwt>
<pdfrwt beam="2">  1       -2 0.27065919E+00 0.18499473E+04</pdfrwt>
<totfact> 0.10763072E-01</totfact>
</mgrwt>
</event>
<event>
12    1  0.3127365E-008  0.6628734E+03  0.7818608E-02  0.9782919E-01
          1   -1    0    0  501    0  0.00000000000E+00  0.00000000000E+00  0.73272380126E+03  0.73272380126E+03  0.00000000000E+00 0. -1.
         -1   -1    0    0    0  501 -0.00000000000E+00 -0.00000000000E+00 -0.67410480306E+03  0.67410480306E+03  0.00000000000E+00 0.  1.
         23    2    1    2    0    0  0.17636649466E+03  0.53297014563E+03  0.12855221810E+03  0.58288373786E+03  0.89807920110E+02 0.  0.
    5000000    2    1    2    0    0 -0.17636649466E+03 -0.53297014563E+03 -0.69933219894E+02  0.82394486646E+03  0.59902601877E+03 0.  0.
         23    2    4    4    0    0 -0.21683841796E+03  0.50597971087E+01  0.95160648192E+02  0.25271006641E+03  0.88104072830E+02 0.  0.
         23    2    4    4    0    0  0.40471923296E+02 -0.53802994274E+03 -0.16509386809E+03  0.57123480006E+03  0.89101154103E+02 0.  0.
          1    1    3    3  502    0  0.39295679071E+02  0.26093843474E+03  0.56372505160E+02  0.26983490593E+03  0.00000000000E+00 0. -1.
         -1    1    3    3    0  502  0.13707081559E+03  0.27203171088E+03  0.72179712938E+02  0.31304883193E+03  0.00000000000E+00 0.  1.
         13    1    5    5    0    0 -0.86043781735E+02  0.85194187464E+01  0.85363733359E+02  0.12150341495E+03  0.00000000000E+00 0.  1.
        -13    1    5    5    0    0 -0.13079463622E+03 -0.34596216377E+01  0.97969148330E+01  0.13120665146E+03  0.00000000000E+00 0. -1.
          5    1    6    6  503    0  0.57625663561E+01 -0.19319343481E+03 -0.16255042090E+02  0.19401862493E+03  0.47000000000E+01 0. -1.
         -5    1    6    6    0  503  0.34709356940E+02 -0.34483650792E+03 -0.14883882600E+03  0.37721617513E+03  0.47000000000E+01 0.  1.
<mgrwt>
<rscale>  0 0.66287342E+03</rscale>
<asrwt>0</asrwt>
<pdfrwt beam="1">  1        1 0.11272674E+00 0.66287342E+03</pdfrwt>
<pdfrwt beam="2">  1       -1 0.10370843E+00 0.66287342E+03</pdfrwt>
<totfact> 0.23078228E+01</totfact>
</mgrwt>
</event>
<event>
12    1  0.3127365E-008  0.6242589E+03  0.7818608E-02  0.9856317E-01
         -1   -1    0    0    0  501 -0.00000000000E+00  0.00000000000E+00  0.20003757390E+03  0.20003757390E+03  0.00000000000E+00 0.  1.
          1   -1    0    0  501    0  0.00000000000E+00 -0.00000000000E+00 -0.22531880124E+04  0.22531880124E+04  0.00000000000E+00 0. -1.
         23    2    1    2    0    0 -0.42488432373E+03 -0.31000179637E+03 -0.97974674761E+03  0.11157448386E+04  0.91405979285E+02 0.  0.
    5000000    2    1    2    0    0  0.42488432373E+03  0.31000179637E+03 -0.10734036909E+04  0.13374807478E+04  0.60002621997E+03 0.  0.
         23    2    4    4    0    0  0.34468631906E+03 -0.48788065792E+02 -0.77183669426E+03  0.85167436142E+03  0.91806325346E+02 0.  0.
         23    2    4    4    0    0  0.80198004665E+02  0.35878986216E+03 -0.30156699665E+03  0.48580638634E+03  0.99515357605E+02 0.  0.
          1    1    3    3  502    0 -0.38239410427E+03 -0.29831426205E+03 -0.84887862306E+03  0.97765615971E+03  0.00000000000E+00 0. -1.
         -1    1    3    3    0  502 -0.42490219462E+02 -0.11687534315E+02 -0.13086812455E+03  0.13808867886E+03  0.00000000000E+00 0.  1.
         13    1    5    5    0    0  0.12615542983E+03 -0.46109322330E+01 -0.18550563229E+03  0.22438536669E+03  0.00000000000E+00 0. -1.
        -13    1    5    5    0    0  0.21853088924E+03 -0.44177133559E+02 -0.58633106197E+03  0.62728899473E+03  0.00000000000E+00 0.  1.
          5    1    6    6  503    0  0.15402343244E+02  0.16695877880E+03 -0.80701776787E+02  0.18613794018E+03  0.47000000000E+01 0. -1.
         -5    1    6    6    0  503  0.64795661421E+02  0.19183108336E+03 -0.22086521986E+03  0.29966844616E+03  0.47000000000E+01 0.  1.
<mgrwt>
<rscale>  0 0.62425887E+03</rscale>
<asrwt>0</asrwt>
<pdfrwt beam="1">  1        1 0.34664433E+00 0.62425887E+03</pdfrwt>
<pdfrwt beam="2">  1       -1 0.30775010E-01 0.62425887E+03</pdfrwt>
<totfact> 0.20814166E+01</totfact>
</mgrwt>
</event>
<event>
12    1  0.3127365E-008  0.1391411E+04  0.7818608E-02  0.8960060E-01
         -1   -1    0    0    0  501 -0.00000000000E+00  0.00000000000E+00  0.13307915021E+04  0.13307915021E+04  0.00000000000E+00 0.  1.
          1   -1    0    0  501    0  0.00000000000E+00 -0.00000000000E+00 -0.15310716511E+04  0.15310716511E+04  0.00000000000E+00 0. -1.
         23    2    1    2    0    0 -0.10790388361E+04  0.77795073306E+03 -0.39266808592E+03  0.13899004576E+04  0.90016128464E+02 0.  0.
    5000000    2    1    2    0    0  0.10790388361E+04 -0.77795073306E+03  0.19238793695E+03  0.14719626956E+04  0.60010741203E+03 0.  0.
         23    2    4    4    0    0  0.24564864664E+03 -0.51678125690E+03  0.11177326736E+03  0.59015831053E+03  0.91582984842E+02 0.  0.
         23    2    4    4    0    0  0.83339018949E+03 -0.26116947616E+03  0.80614669593E+02  0.88180438506E+03  0.91277299160E+02 0.  0.
          1    1    3    3  502    0 -0.12099941496E+03  0.82322117591E+02 -0.73049696245E+02  0.16356664571E+03  0.00000000000E+00 0. -1.
         -1    1    3    3    0  502 -0.95803942116E+03  0.69562861547E+03 -0.31961838967E+03  0.12263338119E+04  0.00000000000E+00 0.  1.
         13    1    5    5    0    0  0.63663883663E+02 -0.23586868713E+03  0.58763207996E+02  0.25127722194E+03  0.00000000000E+00 0.  1.
        -13    1    5    5    0    0  0.18198476298E+03 -0.28091256976E+03  0.53010059360E+02  0.33888108859E+03  0.00000000000E+00 0. -1.
          5    1    6    6  503    0  0.75195706593E+03 -0.23656965261E+03  0.45388666672E+02  0.78961183540E+03  0.47000000000E+01 0. -1.
         -5    1    6    6    0  503  0.81433123554E+02 -0.24599823553E+02  0.35226002921E+02  0.92192549657E+02  0.47000000000E+01 0.  1.
<mgrwt>
<rscale>  0 0.13914105E+04</rscale>
<asrwt>0</asrwt>
<pdfrwt beam="1">  1        1 0.23554949E+00 0.13914105E+04</pdfrwt>
<pdfrwt beam="2">  1       -1 0.20473715E+00 0.13914105E+04</pdfrwt>
<totfact> 0.83285393E-01</totfact>
</mgrwt>
</event>
<event>
12    1  0.3127365E-008  0.1693511E+04  0.7818608E-02  0.8765074E-01
         -1   -1    0    0    0  501 -0.00000000000E+00  0.00000000000E+00  0.12968825700E+04  0.12968825700E+04  0.00000000000E+00 0.  1.
          1   -1    0    0  501    0  0.00000000000E+00 -0.00000000000E+00 -0.23360357279E+04  0.23360357279E+04  0.00000000000E+00 0. -1.
         23    2    1    2    0    0 -0.14337834962E+04  0.86884212983E+03 -0.70606273685E+03  0.18214170203E+04  0.91725749286E+02 0.  0.
    5000000    2    1    2    0    0  0.14337834962E+04 -0.86884212983E+03 -0.33309042106E+03  0.18115012775E+04  0.59997157375E+03 0.  0.
         23    2    4    4    0    0  0.46158017551E+03 -0.10795895170E+03 -0.30927089750E+03  0.57329958043E+03  0.91173061864E+02 0.  0.
         23    2    4    4    0    0  0.97220332067E+03 -0.76088317813E+03 -0.23819523565E+02  0.12382016971E+04  0.91943272953E+02 0.  0.
          1    1    3    3  502    0 -0.65442229714E+03  0.38557982637E+03 -0.27149576119E+03  0.80662896913E+03  0.00000000000E+00 0. -1.
         -1    1    3    3    0  502 -0.77936119904E+03  0.48326230346E+03 -0.43456697566E+03  0.10147880512E+04  0.00000000000E+00 0.  1.
         13    1    5    5    0    0  0.12261839943E+03 -0.28462765903E+02 -0.36653964290E+02  0.13110649877E+03  0.00000000000E+00 0.  1.
        -13    1    5    5    0    0  0.33896177608E+03 -0.79496185794E+02 -0.27261693320E+03  0.44219308166E+03  0.00000000000E+00 0. -1.
          5    1    6    6  503    0  0.27914308750E+03 -0.25744142813E+03  0.21570747877E+02  0.38037394677E+03  0.47000000000E+01 0. -1.
         -5    1    6    6    0  503  0.69306023317E+03 -0.50344175000E+03 -0.45390271441E+02  0.85782775030E+03  0.47000000000E+01 0.  1.
<mgrwt>
<rscale>  0 0.16935113E+04</rscale>
<asrwt>0</asrwt>
<pdfrwt beam="1">  1        1 0.35939011E+00 0.16935113E+04</pdfrwt>
<pdfrwt beam="2">  1       -1 0.19952039E+00 0.16935113E+04</pdfrwt>
<totfact> 0.24668981E-01</totfact>
</mgrwt>
</event>
<event>
12    1  0.3127365E-008  0.1225133E+04  0.7818608E-02  0.9091137E-01
          1   -1    0    0  501    0  0.00000000000E+00  0.00000000000E+00  0.13559956810E+04  0.13559956810E+04  0.00000000000E+00 0. -1.
         -1   -1    0    0    0  501 -0.00000000000E+00 -0.00000000000E+00 -0.12532661707E+04  0.12532661707E+04  0.00000000000E+00 0.  1.
         23    2    1    2    0    0 -0.92191902356E+03 -0.77181488242E+03  0.32095725160E+03  0.12478425953E+04  0.92003731052E+02 0.  0.
    5000000    2    1    2    0    0  0.92191902356E+03  0.77181488242E+03 -0.21822774131E+03  0.13614192563E+04  0.60017176354E+03 0.  0.
         23    2    4    4    0    0  0.77817988512E+03  0.49763098910E+03 -0.37627384040E+03  0.10020255619E+04  0.96294801781E+02 0.  0.
         23    2    4    4    0    0  0.14373913843E+03  0.27418389331E+03  0.15804609909E+03  0.35939369442E+03  0.91364713567E+02 0.  0.
          4    1    3    3  502    0 -0.26688830316E+03 -0.25836922802E+03  0.65112528672E+02  0.37712553048E+03  0.00000000000E+00 0.  1.
         -4    1    3    3    0  502 -0.65503072040E+03 -0.51344565440E+03  0.25584472293E+03  0.87071706480E+03  0.00000000000E+00 0. -1.
         11    1    5    5    0    0  0.68594658478E+03  0.47165157743E+03 -0.32813255760E+03  0.89478986529E+03  0.00000000000E+00 0. -1.
        -11    1    5    5    0    0  0.92233300346E+02  0.25979411671E+02 -0.48141282794E+02  0.10723569663E+03  0.00000000000E+00 0.  1.
          5    1    6    6  503    0  0.27826593353E+02  0.13081136760E+03  0.96433476282E+02  0.16494677487E+03  0.47000000000E+01 0. -1.
         -5    1    6    6    0  503  0.11591254508E+03  0.14337252571E+03  0.61612622804E+02  0.19444691955E+03  0.47000000000E+01 0.  1.
<mgrwt>
<rscale>  0 0.12251333E+04</rscale>
<asrwt>0</asrwt>
<pdfrwt beam="1">  1        1 0.20861472E+00 0.12251333E+04</pdfrwt>
<pdfrwt beam="2">  1       -1 0.19281018E+00 0.12251333E+04</pdfrwt>
<totfact> 0.13614367E+00</totfact>
</mgrwt>
</event>
<event>
12    1  0.3127365E-008  0.7575871E+03  0.7818608E-02  0.9623522E-01
          2   -1    0    0  501    0  0.00000000000E+00  0.00000000000E+00  0.26073578682E+04  0.26073578682E+04  0.00000000000E+00 0. -1.
         -2   -1    0    0    0  501 -0.00000000000E+00 -0.00000000000E+00 -0.54679997884E+03  0.54679997884E+03  0.00000000000E+00 0.  1.
         23    2    1    2    0    0  0.30425686299E+03  0.65123474269E+03  0.20955834897E+04  0.22172841511E+04  0.90553386862E+02 0.  0.
    5000000    2    1    2    0    0 -0.30425686299E+03 -0.65123474269E+03 -0.35025600352E+02  0.93687369588E+03  0.59985548308E+03 0.  0.
         23    2    4    4    0    0 -0.82590868434E+01 -0.37026754246E+03  0.22635652669E+03  0.44357102290E+03  0.91387688790E+02 0.  0.
         23    2    4    4    0    0 -0.29599777615E+03 -0.28096720023E+03 -0.26138212705E+03  0.49330267298E+03  0.92030754330E+02 0.  0.
          2    1    3    3  502    0  0.62142198368E+02  0.69494772305E+02  0.23067750022E+03  0.24880370838E+03  0.00000000000E+00 0. -1.
         -2    1    3    3    0  502  0.24211466462E+03  0.58173997038E+03  0.18649059895E+04  0.19684804428E+04  0.00000000000E+00 0.  1.
         11    1    5    5    0    0  0.32735815434E+02 -0.67248648029E+02  0.56895597731E+02  0.93974056606E+02  0.00000000000E+00 0. -1.
        -11    1    5    5    0    0 -0.40994902278E+02 -0.30301889443E+03  0.16946092896E+03  0.34959696629E+03  0.00000000000E+00 0.  1.
          5    1    6    6  503    0 -0.18253121443E+03 -0.13909361210E+03 -0.19032024587E+03  0.29817538993E+03  0.47000000000E+01 0. -1.
         -5    1    6    6    0  503 -0.11346656172E+03 -0.14187358813E+03 -0.71061881172E+02  0.19512728305E+03  0.47000000000E+01 0.  1.
<mgrwt>
<rscale>  0 0.75758713E+03</rscale>
<asrwt>0</asrwt>
<pdfrwt beam="1">  1        2 0.40113197E+00 0.75758713E+03</pdfrwt>
<pdfrwt beam="2">  1       -2 0.84123075E-01 0.75758713E+03</pdfrwt>
<totfact> 0.39103549E+00</totfact>
</mgrwt>
</event>
<event>
12    1  0.3127365E-008  0.1361867E+04  0.7818608E-02  0.8981894E-01
         -2   -1    0    0    0  501 -0.00000000000E+00  0.00000000000E+00  0.14383760838E+04  0.14383760838E+04  0.00000000000E+00 0.  1.
          2   -1    0    0  501    0  0.00000000000E+00 -0.00000000000E+00 -0.13241212438E+04  0.13241212438E+04  0.00000000000E+00 0. -1.
         23    2    1    2    0    0  0.19249220498E+03  0.12947537147E+04  0.15884461292E+03  0.13216811270E+04  0.90382297290E+02 0.  0.
    5000000    2    1    2    0    0 -0.19249220498E+03 -0.12947537147E+04 -0.44589772853E+02  0.14408162006E+04  0.60043537975E+03 0.  0.
         23    2    4    4    0    0  0.17598392944E+03 -0.29972684778E+03  0.80075999065E+02  0.36859887191E+03  0.92986214266E+02 0.  0.
         23    2    4    4    0    0 -0.36847613442E+03 -0.99502686695E+03 -0.12466577192E+03  0.10722173287E+04  0.90858778611E+02 0.  0.
          3    1    3    3  502    0 -0.72030023781E+01  0.68640783075E+02 -0.19772434651E+01  0.69045997973E+02  0.00000000000E+00 0. -1.
         -3    1    3    3    0  502  0.19969520735E+03  0.12261129317E+04  0.16082185638E+03  0.12526351290E+04  0.00000000000E+00 0.  1.
         11    1    5    5    0    0  0.72349602505E+02 -0.10411471316E+03  0.74721275061E+02  0.14716523851E+03  0.00000000000E+00 0.  1.
        -11    1    5    5    0    0  0.10363432694E+03 -0.19561213462E+03  0.53547240041E+01  0.22143363340E+03  0.00000000000E+00 0. -1.
          5    1    6    6  503    0 -0.14700113594E+03 -0.51550151790E+03 -0.44037827659E+02  0.53787783853E+03  0.47000000000E+01 0.  1.
         -5    1    6    6    0  503 -0.22147499848E+03 -0.47952534906E+03 -0.80627944259E+02  0.53433949015E+03  0.47000000000E+01 0. -1.
<mgrwt>
<rscale>  0 0.13618666E+04</rscale>
<asrwt>0</asrwt>
<pdfrwt beam="1">  1        2 0.20371096E+00 0.13618666E+04</pdfrwt>
<pdfrwt beam="2">  1       -2 0.22128863E+00 0.13618666E+04</pdfrwt>
<totfact> 0.14825295E+00</totfact>
</mgrwt>
</event>
<event>
12    1  0.3127365E-008  0.3547860E+03  0.7818608E-02  0.1060668E+00
          2   -1    0    0  501    0  0.00000000000E+00  0.00000000000E+00  0.20886101479E+04  0.20886101479E+04  0.00000000000E+00 0. -1.
         -2   -1    0    0    0  501 -0.00000000000E+00 -0.00000000000E+00 -0.16228383373E+03  0.16228383373E+03  0.00000000000E+00 0.  1.
         23    2    1    2    0    0 -0.20103049021E+03  0.24817011610E+03  0.12430382694E+04  0.12865834726E+04  0.90284152109E+02 0.  0.
    5000000    2    1    2    0    0  0.20103049021E+03 -0.24817011610E+03  0.68328804475E+03  0.96431050907E+03  0.60084152759E+03 0.  0.
         23    2    4    4    0    0  0.95475840238E+02 -0.22954251461E+03 -0.19093987479E+01  0.26484489399E+03  0.91289484523E+02 0.  0.
         23    2    4    4    0    0  0.10555464997E+03 -0.18627601485E+02  0.68519744350E+03  0.69946561508E+03  0.90927654941E+02 0.  0.
          2    1    3    3  502    0 -0.12118549182E+03  0.18812608399E+03  0.97968605737E+03  0.10049189609E+04  0.00000000000E+00 0. -1.
         -2    1    3    3    0  502 -0.79844998390E+02  0.60044032107E+02  0.26335221206E+03  0.28166451171E+03  0.00000000000E+00 0.  1.
         13    1    5    5    0    0 -0.25231686549E+01 -0.43454993772E+02 -0.29709393242E+02  0.52700577896E+02  0.00000000000E+00 0. -1.
        -13    1    5    5    0    0  0.97999008893E+02 -0.18608752084E+03  0.27799994494E+02  0.21214431609E+03  0.00000000000E+00 0.  1.
          5    1    6    6  503    0  0.14955807948E+02  0.26447780205E+02  0.28469627713E+03  0.28635156972E+03  0.47000000000E+01 0. -1.
         -5    1    6    6    0  503  0.90598842024E+02 -0.45075381690E+02  0.40050116637E+03  0.41311404536E+03  0.47000000000E+01 0.  1.
<mgrwt>
<rscale>  0 0.35478596E+03</rscale>
<asrwt>0</asrwt>
<pdfrwt beam="1">  1        2 0.32132462E+00 0.35478596E+03</pdfrwt>
<pdfrwt beam="2">  1       -2 0.24966745E-01 0.35478596E+03</pdfrwt>
<totfact> 0.93779472E+01</totfact>
</mgrwt>
</event>
<event>
12    1  0.3127365E-008  0.7566688E+03  0.7818608E-02  0.9624946E-01
          2   -1    0    0  501    0  0.00000000000E+00  0.00000000000E+00  0.10306052245E+04  0.10306052245E+04  0.00000000000E+00 0. -1.
         -2   -1    0    0    0  501 -0.00000000000E+00 -0.00000000000E+00 -0.63762731143E+03  0.63762731143E+03  0.00000000000E+00 0.  1.
         23    2    1    2    0    0 -0.69410074930E+02 -0.66183774721E+03  0.38129340606E+03  0.77221628426E+03  0.89924223862E+02 0.  0.
    5000000    2    1    2    0    0  0.69410074930E+02  0.66183774721E+03  0.11684507056E+02  0.89601625172E+03  0.59988468351E+03 0.  0.
         23    2    4    4    0    0 -0.26039078174E+02 -0.75974645393E+02  0.72182045643E+02  0.14385513281E+03  0.95046678990E+02 0.  0.
         23    2    4    4    0    0  0.95449153104E+02  0.73781239260E+03 -0.60497538587E+02  0.75216111891E+03  0.92783237272E+02 0.  0.
          2    1    3    3  502    0 -0.41549110692E+02 -0.20664889840E+03  0.79094585039E+02  0.22513562399E+03  0.00000000000E+00 0. -1.
         -2    1    3    3    0  502 -0.27860964238E+02 -0.45518884881E+03  0.30219882102E+03  0.54708066026E+03  0.00000000000E+00 0.  1.
         11    1    5    5    0    0  0.17076268364E+02 -0.26360680770E+02  0.71529656728E+02  0.78121547755E+02  0.00000000000E+00 0. -1.
        -11    1    5    5    0    0 -0.43115346537E+02 -0.49613964623E+02  0.65238891508E+00  0.65733585053E+02  0.00000000000E+00 0.  1.
          5    1    6    6  503    0 -0.93228668395E+01  0.25898210886E+03 -0.99953885737E+01  0.25938513132E+03  0.47000000000E+01 0. -1.
         -5    1    6    6    0  503  0.10477201994E+03  0.47883028374E+03 -0.50502150013E+02  0.49277598759E+03  0.47000000000E+01 0.  1.
<mgrwt>
<rscale>  0 0.75666882E+03</rscale>
<asrwt>0</asrwt>
<pdfrwt beam="1">  1        2 0.15855465E+00 0.75666882E+03</pdfrwt>
<pdfrwt beam="2">  1       -2 0.98096509E-01 0.75666882E+03</pdfrwt>
<totfact> 0.21149023E+01</totfact>
</mgrwt>
</event>
<event>
12    1  0.3215613E-008  0.1466751E+04  0.7818608E-02  0.8906869E-01
          1   -1    0    0  501    0  0.00000000000E+00  0.00000000000E+00  0.12141127940E+04  0.12141127940E+04  0.00000000000E+00 0.  1.
         -1   -1    0    0    0  501 -0.00000000000E+00 -0.00000000000E+00 -0.20197308465E+04  0.20197308465E+04  0.00000000000E+00 0. -1.
         23    2    1    2    0    0 -0.11717464922E+04  0.86464264794E+03  0.12663552548E+02  0.14589278045E+04  0.87824954239E+02 0.  0.
    5000000    2    1    2    0    0  0.11717464922E+04 -0.86464264794E+03 -0.81828160513E+03  0.17749158360E+04  0.60012056213E+03 0.  0.
         23    2    4    4    0    0  0.89549848910E+03 -0.76770028976E+03 -0.86326136352E+03  0.14645920084E+04  0.92348742996E+02 0.  0.
         23    2    4    4    0    0  0.27624800309E+03 -0.96942358175E+02  0.44979758395E+02  0.31032382766E+03  0.92557654078E+02 0.  0.
          3    1    3    3  502    0 -0.42961291704E+03  0.36998882903E+03  0.99212615073E+00  0.56697440542E+03  0.00000000000E+00 0. -1.
         -3    1    3    3    0  502 -0.74213357515E+03  0.49465381891E+03  0.11671426398E+02  0.89195339907E+03  0.00000000000E+00 0.  1.
         11    1    5    5    0    0  0.56074986050E+03 -0.52345492176E+03 -0.59704992646E+03  0.97206690914E+03  0.00000000000E+00 0.  1.
        -11    1    5    5    0    0  0.33474862859E+03 -0.24424536800E+03 -0.26621143706E+03  0.49252509922E+03  0.00000000000E+00 0. -1.
          5    1    6    6  503    0  0.40511067606E+02 -0.11394136781E+02  0.41770424359E+02  0.59479671340E+02  0.47000000000E+01 0. -1.
         -5    1    6    6    0  503  0.23573693548E+03 -0.85548221394E+02  0.32093340363E+01  0.25084415632E+03  0.47000000000E+01 0.  1.
<mgrwt>
<rscale>  0 0.14667514E+04</rscale>
<asrwt>0</asrwt>
<pdfrwt beam="1">  1        1 0.18678658E+00 0.14667514E+04</pdfrwt>
<pdfrwt beam="2">  1       -1 0.31072782E+00 0.14667514E+04</pdfrwt>
<totfact> 0.27950253E-01</totfact>
</mgrwt>
</event>
<event>
12    1  0.3127365E-008  0.7192211E+03  0.7818608E-02  0.9684915E-01
          2   -1    0    0  501    0  0.00000000000E+00  0.00000000000E+00  0.18979176544E+04  0.18979176544E+04  0.00000000000E+00 0. -1.
         -2   -1    0    0    0  501 -0.00000000000E+00 -0.00000000000E+00 -0.28177241707E+03  0.28177241707E+03  0.00000000000E+00 0.  1.
         23    2    1    2    0    0 -0.58045901026E+03 -0.16628164329E+03  0.65338397587E+03  0.89458394542E+03  0.93742028911E+02 0.  0.
    5000000    2    1    2    0    0  0.58045901026E+03  0.16628164329E+03  0.96276126147E+03  0.12851061261E+04  0.60000521762E+03 0.  0.
         23    2    4    4    0    0  0.17864029871E+02  0.24821324651E+03  0.21507459986E+03  0.34143756128E+03  0.91616512930E+02 0.  0.
         23    2    4    4    0    0  0.56259498039E+03 -0.81931603222E+02  0.74768666161E+03  0.94366856479E+03  0.90824647812E+02 0.  0.
          2    1    3    3  502    0 -0.34350817451E+03 -0.78267289314E+02  0.31791034099E+03  0.47454253702E+03  0.00000000000E+00 0. -1.
         -2    1    3    3    0  502 -0.23695083575E+03 -0.88014353973E+02  0.33547363488E+03  0.42004140840E+03  0.00000000000E+00 0.  1.
         13    1    5    5    0    0 -0.28139214183E+02  0.17868518955E+03  0.13367959049E+03  0.22492319857E+03  0.00000000000E+00 0.  1.
        -13    1    5    5    0    0  0.46003244054E+02  0.69528056954E+02  0.81395009373E+02  0.11651436271E+03  0.00000000000E+00 0. -1.
          5    1    6    6  503    0  0.16475375037E+03 -0.13265056434E+02  0.15581853600E+03  0.22720313850E+03  0.47000000000E+01 0. -1.
         -5    1    6    6    0  503  0.39784123003E+03 -0.68666546788E+02  0.59186812561E+03  0.71646542629E+03  0.47000000000E+01 0.  1.
<mgrwt>
<rscale>  0 0.71922113E+03</rscale>
<asrwt>0</asrwt>
<pdfrwt beam="1">  1        2 0.29198732E+00 0.71922113E+03</pdfrwt>
<pdfrwt beam="2">  1       -2 0.43349604E-01 0.71922113E+03</pdfrwt>
<totfact> 0.39693132E+01</totfact>
</mgrwt>
</event>
<event>
12    1  0.3127365E-008  0.9327918E+03  0.7818608E-02  0.9385494E-01
         -1   -1    0    0    0  501 -0.00000000000E+00  0.00000000000E+00  0.11102541579E+04  0.11102541579E+04  0.00000000000E+00 0.  1.
          1   -1    0    0  501    0  0.00000000000E+00 -0.00000000000E+00 -0.15105199047E+04  0.15105199047E+04  0.00000000000E+00 0. -1.
         23    2    1    2    0    0  0.39346701177E+03  0.75619006056E+03 -0.10780858449E+04  0.13773592604E+04  0.90607649474E+02 0.  0.
    5000000    2    1    2    0    0 -0.39346701177E+03 -0.75619006056E+03  0.67782009811E+03  0.12434148022E+04  0.60000048993E+03 0.  0.
         23    2    4    4    0    0 -0.42626853408E+03 -0.23660617281E+03  0.44396660831E+03  0.66554120976E+03  0.90285150663E+02 0.  0.
         23    2    4    4    0    0  0.32801522312E+02 -0.51958388775E+03  0.23385348981E+03  0.57787359246E+03  0.90592924090E+02 0.  0.
          1    1    3    3  502    0  0.11094319823E+03  0.14290352865E+03 -0.20028230756E+03  0.26989408007E+03  0.00000000000E+00 0. -1.
         -1    1    3    3    0  502  0.28252381354E+03  0.61328653191E+03 -0.87780353736E+03  0.11074651803E+04  0.00000000000E+00 0.  1.
         13    1    5    5    0    0 -0.39526422274E+03 -0.21277360072E+03  0.36941297332E+03  0.58135389893E+03  0.00000000000E+00 0. -1.
        -13    1    5    5    0    0 -0.31004311339E+02 -0.23832572092E+02  0.74553634992E+02  0.84187310829E+02  0.00000000000E+00 0.  1.
          5    1    6    6  503    0  0.34260283894E+02 -0.33370992652E+03  0.10460581373E+03  0.35142644803E+03  0.47000000000E+01 0. -1.
         -5    1    6    6    0  503 -0.14587615822E+01 -0.18587396123E+03  0.12924767608E+03  0.22644714443E+03  0.47000000000E+01 0.  1.
<mgrwt>
<rscale>  0 0.93279178E+03</rscale>
<asrwt>0</asrwt>
<pdfrwt beam="1">  1        1 0.23238768E+00 0.93279178E+03</pdfrwt>
<pdfrwt beam="2">  1       -1 0.17080833E+00 0.93279178E+03</pdfrwt>
<totfact> 0.15866334E+00</totfact>
</mgrwt>
</event>
<event>
12    1  0.3127365E-008  0.9728540E+03  0.7818608E-02  0.9338830E-01
          1   -1    0    0  501    0  0.00000000000E+00  0.00000000000E+00  0.88825984100E+03  0.88825984100E+03  0.00000000000E+00 0. -1.
         -1   -1    0    0    0  501 -0.00000000000E+00 -0.00000000000E+00 -0.37634999492E+04  0.37634999492E+04  0.00000000000E+00 0.  1.
         23    2    1    2    0    0  0.39768108737E+03 -0.87660353338E+03  0.50160193722E+03  0.10895348732E+04  0.94327803878E+02 0.  0.
    5000000    2    1    2    0    0 -0.39768108737E+03  0.87660353338E+03 -0.33768420454E+04  0.35622249170E+04  0.59983344138E+03 0.  0.
         23    2    4    4    0    0 -0.25893327550E+03  0.47362566836E+03 -0.94652569788E+03  0.10932810077E+04  0.89357429825E+02 0.  0.
         23    2    4    4    0    0 -0.13874781187E+03  0.40297786502E+03 -0.24303163476E+04  0.24689439092E+04  0.87202997514E+02 0.  0.
          3    1    3    3  502    0  0.18352687552E+03 -0.49918154702E+03  0.24692991714E+03  0.58637762142E+03  0.00000000000E+00 0. -1.
         -3    1    3    3    0  502  0.21415421185E+03 -0.37742198636E+03  0.25467202008E+03  0.50315725181E+03  0.00000000000E+00 0.  1.
         11    1    5    5    0    0 -0.82611653966E+02  0.24305276967E+03 -0.45737798864E+03  0.52449400255E+03  0.00000000000E+00 0. -1.
        -11    1    5    5    0    0 -0.17632162154E+03  0.23057289869E+03 -0.48914770924E+03  0.56878700520E+03  0.00000000000E+00 0.  1.
          5    1    6    6  503    0 -0.55032663917E+02  0.27105772275E+03 -0.14336061870E+04  0.14600512568E+04  0.47000000000E+01 0. -1.
         -5    1    6    6    0  503 -0.83715147953E+02  0.13192014227E+03 -0.99671016059E+03  0.10088926524E+04  0.47000000000E+01 0.  1.
<mgrwt>
<rscale>  0 0.97285403E+03</rscale>
<asrwt>0</asrwt>
<pdfrwt beam="1">  1        1 0.13665536E+00 0.97285403E+03</pdfrwt>
<pdfrwt beam="2">  1       -1 0.57899999E+00 0.97285403E+03</pdfrwt>
<totfact> 0.10022827E-02</totfact>
</mgrwt>
</event>
<event>
12    1  0.3127365E-008  0.3454288E+03  0.7818608E-02  0.1064507E+00
          1   -1    0    0  501    0  0.00000000000E+00  0.00000000000E+00  0.14728776557E+04  0.14728776557E+04  0.00000000000E+00 0. -1.
         -1   -1    0    0    0  501 -0.00000000000E+00 -0.00000000000E+00 -0.27416365284E+03  0.27416365284E+03  0.00000000000E+00 0.  1.
         23    2    1    2    0    0  0.16854346291E+03  0.17325377803E+03 -0.11509089274E+03  0.28265402321E+03  0.90684137282E+02 0.  0.
    5000000    2    1    2    0    0 -0.16854346291E+03 -0.17325377803E+03  0.13138048956E+04  0.14643872854E+04  0.59993586930E+03 0.  0.
         23    2    4    4    0    0  0.85585573113E+02 -0.32641392376E+01  0.10284204850E+04  0.10360470657E+04  0.91702145463E+02 0.  0.
         23    2    4    4    0    0 -0.25412903602E+03 -0.16998963880E+03  0.28538441067E+03  0.42834021969E+03  0.92482634597E+02 0.  0.
          2    1    3    3  502    0  0.15929617020E+03  0.13142576354E+03 -0.64477215770E+02  0.21634535473E+03  0.00000000000E+00 0.  1.
         -2    1    3    3    0  502  0.92472927108E+01  0.41828014499E+02 -0.50613676970E+02  0.66308668482E+02  0.00000000000E+00 0. -1.
         11    1    5    5    0    0  0.94950099072E+02 -0.25289543849E+02  0.90569723224E+03  0.91101183243E+03  0.00000000000E+00 0. -1.
        -11    1    5    5    0    0 -0.93645259590E+01  0.22025404612E+02  0.12272325273E+03  0.12503523325E+03  0.00000000000E+00 0.  1.
          5    1    6    6  503    0 -0.29935004007E+02 -0.64982256037E+02  0.59418666149E+02  0.93120706352E+02  0.47000000000E+01 0. -1.
         -5    1    6    6    0  503 -0.22419403201E+03 -0.10500738276E+03  0.22596574452E+03  0.33521951334E+03  0.47000000000E+01 0.  1.
<mgrwt>
<rscale>  0 0.34542876E+03</rscale>
<asrwt>0</asrwt>
<pdfrwt beam="1">  1        1 0.22659656E+00 0.34542876E+03</pdfrwt>
<pdfrwt beam="2">  1       -1 0.42179025E-01 0.34542876E+03</pdfrwt>
<totfact> 0.41576876E+01</totfact>
</mgrwt>
</event>
<event>
12    1  0.3127365E-008  0.8423471E+03  0.7818608E-02  0.9500666E-01
          1   -1    0    0  501    0  0.00000000000E+00  0.00000000000E+00  0.12510201046E+04  0.12510201046E+04  0.00000000000E+00 0. -1.
         -1   -1    0    0    0  501 -0.00000000000E+00 -0.00000000000E+00 -0.97005856191E+03  0.97005856191E+03  0.00000000000E+00 0.  1.
         23    2    1    2    0    0  0.57623225045E+03  0.52913440928E+03 -0.52591638091E+03  0.94708752902E+03  0.91432589257E+02 0.  0.
    5000000    2    1    2    0    0 -0.57623225045E+03 -0.52913440928E+03  0.80687792358E+03  0.12739911375E+04  0.59997883731E+03 0.  0.
         23    2    4    4    0    0 -0.60586005085E+03 -0.36664179020E+03  0.38506757729E+03  0.81130811050E+03  0.91930449481E+02 0.  0.
         23    2    4    4    0    0  0.29627800397E+02 -0.16249261908E+03  0.42181034630E+03  0.46268302697E+03  0.94180451208E+02 0.  0.
          1    1    3    3  502    0  0.13929883704E+03  0.18428217682E+03 -0.15182845464E+03  0.27643437980E+03  0.00000000000E+00 0. -1.
         -1    1    3    3    0  502  0.43693341342E+03  0.34485223246E+03 -0.37408792626E+03  0.67065314923E+03  0.00000000000E+00 0.  1.
         13    1    5    5    0    0 -0.34880624800E+03 -0.21517328510E+03  0.17091217320E+03  0.44404539431E+03  0.00000000000E+00 0. -1.
        -13    1    5    5    0    0 -0.25705380285E+03 -0.15146850511E+03  0.21415540409E+03  0.36726271618E+03  0.00000000000E+00 0.  1.
          5    1    6    6  503    0  0.60327655732E+02 -0.77175029679E+02  0.24561850642E+03  0.26447297016E+03  0.47000000000E+01 0. -1.
         -5    1    6    6    0  503 -0.30699855335E+02 -0.85317589398E+02  0.17619183988E+03  0.19821005680E+03  0.47000000000E+01 0.  1.
<mgrwt>
<rscale>  0 0.84234713E+03</rscale>
<asrwt>0</asrwt>
<pdfrwt beam="1">  1        1 0.19246463E+00 0.84234713E+03</pdfrwt>
<pdfrwt beam="2">  1       -1 0.14923978E+00 0.84234713E+03</pdfrwt>
<totfact> 0.35586040E+00</totfact>
</mgrwt>
</event>
<event>
12    1  0.3127365E-008  0.9917808E+03  0.7818608E-02  0.9317606E-01
          2   -1    0    0  501    0  0.00000000000E+00  0.00000000000E+00  0.11269569618E+04  0.11269569618E+04  0.00000000000E+00 0. -1.
         -2   -1    0    0    0  501 -0.00000000000E+00 -0.00000000000E+00 -0.15731197982E+04  0.15731197982E+04  0.00000000000E+00 0.  1.
         23    2    1    2    0    0  0.23050167800E+03  0.92486701119E+03 -0.10509073484E+04  0.14216837807E+04  0.90931322268E+02 0.  0.
    5000000    2    1    2    0    0 -0.23050167800E+03 -0.92486701119E+03  0.60474451204E+03  0.12783929793E+04  0.60005222491E+03 0.  0.
         23    2    4    4    0    0 -0.16380395492E+03 -0.90123158807E+03  0.67523352371E+03  0.11416431327E+04  0.91425488763E+02 0.  0.
         23    2    4    4    0    0 -0.66697723073E+02 -0.23635423118E+02 -0.70489011669E+02  0.13674984652E+03  0.93405568719E+02 0.  0.
          4    1    3    3  502    0  0.12498471728E+03  0.65380412227E+03 -0.76029004123E+03  0.10105057925E+04  0.00000000000E+00 0.  1.
         -4    1    3    3    0  502  0.10551696071E+03  0.27106288892E+03 -0.29061730722E+03  0.41117798823E+03  0.00000000000E+00 0. -1.
         13    1    5    5    0    0 -0.50736954716E+02 -0.37417613370E+03  0.22697599989E+03  0.44056795404E+03  0.00000000000E+00 0. -1.
        -13    1    5    5    0    0 -0.11306700021E+03 -0.52705545438E+03  0.44825752381E+03  0.70107517869E+03  0.00000000000E+00 0.  1.
          5    1    6    6  503    0  0.19697379618E+02  0.14693938418E+01  0.29521131192E+01  0.20517086878E+02  0.47000000000E+01 0. -1.
         -5    1    6    6    0  503 -0.86395102691E+02 -0.25104816960E+02 -0.73441124788E+02  0.11623275964E+03  0.47000000000E+01 0.  1.
<mgrwt>
<rscale>  0 0.99178084E+03</rscale>
<asrwt>0</asrwt>
<pdfrwt beam="1">  1        2 0.17337800E+00 0.99178084E+03</pdfrwt>
<pdfrwt beam="2">  1       -2 0.24201843E+00 0.99178084E+03</pdfrwt>
<totfact> 0.15046905E+00</totfact>
</mgrwt>
</event>
<event>
12    1  0.3127365E-008  0.5444296E+03  0.7818608E-02  0.1002792E+00
         -1   -1    0    0    0  501 -0.00000000000E+00  0.00000000000E+00  0.17569252796E+03  0.17569252796E+03  0.00000000000E+00 0.  1.
          1   -1    0    0  501    0  0.00000000000E+00 -0.00000000000E+00 -0.19272029020E+04  0.19272029020E+04  0.00000000000E+00 0. -1.
         23    2    1    2    0    0 -0.31987868485E+03 -0.23494307224E+03 -0.39479026655E+03  0.56723567682E+03  0.91522337599E+02 0.  0.
    5000000    2    1    2    0    0  0.31987868485E+03  0.23494307224E+03 -0.13567201075E+04  0.15356597531E+04  0.60003400498E+03 0.  0.
         23    2    4    4    0    0 -0.10705337198E+03 -0.96023261769E+02 -0.38324142344E+03  0.41853039090E+03  0.87251408090E+02 0.  0.
         23    2    4    4    0    0  0.42693205683E+03  0.33096633401E+03 -0.97347868403E+03  0.11171293622E+04  0.92236480205E+02 0.  0.
          4    1    3    3  502    0 -0.48927414578E+02 -0.60705560767E+02 -0.38665043022E+02  0.87028975389E+02  0.00000000000E+00 0.  1.
         -4    1    3    3    0  502 -0.27095127027E+03 -0.17423751147E+03 -0.35612522353E+03  0.48020670143E+03  0.00000000000E+00 0. -1.
         13    1    5    5    0    0 -0.40916955124E+02 -0.14821541574E+02 -0.38067068721E+02  0.57818483483E+02  0.00000000000E+00 0.  1.
        -13    1    5    5    0    0 -0.66136416856E+02 -0.81201720195E+02 -0.34517435472E+03  0.36071190742E+03  0.00000000000E+00 0. -1.
          5    1    6    6  503    0  0.39698209500E+03  0.30721933251E+03 -0.84360935382E+03  0.98167068504E+03  0.47000000000E+01 0. -1.
         -5    1    6    6    0  503  0.29949961830E+02  0.23747001497E+02 -0.12986933021E+03  0.13545867718E+03  0.47000000000E+01 0.  1.
<mgrwt>
<rscale>  0 0.54442955E+03</rscale>
<asrwt>0</asrwt>
<pdfrwt beam="1">  1        1 0.29649275E+00 0.54442955E+03</pdfrwt>
<pdfrwt beam="2">  1       -1 0.27029620E-01 0.54442955E+03</pdfrwt>
<totfact> 0.43502634E+01</totfact>
</mgrwt>
</event>
<event>
12    1  0.3127365E-008  0.1202453E+04  0.7818608E-02  0.9110712E-01
          1   -1    0    0  501    0  0.00000000000E+00  0.00000000000E+00  0.89860408087E+03  0.89860408087E+03  0.00000000000E+00 0. -1.
         -1   -1    0    0    0  501 -0.00000000000E+00 -0.00000000000E+00 -0.18055589748E+04  0.18055589748E+04  0.00000000000E+00 0.  1.
         23    2    1    2    0    0 -0.37652027431E+03  0.11382781079E+04 -0.34823719475E+03  0.12517491898E+04  0.90345572576E+02 0.  0.
    5000000    2    1    2    0    0  0.37652027431E+03 -0.11382781079E+04 -0.55871769920E+03  0.14524138659E+04  0.59991332930E+03 0.  0.
         23    2    4    4    0    0  0.17334776593E+03 -0.53363045793E+03 -0.57339388686E+03  0.80745220119E+03  0.91583809323E+02 0.  0.
         23    2    4    4    0    0  0.20317250838E+03 -0.60464764993E+03  0.14676187663E+02  0.64496166472E+03  0.94246006504E+02 0.  0.
          3    1    3    3  502    0 -0.13937792916E+03  0.56502009820E+03 -0.16673216357E+03  0.60537057484E+03  0.00000000000E+00 0. -1.
         -3    1    3    3    0  502 -0.23714234515E+03  0.57325800966E+03 -0.18150503117E+03  0.64637861494E+03  0.00000000000E+00 0.  1.
         13    1    5    5    0    0  0.10036577003E+01 -0.53554733012E+02 -0.89869773649E+02  0.10462166588E+03  0.00000000000E+00 0.  1.
        -13    1    5    5    0    0  0.17234410823E+03 -0.48007572492E+03 -0.48352411322E+03  0.70283053531E+03  0.00000000000E+00 0. -1.
          5    1    6    6  503    0  0.19564738405E+03 -0.59184940446E+03  0.28669620049E+02  0.62402536291E+03  0.47000000000E+01 0. -1.
         -5    1    6    6    0  503  0.75251243242E+01 -0.12798245473E+02 -0.13993432386E+02  0.20936301804E+02  0.47000000000E+01 0.  1.
<mgrwt>
<rscale>  0 0.12024530E+04</rscale>
<asrwt>0</asrwt>
<pdfrwt beam="1">  1        1 0.13824678E+00 0.12024530E+04</pdfrwt>
<pdfrwt beam="2">  1       -1 0.27777830E+00 0.12024530E+04</pdfrwt>
<totfact> 0.82610706E-01</totfact>
</mgrwt>
</event>
<event>
12    1  0.3127365E-008  0.1139174E+04  0.7818608E-02  0.9167829E-01
          2   -1    0    0  501    0  0.00000000000E+00  0.00000000000E+00  0.14266084055E+04  0.14266084055E+04  0.00000000000E+00 0. -1.
         -2   -1    0    0    0  501 -0.00000000000E+00 -0.00000000000E+00 -0.11879251236E+04  0.11879251236E+04  0.00000000000E+00 0.  1.
         23    2    1    2    0    0  0.76879364791E+03 -0.75624661573E+03  0.70905314576E+03  0.12938602367E+04  0.91462187176E+02 0.  0.
    5000000    2    1    2    0    0 -0.76879364791E+03  0.75624661573E+03 -0.47036986385E+03  0.13206732924E+04  0.59998126594E+03 0.  0.
         23    2    4    4    0    0 -0.56241884824E+03  0.20322935544E+03 -0.88743317532E+02  0.61164207683E+03  0.92809061899E+02 0.  0.
         23    2    4    4    0    0 -0.20637479967E+03  0.55301726029E+03 -0.38162654631E+03  0.70903121554E+03  0.93100996958E+02 0.  0.
          2    1    3    3  502    0  0.70731359609E+03 -0.72532376561E+03  0.65573714027E+03  0.12068049906E+04  0.00000000000E+00 0. -1.
         -2    1    3    3    0  502  0.61480051823E+02 -0.30922850118E+02  0.53316005484E+02  0.87055246093E+02  0.00000000000E+00 0.  1.
         11    1    5    5    0    0 -0.34920424515E+03  0.10437063639E+03 -0.94622409520E+02  0.37655044145E+03  0.00000000000E+00 0.  1.
        -11    1    5    5    0    0 -0.21321460310E+03  0.98858719044E+02  0.58790919877E+01  0.23509163538E+03  0.00000000000E+00 0. -1.
          5    1    6    6  503    0 -0.11926387098E+03  0.42910647313E+03 -0.27037054122E+03  0.52103604075E+03  0.47000000000E+01 0. -1.
         -5    1    6    6    0  503 -0.87110928692E+02  0.12391078716E+03 -0.11125600510E+03  0.18799517479E+03  0.47000000000E+01 0.  1.
<mgrwt>
<rscale>  0 0.11391745E+04</rscale>
<asrwt>0</asrwt>
<pdfrwt beam="1">  1        2 0.21947822E+00 0.11391745E+04</pdfrwt>
<pdfrwt beam="2">  1       -2 0.18275771E+00 0.11391745E+04</pdfrwt>
<totfact> 0.23685455E+00</totfact>
</mgrwt>
</event>
<event>
12    1  0.3144591E-008  0.1786037E+04  0.7818608E-02  0.8713760E-01
          2   -1    0    0  501    0  0.00000000000E+00  0.00000000000E+00  0.33084375698E+04  0.33084375698E+04  0.00000000000E+00 0. -1.
         -2   -1    0    0    0  501 -0.00000000000E+00 -0.00000000000E+00 -0.11159914894E+04  0.11159914894E+04  0.00000000000E+00 0.  1.
         23    2    1    2    0    0  0.17434751905E+04 -0.35555392124E+03  0.39510334387E+03  0.18250787006E+04  0.93173386767E+02 0.  0.
    5000000    2    1    2    0    0 -0.17434751905E+04  0.35555392124E+03  0.17973427365E+04  0.25993503587E+04  0.60004753460E+03 0.  0.
         23    2    4    4    0    0 -0.87165057392E+03  0.12626196632E+03  0.49884861040E+03  0.10161835566E+04  0.89790186169E+02 0.  0.
         23    2    4    4    0    0 -0.87182461662E+03  0.22929195492E+03  0.12984941261E+04  0.15831668020E+04  0.87619431829E+02 0.  0.
          3    1    3    3  502    0  0.93291274451E+03 -0.15025950325E+03  0.23524808770E+03  0.97377911764E+03  0.00000000000E+00 0. -1.
         -3    1    3    3    0  502  0.81056244604E+03 -0.20529441799E+03  0.15985525618E+03  0.85129958294E+03  0.00000000000E+00 0.  1.
         11    1    5    5    0    0 -0.51650580627E+03  0.30133384252E+02  0.29309758156E+03  0.59463641082E+03  0.00000000000E+00 0.  1.
        -11    1    5    5    0    0 -0.35514476765E+03  0.96128582067E+02  0.20575102884E+03  0.42154714582E+03  0.00000000000E+00 0. -1.
          5    1    6    6  503    0 -0.23319156671E+03  0.10147431127E+03  0.37208043227E+03  0.45071197090E+03  0.47000000000E+01 0. -1.
         -5    1    6    6    0  503 -0.63863304990E+03  0.12781764366E+03  0.92641369380E+03  0.11324548311E+04  0.47000000000E+01 0.  1.
<mgrwt>
<rscale>  0 0.17860366E+04</rscale>
<asrwt>0</asrwt>
<pdfrwt beam="1">  1        2 0.50899039E+00 0.17860366E+04</pdfrwt>
<pdfrwt beam="2">  1       -2 0.17169100E+00 0.17860366E+04</pdfrwt>
<totfact> 0.20913571E-01</totfact>
</mgrwt>
</event>
<event>
12    1  0.3127365E-008  0.1514632E+04  0.7818608E-02  0.8874781E-01
         -2   -1    0    0    0  501 -0.00000000000E+00  0.00000000000E+00  0.97629257556E+03  0.97629257556E+03  0.00000000000E+00 0.  1.
          2   -1    0    0  501    0  0.00000000000E+00 -0.00000000000E+00 -0.26046843000E+04  0.26046843000E+04  0.00000000000E+00 0. -1.
         23    2    1    2    0    0  0.13425079295E+04 -0.67812050030E+03 -0.11405035930E+04  0.18896390416E+04  0.88387261440E+02 0.  0.
    5000000    2    1    2    0    0 -0.13425079295E+04  0.67812050030E+03 -0.48788813136E+03  0.16913378339E+04  0.60034480598E+03 0.  0.
         23    2    4    4    0    0 -0.47050014661E+03  0.36083713965E+03 -0.46512124447E+03  0.75890788772E+03  0.89607927562E+02 0.  0.
         23    2    4    4    0    0 -0.87200778291E+03  0.31728336066E+03 -0.22766886890E+02  0.93242994622E+03  0.88549246577E+02 0.  0.
          4    1    3    3  502    0  0.84253707365E+03 -0.37751434034E+03 -0.70338034867E+03  0.11606591716E+04  0.00000000000E+00 0.  1.
         -4    1    3    3    0  502  0.49997085587E+03 -0.30060615996E+03 -0.43712324436E+03  0.72897987001E+03  0.00000000000E+00 0. -1.
         13    1    5    5    0    0 -0.39732935118E+03  0.32132509131E+03 -0.36099050430E+03  0.62564732223E+03  0.00000000000E+00 0. -1.
        -13    1    5    5    0    0 -0.73170795427E+02  0.39512048333E+02 -0.10413074017E+03  0.13326056549E+03  0.00000000000E+00 0.  1.
          5    1    6    6  503    0 -0.56073466592E+03  0.21931331471E+03  0.24771052281E+02  0.60262541484E+03  0.47000000000E+01 0. -1.
         -5    1    6    6    0  503 -0.31127311698E+03  0.97970045942E+02 -0.47537939171E+02  0.32980453138E+03  0.47000000000E+01 0.  1.
<mgrwt>
<rscale>  0 0.15146316E+04</rscale>
<asrwt>0</asrwt>
<pdfrwt beam="1">  1        2 0.40072065E+00 0.15146316E+04</pdfrwt>
<pdfrwt beam="2">  1       -2 0.15019886E+00 0.15146316E+04</pdfrwt>
<totfact> 0.85211835E-01</totfact>
</mgrwt>
</event>
<event>
12    1  0.3127365E-008  0.6966059E+03  0.7818608E-02  0.9723054E-01
         -1   -1    0    0    0  501 -0.00000000000E+00  0.00000000000E+00  0.53246776267E+03  0.53246776267E+03  0.00000000000E+00 0.  1.
          1   -1    0    0  501    0  0.00000000000E+00 -0.00000000000E+00 -0.95917795953E+03  0.95917795953E+03  0.00000000000E+00 0. -1.
         23    2    1    2    0    0  0.92230244302E+02  0.56663438625E+03 -0.28540008761E+03  0.64936628556E+03  0.10316209173E+03 0.  0.
    5000000    2    1    2    0    0 -0.92230244302E+02 -0.56663438625E+03 -0.14131010925E+03  0.84227943664E+03  0.59990428967E+03 0.  0.
         23    2    4    4    0    0 -0.30939611230E+03 -0.17066773144E+03 -0.10416124511E+03  0.37958093556E+03  0.91535199731E+02 0.  0.
         23    2    4    4    0    0  0.21716586800E+03 -0.39596665481E+03 -0.37148864137E+02  0.46269850109E+03  0.93590912261E+02 0.  0.
          3    1    3    3  502    0  0.29955580308E+02  0.37610172447E+03 -0.14300193962E+03  0.40348407487E+03  0.00000000000E+00 0. -1.
         -3    1    3    3    0  502  0.62274663994E+02  0.19053266178E+03 -0.14239814800E+03  0.24588221069E+03  0.00000000000E+00 0.  1.
         13    1    5    5    0    0 -0.69128509568E+00 -0.19005012524E+02  0.31596028724E+01  0.19278264093E+02  0.00000000000E+00 0.  1.
        -13    1    5    5    0    0 -0.30870482721E+03 -0.15166271892E+03 -0.10732084798E+03  0.36030267146E+03  0.00000000000E+00 0. -1.
          5    1    6    6  503    0  0.16023264150E+03 -0.31456476218E+03  0.87660253654E+01  0.35316344970E+03  0.47000000000E+01 0. -1.
         -5    1    6    6    0  503  0.56933226501E+02 -0.81401892627E+02 -0.45914889502E+02  0.10953505138E+03  0.47000000000E+01 0.  1.
<mgrwt>
<rscale>  0 0.69660591E+03</rscale>
<asrwt>0</asrwt>
<pdfrwt beam="1">  1        1 0.14756584E+00 0.69660591E+03</pdfrwt>
<pdfrwt beam="2">  1       -1 0.81918118E-01 0.69660591E+03</pdfrwt>
<totfact> 0.24992021E+01</totfact>
</mgrwt>
</event>
<event>
12    1  0.3127365E-008  0.4881357E+03  0.7818608E-02  0.1016923E+00
          1   -1    0    0  501    0  0.00000000000E+00  0.00000000000E+00  0.31837397666E+04  0.31837397666E+04  0.00000000000E+00 0. -1.
         -1   -1    0    0    0  501 -0.00000000000E+00 -0.00000000000E+00 -0.14224411572E+03  0.14224411572E+03  0.00000000000E+00 0.  1.
         23    2    1    2    0    0 -0.23207202664E+03  0.30042761217E+03  0.21555049967E+04  0.21908020768E+04  0.96424962747E+02 0.  0.
    5000000    2    1    2    0    0  0.23207202664E+03 -0.30042761217E+03  0.88599065424E+03  0.11351818055E+04  0.59961997674E+03 0.  0.
         23    2    4    4    0    0  0.22807545492E+03 -0.40698176679E+03  0.87516263163E+03  0.99581835110E+03  0.89955460999E+02 0.  0.
         23    2    4    4    0    0  0.39965717196E+01  0.10655415462E+03  0.10828022619E+02  0.13936345443E+03  0.89079548180E+02 0.  0.
          1    1    3    3  502    0 -0.14206532829E+03  0.22201861284E+03  0.12519250289E+04  0.12793713691E+04  0.00000000000E+00 0. -1.
         -1    1    3    3    0  502 -0.90006698350E+02  0.78408999330E+02  0.90357996775E+03  0.91143070776E+03  0.00000000000E+00 0.  1.
         13    1    5    5    0    0  0.20800544358E+03 -0.30441931689E+03  0.71708912167E+03  0.80632139589E+03  0.00000000000E+00 0.  1.
        -13    1    5    5    0    0  0.20070011340E+02 -0.10256244990E+03  0.15807350995E+03  0.18949695521E+03  0.00000000000E+00 0. -1.
          5    1    6    6  503    0  0.20584642521E+02  0.12589429051E+02 -0.27089146304E+02  0.36580501350E+02  0.47000000000E+01 0. -1.
         -5    1    6    6    0  503 -0.16588070802E+02  0.93964725571E+02  0.37917168923E+02  0.10278295308E+03  0.47000000000E+01 0.  1.
<mgrwt>
<rscale>  0 0.48813569E+03</rscale>
<asrwt>0</asrwt>
<pdfrwt beam="1">  1        1 0.48980606E+00 0.48813569E+03</pdfrwt>
<pdfrwt beam="2">  1       -1 0.21883713E-01 0.48813569E+03</pdfrwt>
<totfact> 0.86775838E+00</totfact>
</mgrwt>
</event>
<event>
12    1  0.3127365E-008  0.1114544E+04  0.7818608E-02  0.9191131E-01
         -2   -1    0    0    0  501 -0.00000000000E+00  0.00000000000E+00  0.32704344918E+04  0.32704344918E+04  0.00000000000E+00 0. -1.
          2   -1    0    0  501    0  0.00000000000E+00 -0.00000000000E+00 -0.77892779668E+03  0.77892779668E+03  0.00000000000E+00 0.  1.
         23    2    1    2    0    0  0.10883137168E+04 -0.56130036948E+02  0.25799352225E+04  0.28021602676E+04  0.91973286548E+02 0.  0.
    5000000    2    1    2    0    0 -0.10883137168E+04  0.56130036948E+02 -0.88428527398E+02  0.12472020210E+04  0.60009661676E+03 0.  0.
         23    2    4    4    0    0 -0.74617010810E+03  0.18625766133E+03 -0.28031283073E+03  0.82388513336E+03  0.93539741677E+02 0.  0.
         23    2    4    4    0    0 -0.34214360867E+03 -0.13012762438E+03  0.19188430333E+03  0.42331688759E+03  0.91554103541E+02 0.  0.
          4    1    3    3  502    0  0.40031076796E+03 -0.50827296125E+02  0.87150794723E+03  0.96039482873E+03  0.00000000000E+00 0. -1.
         -4    1    3    3    0  502  0.68800294881E+03 -0.53027408233E+01  0.17084272753E+04  0.18417654388E+04  0.00000000000E+00 0.  1.
         11    1    5    5    0    0 -0.70481394764E+03  0.16254183654E+03 -0.24199610774E+03  0.76272187957E+03  0.00000000000E+00 0. -1.
        -11    1    5    5    0    0 -0.41356160459E+02  0.23715824790E+02 -0.38316722988E+02  0.61163253788E+02  0.00000000000E+00 0.  1.
          5    1    6    6  503    0 -0.14977274241E+03 -0.65793882986E+02  0.13620193413E+03  0.21291727564E+03  0.47000000000E+01 0. -1.
         -5    1    6    6    0  503 -0.19237086627E+03 -0.64333741396E+02  0.55682369202E+02  0.21039961195E+03  0.47000000000E+01 0.  1.
<mgrwt>
<rscale>  0 0.11145437E+04</rscale>
<asrwt>0</asrwt>
<pdfrwt beam="1">  1        2 0.11983505E+00 0.11145437E+04</pdfrwt>
<pdfrwt beam="2">  1       -2 0.50314376E+00 0.11145437E+04</pdfrwt>
<totfact> 0.55818977E-02</totfact>
</mgrwt>
</event>
<event>
12    1  0.3127365E-008  0.7607825E+03  0.7818608E-02  0.9618585E-01
         -2   -1    0    0    0  501 -0.00000000000E+00  0.00000000000E+00  0.45867222755E+03  0.45867222755E+03  0.00000000000E+00 0.  1.
          2   -1    0    0  501    0  0.00000000000E+00 -0.00000000000E+00 -0.20895322779E+04  0.20895322779E+04  0.00000000000E+00 0. -1.
         23    2    1    2    0    0  0.62363300110E+03  0.30181446304E+03 -0.25230488208E+02  0.69941227300E+03  0.92362654426E+02 0.  0.
    5000000    2    1    2    0    0 -0.62363300110E+03 -0.30181446304E+03 -0.16056295622E+04  0.18487922325E+04  0.59998028120E+03 0.  0.
         23    2    4    4    0    0 -0.42094477309E+03 -0.40288066639E+03 -0.14325058436E+04  0.15490814823E+04  0.89850506396E+02 0.  0.
         23    2    4    4    0    0 -0.20268822800E+03  0.10106620335E+03 -0.17312371857E+03  0.29971075019E+03  0.92508467807E+02 0.  0.
          1    1    3    3  502    0  0.54536598564E+03  0.24408174765E+03 -0.48343414284E+02  0.59944728170E+03  0.00000000000E+00 0. -1.
         -1    1    3    3    0  502  0.78267015458E+02  0.57732715390E+02  0.23112926076E+02  0.99964991306E+02  0.00000000000E+00 0.  1.
         11    1    5    5    0    0 -0.38867912950E+03 -0.36605243430E+03 -0.13648630808E+04  0.14655773878E+04  0.00000000000E+00 0. -1.
        -11    1    5    5    0    0 -0.32265643594E+02 -0.36828232089E+02 -0.67642762834E+02  0.83504094505E+02  0.00000000000E+00 0.  1.
          5    1    6    6  503    0 -0.21117728507E+03  0.10122268527E+03 -0.17032373997E+03  0.28961033155E+03  0.47000000000E+01 0. -1.
         -5    1    6    6    0  503  0.84890570689E+01 -0.15648191727E+00 -0.27999786015E+01  0.10100418639E+02  0.47000000000E+01 0.  1.
<mgrwt>
<rscale>  0 0.76078247E+03</rscale>
<asrwt>0</asrwt>
<pdfrwt beam="1">  1        2 0.32146650E+00 0.76078247E+03</pdfrwt>
<pdfrwt beam="2">  1       -2 0.70564958E-01 0.76078247E+03</pdfrwt>
<totfact> 0.11266638E+01</totfact>
</mgrwt>
</event>
<event>
12    1  0.3127365E-008  0.9654424E+03  0.7818608E-02  0.9347281E-01
         -2   -1    0    0    0  501 -0.00000000000E+00  0.00000000000E+00  0.92923780401E+03  0.92923780401E+03  0.00000000000E+00 0.  1.
          2   -1    0    0  501    0  0.00000000000E+00 -0.00000000000E+00 -0.21045429180E+04  0.21045429180E+04  0.00000000000E+00 0. -1.
         23    2    1    2    0    0 -0.36656523281E+03  0.88099387410E+03  0.44718588984E+03  0.10581506240E+04  0.95850127202E+02 0.  0.
    5000000    2    1    2    0    0  0.36656523281E+03 -0.88099387410E+03 -0.16224910038E+04  0.19756300980E+04  0.60009745087E+03 0.  0.
         23    2    4    4    0    0  0.80789590509E+02 -0.14607144581E+03 -0.84106243801E+03  0.86229776927E+03  0.91145998555E+02 0.  0.
         23    2    4    4    0    0  0.28577564231E+03 -0.73492242829E+03 -0.78142856580E+03  0.11133323287E+04  0.84258989916E+02 0.  0.
          4    1    3    3  502    0 -0.98599820378E+02  0.28024994854E+03  0.94429265253E+02  0.31173521516E+03  0.00000000000E+00 0. -1.
         -4    1    3    3    0  502 -0.26796541244E+03  0.60074392556E+03  0.35275662458E+03  0.74641540884E+03  0.00000000000E+00 0.  1.
         13    1    5    5    0    0  0.40686155956E+02 -0.96139905466E+01 -0.29804786861E+03  0.30096565266E+03  0.00000000000E+00 0.  1.
        -13    1    5    5    0    0  0.40103434553E+02 -0.13645745526E+03 -0.54301456940E+03  0.56133211661E+03  0.00000000000E+00 0. -1.
          5    1    6    6  503    0  0.21966571286E+03 -0.63606177976E+03 -0.68381597170E+03  0.95940293216E+03  0.47000000000E+01 0. -1.
         -5    1    6    6    0  503  0.66109929446E+02 -0.98860648525E+02 -0.97612594108E+02  0.15392939656E+03  0.47000000000E+01 0.  1.
<mgrwt>
<rscale>  0 0.96544241E+03</rscale>
<asrwt>0</asrwt>
<pdfrwt beam="1">  1        2 0.32377583E+00 0.96544241E+03</pdfrwt>
<pdfrwt beam="2">  1       -2 0.14295966E+00 0.96544241E+03</pdfrwt>
<totfact> 0.19950876E+00</totfact>
</mgrwt>
</event>
<event>
12    1  0.3127365E-008  0.9454331E+03  0.7818608E-02  0.9370505E-01
          2   -1    0    0  501    0  0.00000000000E+00  0.00000000000E+00  0.24900855477E+04  0.24900855477E+04  0.00000000000E+00 0. -1.
         -2   -1    0    0    0  501 -0.00000000000E+00 -0.00000000000E+00 -0.40972761666E+03  0.40972761666E+03  0.00000000000E+00 0.  1.
         23    2    1    2    0    0  0.78613659442E+03 -0.36100786720E+03  0.13940761215E+04  0.16431939288E+04  0.91107793055E+02 0.  0.
    5000000    2    1    2    0    0 -0.78613659442E+03  0.36100786720E+03  0.68628180954E+03  0.12566192355E+04  0.59980976626E+03 0.  0.
         23    2    4    4    0    0 -0.29637909143E+03  0.42605262751E+03  0.48164058442E+03  0.71412054054E+03  0.92892877083E+02 0.  0.
         23    2    4    4    0    0 -0.48975750299E+03 -0.65044760312E+02  0.20464122512E+03  0.54249869498E+03  0.91288391688E+02 0.  0.
          2    1    3    3  502    0  0.31061796623E+03 -0.14733806717E+03  0.63941047121E+03  0.72597367561E+03  0.00000000000E+00 0. -1.
         -2    1    3    3    0  502  0.47551862819E+03 -0.21366980003E+03  0.75466565027E+03  0.91722025321E+03  0.00000000000E+00 0.  1.
         11    1    5    5    0    0 -0.13408583724E+03  0.13077949686E+03  0.13633245229E+03  0.23166533209E+03  0.00000000000E+00 0.  1.
        -11    1    5    5    0    0 -0.16229325420E+03  0.29527313065E+03  0.34530813213E+03  0.48245520845E+03  0.00000000000E+00 0. -1.
          5    1    6    6  503    0 -0.11123812580E+03 -0.51648656802E+02  0.36292814446E+02  0.12798735391E+03  0.47000000000E+01 0. -1.
         -5    1    6    6    0  503 -0.37851937719E+03 -0.13396103511E+02  0.16834841067E+03  0.41451134107E+03  0.47000000000E+01 0.  1.
<mgrwt>
<rscale>  0 0.94543308E+03</rscale>
<asrwt>0</asrwt>
<pdfrwt beam="1">  1        2 0.38309007E+00 0.94543308E+03</pdfrwt>
<pdfrwt beam="2">  1       -2 0.63035019E-01 0.94543308E+03</pdfrwt>
<totfact> 0.83777339E+00</totfact>
</mgrwt>
</event>
<event>
12    1  0.3127365E-008  0.1123413E+04  0.7818608E-02  0.9182668E-01
         -2   -1    0    0    0  501 -0.00000000000E+00  0.00000000000E+00  0.17078848037E+04  0.17078848037E+04  0.00000000000E+00 0. -1.
          2   -1    0    0  501    0  0.00000000000E+00 -0.00000000000E+00 -0.16080098142E+04  0.16080098142E+04  0.00000000000E+00 0.  1.
         23    2    1    2    0    0  0.97407462368E+03  0.38330744120E+03  0.12610660360E+04  0.16413177532E+04  0.88828220198E+02 0.  0.
    5000000    2    1    2    0    0 -0.97407462368E+03 -0.38330744120E+03 -0.11611910466E+04  0.16745768647E+04  0.60008087973E+03 0.  0.
         23    2    4    4    0    0 -0.11831686153E+03 -0.30817457721E+03 -0.34379054330E+03  0.48538608107E+03  0.91854560443E+02 0.  0.
         23    2    4    4    0    0 -0.85575776216E+03 -0.75132863991E+02 -0.81740050325E+03  0.11891907836E+04  0.89804467675E+02 0.  0.
          2    1    3    3  502    0  0.76542671576E+03  0.33943705615E+03  0.10088001367E+04  0.13110199419E+04  0.00000000000E+00 0. -1.
         -2    1    3    3    0  502  0.20864790792E+03  0.43870385047E+02  0.25226589932E+03  0.33029781126E+03  0.00000000000E+00 0.  1.
         13    1    5    5    0    0 -0.73133510750E+02 -0.10984230953E+03 -0.88167420756E+02  0.15870519034E+03  0.00000000000E+00 0. -1.
        -13    1    5    5    0    0 -0.45183350777E+02 -0.19833226768E+03 -0.25562312254E+03  0.32668089073E+03  0.00000000000E+00 0.  1.
          5    1    6    6  503    0 -0.73656528776E+03 -0.83766246399E+02 -0.73517667581E+03  0.10440555741E+04  0.47000000000E+01 0. -1.
         -5    1    6    6    0  503 -0.11919247440E+03  0.86333824078E+01 -0.82223827446E+02  0.14513520953E+03  0.47000000000E+01 0.  1.
<mgrwt>
<rscale>  0 0.11234126E+04</rscale>
<asrwt>0</asrwt>
<pdfrwt beam="1">  1        2 0.24738612E+00 0.11234126E+04</pdfrwt>
<pdfrwt beam="2">  1       -2 0.26275151E+00 0.11234126E+04</pdfrwt>
<totfact> 0.58208798E-01</totfact>
</mgrwt>
</event>
<event>
12    1  0.3127365E-008  0.7293677E+03  0.7818608E-02  0.9668287E-01
         -2   -1    0    0    0  501 -0.00000000000E+00  0.00000000000E+00  0.57368565378E+03  0.57368565378E+03  0.00000000000E+00 0. -1.
          2   -1    0    0  501    0  0.00000000000E+00 -0.00000000000E+00 -0.10295814863E+04  0.10295814863E+04  0.00000000000E+00 0.  1.
         23    2    1    2    0    0 -0.41310858098E+03 -0.47758183535E+03 -0.43004059649E+02  0.63931737899E+03  0.90190092586E+02 0.  0.
    5000000    2    1    2    0    0  0.41310858098E+03  0.47758183535E+03 -0.41289177282E+03  0.96394976105E+03  0.59998034687E+03 0.  0.
         23    2    4    4    0    0  0.40919740009E+03  0.57405387258E+03 -0.43069103253E+03  0.83113816044E+03  0.91189447662E+02 0.  0.
         23    2    4    4    0    0  0.39111808864E+01 -0.96472037236E+02  0.17799259712E+02  0.13281160061E+03  0.89442474844E+02 0.  0.
          2    1    3    3  502    0 -0.24265760999E+03 -0.32892837959E+03  0.18074564130E+01  0.40875403543E+03  0.00000000000E+00 0. -1.
         -2    1    3    3    0  502 -0.17045097099E+03 -0.14865345576E+03 -0.44811516062E+02  0.23056334356E+03  0.00000000000E+00 0.  1.
         13    1    5    5    0    0  0.41111566820E+03  0.56337974398E+03 -0.43172566681E+03  0.82024379299E+03  0.00000000000E+00 0. -1.
        -13    1    5    5    0    0 -0.19182681058E+01  0.10674128602E+02  0.10346342748E+01  0.10894367445E+02  0.00000000000E+00 0.  1.
          5    1    6    6  503    0  0.32192950453E+02 -0.66683711054E+02  0.41643861875E+02  0.85084690812E+02  0.47000000000E+01 0. -1.
         -5    1    6    6    0  503 -0.28281769567E+02 -0.29788326183E+02 -0.23844602164E+02  0.47726909799E+02  0.47000000000E+01 0.  1.
<mgrwt>
<rscale>  0 0.72936775E+03</rscale>
<asrwt>0</asrwt>
<pdfrwt beam="1">  1        2 0.15839715E+00 0.72936775E+03</pdfrwt>
<pdfrwt beam="2">  1       -2 0.88259331E-01 0.72936775E+03</pdfrwt>
<totfact> 0.27156666E+01</totfact>
</mgrwt>
</event>
<event>
12    1  0.3127365E-008  0.4037165E+03  0.7818608E-02  0.1042500E+00
          2   -1    0    0  501    0  0.00000000000E+00  0.00000000000E+00  0.18806337322E+04  0.18806337322E+04  0.00000000000E+00 0. -1.
         -2   -1    0    0    0  501 -0.00000000000E+00 -0.00000000000E+00 -0.17262823430E+03  0.17262823430E+03  0.00000000000E+00 0.  1.
         23    2    1    2    0    0  0.23506841013E+03  0.25981381858E+02  0.12156735798E+04  0.12418760536E+04  0.91987445057E+02 0.  0.
    5000000    2    1    2    0    0 -0.23506841013E+03 -0.25981381858E+02  0.49233191806E+03  0.81138591294E+03  0.60002016010E+03 0.  0.
         23    2    4    4    0    0  0.29743045604E+02 -0.21467109752E+03  0.39955789776E+03  0.46367421897E+03  0.91536543533E+02 0.  0.
         23    2    4    4    0    0 -0.26481145573E+03  0.18868971566E+03  0.92774020307E+02  0.34771169397E+03  0.81040035751E+02 0.  0.
          2    1    3    3  502    0  0.15721708760E+03  0.63867698224E+01  0.57312150004E+03  0.59432840860E+03  0.00000000000E+00 0. -1.
         -2    1    3    3    0  502  0.77851322528E+02  0.19594612036E+02  0.64255207980E+03  0.64754764496E+03  0.00000000000E+00 0.  1.
         13    1    5    5    0    0  0.42433495451E+02 -0.35408498403E+02  0.10386766987E+03  0.11765566769E+03  0.00000000000E+00 0. -1.
        -13    1    5    5    0    0 -0.12690449847E+02 -0.17926259912E+03  0.29569022789E+03  0.34601855128E+03  0.00000000000E+00 0.  1.
          5    1    6    6  503    0 -0.15485712993E+03  0.15637824394E+03  0.54258385775E+02  0.22671777234E+03  0.47000000000E+01 0. -1.
         -5    1    6    6    0  503 -0.10995432581E+03  0.32311471724E+02  0.38515634532E+02  0.12099392163E+03  0.47000000000E+01 0.  1.
<mgrwt>
<rscale>  0 0.40371652E+03</rscale>
<asrwt>0</asrwt>
<pdfrwt beam="1">  1        2 0.28932825E+00 0.40371652E+03</pdfrwt>
<pdfrwt beam="2">  1       -2 0.26558191E-01 0.40371652E+03</pdfrwt>
<totfact> 0.10726182E+02</totfact>
</mgrwt>
</event>
<event>
12    1  0.3127365E-008  0.9814855E+03  0.7818608E-02  0.9329087E-01
          1   -1    0    0  501    0  0.00000000000E+00  0.00000000000E+00  0.26596401804E+04  0.26596401804E+04  0.00000000000E+00 0. -1.
         -1   -1    0    0    0  501 -0.00000000000E+00 -0.00000000000E+00 -0.53139470515E+03  0.53139470515E+03  0.00000000000E+00 0.  1.
         23    2    1    2    0    0 -0.84045962716E+03 -0.49578806984E+03  0.28454819393E+03  0.10204349045E+04  0.90230397495E+02 0.  0.
    5000000    2    1    2    0    0  0.84045962716E+03  0.49578806984E+03  0.18436972813E+04  0.21705999811E+04  0.60008867464E+03 0.  0.
         23    2    4    4    0    0  0.64306757817E+03  0.41624776414E+03  0.84249652050E+03  0.11429251750E+04  0.98384232963E+02 0.  0.
         23    2    4    4    0    0  0.19739204899E+03  0.79540305694E+02  0.10012007608E+04  0.10276748061E+04  0.91772884328E+02 0.  0.
          4    1    3    3  502    0 -0.73532769447E+03 -0.41598523487E+03  0.21746857384E+03  0.87237785075E+03  0.00000000000E+00 0. -1.
         -4    1    3    3    0  502 -0.10513193269E+03 -0.79802834971E+02  0.67079620088E+02  0.14805705377E+03  0.00000000000E+00 0.  1.
         11    1    5    5    0    0  0.22888303754E+03  0.19312031625E+03  0.37204689456E+03  0.47760003473E+03  0.00000000000E+00 0. -1.
        -11    1    5    5    0    0  0.41418454062E+03  0.22312744789E+03  0.47044962594E+03  0.66532514025E+03  0.00000000000E+00 0.  1.
          5    1    6    6  503    0  0.91149342677E+02  0.56670331423E+02  0.31285458009E+03  0.33078664940E+03  0.47000000000E+01 0. -1.
         -5    1    6    6    0  503  0.10624270632E+03  0.22869974271E+02  0.68834618074E+03  0.69688815668E+03  0.47000000000E+01 0.  1.
<mgrwt>
<rscale>  0 0.98148553E+03</rscale>
<asrwt>0</asrwt>
<pdfrwt beam="1">  1        1 0.40917541E+00 0.98148553E+03</pdfrwt>
<pdfrwt beam="2">  1       -1 0.81753033E-01 0.98148553E+03</pdfrwt>
<totfact> 0.15987611E+00</totfact>
</mgrwt>
</event>
<event>
12    1  0.3127365E-008  0.5760696E+03  0.7818608E-02  0.9956337E-01
         -2   -1    0    0    0  501 -0.00000000000E+00  0.00000000000E+00  0.17624272812E+03  0.17624272812E+03  0.00000000000E+00 0.  1.
          2   -1    0    0  501    0  0.00000000000E+00 -0.00000000000E+00 -0.24520136638E+04  0.24520136638E+04  0.00000000000E+00 0. -1.
         23    2    1    2    0    0 -0.37587851503E+02  0.48579979271E+03 -0.56794852044E+03  0.75374010415E+03  0.90245983585E+02 0.  0.
    5000000    2    1    2    0    0  0.37587851503E+02 -0.48579979271E+03 -0.17078224152E+04  0.18745162877E+04  0.59978298237E+03 0.  0.
         23    2    4    4    0    0  0.66929567341E+02  0.72724578325E+02 -0.75183432867E+03  0.76319083043E+03  0.86237779455E+02 0.  0.
         23    2    4    4    0    0 -0.29341715839E+02 -0.55852437104E+03 -0.95598808655E+03  0.11113254573E+04  0.91217548426E+02 0.  0.
          1    1    3    3  502    0 -0.30190902313E+02  0.62354060619E+02 -0.54379048319E+02  0.88071563823E+02  0.00000000000E+00 0. -1.
         -1    1    3    3    0  502 -0.73969491894E+01  0.42344573209E+03 -0.51356947212E+03  0.66566854033E+03  0.00000000000E+00 0.  1.
         13    1    5    5    0    0  0.33656234279E+02  0.35247703717E+02 -0.62374844937E+03  0.62564947919E+03  0.00000000000E+00 0.  1.
        -13    1    5    5    0    0  0.33273333062E+02  0.37476874608E+02 -0.12808587930E+03  0.13754135124E+03  0.00000000000E+00 0. -1.
          5    1    6    6  503    0  0.65064228929E+01 -0.19880841821E+03 -0.42080914405E+03  0.46547776145E+03  0.47000000000E+01 0. -1.
         -5    1    6    6    0  503 -0.35848138732E+02 -0.35971595283E+03 -0.53517894250E+03  0.64584769587E+03  0.47000000000E+01 0.  1.
<mgrwt>
<rscale>  0 0.57606962E+03</rscale>
<asrwt>0</asrwt>
<pdfrwt beam="1">  1        2 0.37723285E+00 0.57606962E+03</pdfrwt>
<pdfrwt beam="2">  1       -2 0.27114267E-01 0.57606962E+03</pdfrwt>
<totfact> 0.48974965E+01</totfact>
</mgrwt>
</event>
<event>
12    1  0.3127365E-008  0.6178046E+03  0.7818608E-02  0.9869141E-01
         -2   -1    0    0    0  501 -0.00000000000E+00  0.00000000000E+00  0.40095865597E+03  0.40095865597E+03  0.00000000000E+00 0.  1.
          2   -1    0    0  501    0  0.00000000000E+00 -0.00000000000E+00 -0.10235066125E+04  0.10235066125E+04  0.00000000000E+00 0. -1.
         23    2    1    2    0    0  0.47537823593E+03 -0.13673008341E+03 -0.22327854087E+03  0.55036557874E+03  0.91484318523E+02 0.  0.
    5000000    2    1    2    0    0 -0.47537823593E+03  0.13673008341E+03 -0.39926941567E+03  0.87409968974E+03  0.59996218081E+03 0.  0.
         23    2    4    4    0    0 -0.53419740699E+03 -0.53574870334E+02 -0.35354502273E+03  0.64976804990E+03  0.94695824641E+02 0.  0.
         23    2    4    4    0    0  0.58819171060E+02  0.19030495374E+03 -0.45724392933E+02  0.22433163984E+03  0.92511049170E+02 0.  0.
          1    1    3    3  502    0  0.32019885273E+03 -0.81876558620E+02 -0.10187657182E+03  0.34584665970E+03  0.00000000000E+00 0. -1.
         -1    1    3    3    0  502  0.15517938320E+03 -0.54853524790E+02 -0.12140196905E+03  0.20451891903E+03  0.00000000000E+00 0.  1.
         11    1    5    5    0    0 -0.35114759748E+03 -0.66822844572E+02 -0.19464696411E+03  0.40701028047E+03  0.00000000000E+00 0. -1.
        -11    1    5    5    0    0 -0.18304980951E+03  0.13247974238E+02 -0.15889805862E+03  0.24275776943E+03  0.00000000000E+00 0.  1.
          5    1    6    6  503    0  0.11087633658E+02  0.37820235716E+02  0.27724014472E+02  0.48415047539E+02  0.47000000000E+01 0. -1.
         -5    1    6    6    0  503  0.47731537403E+02  0.15248471803E+03 -0.73448407405E+02  0.17591659230E+03  0.47000000000E+01 0.  1.
<mgrwt>
<rscale>  0 0.61780459E+03</rscale>
<asrwt>0</asrwt>
<pdfrwt beam="1">  1        2 0.15746255E+00 0.61780459E+03</pdfrwt>
<pdfrwt beam="2">  1       -2 0.61685948E-01 0.61780459E+03</pdfrwt>
<totfact> 0.61066418E+01</totfact>
</mgrwt>
</event>
<event>
12    1  0.3127365E-008  0.1325953E+04  0.7818608E-02  0.9009233E-01
          2   -1    0    0  501    0  0.00000000000E+00  0.00000000000E+00  0.12778814906E+04  0.12778814906E+04  0.00000000000E+00 0. -1.
         -2   -1    0    0    0  501 -0.00000000000E+00 -0.00000000000E+00 -0.15393173719E+04  0.15393173719E+04  0.00000000000E+00 0.  1.
         23    2    1    2    0    0 -0.10488734684E+04 -0.71920429101E+03 -0.53890210803E+03  0.13840225810E+04  0.87821739306E+02 0.  0.
    5000000    2    1    2    0    0  0.10488734684E+04  0.71920429101E+03  0.27746622670E+03  0.14331762815E+04  0.59968023317E+03 0.  0.
         23    2    4    4    0    0  0.92949777629E+03  0.78343635135E+03  0.32903044139E+03  0.12624414064E+04  0.88083145368E+02 0.  0.
         23    2    4    4    0    0  0.11937569209E+03 -0.64232060332E+02 -0.51564214692E+02  0.17073487511E+03  0.90084493154E+02 0.  0.
          4    1    3    3  502    0 -0.81969046752E+03 -0.51693131107E+03 -0.41434363314E+03  0.10539407427E+04  0.00000000000E+00 0. -1.
         -4    1    3    3    0  502 -0.22918300086E+03 -0.20227297995E+03 -0.12455847489E+03  0.33008183829E+03  0.00000000000E+00 0.  1.
         11    1    5    5    0    0  0.59050268613E+03  0.44803147993E+03  0.17933012544E+03  0.76261715377E+03  0.00000000000E+00 0. -1.
        -11    1    5    5    0    0  0.33899509015E+03  0.33540487142E+03  0.14970031595E+03  0.49982425263E+03  0.00000000000E+00 0.  1.
          5    1    6    6  503    0  0.45253813405E+02 -0.71143419686E+02 -0.91865239554E+01  0.84945723935E+02  0.47000000000E+01 0. -1.
         -5    1    6    6    0  503  0.74121878686E+02  0.69113593542E+01 -0.42377690736E+02  0.85789151180E+02  0.47000000000E+01 0.  1.
<mgrwt>
<rscale>  0 0.13259533E+04</rscale>
<asrwt>0</asrwt>
<pdfrwt beam="1">  1        2 0.19659715E+00 0.13259533E+04</pdfrwt>
<pdfrwt beam="2">  1       -2 0.23681806E+00 0.13259533E+04</pdfrwt>
<totfact> 0.12658511E+00</totfact>
</mgrwt>
</event>
<event>
12    1  0.3127365E-008  0.6287152E+03  0.7818608E-02  0.9847559E-01
         -2   -1    0    0    0  501 -0.00000000000E+00  0.00000000000E+00  0.30877094085E+03  0.30877094085E+03  0.00000000000E+00 0.  1.
          2   -1    0    0  501    0  0.00000000000E+00 -0.00000000000E+00 -0.16158442728E+04  0.16158442728E+04  0.00000000000E+00 0. -1.
         23    2    1    2    0    0  0.23475379020E+03 -0.52502410169E+03 -0.53448939578E+03  0.78974346396E+03  0.85183186667E+02 0.  0.
    5000000    2    1    2    0    0 -0.23475379020E+03  0.52502410169E+03 -0.77258393615E+03  0.11348717497E+04  0.60024020229E+03 0.  0.
         23    2    4    4    0    0  0.67868836345E+02  0.24129263164E+03 -0.16824337944E+02  0.26796900771E+03  0.93252440793E+02 0.  0.
         23    2    4    4    0    0 -0.30262262655E+03  0.28373147005E+03 -0.75575959820E+03  0.86690274197E+03  0.90905404444E+02 0.  0.
          4    1    3    3  502    0  0.16578047786E+03 -0.33151852682E+03 -0.39351504696E+03  0.54059392583E+03  0.00000000000E+00 0.  1.
         -4    1    3    3    0  502  0.68973312344E+02 -0.19350557487E+03 -0.14097434882E+03  0.24914953812E+03  0.00000000000E+00 0. -1.
         13    1    5    5    0    0  0.93395101084E+01  0.15059854843E+03  0.23570549613E+02  0.15271777908E+03  0.00000000000E+00 0. -1.
        -13    1    5    5    0    0  0.58529326237E+02  0.90694083207E+02 -0.40394887557E+02  0.11525122862E+03  0.00000000000E+00 0.  1.
          5    1    6    6  503    0 -0.13861346904E+03  0.77171030273E+02 -0.24254535029E+03  0.28986099886E+03  0.47000000000E+01 0. -1.
         -5    1    6    6    0  503 -0.16400915751E+03  0.20656043978E+03 -0.51321424791E+03  0.57704174311E+03  0.47000000000E+01 0.  1.
<mgrwt>
<rscale>  0 0.62871517E+03</rscale>
<asrwt>0</asrwt>
<pdfrwt beam="1">  1        2 0.24859142E+00 0.62871517E+03</pdfrwt>
<pdfrwt beam="2">  1       -2 0.47503222E-01 0.62871517E+03</pdfrwt>
<totfact> 0.47662862E+01</totfact>
</mgrwt>
</event>
<event>
12    1  0.3127365E-008  0.9910200E+03  0.7818608E-02  0.9318449E-01
          2   -1    0    0  501    0  0.00000000000E+00  0.00000000000E+00  0.11557333156E+04  0.11557333156E+04  0.00000000000E+00 0. -1.
         -2   -1    0    0    0  501 -0.00000000000E+00 -0.00000000000E+00 -0.17193072520E+04  0.17193072520E+04  0.00000000000E+00 0.  1.
         23    2    1    2    0    0  0.59837193061E+03 -0.76057408894E+03 -0.12205605153E+04  0.15605449544E+04  0.94924554023E+02 0.  0.
    5000000    2    1    2    0    0 -0.59837193061E+03  0.76057408894E+03  0.65698657895E+03  0.13144956132E+04  0.59978782928E+03 0.  0.
         23    2    4    4    0    0 -0.53880191118E+03  0.48273271431E+03  0.17871864596E+03  0.75084276480E+03  0.92120193645E+02 0.  0.
         23    2    4    4    0    0 -0.59570019434E+02  0.27784137463E+03  0.47826793300E+03  0.56365284843E+03  0.90663670439E+02 0.  0.
          4    1    3    3  502    0  0.42016501647E+03 -0.54017011477E+03 -0.79157129799E+03  0.10463782843E+04  0.00000000000E+00 0. -1.
         -4    1    3    3    0  502  0.17820691415E+03 -0.22040397417E+03 -0.42898921735E+03  0.51416667014E+03  0.00000000000E+00 0.  1.
         11    1    5    5    0    0 -0.12536010966E+03  0.12838054210E+03  0.58002171925E+01  0.17952816828E+03  0.00000000000E+00 0. -1.
        -11    1    5    5    0    0 -0.41344180151E+03  0.35435217221E+03  0.17291842876E+03  0.57131459652E+03  0.00000000000E+00 0.  1.
          5    1    6    6  503    0 -0.13421047588E+02  0.19377578046E+03  0.25477650377E+03  0.32040963544E+03  0.47000000000E+01 0. -1.
         -5    1    6    6    0  503 -0.46148971846E+02  0.84065594169E+02  0.22349142923E+03  0.24324321299E+03  0.47000000000E+01 0.  1.
<mgrwt>
<rscale>  0 0.99102004E+03</rscale>
<asrwt>0</asrwt>
<pdfrwt beam="1">  1        2 0.17780512E+00 0.99102004E+03</pdfrwt>
<pdfrwt beam="2">  1       -2 0.26450881E+00 0.99102004E+03</pdfrwt>
<totfact> 0.10545346E+00</totfact>
</mgrwt>
</event>
<event>
12    1  0.3127365E-008  0.8075694E+03  0.7818608E-02  0.9549125E-01
          2   -1    0    0  501    0  0.00000000000E+00  0.00000000000E+00  0.32448818942E+04  0.32448818942E+04  0.00000000000E+00 0.  1.
         -2   -1    0    0    0  501 -0.00000000000E+00 -0.00000000000E+00 -0.25131682254E+03  0.25131682254E+03  0.00000000000E+00 0. -1.
         23    2    1    2    0    0  0.83365059339E+02 -0.79004892025E+03  0.11449188746E+04  0.13965851931E+04  0.92108320004E+02 0.  0.
    5000000    2    1    2    0    0 -0.83365059339E+02  0.79004892025E+03  0.18486461970E+04  0.20996135236E+04  0.59979759691E+03 0.  0.
         23    2    4    4    0    0 -0.54511006955E+02  0.71274806627E+03  0.94999191532E+03  0.11921663328E+04  0.88287428903E+02 0.  0.
         23    2    4    4    0    0 -0.28854052384E+02  0.77300853982E+02  0.89865428172E+03  0.90744719081E+03  0.95251811923E+02 0.  0.
          2    1    3    3  502    0 -0.99698343284E+01 -0.25859723127E+03  0.33339165450E+03  0.42204492759E+03  0.00000000000E+00 0.  1.
         -2    1    3    3    0  502  0.93334893668E+02 -0.53145168898E+03  0.81152722008E+03  0.97454026547E+03  0.00000000000E+00 0. -1.
         11    1    5    5    0    0 -0.50489697651E+02  0.51108929627E+03  0.61614323156E+03  0.80211842026E+03  0.00000000000E+00 0.  1.
        -11    1    5    5    0    0 -0.40213093038E+01  0.20165877000E+03  0.33384868375E+03  0.39004791256E+03  0.00000000000E+00 0. -1.
          5    1    6    6  503    0  0.17830190570E+02  0.16970624507E+02  0.54744097314E+03  0.54801425791E+03  0.47000000000E+01 0. -1.
         -5    1    6    6    0  503 -0.46684242954E+02  0.60330229475E+02  0.35121330858E+03  0.35943293290E+03  0.47000000000E+01 0.  1.
<mgrwt>
<rscale>  0 0.80756939E+03</rscale>
<asrwt>0</asrwt>
<pdfrwt beam="1">  1        2 0.49921257E+00 0.80756939E+03</pdfrwt>
<pdfrwt beam="2">  1       -2 0.38664129E-01 0.80756939E+03</pdfrwt>
<totfact> 0.81249069E+00</totfact>
</mgrwt>
</event>
<event>
12    1  0.3127365E-008  0.9759676E+03  0.7818608E-02  0.9335303E-01
          2   -1    0    0  501    0  0.00000000000E+00  0.00000000000E+00  0.26109997215E+04  0.26109997215E+04  0.00000000000E+00 0. -1.
         -2   -1    0    0    0  501 -0.00000000000E+00 -0.00000000000E+00 -0.39987688134E+03  0.39987688134E+03  0.00000000000E+00 0.  1.
         23    2    1    2    0    0 -0.47799045168E+03 -0.77101565214E+03  0.13225230341E+04  0.16064045979E+04  0.92350141834E+02 0.  0.
    5000000    2    1    2    0    0  0.47799045168E+03  0.77101565214E+03  0.88859980613E+03  0.14044720050E+04  0.59999332463E+03 0.  0.
         23    2    4    4    0    0  0.51175951891E+03  0.82553505233E+03  0.80987739201E+03  0.12682567875E+04  0.95749470072E+02 0.  0.
         23    2    4    4    0    0 -0.33769067227E+02 -0.54519400188E+02  0.78722414119E+02  0.13621521754E+03  0.90800066658E+02 0.  0.
          3    1    3    3  502    0 -0.15666099807E+03 -0.18234370102E+03  0.32008116232E+03  0.40030468907E+03  0.00000000000E+00 0. -1.
         -3    1    3    3    0  502 -0.32132945361E+03 -0.58867195112E+03  0.10024418717E+04  0.12060999088E+04  0.00000000000E+00 0.  1.
         11    1    5    5    0    0  0.30579497639E+03  0.57651127995E+03  0.52822472111E+03  0.83958155023E+03  0.00000000000E+00 0. -1.
        -11    1    5    5    0    0  0.20596454252E+03  0.24902377238E+03  0.28165267091E+03  0.42867523723E+03  0.00000000000E+00 0.  1.
          5    1    6    6  503    0 -0.25781609138E+02 -0.42688659340E+02 -0.57467811243E+01  0.50419524981E+02  0.47000000000E+01 0. -1.
         -5    1    6    6    0  503 -0.79874580884E+01 -0.11830740847E+02  0.84469195244E+02  0.85795692554E+02  0.47000000000E+01 0.  1.
<mgrwt>
<rscale>  0 0.97596760E+03</rscale>
<asrwt>0</asrwt>
<pdfrwt beam="1">  1        2 0.40169225E+00 0.97596760E+03</pdfrwt>
<pdfrwt beam="2">  1       -2 0.61519522E-01 0.97596760E+03</pdfrwt>
<totfact> 0.74894619E+00</totfact>
</mgrwt>
</event>
<event>
12    1  0.3127365E-008  0.3815658E+03  0.7818608E-02  0.1050357E+00
          1   -1    0    0  501    0  0.00000000000E+00  0.00000000000E+00  0.10374934272E+04  0.10374934272E+04  0.00000000000E+00 0. -1.
         -1   -1    0    0    0  501 -0.00000000000E+00 -0.00000000000E+00 -0.89824267989E+03  0.89824267989E+03  0.00000000000E+00 0.  1.
         23    2    1    2    0    0  0.23911222416E+03 -0.62318842988E+02  0.89879817138E+03  0.93679897704E+03  0.93251684016E+02 0.  0.
    5000000    2    1    2    0    0 -0.23911222416E+03  0.62318842988E+02 -0.75954742406E+03  0.99893713005E+03  0.59992066680E+03 0.  0.
         23    2    4    4    0    0 -0.31083919830E+03 -0.87758039489E+02 -0.16146236955E+03  0.37147297134E+03  0.87175632875E+02 0.  0.
         23    2    4    4    0    0  0.71726974133E+02  0.15007688248E+03 -0.59808505452E+03  0.62746415870E+03  0.91311053815E+02 0.  0.
          3    1    3    3  502    0  0.27755822512E+02 -0.42439637700E+02  0.14167162169E+03  0.15047377487E+03  0.00000000000E+00 0. -1.
         -3    1    3    3    0  502  0.21135640165E+03 -0.19879205288E+02  0.75712654970E+03  0.78632520218E+03  0.00000000000E+00 0.  1.
         11    1    5    5    0    0 -0.37011607502E+02 -0.33484819520E+02 -0.19282818624E+01  0.49948078033E+02  0.00000000000E+00 0.  1.
        -11    1    5    5    0    0 -0.27382759079E+03 -0.54273219969E+02 -0.15953408768E+03  0.32152489331E+03  0.00000000000E+00 0. -1.
          5    1    6    6  503    0  0.48074122718E+02  0.56025783617E+02 -0.40093703509E+03  0.40770406647E+03  0.47000000000E+01 0. -1.
         -5    1    6    6    0  503  0.23652851415E+02  0.94051098860E+02 -0.19714801942E+03  0.21976009224E+03  0.47000000000E+01 0.  1.
<mgrwt>
<rscale>  0 0.38156580E+03</rscale>
<asrwt>0</asrwt>
<pdfrwt beam="1">  1        1 0.15961437E+00 0.38156580E+03</pdfrwt>
<pdfrwt beam="2">  1       -1 0.13819118E+00 0.38156580E+03</pdfrwt>
<totfact> 0.68657980E+00</totfact>
</mgrwt>
</event>
<event>
12    1  0.3127365E-008  0.1790546E+04  0.7818608E-02  0.8711343E-01
         -2   -1    0    0    0  501 -0.00000000000E+00  0.00000000000E+00  0.26285212407E+04  0.26285212407E+04  0.00000000000E+00 0.  1.
          2   -1    0    0  501    0  0.00000000000E+00 -0.00000000000E+00 -0.13449111526E+04  0.13449111526E+04  0.00000000000E+00 0. -1.
         23    2    1    2    0    0  0.12260467192E+04  0.12583207333E+04  0.80317943974E+02  0.17610726706E+04  0.91456838462E+02 0.  0.
    5000000    2    1    2    0    0 -0.12260467192E+04 -0.12583207333E+04  0.12032921441E+04  0.22123597227E+04  0.60005160875E+03 0.  0.
         23    2    4    4    0    0 -0.10541877508E+04 -0.80277406001E+03  0.10510330692E+04  0.16937646702E+04  0.91707361639E+02 0.  0.
         23    2    4    4    0    0 -0.17185896842E+03 -0.45554667333E+03  0.15225907492E+03  0.51859505255E+03  0.93272321854E+02 0.  0.
          3    1    3    3  502    0  0.48216250965E+03  0.45712043577E+03  0.66096979775E+02  0.66768899141E+03  0.00000000000E+00 0. -1.
         -3    1    3    3    0  502  0.74388420953E+03  0.80120029757E+03  0.14220964199E+02  0.10933836792E+04  0.00000000000E+00 0.  1.
         13    1    5    5    0    0 -0.94459935379E+03 -0.68387806982E+03  0.91009761012E+03  0.14792683372E+04  0.00000000000E+00 0. -1.
        -13    1    5    5    0    0 -0.10958839697E+03 -0.11889599019E+03  0.14093545908E+03  0.21449633297E+03  0.00000000000E+00 0.  1.
          5    1    6    6  503    0 -0.66143348212E+02 -0.30101759704E+03  0.87267325672E+02  0.32035014027E+03  0.47000000000E+01 0. -1.
         -5    1    6    6    0  503 -0.10571562020E+03 -0.15452907630E+03  0.64991749251E+02  0.19824491228E+03  0.47000000000E+01 0.  1.
<mgrwt>
<rscale>  0 0.17905465E+04</rscale>
<asrwt>0</asrwt>
<pdfrwt beam="1">  1        2 0.20690941E+00 0.17905465E+04</pdfrwt>
<pdfrwt beam="2">  1       -2 0.40438788E+00 0.17905465E+04</pdfrwt>
<totfact> 0.98918942E-02</totfact>
</mgrwt>
</event>
<event>
12    1  0.3127365E-008  0.6178644E+03  0.7818608E-02  0.9869021E-01
          2   -1    0    0  501    0  0.00000000000E+00  0.00000000000E+00  0.13605135760E+04  0.13605135760E+04  0.00000000000E+00 0.  1.
         -2   -1    0    0    0  501 -0.00000000000E+00 -0.00000000000E+00 -0.33228146985E+03  0.33228146985E+03  0.00000000000E+00 0. -1.
         23    2    1    2    0    0 -0.24246248969E+03  0.47246281952E+03  0.48415904163E+03  0.72443944874E+03  0.91615296564E+02 0.  0.
    5000000    2    1    2    0    0  0.24246248969E+03 -0.47246281952E+03  0.54407306451E+03  0.96835559711E+03  0.59973985042E+03 0.  0.
         23    2    4    4    0    0  0.23503342026E+03 -0.27855893815E+02  0.43083089969E+03  0.50078878950E+03  0.95694765253E+02 0.  0.
         23    2    4    4    0    0  0.74290694244E+01 -0.44460692570E+03  0.11324216482E+03  0.46756680761E+03  0.89802128195E+02 0.  0.
          1    1    3    3  502    0 -0.11349204113E+03  0.13770312528E+03  0.13424207071E+03  0.22330142781E+03  0.00000000000E+00 0. -1.
         -1    1    3    3    0  502 -0.12897044856E+03  0.33475969424E+03  0.34991697092E+03  0.50113802093E+03  0.00000000000E+00 0.  1.
         13    1    5    5    0    0  0.18258097567E+03  0.18402577289E+02  0.28360413169E+03  0.33779545740E+03  0.00000000000E+00 0. -1.
        -13    1    5    5    0    0  0.52452444592E+02 -0.46258471104E+02  0.14722676800E+03  0.16299333209E+03  0.00000000000E+00 0.  1.
          5    1    6    6  503    0  0.10852158315E+02 -0.16230657871E+03 -0.16020665560E+01  0.16274474323E+03  0.47000000000E+01 0. -1.
         -5    1    6    6    0  503 -0.34230888904E+01 -0.28230034700E+03  0.11484423138E+03  0.30482206438E+03  0.47000000000E+01 0.  1.
<mgrwt>
<rscale>  0 0.61786436E+03</rscale>
<asrwt>0</asrwt>
<pdfrwt beam="1">  1        2 0.20930978E+00 0.61786436E+03</pdfrwt>
<pdfrwt beam="2">  1       -2 0.51120227E-01 0.61786436E+03</pdfrwt>
<totfact> 0.57010618E+01</totfact>
</mgrwt>
</event>
<event>
12    1  0.3127365E-008  0.8460884E+03  0.7818608E-02  0.9495602E-01
         -2   -1    0    0    0  501 -0.00000000000E+00  0.00000000000E+00  0.63144596559E+03  0.63144596559E+03  0.00000000000E+00 0.  1.
          2   -1    0    0  501    0  0.00000000000E+00 -0.00000000000E+00 -0.16865079283E+04  0.16865079283E+04  0.00000000000E+00 0. -1.
         23    2    1    2    0    0  0.42450209685E+03 -0.64493688091E+03 -0.10911135691E+04  0.13397495069E+04  0.90853232964E+02 0.  0.
    5000000    2    1    2    0    0 -0.42450209685E+03  0.64493688091E+03  0.36051606391E+02  0.97820438700E+03  0.59953189559E+03 0.  0.
         23    2    4    4    0    0 -0.27406293027E+03  0.69679789601E+03 -0.85971623525E+02  0.75909404473E+03  0.90525416684E+02 0.  0.
         23    2    4    4    0    0 -0.15043916658E+03 -0.51861015098E+02  0.12202322992E+03  0.21911034227E+03  0.88307223491E+02 0.  0.
          1    1    3    3  502    0  0.34549975815E+03 -0.58007768662E+03 -0.95228506852E+03  0.11673504431E+04  0.00000000000E+00 0. -1.
         -1    1    3    3    0  502  0.79002338699E+02 -0.64859194295E+02 -0.13882850054E+03  0.17239906371E+03  0.00000000000E+00 0.  1.
         11    1    5    5    0    0 -0.16203427666E+03  0.51902781698E+03 -0.51588409293E+02  0.54617428133E+03  0.00000000000E+00 0. -1.
        -11    1    5    5    0    0 -0.11202865360E+03  0.17777007903E+03 -0.34383214232E+02  0.21291976340E+03  0.00000000000E+00 0.  1.
          5    1    6    6  503    0 -0.54254525315E+02 -0.30019364242E+02  0.10028667147E+03  0.11800094161E+03  0.47000000000E+01 0. -1.
         -5    1    6    6    0  503 -0.96184641265E+02 -0.21841650857E+02  0.21736558443E+02  0.10110940065E+03  0.47000000000E+01 0.  1.
<mgrwt>
<rscale>  0 0.84608836E+03</rscale>
<asrwt>0</asrwt>
<pdfrwt beam="1">  1        2 0.25946276E+00 0.84608836E+03</pdfrwt>
<pdfrwt beam="2">  1       -2 0.97145532E-01 0.84608836E+03</pdfrwt>
<totfact> 0.89588037E+00</totfact>
</mgrwt>
</event>
<event>
12    1  0.3127365E-008  0.6782875E+03  0.7818608E-02  0.9755101E-01
          2   -1    0    0  501    0  0.00000000000E+00  0.00000000000E+00  0.35315764533E+04  0.35315764533E+04  0.00000000000E+00 0. -1.
         -2   -1    0    0    0  501 -0.00000000000E+00 -0.00000000000E+00 -0.21118252890E+03  0.21118252890E+03  0.00000000000E+00 0.  1.
         23    2    1    2    0    0 -0.64232409387E+03  0.14931130724E+03  0.22672092273E+04  0.23629564643E+04  0.91931843222E+02 0.  0.
    5000000    2    1    2    0    0  0.64232409387E+03 -0.14931130724E+03  0.10531846971E+04  0.13798025179E+04  0.59981903451E+03 0.  0.
         23    2    4    4    0    0  0.36026183085E+03 -0.33522273444E+02  0.98571584386E+03  0.10540534569E+04  0.92090366105E+02 0.  0.
         23    2    4    4    0    0  0.28206226302E+03 -0.11578903379E+03  0.67468853243E+02  0.32574906103E+03  0.92704822071E+02 0.  0.
          1    1    3    3  502    0 -0.39471266468E+03  0.46303808538E+02  0.13836864680E+04  0.14396285535E+04  0.00000000000E+00 0. -1.
         -1    1    3    3    0  502 -0.24761142919E+03  0.10300749870E+03  0.88352275927E+03  0.92332791077E+03  0.00000000000E+00 0.  1.
         13    1    5    5    0    0  0.17085719988E+03  0.29272985995E+02  0.48452393287E+03  0.51459938980E+03  0.00000000000E+00 0. -1.
        -13    1    5    5    0    0  0.18940463097E+03 -0.62795259438E+02  0.50119191099E+03  0.53945406708E+03  0.00000000000E+00 0.  1.
          5    1    6    6  503    0  0.66338788506E+02  0.11602184462E+02  0.22584298965E+02  0.71186979881E+02  0.47000000000E+01 0. -1.
         -5    1    6    6    0  503  0.21572347451E+03 -0.12739121825E+03  0.44884554277E+02  0.25456208115E+03  0.47000000000E+01 0.  1.
<mgrwt>
<rscale>  0 0.67828749E+03</rscale>
<asrwt>0</asrwt>
<pdfrwt beam="1">  1        2 0.54331941E+00 0.67828749E+03</pdfrwt>
<pdfrwt beam="2">  1       -2 0.32489622E-01 0.67828749E+03</pdfrwt>
<totfact> 0.74933897E+00</totfact>
</mgrwt>
</event>
<event>
12    1  0.3127365E-008  0.6414834E+03  0.7818608E-02  0.9822893E-01
          1   -1    0    0  501    0  0.00000000000E+00  0.00000000000E+00  0.13707400101E+04  0.13707400101E+04  0.00000000000E+00 0. -1.
         -1   -1    0    0    0  501 -0.00000000000E+00 -0.00000000000E+00 -0.33173507337E+03  0.33173507337E+03  0.00000000000E+00 0.  1.
         23    2    1    2    0    0 -0.44724631613E+03  0.24913591261E+03  0.21897721782E+03  0.56469936066E+03  0.94001998715E+02 0.  0.
    5000000    2    1    2    0    0  0.44724631613E+03 -0.24913591261E+03  0.82002771895E+03  0.11377757228E+04  0.59999180446E+03 0.  0.
         23    2    4    4    0    0 -0.11110102528E+03 -0.11768512396E+03  0.84696185239E+02  0.20083885012E+03  0.83483972742E+02 0.  0.
         23    2    4    4    0    0  0.55834734141E+03 -0.13145078864E+03  0.73533153371E+03  0.93693687272E+03  0.90039855112E+02 0.  0.
          4    1    3    3  502    0 -0.23672006657E+03  0.78142539053E+02  0.10660030380E+03  0.27112039963E+03  0.00000000000E+00 0. -1.
         -4    1    3    3    0  502 -0.21052624956E+03  0.17099337355E+03  0.11237691402E+03  0.29357896102E+03  0.00000000000E+00 0.  1.
         13    1    5    5    0    0 -0.43542248104E+01  0.12643061127E+02  0.34698884783E+01  0.13814716588E+02  0.00000000000E+00 0. -1.
        -13    1    5    5    0    0 -0.10674680047E+03 -0.13032818509E+03  0.81226296761E+02  0.18702413354E+03  0.00000000000E+00 0.  1.
          5    1    6    6  503    0  0.34726642162E+03 -0.12591938311E+03  0.47043318121E+03  0.59814640901E+03  0.47000000000E+01 0. -1.
         -5    1    6    6    0  503  0.21108091979E+03 -0.55314055269E+01  0.26489835250E+03  0.33879046371E+03  0.47000000000E+01 0.  1.
<mgrwt>
<rscale>  0 0.64148337E+03</rscale>
<asrwt>0</asrwt>
<pdfrwt beam="1">  1        1 0.21088308E+00 0.64148337E+03</pdfrwt>
<pdfrwt beam="2">  1       -1 0.51036166E-01 0.64148337E+03</pdfrwt>
<totfact> 0.32477052E+01</totfact>
</mgrwt>
</event>
<event>
12    1  0.3127365E-008  0.1050594E+04  0.7818608E-02  0.9254731E-01
          1   -1    0    0  501    0  0.00000000000E+00  0.00000000000E+00  0.27879413969E+04  0.27879413969E+04  0.00000000000E+00 0. -1.
         -1   -1    0    0    0  501 -0.00000000000E+00 -0.00000000000E+00 -0.46600561563E+03  0.46600561563E+03  0.00000000000E+00 0.  1.
         23    2    1    2    0    0 -0.10294046183E+04  0.14597058306E+03  0.79739051656E+03  0.13135185568E+04  0.92293465833E+02 0.  0.
    5000000    2    1    2    0    0  0.10294046183E+04 -0.14597058306E+03  0.15245452647E+04  0.19404284557E+04  0.60003587259E+03 0.  0.
         23    2    4    4    0    0  0.82247319553E+03 -0.13849422916E+03  0.72397082132E+03  0.11084068912E+04  0.93751146063E+02 0.  0.
         23    2    4    4    0    0  0.20693142276E+03 -0.74763538954E+01  0.80057444338E+03  0.83202156456E+03  0.91999646233E+02 0.  0.
          1    1    3    3  502    0 -0.50747065557E+03  0.46055750748E+02  0.34210868815E+03  0.61374746675E+03  0.00000000000E+00 0. -1.
         -1    1    3    3    0  502 -0.52193396273E+03  0.99914832310E+02  0.45528182841E+03  0.69977109003E+03  0.00000000000E+00 0.  1.
         11    1    5    5    0    0  0.66389009703E+03 -0.14560916047E+03  0.56639796334E+03  0.88473653786E+03  0.00000000000E+00 0. -1.
        -11    1    5    5    0    0  0.15858309850E+03  0.71149313033E+01  0.15757285798E+03  0.22367035331E+03  0.00000000000E+00 0.  1.
          5    1    6    6  503    0  0.11828980896E+03 -0.43344785973E+02  0.36853521863E+03  0.38950166463E+03  0.47000000000E+01 0. -1.
         -5    1    6    6    0  503  0.88641613806E+02  0.35868432078E+02  0.43203922475E+03  0.44251989993E+03  0.47000000000E+01 0.  1.
<mgrwt>
<rscale>  0 0.10505943E+04</rscale>
<asrwt>0</asrwt>
<pdfrwt beam="1">  1        1 0.42891405E+00 0.10505943E+04</pdfrwt>
<pdfrwt beam="2">  1       -1 0.71693173E-01 0.10505943E+04</pdfrwt>
<totfact> 0.16965435E+00</totfact>
</mgrwt>
</event>
<event>
12    1  0.3127365E-008  0.7492560E+03  0.7818608E-02  0.9636518E-01
          1   -1    0    0  501    0  0.00000000000E+00  0.00000000000E+00  0.11075903202E+04  0.11075903202E+04  0.00000000000E+00 0. -1.
         -1   -1    0    0    0  501 -0.00000000000E+00 -0.00000000000E+00 -0.86507991309E+03  0.86507991309E+03  0.00000000000E+00 0.  1.
         23    2    1    2    0    0 -0.35538213145E+03 -0.64082150147E+03 -0.38976046151E+03  0.83400198323E+03  0.81837855437E+02 0.  0.
    5000000    2    1    2    0    0  0.35538213145E+03  0.64082150147E+03  0.63227086865E+03  0.11386682501E+04  0.59987521727E+03 0.  0.
         23    2    4    4    0    0  0.16985582613E+03  0.45016853551E+03  0.69539852662E+03  0.85057400712E+03  0.91620514783E+02 0.  0.
         23    2    4    4    0    0  0.18552630532E+03  0.19065296596E+03 -0.63127657978E+02  0.28809424295E+03  0.90799935177E+02 0.  0.
          4    1    3    3  502    0 -0.16454756707E+03 -0.33081994661E+03 -0.23864560180E+03  0.43985163653E+03  0.00000000000E+00 0. -1.
         -4    1    3    3    0  502 -0.19083456439E+03 -0.31000155486E+03 -0.15111485971E+03  0.39415034670E+03  0.00000000000E+00 0.  1.
         13    1    5    5    0    0  0.42871857657E+02  0.24040957157E+03  0.36393925691E+03  0.43827678584E+03  0.00000000000E+00 0.  1.
        -13    1    5    5    0    0  0.12698396848E+03  0.20975896394E+03  0.33145926971E+03  0.41229722129E+03  0.00000000000E+00 0. -1.
          5    1    6    6  503    0  0.11875900169E+03  0.70865915756E+02 -0.60044041308E+02  0.15084115949E+03  0.47000000000E+01 0. -1.
         -5    1    6    6    0  503  0.66767303627E+02  0.11978705020E+03 -0.30836166699E+01  0.13725308347E+03  0.47000000000E+01 0.  1.
<mgrwt>
<rscale>  0 0.74925601E+03</rscale>
<asrwt>0</asrwt>
<pdfrwt beam="1">  1        1 0.17039851E+00 0.74925601E+03</pdfrwt>
<pdfrwt beam="2">  1       -1 0.13308922E+00 0.74925601E+03</pdfrwt>
<totfact> 0.61950204E+00</totfact>
</mgrwt>
</event>
<event>
12    1  0.3127365E-008  0.6139976E+03  0.7818608E-02  0.9876784E-01
         -2   -1    0    0    0  501 -0.00000000000E+00  0.00000000000E+00  0.38415676254E+03  0.38415676254E+03  0.00000000000E+00 0.  1.
          2   -1    0    0  501    0  0.00000000000E+00 -0.00000000000E+00 -0.14422132969E+04  0.14422132969E+04  0.00000000000E+00 0. -1.
         23    2    1    2    0    0 -0.13163932875E+03  0.53964613647E+03 -0.10861917368E+03  0.57339731414E+03  0.91866694167E+02 0.  0.
    5000000    2    1    2    0    0  0.13163932875E+03 -0.53964613647E+03 -0.94943736070E+03  0.12529727453E+04  0.59996877680E+03 0.  0.
         23    2    4    4    0    0  0.11108354906E+03 -0.58520822854E+03 -0.97301148885E+03  0.11443987586E+04  0.89938510414E+02 0.  0.
         23    2    4    4    0    0  0.20555779692E+02  0.45562092069E+02  0.23574128150E+02  0.10857398671E+03  0.93456550113E+02 0.  0.
          3    1    3    3  502    0 -0.53633419360E+02  0.18887875920E+03 -0.82938539686E+02  0.21314438936E+03  0.00000000000E+00 0. -1.
         -3    1    3    3    0  502 -0.78005909390E+02  0.35076737726E+03 -0.25680633998E+02  0.36025292478E+03  0.00000000000E+00 0.  1.
         11    1    5    5    0    0  0.10486258933E+03 -0.45473331816E+03 -0.69381146517E+03  0.83615363570E+03  0.00000000000E+00 0. -1.
        -11    1    5    5    0    0  0.62209597302E+01 -0.13047491038E+03 -0.27920002367E+03  0.30824512291E+03  0.00000000000E+00 0.  1.
          5    1    6    6  503    0 -0.87152890475E+01 -0.87057255749E+01  0.42023196004E+02  0.44042989491E+02  0.47000000000E+01 0. -1.
         -5    1    6    6    0  503  0.29271068740E+02  0.54267817644E+02 -0.18449067854E+02  0.64530997216E+02  0.47000000000E+01 0.  1.
<mgrwt>
<rscale>  0 0.61399762E+03</rscale>
<asrwt>0</asrwt>
<pdfrwt beam="1">  1        2 0.22187897E+00 0.61399762E+03</pdfrwt>
<pdfrwt beam="2">  1       -2 0.59101041E-01 0.61399762E+03</pdfrwt>
<totfact> 0.38015505E+01</totfact>
</mgrwt>
</event>
<event>
12    1  0.3127365E-008  0.7178280E+03  0.7818608E-02  0.9687221E-01
          1   -1    0    0  501    0  0.00000000000E+00  0.00000000000E+00  0.14577202284E+04  0.14577202284E+04  0.00000000000E+00 0. -1.
         -1   -1    0    0    0  501 -0.00000000000E+00 -0.00000000000E+00 -0.45161546702E+03  0.45161546702E+03  0.00000000000E+00 0.  1.
         23    2    1    2    0    0  0.13271100377E+03 -0.66483984270E+03  0.24457423061E+03  0.72648462336E+03  0.91318819145E+02 0.  0.
    5000000    2    1    2    0    0 -0.13271100377E+03  0.66483984270E+03  0.76153053073E+03  0.11828510720E+04  0.59965296829E+03 0.  0.
         23    2    4    4    0    0 -0.14813783164E+03  0.12641177099E+03  0.56129148045E+03  0.60114515838E+03  0.91665819162E+02 0.  0.
         23    2    4    4    0    0  0.15426827866E+02  0.53842807171E+03  0.20023905027E+03  0.58170591364E+03  0.90240330743E+02 0.  0.
          1    1    3    3  502    0  0.14652936180E+03 -0.60271166510E+03  0.22639317981E+03  0.66029241778E+03  0.00000000000E+00 0. -1.
         -1    1    3    3    0  502 -0.13818358027E+02 -0.62128177598E+02  0.18181050802E+02  0.66192205572E+02  0.00000000000E+00 0.  1.
         11    1    5    5    0    0 -0.92090776600E+02  0.35193671295E+02  0.18143453297E+03  0.20648921373E+03  0.00000000000E+00 0.  1.
        -11    1    5    5    0    0 -0.56047055036E+02  0.91218099698E+02  0.37985694749E+03  0.39465594465E+03  0.00000000000E+00 0. -1.
          5    1    6    6  503    0  0.28003666429E+02  0.52882602514E+03  0.19565962445E+03  0.56457590175E+03  0.47000000000E+01 0. -1.
         -5    1    6    6    0  503 -0.12576838563E+02  0.96020465662E+01  0.45794258258E+01  0.17130011891E+02  0.47000000000E+01 0.  1.
<mgrwt>
<rscale>  0 0.71782795E+03</rscale>
<asrwt>0</asrwt>
<pdfrwt beam="1">  1        1 0.22426465E+00 0.71782795E+03</pdfrwt>
<pdfrwt beam="2">  1       -1 0.69479303E-01 0.71782795E+03</pdfrwt>
<totfact> 0.15257774E+01</totfact>
</mgrwt>
</event>
<event>
12    1  0.3127365E-008  0.6679375E+03  0.7818608E-02  0.9773691E-01
         -2   -1    0    0    0  501 -0.00000000000E+00  0.00000000000E+00  0.55386468198E+03  0.55386468198E+03  0.00000000000E+00 0.  1.
          2   -1    0    0  501    0  0.00000000000E+00 -0.00000000000E+00 -0.12824703169E+04  0.12824703169E+04  0.00000000000E+00 0. -1.
         23    2    1    2    0    0  0.62008964780E+03 -0.22621155441E+03  0.27081444540E+02  0.66701661183E+03  0.92167874913E+02 0.  0.
    5000000    2    1    2    0    0 -0.62008964780E+03  0.22621155441E+03 -0.75568707951E+03  0.11693183871E+04  0.60046622687E+03 0.  0.
         23    2    4    4    0    0 -0.34232834647E+03  0.14859013643E+03 -0.77652689260E+03  0.86629751482E+03  0.90607084800E+02 0.  0.
         23    2    4    4    0    0 -0.27776130132E+03  0.77621417985E+02  0.20839813085E+02  0.30302087228E+03  0.90614161057E+02 0.  0.
          4    1    3    3  502    0  0.25571498073E+03 -0.81897511674E+02  0.55096835071E+02  0.27410402227E+03  0.00000000000E+00 0. -1.
         -4    1    3    3    0  502  0.36437466706E+03 -0.14431404274E+03 -0.28015390531E+02  0.39291258956E+03  0.00000000000E+00 0.  1.
         11    1    5    5    0    0 -0.29607096057E+03  0.12792508210E+03 -0.58319710031E+03  0.66643956825E+03  0.00000000000E+00 0. -1.
        -11    1    5    5    0    0 -0.46257385907E+02  0.20665054327E+02 -0.19332979229E+03  0.19985794657E+03  0.00000000000E+00 0.  1.
          5    1    6    6  503    0 -0.13946896159E+03 -0.75975375842E+01  0.12085476051E+02  0.14027637918E+03  0.47000000000E+01 0. -1.
         -5    1    6    6    0  503 -0.13829233973E+03  0.85218955569E+02  0.87543370335E+01  0.16274449310E+03  0.47000000000E+01 0.  1.
<mgrwt>
<rscale>  0 0.66793747E+03</rscale>
<asrwt>0</asrwt>
<pdfrwt beam="1">  1        2 0.19730313E+00 0.66793747E+03</pdfrwt>
<pdfrwt beam="2">  1       -2 0.85209951E-01 0.66793747E+03</pdfrwt>
<totfact> 0.20898852E+01</totfact>
</mgrwt>
</event>
<event>
12    1  0.3127365E-008  0.6062602E+03  0.7818608E-02  0.9892503E-01
          1   -1    0    0  501    0  0.00000000000E+00  0.00000000000E+00  0.93121280783E+03  0.93121280783E+03  0.00000000000E+00 0. -1.
         -1   -1    0    0    0  501 -0.00000000000E+00 -0.00000000000E+00 -0.10785472139E+04  0.10785472139E+04  0.00000000000E+00 0.  1.
         23    2    1    2    0    0 -0.25634399137E+03 -0.39654232836E+03  0.71265495055E+03  0.85970315405E+03  0.90853587952E+02 0.  0.
    5000000    2    1    2    0    0  0.25634399137E+03  0.39654232836E+03 -0.85998935658E+03  0.11500568676E+04  0.60007586628E+03 0.  0.
         23    2    4    4    0    0  0.23390445645E+03 -0.87850671752E+02 -0.24112974046E+03  0.35856912145E+03  0.89438402521E+02 0.  0.
         23    2    4    4    0    0  0.22439534923E+02  0.48439300011E+03 -0.61885961612E+03  0.79148774620E+03  0.91244269060E+02 0.  0.
          1    1    3    3  502    0 -0.50787006228E+02 -0.85422381772E+02  0.22371626513E+03  0.24479638599E+03  0.00000000000E+00 0. -1.
         -1    1    3    3    0  502 -0.20555698515E+03 -0.31111994659E+03  0.48893868542E+03  0.61490676806E+03  0.00000000000E+00 0.  1.
         11    1    5    5    0    0  0.17819007132E+03 -0.87542878681E+02 -0.13941384554E+03  0.24259364677E+03  0.00000000000E+00 0. -1.
        -11    1    5    5    0    0  0.55714385133E+02 -0.30779307168E+00 -0.10171589492E+03  0.11597547468E+03  0.00000000000E+00 0.  1.
          5    1    6    6  503    0 -0.36444862576E+01  0.25669368237E+03 -0.25815133731E+03  0.36410044192E+03  0.47000000000E+01 0. -1.
         -5    1    6    6    0  503  0.26084021180E+02  0.22769931774E+03 -0.36070827881E+03  0.42738730428E+03  0.47000000000E+01 0.  1.
<mgrwt>
<rscale>  0 0.60626023E+03</rscale>
<asrwt>0</asrwt>
<pdfrwt beam="1">  1        1 0.14326351E+00 0.60626023E+03</pdfrwt>
<pdfrwt beam="2">  1       -1 0.16593034E+00 0.60626023E+03</pdfrwt>
<totfact> 0.48107909E+00</totfact>
</mgrwt>
</event>
<event>
12    1  0.3127365E-008  0.7211532E+03  0.7818608E-02  0.9681726E-01
          2   -1    0    0  501    0  0.00000000000E+00  0.00000000000E+00  0.21083968210E+04  0.21083968210E+04  0.00000000000E+00 0.  1.
         -2   -1    0    0    0  501 -0.00000000000E+00 -0.00000000000E+00 -0.63688520858E+03  0.63688520858E+03  0.00000000000E+00 0. -1.
         23    2    1    2    0    0 -0.28319118688E+03 -0.58370156903E+03  0.17088019782E+04  0.18303582922E+04  0.96449505065E+02 0.  0.
    5000000    2    1    2    0    0  0.28319118688E+03  0.58370156903E+03 -0.23729036571E+03  0.91492373746E+03  0.59989495555E+03 0.  0.
         23    2    4    4    0    0 -0.60819161716E+02 -0.43663939040E+02  0.62494999126E+02  0.13431961770E+03  0.92361381433E+02 0.  0.
         23    2    4    4    0    0  0.34401034860E+03  0.62736550807E+03 -0.29978536484E+03  0.78060411975E+03  0.86838506130E+02 0.  0.
          4    1    3    3  502    0 -0.76369784571E+02 -0.10422233235E+03  0.26023052642E+03  0.29054184800E+03  0.00000000000E+00 0. -1.
         -4    1    3    3    0  502 -0.20682140231E+03 -0.47947923668E+03  0.14485714518E+04  0.15398164442E+04  0.00000000000E+00 0.  1.
         13    1    5    5    0    0 -0.32340665051E+02 -0.20437590574E+02 -0.20607415925E+02  0.43454335981E+02  0.00000000000E+00 0.  1.
        -13    1    5    5    0    0 -0.28478496665E+02 -0.23226348467E+02  0.83102415051E+02  0.90865281724E+02  0.00000000000E+00 0. -1.
          5    1    6    6  503    0  0.16942497865E+03  0.33236626892E+03 -0.20123619649E+03  0.42389887577E+03  0.47000000000E+01 0. -1.
         -5    1    6    6    0  503  0.17458536994E+03  0.29499923916E+03 -0.98549168347E+02  0.35670524398E+03  0.47000000000E+01 0.  1.
<mgrwt>
<rscale>  0 0.72115319E+03</rscale>
<asrwt>0</asrwt>
<pdfrwt beam="1">  1        2 0.32436874E+00 0.72115319E+03</pdfrwt>
<pdfrwt beam="2">  1       -2 0.97982341E-01 0.72115319E+03</pdfrwt>
<totfact> 0.52592021E+00</totfact>
</mgrwt>
</event>
<event>
12    1  0.3127365E-008  0.7843551E+03  0.7818608E-02  0.9582943E-01
          2   -1    0    0  501    0  0.00000000000E+00  0.00000000000E+00  0.15829789310E+04  0.15829789310E+04  0.00000000000E+00 0. -1.
         -2   -1    0    0    0  501 -0.00000000000E+00 -0.00000000000E+00 -0.51438675961E+03  0.51438675961E+03  0.00000000000E+00 0.  1.
         23    2    1    2    0    0  0.81766478790E+02  0.72591081494E+03  0.85495601007E+03  0.11282225949E+04  0.91127253163E+02 0.  0.
    5000000    2    1    2    0    0 -0.81766478790E+02 -0.72591081494E+03  0.21363616131E+03  0.96914309568E+03  0.59997138447E+03 0.  0.
         23    2    4    4    0    0  0.60268844458E+02 -0.64220703634E+01  0.20649574915E+03  0.23043092401E+03  0.82367103401E+02 0.  0.
         23    2    4    4    0    0 -0.14203532325E+03 -0.71948874457E+03  0.71404121645E+01  0.73871217167E+03  0.88354968563E+02 0.  0.
          1    1    3    3  502    0  0.62604262440E+02  0.22527765082E+03  0.24080643655E+03  0.33564423653E+03  0.00000000000E+00 0. -1.
         -1    1    3    3    0  502  0.19162216350E+02  0.50063316412E+03  0.61414957352E+03  0.79257835840E+03  0.00000000000E+00 0.  1.
         11    1    5    5    0    0  0.19973289855E+02 -0.42084334133E+02  0.11796486599E+03  0.12682954346E+03  0.00000000000E+00 0. -1.
        -11    1    5    5    0    0  0.40295554604E+02  0.35662263770E+02  0.88530883161E+02  0.10360138055E+03  0.00000000000E+00 0.  1.
          5    1    6    6  503    0 -0.86465023787E+02 -0.46169251720E+03 -0.37355944629E+02  0.47122578174E+03  0.47000000000E+01 0. -1.
         -5    1    6    6    0  503 -0.55570299461E+02 -0.25779622737E+03  0.44496356794E+02  0.26748638993E+03  0.47000000000E+01 0.  1.
<mgrwt>
<rscale>  0 0.78435515E+03</rscale>
<asrwt>0</asrwt>
<pdfrwt beam="1">  1        2 0.24353522E+00 0.78435515E+03</pdfrwt>
<pdfrwt beam="2">  1       -2 0.79136425E-01 0.78435515E+03</pdfrwt>
<totfact> 0.16491228E+01</totfact>
</mgrwt>
</event>
<event>
12    1  0.3127365E-008  0.7526824E+03  0.7818608E-02  0.9631151E-01
         -2   -1    0    0    0  501 -0.00000000000E+00  0.00000000000E+00  0.34175954830E+03  0.34175954830E+03  0.00000000000E+00 0.  1.
          2   -1    0    0  501    0  0.00000000000E+00 -0.00000000000E+00 -0.22390267871E+04  0.22390267871E+04  0.00000000000E+00 0. -1.
         23    2    1    2    0    0 -0.73321672458E+03  0.81196733155E+02 -0.51946929519E+03  0.90668078825E+03  0.89565777247E+02 0.  0.
    5000000    2    1    2    0    0  0.73321672458E+03 -0.81196733155E+02 -0.13777979436E+04  0.16741055472E+04  0.60008543968E+03 0.  0.
         23    2    4    4    0    0  0.34118181103E+03  0.66559701736E+02 -0.11133491902E+04  0.11698639004E+04  0.90553321697E+02 0.  0.
         23    2    4    4    0    0  0.39203491356E+03 -0.14775643489E+03 -0.26444875345E+03  0.50424164680E+03  0.93825144077E+02 0.  0.
          2    1    3    3  502    0 -0.25608250133E+03  0.37958109864E+02 -0.13243116826E+03  0.29078700094E+03  0.00000000000E+00 0. -1.
         -2    1    3    3    0  502 -0.47713422325E+03  0.43238623291E+02 -0.38703812693E+03  0.61589378731E+03  0.00000000000E+00 0.  1.
         11    1    5    5    0    0  0.28220752524E+03  0.54394134161E+02 -0.78318098264E+03  0.83424951945E+03  0.00000000000E+00 0. -1.
        -11    1    5    5    0    0  0.58974285787E+02  0.12165567575E+02 -0.33016820751E+03  0.33561438091E+03  0.00000000000E+00 0.  1.
          5    1    6    6  503    0  0.10778359713E+03 -0.29288106086E+02 -0.26095983061E+02  0.11479628609E+03  0.47000000000E+01 0. -1.
         -5    1    6    6    0  503  0.28425131642E+03 -0.11846832880E+03 -0.23835277039E+03  0.38944536070E+03  0.47000000000E+01 0.  1.
<mgrwt>
<rscale>  0 0.75268244E+03</rscale>
<asrwt>0</asrwt>
<pdfrwt beam="1">  1        2 0.34446567E+00 0.75268244E+03</pdfrwt>
<pdfrwt beam="2">  1       -2 0.52578390E-01 0.75268244E+03</pdfrwt>
<totfact> 0.17416490E+01</totfact>
</mgrwt>
</event>
<event>
12    1  0.3127365E-008  0.2285629E+04  0.7818608E-02  0.8483609E-01
          1   -1    0    0  501    0  0.00000000000E+00  0.00000000000E+00  0.18813921777E+04  0.18813921777E+04  0.00000000000E+00 0. -1.
         -1   -1    0    0    0  501 -0.00000000000E+00 -0.00000000000E+00 -0.30087663729E+04  0.30087663729E+04  0.00000000000E+00 0.  1.
         23    2    1    2    0    0  0.73007696576E+03 -0.21623062708E+04 -0.10886023586E+04  0.25301906688E+04  0.90713509870E+02 0.  0.
    5000000    2    1    2    0    0 -0.73007696576E+03  0.21623062708E+04 -0.38771836663E+02  0.23599678818E+04  0.59947006851E+03 0.  0.
         23    2    4    4    0    0 -0.54486066540E+03  0.14641636418E+04  0.23452786303E+03  0.15822985176E+04  0.89537508465E+02 0.  0.
         23    2    4    4    0    0 -0.18521630035E+03  0.69814262894E+03 -0.27329969969E+03  0.77766936418E+03  0.91480631088E+02 0.  0.
          4    1    3    3  502    0  0.57192838107E+03 -0.15759936031E+04 -0.81407805071E+03  0.18637545393E+04  0.00000000000E+00 0. -1.
         -4    1    3    3    0  502  0.15814858469E+03 -0.58631266772E+03 -0.27452430786E+03  0.66643612955E+03  0.00000000000E+00 0.  1.
         11    1    5    5    0    0 -0.41577746903E+03  0.11828472526E+04  0.16025372445E+03  0.12639935850E+04  0.00000000000E+00 0. -1.
        -11    1    5    5    0    0 -0.12908319638E+03  0.28131638921E+03  0.74274138577E+02  0.31830493256E+03  0.00000000000E+00 0.  1.
          5    1    6    6  503    0 -0.12423117456E+03  0.54939858585E+03 -0.17808922715E+03  0.59077072854E+03  0.47000000000E+01 0. -1.
         -5    1    6    6    0  503 -0.60985125788E+02  0.14874404309E+03 -0.95210472540E+02  0.18689863564E+03  0.47000000000E+01 0.  1.
<mgrwt>
<rscale>  0 0.22856292E+04</rscale>
<asrwt>0</asrwt>
<pdfrwt beam="1">  1        1 0.28944495E+00 0.22856292E+04</pdfrwt>
<pdfrwt beam="2">  1       -1 0.46288713E+00 0.22856292E+04</pdfrwt>
<totfact> 0.81317852E-03</totfact>
</mgrwt>
</event>
<event>
12    1  0.3127365E-008  0.1169041E+04  0.7818608E-02  0.9140395E-01
          2   -1    0    0  501    0  0.00000000000E+00  0.00000000000E+00  0.30719488269E+04  0.30719488269E+04  0.00000000000E+00 0. -1.
         -2   -1    0    0    0  501 -0.00000000000E+00 -0.00000000000E+00 -0.11161251870E+04  0.11161251870E+04  0.00000000000E+00 0.  1.
         23    2    1    2    0    0 -0.10242751473E+04  0.41898787377E+03 -0.65522173061E+03  0.12894166952E+04  0.92679457323E+02 0.  0.
    5000000    2    1    2    0    0  0.10242751473E+04 -0.41898787377E+03  0.26110453706E+04  0.28986573187E+04  0.59997158943E+03 0.  0.
         23    2    4    4    0    0  0.94627447036E+03 -0.51379086079E+03  0.24448510002E+04  0.26729885222E+04  0.90303959962E+02 0.  0.
         23    2    4    4    0    0  0.78000676955E+02  0.94802987014E+02  0.16619437043E+03  0.22566879644E+03  0.90742079394E+02 0.  0.
          3    1    3    3  502    0 -0.29709304587E+03  0.10725705055E+03 -0.14168877896E+03  0.34618501250E+03  0.00000000000E+00 0. -1.
         -3    1    3    3    0  502 -0.72718210145E+03  0.31173082322E+03 -0.51353295165E+03  0.94323168270E+03  0.00000000000E+00 0.  1.
         13    1    5    5    0    0  0.82366828157E+03 -0.47911126919E+03  0.21745154477E+04  0.23741302573E+04  0.00000000000E+00 0. -1.
        -13    1    5    5    0    0  0.12260618879E+03 -0.34679591595E+02  0.27033555244E+03  0.29885826493E+03  0.00000000000E+00 0.  1.
          5    1    6    6  503    0 -0.19163565623E+02  0.19326263132E+02  0.45675522070E+02  0.53376867746E+02  0.47000000000E+01 0. -1.
         -5    1    6    6    0  503  0.97164242578E+02  0.75476723882E+02  0.12051884836E+03  0.17229192869E+03  0.47000000000E+01 0.  1.
<mgrwt>
<rscale>  0 0.11690415E+04</rscale>
<asrwt>0</asrwt>
<pdfrwt beam="1">  1        2 0.47260751E+00 0.11690415E+04</pdfrwt>
<pdfrwt beam="2">  1       -2 0.17171157E+00 0.11690415E+04</pdfrwt>
<totfact> 0.32161224E-01</totfact>
</mgrwt>
</event>
<event>
12    1  0.3127365E-008  0.5701882E+03  0.7818608E-02  0.9969262E-01
          1   -1    0    0  501    0  0.00000000000E+00  0.00000000000E+00  0.10428731097E+04  0.10428731097E+04  0.00000000000E+00 0. -1.
         -1   -1    0    0    0  501 -0.00000000000E+00 -0.00000000000E+00 -0.42663495104E+03  0.42663495104E+03  0.00000000000E+00 0.  1.
         23    2    1    2    0    0 -0.42980132770E+02 -0.52572893161E+03  0.22649565370E+03  0.58054729240E+03  0.86583348468E+02 0.  0.
    5000000    2    1    2    0    0  0.42980132770E+02  0.52572893161E+03  0.38974250499E+03  0.88896076837E+03  0.60009484764E+03 0.  0.
         23    2    4    4    0    0 -0.77847316974E+02  0.85662446442E+02 -0.12666946841E+03  0.19372567085E+03  0.89923422024E+02 0.  0.
         23    2    4    4    0    0  0.12082744974E+03  0.44006648516E+03  0.51641197340E+03  0.69523509752E+03  0.91720938568E+02 0.  0.
          2    1    3    3  502    0  0.38032695887E+01 -0.18556386742E+03  0.12011210463E+03  0.22107765927E+03  0.00000000000E+00 0.  1.
         -2    1    3    3    0  502 -0.46783402358E+02 -0.34016506419E+03  0.10638354907E+03  0.35946963313E+03  0.00000000000E+00 0. -1.
         13    1    5    5    0    0 -0.46786376401E+02 -0.78575978315E+01 -0.49486929579E+02  0.68554088570E+02  0.00000000000E+00 0. -1.
        -13    1    5    5    0    0 -0.31060940573E+02  0.93520044273E+02 -0.77182538832E+02  0.12517158228E+03  0.00000000000E+00 0.  1.
          5    1    6    6  503    0  0.84385933680E+02  0.14313128046E+03  0.18967423045E+03  0.25220220647E+03  0.47000000000E+01 0. -1.
         -5    1    6    6    0  503  0.36441516064E+02  0.29693520470E+03  0.32673774296E+03  0.44303289105E+03  0.47000000000E+01 0.  1.
<mgrwt>
<rscale>  0 0.57018820E+03</rscale>
<asrwt>0</asrwt>
<pdfrwt beam="1">  1        1 0.16044202E+00 0.57018820E+03</pdfrwt>
<pdfrwt beam="2">  1       -1 0.65636147E-01 0.57018820E+03</pdfrwt>
<totfact> 0.34625660E+01</totfact>
</mgrwt>
</event>
<event>
12    1  0.3127365E-008  0.6396029E+03  0.7818608E-02  0.9826487E-01
         -2   -1    0    0    0  501 -0.00000000000E+00  0.00000000000E+00  0.30559384125E+03  0.30559384125E+03  0.00000000000E+00 0.  1.
          2   -1    0    0  501    0  0.00000000000E+00 -0.00000000000E+00 -0.18741147879E+04  0.18741147879E+04  0.00000000000E+00 0. -1.
         23    2    1    2    0    0 -0.43438578764E+03 -0.45014177552E+03 -0.81334835914E+03  0.10302098104E+04  0.92076433651E+02 0.  0.
    5000000    2    1    2    0    0  0.43438578764E+03  0.45014177552E+03 -0.75517258751E+03  0.11494988187E+04  0.59978601743E+03 0.  0.
         23    2    4    4    0    0  0.91914773750E+02  0.13874480653E+03  0.68207513903E+02  0.20069167408E+03  0.89030534763E+02 0.  0.
         23    2    4    4    0    0  0.34247101389E+03  0.31139696899E+03 -0.82338010141E+03  0.94880714462E+03  0.89586486878E+02 0.  0.
          3    1    3    3  502    0 -0.32390347618E+03 -0.31757482533E+03 -0.52170061077E+03  0.69133114991E+03  0.00000000000E+00 0. -1.
         -3    1    3    3    0  502 -0.11048231146E+03 -0.13256695019E+03 -0.29164774837E+03  0.33887866052E+03  0.00000000000E+00 0.  1.
         11    1    5    5    0    0  0.18930820837E+02 -0.11170007066E+02  0.90681960708E+01  0.23777662109E+02  0.00000000000E+00 0.  1.
        -11    1    5    5    0    0  0.72983952913E+02  0.14991481360E+03  0.59139317832E+02  0.17691401197E+03  0.00000000000E+00 0. -1.
          5    1    6    6  503    0  0.11660018581E+03  0.12894523261E+03 -0.39134728621E+03  0.42824906861E+03  0.47000000000E+01 0. -1.
         -5    1    6    6    0  503  0.22587082808E+03  0.18245173638E+03 -0.43203281520E+03  0.52055807601E+03  0.47000000000E+01 0.  1.
<mgrwt>
<rscale>  0 0.63960292E+03</rscale>
<asrwt>0</asrwt>
<pdfrwt beam="1">  1        2 0.28832535E+00 0.63960292E+03</pdfrwt>
<pdfrwt beam="2">  1       -2 0.47014438E-01 0.63960292E+03</pdfrwt>
<totfact> 0.35167917E+01</totfact>
</mgrwt>
</event>
<event>
12    1  0.3127365E-008  0.5850615E+03  0.7818608E-02  0.9936893E-01
          1   -1    0    0  501    0  0.00000000000E+00  0.00000000000E+00  0.54690401591E+03  0.54690401591E+03  0.00000000000E+00 0.  1.
         -1   -1    0    0    0  501 -0.00000000000E+00 -0.00000000000E+00 -0.65106425635E+03  0.65106425635E+03  0.00000000000E+00 0. -1.
         23    2    1    2    0    0  0.41729379144E+03  0.95848172832E+02  0.64209742862E+02  0.44206214745E+03  0.89303250341E+02 0.  0.
    5000000    2    1    2    0    0 -0.41729379144E+03 -0.95848172832E+02 -0.16836998330E+03  0.75590612481E+03  0.59977048746E+03 0.  0.
         23    2    4    4    0    0 -0.41991028466E+03  0.16490174063E+03 -0.82792763406E+02  0.46771623439E+03  0.91578398193E+02 0.  0.
         23    2    4    4    0    0  0.26164932200E+01 -0.26074991346E+03 -0.85577219898E+02  0.28818989041E+03  0.87935140675E+02 0.  0.
          1    1    3    3  502    0  0.32793698426E+02  0.33103824786E+02  0.17111554001E+02  0.49639653023E+02  0.00000000000E+00 0. -1.
         -1    1    3    3    0  502  0.38450009301E+03  0.62744348046E+02  0.47098188861E+02  0.39242249443E+03  0.00000000000E+00 0.  1.
         13    1    5    5    0    0 -0.23786662706E+03  0.14154109073E+03 -0.49400440556E+02  0.28116688312E+03  0.00000000000E+00 0.  1.
        -13    1    5    5    0    0 -0.18204365760E+03  0.23360649897E+02 -0.33392322850E+02  0.18654935127E+03  0.00000000000E+00 0. -1.
          5    1    6    6  503    0 -0.77694509895E+01 -0.26198645744E+03 -0.87903766260E+02  0.27648947606E+03  0.47000000000E+01 0. -1.
         -5    1    6    6    0  503  0.10385944209E+02  0.12365439758E+01  0.23265463621E+01  0.11700414356E+02  0.47000000000E+01 0.  1.
<mgrwt>
<rscale>  0 0.58506152E+03</rscale>
<asrwt>0</asrwt>
<pdfrwt beam="1">  1        1 0.84139079E-01 0.58506152E+03</pdfrwt>
<pdfrwt beam="2">  1       -1 0.10016373E+00 0.58506152E+03</pdfrwt>
<totfact> 0.38638666E+01</totfact>
</mgrwt>
</event>
<event>
12    1  0.3127365E-008  0.1527978E+04  0.7818608E-02  0.8866058E-01
         -2   -1    0    0    0  501 -0.00000000000E+00  0.00000000000E+00  0.10133632561E+04  0.10133632561E+04  0.00000000000E+00 0.  1.
          2   -1    0    0  501    0  0.00000000000E+00 -0.00000000000E+00 -0.29274174379E+04  0.29274174379E+04  0.00000000000E+00 0. -1.
         23    2    1    2    0    0 -0.71810132648E+03  0.12822137593E+04 -0.18332120177E+04  0.23513222439E+04  0.91150168294E+02 0.  0.
    5000000    2    1    2    0    0  0.71810132648E+03 -0.12822137593E+04 -0.80842164129E+02  0.15894584501E+04  0.60008421859E+03 0.  0.
         23    2    4    4    0    0 -0.70233910741E+02 -0.30123651232E+03 -0.37065279994E+02  0.32674320937E+03  0.98544666627E+02 0.  0.
         23    2    4    4    0    0  0.78833523722E+03 -0.98097724698E+03 -0.43776884136E+02  0.12627152407E+04  0.93512342398E+02 0.  0.
          1    1    3    3  502    0 -0.22901576703E+03  0.49155840047E+03 -0.64774372297E+03  0.84477796684E+03  0.00000000000E+00 0. -1.
         -1    1    3    3    0  502 -0.48908555945E+03  0.79065535883E+03 -0.11854682947E+04  0.15065442771E+04  0.00000000000E+00 0.  1.
         13    1    5    5    0    0  0.12362322173E+02 -0.16217086881E+03 -0.12200749585E+02  0.16309836293E+03  0.00000000000E+00 0.  1.
        -13    1    5    5    0    0 -0.82596232913E+02 -0.13906564351E+03 -0.24864530409E+02  0.16364484645E+03  0.00000000000E+00 0. -1.
          5    1    6    6  503    0  0.56606654878E+03 -0.66652005594E+03  0.53244356491E+01  0.87448885769E+03  0.47000000000E+01 0. -1.
         -5    1    6    6    0  503  0.22226868844E+03 -0.31445719104E+03 -0.49101319785E+02  0.38822638301E+03  0.47000000000E+01 0.  1.
<mgrwt>
<rscale>  0 0.15279782E+04</rscale>
<asrwt>0</asrwt>
<pdfrwt beam="1">  1        2 0.45037191E+00 0.15279782E+04</pdfrwt>
<pdfrwt beam="2">  1       -2 0.15590204E+00 0.15279782E+04</pdfrwt>
<totfact> 0.49264906E-01</totfact>
</mgrwt>
</event>
<event>
12    1  0.3127365E-008  0.6104190E+03  0.7818608E-02  0.9884023E-01
          4   -1    0    0  501    0  0.00000000000E+00  0.00000000000E+00  0.30110726222E+03  0.30110726222E+03  0.00000000000E+00 0. -1.
         -4   -1    0    0    0  501 -0.00000000000E+00 -0.00000000000E+00 -0.15466724425E+04  0.15466724425E+04  0.00000000000E+00 0.  1.
         23    2    1    2    0    0  0.40950596194E+03 -0.29480991206E+03 -0.78564187796E+03  0.93871211722E+03  0.96639854596E+02 0.  0.
    5000000    2    1    2    0    0 -0.40950596194E+03  0.29480991206E+03 -0.45992330230E+03  0.90906758749E+03  0.60022197353E+03 0.  0.
         23    2    4    4    0    0 -0.27594772206E+03  0.42412939248E+03 -0.14853851143E+03  0.53521434854E+03  0.91421127935E+02 0.  0.
         23    2    4    4    0    0 -0.13355823988E+03 -0.12931948042E+03 -0.31138479087E+03  0.37385323895E+03  0.90798815124E+02 0.  0.
          4    1    3    3  502    0  0.33204324465E+03 -0.27283876858E+03 -0.69803969500E+03  0.81972747042E+03  0.00000000000E+00 0. -1.
         -4    1    3    3    0  502  0.77462717286E+02 -0.21971143479E+02 -0.87602182956E+02  0.11898464680E+03  0.00000000000E+00 0.  1.
         13    1    5    5    0    0 -0.12483649117E+03  0.13025896616E+03 -0.23686178404E+02  0.18196863147E+03  0.00000000000E+00 0.  1.
        -13    1    5    5    0    0 -0.15111123089E+03  0.29387042632E+03 -0.12485233302E+03  0.35324571707E+03  0.00000000000E+00 0. -1.
          5    1    6    6  503    0 -0.97070685415E+02 -0.43803987197E+02 -0.21428975717E+03  0.23934012888E+03  0.47000000000E+01 0. -1.
         -5    1    6    6    0  503 -0.36487554469E+02 -0.85515493220E+02 -0.97095033702E+02  0.13451311007E+03  0.47000000000E+01 0.  1.
<mgrwt>
<rscale>  0 0.61041900E+03</rscale>
<asrwt>0</asrwt>
<pdfrwt beam="1">  1        4 0.46324194E-01 0.61041900E+03</pdfrwt>
<pdfrwt beam="2">  1       -4 0.23794961E+00 0.61041900E+03</pdfrwt>
<totfact> 0.67935948E-01</totfact>
</mgrwt>
</event>
<event>
12    1  0.3127365E-008  0.1314769E+04  0.7818608E-02  0.9017934E-01
          2   -1    0    0  501    0  0.00000000000E+00  0.00000000000E+00  0.20712669223E+04  0.20712669223E+04  0.00000000000E+00 0. -1.
         -2   -1    0    0    0  501 -0.00000000000E+00 -0.00000000000E+00 -0.89342402449E+03  0.89342402449E+03  0.00000000000E+00 0.  1.
         23    2    1    2    0    0  0.99406959395E+02  0.12864713644E+04  0.47881205044E+03  0.13792620177E+04  0.90622397613E+02 0.  0.
    5000000    2    1    2    0    0 -0.99406959395E+02 -0.12864713644E+04  0.69903084736E+03  0.15854289290E+04  0.60004203895E+03 0.  0.
         23    2    4    4    0    0 -0.20896187917E+03 -0.10958766999E+04  0.36999449202E+03  0.11790558577E+04  0.93091262217E+02 0.  0.
         23    2    4    4    0    0  0.10955491978E+03 -0.19059466449E+03  0.32903635534E+03  0.40637307134E+03  0.92442108387E+02 0.  0.
          4    1    3    3  502    0  0.94284459488E+02  0.82341962897E+03  0.27407239777E+03  0.87294050421E+03  0.00000000000E+00 0. -1.
         -4    1    3    3    0  502  0.51224999064E+01  0.46305173541E+03  0.20473965268E+03  0.50632151352E+03  0.00000000000E+00 0.  1.
         11    1    5    5    0    0 -0.39752637909E+02 -0.34146616861E+03  0.15109040433E+03  0.37550995567E+03  0.00000000000E+00 0. -1.
        -11    1    5    5    0    0 -0.16920924126E+03 -0.75441053129E+03  0.21890408769E+03  0.80354590202E+03  0.00000000000E+00 0.  1.
          5    1    6    6  503    0  0.72207997111E+02 -0.10846051885E+03  0.26591200806E+03  0.29615699388E+03  0.47000000000E+01 0.  1.
         -5    1    6    6    0  503  0.37346922664E+02 -0.82134145635E+02  0.63124347278E+02  0.11021607746E+03  0.47000000000E+01 0. -1.
<mgrwt>
<rscale>  0 0.13147691E+04</rscale>
<asrwt>0</asrwt>
<pdfrwt beam="1">  1        2 0.31865645E+00 0.13147691E+04</pdfrwt>
<pdfrwt beam="2">  1       -2 0.13744985E+00 0.13147691E+04</pdfrwt>
<totfact> 0.22119545E+00</totfact>
</mgrwt>
</event>
<event>
12    1  0.3127365E-008  0.3831482E+03  0.7818608E-02  0.1049776E+00
         -1   -1    0    0    0  501 -0.00000000000E+00  0.00000000000E+00  0.10774443595E+04  0.10774443595E+04  0.00000000000E+00 0.  1.
          1   -1    0    0  501    0  0.00000000000E+00 -0.00000000000E+00 -0.49552697528E+03  0.49552697528E+03  0.00000000000E+00 0. -1.
         23    2    1    2    0    0 -0.21912263357E+02  0.15744025635E+03 -0.38385172441E+03  0.42493627386E+03  0.89225046378E+02 0.  0.
    5000000    2    1    2    0    0  0.21912263357E+02 -0.15744025635E+03  0.96576910868E+03  0.11480350610E+04  0.60000579023E+03 0.  0.
         23    2    4    4    0    0 -0.23464031571E+03  0.69476289833E+02  0.34034581456E+03  0.42906256888E+03  0.91522576004E+02 0.  0.
         23    2    4    4    0    0  0.25655257907E+03 -0.22691654618E+03  0.62542329412E+03  0.71897249208E+03  0.91960876404E+02 0.  0.
          3    1    3    3  502    0 -0.23425768862E+02  0.16194362519E+03 -0.30653776741E+03  0.34747648443E+03  0.00000000000E+00 0. -1.
         -3    1    3    3    0  502  0.15135055044E+01 -0.45033688435E+01 -0.77313957007E+02  0.77459789426E+02  0.00000000000E+00 0.  1.
         13    1    5    5    0    0 -0.59502643457E+02  0.29408996961E+02  0.35648905121E+02  0.75341211279E+02  0.00000000000E+00 0. -1.
        -13    1    5    5    0    0 -0.17513767225E+03  0.40067292871E+02  0.30469690944E+03  0.35372135760E+03  0.00000000000E+00 0.  1.
          5    1    6    6  503    0  0.16271902495E+03 -0.90532182126E+02  0.28612595347E+03  0.34141427669E+03  0.47000000000E+01 0. -1.
         -5    1    6    6    0  503  0.93833554118E+02 -0.13638436406E+03  0.33929734065E+03  0.37755821539E+03  0.47000000000E+01 0.  1.
<mgrwt>
<rscale>  0 0.38314817E+03</rscale>
<asrwt>0</asrwt>
<pdfrwt beam="1">  1        1 0.76234920E-01 0.38314817E+03</pdfrwt>
<pdfrwt beam="2">  1       -1 0.16576067E+00 0.38314817E+03</pdfrwt>
<totfact> 0.12983041E+01</totfact>
</mgrwt>
</event>
<event>
12    1  0.3127365E-008  0.4229739E+03  0.7818608E-02  0.1036103E+00
         -1   -1    0    0    0  501 -0.00000000000E+00  0.00000000000E+00  0.55347947831E+03  0.55347947831E+03  0.00000000000E+00 0.  1.
          1   -1    0    0  501    0  0.00000000000E+00 -0.00000000000E+00 -0.58157843714E+03  0.58157843714E+03  0.00000000000E+00 0. -1.
         23    2    1    2    0    0 -0.36513551354E+03  0.58131286996E+02  0.14815610632E+03  0.40860577230E+03  0.91133174736E+02 0.  0.
    5000000    2    1    2    0    0  0.36513551354E+03 -0.58131286996E+02 -0.17625506515E+03  0.72645214315E+03  0.59996973134E+03 0.  0.
         23    2    4    4    0    0  0.37430217431E+02 -0.10382761620E+03  0.18049572248E+03  0.23144577548E+03  0.93846929052E+02 0.  0.
         23    2    4    4    0    0  0.32770529611E+03  0.45696329208E+02 -0.35675078763E+03  0.49500636767E+03  0.91001450332E+02 0.  0.
          1    1    3    3  502    0 -0.51544778617E+02 -0.18426641589E+02  0.41323430233E+02  0.68585940317E+02  0.00000000000E+00 0. -1.
         -1    1    3    3    0  502 -0.31359073492E+03  0.76557928585E+02  0.10683267609E+03  0.34001983198E+03  0.00000000000E+00 0.  1.
         11    1    5    5    0    0  0.61753172890E+02 -0.55068456163E+02  0.14329991773E+03  0.16547161584E+03  0.00000000000E+00 0. -1.
        -11    1    5    5    0    0 -0.24322955458E+02 -0.48759160041E+02  0.37195804745E+02  0.65974159644E+02  0.00000000000E+00 0.  1.
          5    1    6    6  503    0  0.26990907045E+03  0.40280856689E+02 -0.23549923398E+03  0.36049331884E+03  0.47000000000E+01 0. -1.
         -5    1    6    6    0  503  0.57796225663E+02  0.54154725185E+01 -0.12125155365E+03  0.13451304883E+03  0.47000000000E+01 0.  1.
<mgrwt>
<rscale>  0 0.42297387E+03</rscale>
<asrwt>0</asrwt>
<pdfrwt beam="1">  1        1 0.89473605E-01 0.42297387E+03</pdfrwt>
<pdfrwt beam="2">  1       -1 0.85150689E-01 0.42297387E+03</pdfrwt>
<totfact> 0.51811456E+01</totfact>
</mgrwt>
</event>
<event>
12    1  0.3127365E-008  0.1937895E+04  0.7818608E-02  0.8636220E-01
          2   -1    0    0  501    0  0.00000000000E+00  0.00000000000E+00  0.18010344851E+04  0.18010344851E+04  0.00000000000E+00 0. -1.
         -2   -1    0    0    0  501 -0.00000000000E+00 -0.00000000000E+00 -0.27671198119E+04  0.27671198119E+04  0.00000000000E+00 0.  1.
         23    2    1    2    0    0  0.17469371993E+04 -0.75209696443E+03 -0.15879705105E+04  0.24791208626E+04  0.83369583253E+02 0.  0.
    5000000    2    1    2    0    0 -0.17469371993E+04  0.75209696443E+03  0.62188518367E+03  0.20890334343E+04  0.59990006331E+03 0.  0.
         23    2    4    4    0    0 -0.16556172516E+03  0.25997023550E+03  0.19632869810E+03  0.37661938664E+03  0.91115292379E+02 0.  0.
         23    2    4    4    0    0 -0.15813754741E+04  0.49212672893E+03  0.42555648556E+03  0.17124140477E+04  0.91249333607E+02 0.  0.
          4    1    3    3  502    0  0.70264711697E+03 -0.29681709231E+03 -0.58435771920E+03  0.96087840087E+03  0.00000000000E+00 0. -1.
         -4    1    3    3    0  502  0.10442900823E+04 -0.45527987212E+03 -0.10036127913E+04  0.15182424618E+04  0.00000000000E+00 0.  1.
         13    1    5    5    0    0 -0.15234732279E+03  0.26159108391E+03  0.19998445241E+03  0.36281315185E+03  0.00000000000E+00 0.  1.
        -13    1    5    5    0    0 -0.13214402368E+02 -0.16208484100E+01 -0.36557543102E+01  0.13806234790E+02  0.00000000000E+00 0. -1.
          5    1    6    6  503    0 -0.12767635664E+04  0.36743914663E+03  0.31811282618E+03  0.13661458894E+04  0.47000000000E+01 0. -1.
         -5    1    6    6    0  503 -0.30461190765E+03  0.12468758229E+03  0.10744365938E+03  0.34626815823E+03  0.47000000000E+01 0.  1.
<mgrwt>
<rscale>  0 0.19378951E+04</rscale>
<asrwt>0</asrwt>
<pdfrwt beam="1">  1        2 0.27708223E+00 0.19378951E+04</pdfrwt>
<pdfrwt beam="2">  1       -2 0.42571074E+00 0.19378951E+04</pdfrwt>
<totfact> 0.38670795E-02</totfact>
</mgrwt>
</event>
<event>
12    1  0.3127365E-008  0.6157170E+03  0.7818608E-02  0.9873324E-01
          1   -1    0    0  501    0  0.00000000000E+00  0.00000000000E+00  0.13930412532E+04  0.13930412532E+04  0.00000000000E+00 0. -1.
         -1   -1    0    0    0  501 -0.00000000000E+00 -0.00000000000E+00 -0.87718628436E+03  0.87718628436E+03  0.00000000000E+00 0.  1.
         23    2    1    2    0    0  0.25132368106E+03 -0.39221818876E+03  0.11733176128E+04  0.12655566607E+04  0.89222983676E+02 0.  0.
    5000000    2    1    2    0    0 -0.25132368106E+03  0.39221818876E+03 -0.65746264397E+03  0.10046708768E+04  0.60008977845E+03 0.  0.
         23    2    4    4    0    0 -0.35263737094E+03  0.47567882056E+03 -0.54039239351E+03  0.80692229063E+03  0.92066217641E+02 0.  0.
         23    2    4    4    0    0  0.10131368989E+03 -0.83460631803E+02 -0.11707025046E+03  0.19774858616E+03  0.90382072154E+02 0.  0.
          4    1    3    3  502    0  0.16522340394E+03 -0.32429100428E+03  0.87226432461E+03  0.94514997786E+03  0.00000000000E+00 0. -1.
         -4    1    3    3    0  502  0.86100277115E+02 -0.67927184476E+02  0.30105328816E+03  0.32040668287E+03  0.00000000000E+00 0.  1.
         13    1    5    5    0    0 -0.15225873264E+03  0.13401912571E+03 -0.17052985473E+03  0.26499863976E+03  0.00000000000E+00 0.  1.
        -13    1    5    5    0    0 -0.20037863830E+03  0.34165969485E+03 -0.36986253878E+03  0.54192365087E+03  0.00000000000E+00 0. -1.
          5    1    6    6  503    0  0.14158452957E+02  0.19085060748E+02 -0.23655892702E+02  0.33858419830E+02  0.47000000000E+01 0. -1.
         -5    1    6    6    0  503  0.87155236931E+02 -0.10254569255E+03 -0.93414357760E+02  0.16389016633E+03  0.47000000000E+01 0.  1.
<mgrwt>
<rscale>  0 0.61571696E+03</rscale>
<asrwt>0</asrwt>
<pdfrwt beam="1">  1        1 0.21431404E+00 0.61571696E+03</pdfrwt>
<pdfrwt beam="2">  1       -1 0.13495174E+00 0.61571696E+03</pdfrwt>
<totfact> 0.38298082E+00</totfact>
</mgrwt>
</event>
<event>
12    1  0.3127365E-008  0.9580930E+03  0.7818608E-02  0.9355741E-01
         -1   -1    0    0    0  501 -0.00000000000E+00  0.00000000000E+00  0.11550424446E+04  0.11550424446E+04  0.00000000000E+00 0.  1.
          1   -1    0    0  501    0  0.00000000000E+00 -0.00000000000E+00 -0.95210497477E+03  0.95210497477E+03  0.00000000000E+00 0. -1.
         23    2    1    2    0    0 -0.92426390098E+03  0.11705921558E+03 -0.14096960405E+03  0.94669399259E+03  0.91599496348E+02 0.  0.
    5000000    2    1    2    0    0  0.92426390098E+03 -0.11705921558E+03  0.34390707387E+03  0.11604534268E+04  0.60034445249E+03 0.  0.
         23    2    4    4    0    0  0.63980973995E+03 -0.19956832493E+03 -0.26624383589E+02  0.67704676794E+03  0.92192453695E+02 0.  0.
         23    2    4    4    0    0  0.28445416103E+03  0.82509109350E+02  0.37053145746E+03  0.48340665883E+03  0.93094113600E+02 0.  0.
          1    1    3    3  502    0 -0.37109937590E+03  0.87150604082E+02 -0.36300362433E+02  0.38291995364E+03  0.00000000000E+00 0. -1.
         -1    1    3    3    0  502 -0.55316452508E+03  0.29908611499E+02 -0.10466924162E+03  0.56377403894E+03  0.00000000000E+00 0.  1.
         11    1    5    5    0    0  0.31561477972E+03 -0.50323139941E+02 -0.15374484161E+02  0.31997106487E+03  0.00000000000E+00 0.  1.
        -11    1    5    5    0    0  0.32419496023E+03 -0.14924518499E+03 -0.11249899428E+02  0.35707570306E+03  0.00000000000E+00 0. -1.
          5    1    6    6  503    0  0.26631951899E+03  0.56207444915E+02  0.35557945251E+03  0.44782161639E+03  0.47000000000E+01 0. -1.
         -5    1    6    6    0  503  0.18134642038E+02  0.26301664435E+02  0.14952004953E+02  0.35585042448E+02  0.47000000000E+01 0.  1.
<mgrwt>
<rscale>  0 0.95809304E+03</rscale>
<asrwt>0</asrwt>
<pdfrwt beam="1">  1        1 0.14647769E+00 0.95809304E+03</pdfrwt>
<pdfrwt beam="2">  1       -1 0.17769884E+00 0.95809304E+03</pdfrwt>
<totfact> 0.35995794E+00</totfact>
</mgrwt>
</event>
<event>
12    1  0.3127365E-008  0.6244879E+03  0.7818608E-02  0.9855865E-01
          1   -1    0    0  501    0  0.00000000000E+00  0.00000000000E+00  0.28663271406E+03  0.28663271406E+03  0.00000000000E+00 0. -1.
         -1   -1    0    0    0  501 -0.00000000000E+00 -0.00000000000E+00 -0.17092951972E+04  0.17092951972E+04  0.00000000000E+00 0.  1.
         23    2    1    2    0    0 -0.24814352185E+03 -0.47506336292E+03 -0.31900673602E+03  0.63015252889E+03  0.89813728412E+02 0.  0.
    5000000    2    1    2    0    0  0.24814352185E+03  0.47506336292E+03 -0.11036557471E+04  0.13657753823E+04  0.60002165019E+03 0.  0.
         23    2    4    4    0    0 -0.12109200299E+03  0.71282436701E+02 -0.50040473984E+02  0.17522253221E+03  0.91947962375E+02 0.  0.
         23    2    4    4    0    0  0.36923552484E+03  0.40378092622E+03 -0.10536152731E+04  0.11905528501E+04  0.89090044673E+02 0.  0.
          3    1    3    3  502    0 -0.13971145487E+03 -0.28928854457E+03 -0.23996132703E+03  0.40098452727E+03  0.00000000000E+00 0. -1.
         -3    1    3    3    0  502 -0.10843206698E+03 -0.18577481835E+03 -0.79045408997E+02  0.22916800162E+03  0.00000000000E+00 0.  1.
         11    1    5    5    0    0 -0.13085517545E+03  0.46720021684E+02 -0.52816995434E+02  0.14864545864E+03  0.00000000000E+00 0. -1.
        -11    1    5    5    0    0  0.97631724559E+01  0.24562415017E+02  0.27765214495E+01  0.26577073564E+02  0.00000000000E+00 0.  1.
          5    1    6    6  503    0  0.17630201831E+03  0.19120512594E+03 -0.59647830216E+03  0.65073055622E+03  0.47000000000E+01 0. -1.
         -5    1    6    6    0  503  0.19293350653E+03  0.21257580028E+03 -0.45713697095E+03  0.53982229392E+03  0.47000000000E+01 0.  1.
<mgrwt>
<rscale>  0 0.62448791E+03</rscale>
<asrwt>0</asrwt>
<pdfrwt beam="1">  1        1 0.44097340E-01 0.62448791E+03</pdfrwt>
<pdfrwt beam="2">  1       -1 0.26296850E+00 0.62448791E+03</pdfrwt>
<totfact> 0.56599609E+00</totfact>
</mgrwt>
</event>
<event>
12    1  0.3127365E-008  0.5283482E+03  0.7818608E-02  0.1006634E+00
         -2   -1    0    0    0  501 -0.00000000000E+00  0.00000000000E+00  0.45054760045E+03  0.45054760045E+03  0.00000000000E+00 0.  1.
          2   -1    0    0  501    0  0.00000000000E+00 -0.00000000000E+00 -0.10199011834E+04  0.10199011834E+04  0.00000000000E+00 0. -1.
         23    2    1    2    0    0 -0.32936049228E+03 -0.18825525964E+03  0.18851369157E+03  0.43212233237E+03  0.85287288406E+02 0.  0.
    5000000    2    1    2    0    0  0.32936049228E+03  0.18825525964E+03 -0.75786727453E+03  0.10383264515E+04  0.59986718313E+03 0.  0.
         23    2    4    4    0    0  0.42443367562E+03  0.29448255518E+03 -0.47037605012E+03  0.70456319405E+03  0.91059022452E+02 0.  0.
         23    2    4    4    0    0 -0.95073183339E+02 -0.10622729555E+03 -0.28749122440E+03  0.33376325744E+03  0.91779950946E+02 0.  0.
          4    1    3    3  502    0 -0.25666830361E+03 -0.14932791310E+03  0.18443565288E+03  0.34956251767E+03  0.00000000000E+00 0. -1.
         -4    1    3    3    0  502 -0.72692188673E+02 -0.38927346539E+02  0.40780386861E+01  0.82559814694E+02  0.00000000000E+00 0.  1.
         11    1    5    5    0    0  0.36995393109E+03  0.21618082219E+03 -0.39816673023E+03  0.58492461401E+03  0.00000000000E+00 0.  1.
        -11    1    5    5    0    0  0.54479744529E+02  0.78301732999E+02 -0.72209319890E+02  0.11963858004E+03  0.00000000000E+00 0. -1.
          5    1    6    6  503    0 -0.17830673415E+02 -0.61123918703E+02 -0.19423694836E+03  0.20446062814E+03  0.47000000000E+01 0. -1.
         -5    1    6    6    0  503 -0.77242509924E+02 -0.45103376844E+02 -0.93254276047E+02  0.12930262930E+03  0.47000000000E+01 0.  1.
<mgrwt>
<rscale>  0 0.52834818E+03</rscale>
<asrwt>0</asrwt>
<pdfrwt beam="1">  1        2 0.15690787E+00 0.52834818E+03</pdfrwt>
<pdfrwt beam="2">  1       -2 0.69315016E-01 0.52834818E+03</pdfrwt>
<totfact> 0.48301934E+01</totfact>
</mgrwt>
</event>
<event>
12    1  0.3127365E-008  0.1037797E+04  0.7818608E-02  0.9268035E-01
          1   -1    0    0  501    0  0.00000000000E+00  0.00000000000E+00  0.24604358278E+04  0.24604358278E+04  0.00000000000E+00 0. -1.
         -1   -1    0    0    0  501 -0.00000000000E+00 -0.00000000000E+00 -0.55673856448E+03  0.55673856448E+03  0.00000000000E+00 0.  1.
         23    2    1    2    0    0  0.49156734115E+03  0.86354373726E+03  0.14728595415E+04  0.17790838027E+04  0.92074485984E+02 0.  0.
    5000000    2    1    2    0    0 -0.49156734115E+03 -0.86354373726E+03  0.43083772185E+03  0.12380905896E+04  0.59991743474E+03 0.  0.
         23    2    4    4    0    0 -0.54596605760E+03 -0.61906139720E+03  0.49149549698E+03  0.96429098043E+03  0.83506417918E+02 0.  0.
         23    2    4    4    0    0  0.54398716449E+02 -0.24448234005E+03 -0.60657775125E+02  0.27379960919E+03  0.92498785730E+02 0.  0.
          1    1    3    3  502    0  0.28539369820E+03  0.55570128518E+03  0.98676192783E+03  0.11678838057E+04  0.00000000000E+00 0. -1.
         -1    1    3    3    0  502  0.20617364294E+03  0.30784245208E+03  0.48609761368E+03  0.61119999703E+03  0.00000000000E+00 0.  1.
         13    1    5    5    0    0 -0.42735222447E+03 -0.53248047981E+03  0.40684466644E+03  0.79478800177E+03  0.00000000000E+00 0.  1.
        -13    1    5    5    0    0 -0.11861383313E+03 -0.86580917394E+02  0.84650830538E+02  0.16950297867E+03  0.00000000000E+00 0. -1.
          5    1    6    6  503    0  0.38057473066E+02 -0.15388873936E+03 -0.82934767669E+02  0.17897033566E+03  0.47000000000E+01 0. -1.
         -5    1    6    6    0  503  0.16341243383E+02 -0.90593600694E+02  0.22276992544E+02  0.94829273533E+02  0.47000000000E+01 0.  1.
<mgrwt>
<rscale>  0 0.10377968E+04</rscale>
<asrwt>0</asrwt>
<pdfrwt beam="1">  1        1 0.37852858E+00 0.10377968E+04</pdfrwt>
<pdfrwt beam="2">  1       -1 0.85652088E-01 0.10377968E+04</pdfrwt>
<totfact> 0.19673720E+00</totfact>
</mgrwt>
</event>
<event>
12    1  0.3127365E-008  0.1497041E+04  0.7818608E-02  0.8886423E-01
         -2   -1    0    0    0  501 -0.00000000000E+00  0.00000000000E+00  0.10097063359E+04  0.10097063359E+04  0.00000000000E+00 0.  1.
          2   -1    0    0  501    0  0.00000000000E+00 -0.00000000000E+00 -0.28041017726E+04  0.28041017726E+04  0.00000000000E+00 0. -1.
         23    2    1    2    0    0  0.39998448978E+03 -0.13949093788E+04 -0.17053555044E+04  0.22410466522E+04  0.91065546779E+02 0.  0.
    5000000    2    1    2    0    0 -0.39998448978E+03  0.13949093788E+04 -0.89039932285E+02  0.15727614564E+04  0.59990892810E+03 0.  0.
         23    2    4    4    0    0 -0.20912527698E+03  0.14277216735E+03  0.10034278531E+03  0.28873884320E+03  0.95834084577E+02 0.  0.
         23    2    4    4    0    0 -0.19085921280E+03  0.12521372114E+04 -0.18938271760E+03  0.12840226132E+04  0.92592775302E+02 0.  0.
          3    1    3    3  502    0  0.20767032617E+03 -0.88398693530E+03 -0.10685174901E+04  0.14022444483E+04  0.00000000000E+00 0. -1.
         -3    1    3    3    0  502  0.19231416361E+03 -0.51092244348E+03 -0.63683801426E+03  0.83880220385E+03  0.00000000000E+00 0.  1.
         13    1    5    5    0    0 -0.18647522098E+03  0.78977057546E+02  0.67233800523E+02  0.21337939824E+03  0.00000000000E+00 0.  1.
        -13    1    5    5    0    0 -0.22650055997E+02  0.63795109801E+02  0.33108984789E+02  0.75359444962E+02  0.00000000000E+00 0. -1.
          5    1    6    6  503    0 -0.18293981968E+03  0.94085812979E+03 -0.13695772241E+03  0.96822544159E+03  0.47000000000E+01 0. -1.
         -5    1    6    6    0  503 -0.79193931205E+01  0.31127908164E+03 -0.52424995191E+02  0.31579717158E+03  0.47000000000E+01 0.  1.
<mgrwt>
<rscale>  0 0.14970415E+04</rscale>
<asrwt>0</asrwt>
<pdfrwt beam="1">  1        2 0.43140027E+00 0.14970415E+04</pdfrwt>
<pdfrwt beam="2">  1       -2 0.15533944E+00 0.14970415E+04</pdfrwt>
<totfact> 0.59354849E-01</totfact>
</mgrwt>
</event>
<event>
12    1  0.3127365E-008  0.6668885E+03  0.7818608E-02  0.9775595E-01
          2   -1    0    0  501    0  0.00000000000E+00  0.00000000000E+00  0.64738867669E+03  0.64738867669E+03  0.00000000000E+00 0. -1.
         -2   -1    0    0    0  501 -0.00000000000E+00 -0.00000000000E+00 -0.81144102065E+03  0.81144102065E+03  0.00000000000E+00 0.  1.
         23    2    1    2    0    0  0.51124050465E+03 -0.17925217188E+03  0.18283696897E+03  0.57919768085E+03  0.92425113271E+02 0.  0.
    5000000    2    1    2    0    0 -0.51124050465E+03  0.17925217188E+03 -0.34688931294E+03  0.87963201648E+03  0.59993507505E+03 0.  0.
         23    2    4    4    0    0 -0.30429959209E+03 -0.17895874779E+03 -0.25880048442E+03  0.44687461582E+03  0.89970864045E+02 0.  0.
         23    2    4    4    0    0 -0.20694091256E+03  0.35821091967E+03 -0.88088828522E+02  0.43275740066E+03  0.91540820697E+02 0.  0.
          4    1    3    3  502    0  0.41137629946E+03 -0.17483677726E+03  0.17081961580E+03  0.47851614349E+03  0.00000000000E+00 0. -1.
         -4    1    3    3    0  502  0.99864205194E+02 -0.44153946226E+01  0.12017353169E+02  0.10068153736E+03  0.00000000000E+00 0.  1.
         13    1    5    5    0    0 -0.18356796510E+03 -0.15663649798E+03 -0.16421852379E+03  0.29189024284E+03  0.00000000000E+00 0.  1.
        -13    1    5    5    0    0 -0.12073162699E+03 -0.22322249805E+02 -0.94581960622E+02  0.15498437298E+03  0.00000000000E+00 0. -1.
          5    1    6    6  503    0 -0.15654513927E+03  0.18556101095E+03 -0.64975911619E+02  0.25136274287E+03  0.47000000000E+01 0. -1.
         -5    1    6    6    0  503 -0.50395773296E+02  0.17264990872E+03 -0.23112916902E+02  0.18139465779E+03  0.47000000000E+01 0.  1.
<mgrwt>
<rscale>  0 0.66688848E+03</rscale>
<asrwt>0</asrwt>
<pdfrwt beam="1">  1        2 0.99598258E-01 0.66688848E+03</pdfrwt>
<pdfrwt beam="2">  1       -2 0.12483708E+00 0.66688848E+03</pdfrwt>
<totfact> 0.22205341E+01</totfact>
</mgrwt>
</event>
<event>
12    1  0.3127365E-008  0.7356028E+03  0.7818608E-02  0.9658212E-01
         -2   -1    0    0    0  501 -0.00000000000E+00  0.00000000000E+00  0.34362521693E+03  0.34362521693E+03  0.00000000000E+00 0.  1.
          2   -1    0    0  501    0  0.00000000000E+00 -0.00000000000E+00 -0.16215497649E+04  0.16215497649E+04  0.00000000000E+00 0. -1.
         23    2    1    2    0    0  0.61717289759E+03 -0.73728227373E+02 -0.56267714204E+03  0.84358442273E+03  0.93224862955E+02 0.  0.
    5000000    2    1    2    0    0 -0.61717289759E+03  0.73728227373E+02 -0.71524740594E+03  0.11215905591E+04  0.60004024325E+03 0.  0.
         23    2    4    4    0    0 -0.66445572275E+03  0.19525806041E+03 -0.52548905028E+03  0.87412828209E+03  0.91292901881E+02 0.  0.
         23    2    4    4    0    0  0.47282825157E+02 -0.12152983304E+03 -0.18975835566E+03  0.24746227701E+03  0.90687260012E+02 0.  0.
          3    1    3    3  502    0  0.31980739137E+03 -0.84153980091E+02 -0.28380168646E+03  0.43577753176E+03  0.00000000000E+00 0. -1.
         -3    1    3    3    0  502  0.29736550622E+03  0.10425752718E+02 -0.27887545557E+03  0.40780689098E+03  0.00000000000E+00 0.  1.
         11    1    5    5    0    0 -0.31470369316E+03  0.11581670419E+03 -0.20428995271E+03  0.39266564433E+03  0.00000000000E+00 0.  1.
        -11    1    5    5    0    0 -0.34975202959E+03  0.79441356224E+02 -0.32119909757E+03  0.48146263776E+03  0.00000000000E+00 0. -1.
          5    1    6    6  503    0  0.36049333732E+02 -0.11309351370E+02 -0.92250914803E+02  0.99798683222E+02  0.47000000000E+01 0. -1.
         -5    1    6    6    0  503  0.11233491424E+02 -0.11022048167E+03 -0.97507440857E+02  0.14766359379E+03  0.47000000000E+01 0.  1.
<mgrwt>
<rscale>  0 0.73560276E+03</rscale>
<asrwt>0</asrwt>
<pdfrwt beam="1">  1        2 0.24946919E+00 0.73560276E+03</pdfrwt>
<pdfrwt beam="2">  1       -2 0.52865419E-01 0.73560276E+03</pdfrwt>
<totfact> 0.37571276E+01</totfact>
</mgrwt>
</event>
<event>
12    1  0.3127365E-008  0.9130725E+03  0.7818608E-02  0.9409386E-01
          2   -1    0    0  501    0  0.00000000000E+00  0.00000000000E+00  0.62265239510E+03  0.62265239510E+03  0.00000000000E+00 0. -1.
         -2   -1    0    0    0  501 -0.00000000000E+00 -0.00000000000E+00 -0.14181570668E+04  0.14181570668E+04  0.00000000000E+00 0.  1.
         23    2    1    2    0    0 -0.22140853762E+03 -0.78736075627E+03 -0.57147605836E+03  0.10019657255E+04  0.91606379806E+02 0.  0.
    5000000    2    1    2    0    0  0.22140853762E+03  0.78736075627E+03 -0.22402861337E+03  0.10388437364E+04  0.60004065528E+03 0.  0.
         23    2    4    4    0    0  0.41162258513E+03  0.47030486159E+03 -0.16456563661E+03  0.65234468965E+03  0.88611116329E+02 0.  0.
         23    2    4    4    0    0 -0.19021404750E+03  0.31705589468E+03 -0.59462976767E+02  0.38649904675E+03  0.95602527729E+02 0.  0.
          1    1    3    3  502    0 -0.11688692303E+03 -0.32073974203E+03 -0.28365477531E+03  0.44384295246E+03  0.00000000000E+00 0. -1.
         -1    1    3    3    0  502 -0.10452161459E+03 -0.46662101424E+03 -0.28782128305E+03  0.55812277307E+03  0.00000000000E+00 0.  1.
         13    1    5    5    0    0  0.24055696017E+03  0.30709061972E+03 -0.63560318375E+02  0.39523690855E+03  0.00000000000E+00 0.  1.
        -13    1    5    5    0    0  0.17106562496E+03  0.16321424187E+03 -0.10100531823E+03  0.25710778110E+03  0.00000000000E+00 0. -1.
          5    1    6    6  503    0 -0.44430725242E+02  0.19649235040E+02 -0.20603305225E+02  0.52978938923E+02  0.47000000000E+01 0. -1.
         -5    1    6    6    0  503 -0.14578332226E+03  0.29740665964E+03 -0.38859671542E+02  0.33352010782E+03  0.47000000000E+01 0.  1.
<mgrwt>
<rscale>  0 0.91307248E+03</rscale>
<asrwt>0</asrwt>
<pdfrwt beam="1">  1        2 0.95792677E-01 0.91307248E+03</pdfrwt>
<pdfrwt beam="2">  1       -2 0.21817801E+00 0.91307248E+03</pdfrwt>
<totfact> 0.48321708E+00</totfact>
</mgrwt>
</event>
<event>
12    1  0.3127365E-008  0.9122441E+03  0.7818608E-02  0.9410404E-01
         -2   -1    0    0    0  501 -0.00000000000E+00  0.00000000000E+00  0.58660931102E+03  0.58660931102E+03  0.00000000000E+00 0.  1.
          2   -1    0    0  501    0  0.00000000000E+00 -0.00000000000E+00 -0.15205376135E+04  0.15205376135E+04  0.00000000000E+00 0. -1.
         23    2    1    2    0    0 -0.72922524949E+03  0.42632085743E+03 -0.48840938288E+03  0.97943959727E+03  0.85083849464E+02 0.  0.
    5000000    2    1    2    0    0  0.72922524949E+03 -0.42632085743E+03 -0.44551891964E+03  0.11277073273E+04  0.59976476246E+03 0.  0.
         23    2    4    4    0    0  0.79176002267E+03 -0.40751198324E+03 -0.47116033429E+03  0.10118676330E+04  0.94520347253E+02 0.  0.
         23    2    4    4    0    0 -0.62534773177E+02 -0.18808874193E+02  0.25641414649E+02  0.11583969433E+03  0.92179070472E+02 0.  0.
          2    1    3    3  502    0 -0.32805308770E+03  0.22427786445E+03 -0.19257228346E+03  0.44159197592E+03  0.00000000000E+00 0. -1.
         -2    1    3    3    0  502 -0.40117216179E+03  0.20204299298E+03 -0.29583709942E+03  0.53784762136E+03  0.00000000000E+00 0.  1.
         11    1    5    5    0    0  0.49966320455E+03 -0.26234729438E+03 -0.24667468550E+03  0.61590406827E+03  0.00000000000E+00 0.  1.
        -11    1    5    5    0    0  0.29209681812E+03 -0.14516468886E+03 -0.22448564879E+03  0.39596356469E+03  0.00000000000E+00 0. -1.
          5    1    6    6  503    0 -0.73072974970E+02 -0.19671343898E+02 -0.11726123480E+02  0.76721661958E+02  0.47000000000E+01 0. -1.
         -5    1    6    6    0  503  0.10538201793E+02  0.86246970485E+00  0.37367538129E+02  0.39118032374E+02  0.47000000000E+01 0.  1.
<mgrwt>
<rscale>  0 0.91224405E+03</rscale>
<asrwt>0</asrwt>
<pdfrwt beam="1">  1        2 0.23392886E+00 0.91224405E+03</pdfrwt>
<pdfrwt beam="2">  1       -2 0.90247588E-01 0.91224405E+03</pdfrwt>
<totfact> 0.13048360E+01</totfact>
</mgrwt>
</event>
<event>
12    1  0.3127365E-008  0.6008726E+03  0.7818608E-02  0.9903597E-01
         -2   -1    0    0    0  501 -0.00000000000E+00  0.00000000000E+00  0.20265512378E+04  0.20265512378E+04  0.00000000000E+00 0.  1.
          2   -1    0    0  501    0  0.00000000000E+00 -0.00000000000E+00 -0.18908006511E+03  0.18908006511E+03  0.00000000000E+00 0. -1.
         23    2    1    2    0    0  0.19331008608E-01  0.45389541519E+03  0.50365049159E+03  0.68432077322E+03  0.92790380294E+02 0.  0.
    5000000    2    1    2    0    0 -0.19331008608E-01 -0.45389541519E+03  0.13338206811E+04  0.15313105297E+04  0.59984438039E+03 0.  0.
         23    2    4    4    0    0  0.19854737574E+03  0.27845764508E+02  0.45234147666E+03  0.50322487634E+03  0.91793342078E+02 0.  0.
         23    2    4    4    0    0 -0.19856670675E+03 -0.48174117970E+03  0.88147920441E+03  0.10280856533E+04  0.91930525397E+02 0.  0.
          3    1    3    3  502    0 -0.31645443775E+02  0.84898198547E+02  0.12781800363E+03  0.15667348302E+03  0.00000000000E+00 0. -1.
         -3    1    3    3    0  502  0.31664774784E+02  0.36899721664E+03  0.37583248796E+03  0.52764729020E+03  0.00000000000E+00 0.  1.
         13    1    5    5    0    0  0.13520850559E+03  0.50897695158E+02  0.23681557498E+03  0.27740499619E+03  0.00000000000E+00 0. -1.
        -13    1    5    5    0    0  0.63338870147E+02 -0.23051930650E+02  0.21552590168E+03  0.22581988016E+03  0.00000000000E+00 0.  1.
          5    1    6    6  503    0 -0.15372343332E+03 -0.25545193473E+03  0.51070392329E+03  0.59137735176E+03  0.47000000000E+01 0. -1.
         -5    1    6    6    0  503 -0.44843273432E+02 -0.22628924496E+03  0.37077528112E+03  0.43670830156E+03  0.47000000000E+01 0.  1.
<mgrwt>
<rscale>  0 0.60087263E+03</rscale>
<asrwt>0</asrwt>
<pdfrwt beam="1">  1        2 0.29089242E-01 0.60087263E+03</pdfrwt>
<pdfrwt beam="2">  1       -2 0.31177710E+00 0.60087263E+03</pdfrwt>
<totfact> 0.52747915E+00</totfact>
</mgrwt>
</event>
<event>
12    1  0.3127365E-008  0.1583977E+04  0.7818608E-02  0.8830452E-01
          2   -1    0    0  501    0  0.00000000000E+00  0.00000000000E+00  0.37672719289E+04  0.37672719289E+04  0.00000000000E+00 0. -1.
         -2   -1    0    0    0  501 -0.00000000000E+00 -0.00000000000E+00 -0.22142958474E+04  0.22142958474E+04  0.00000000000E+00 0.  1.
         23    2    1    2    0    0 -0.98741533218E+03 -0.12199960304E+04  0.32396227331E+04  0.36007751651E+04  0.83946320977E+02 0.  0.
    5000000    2    1    2    0    0  0.98741533218E+03  0.12199960304E+04 -0.16866466515E+04  0.23807926111E+04  0.60001431428E+03 0.  0.
         23    2    4    4    0    0  0.43254216351E+03  0.75393390079E+03 -0.12639134528E+04  0.15368739067E+04  0.94842705896E+02 0.  0.
         23    2    4    4    0    0  0.55487316867E+03  0.46606212966E+03 -0.42273319876E+03  0.84391870444E+03  0.91636675810E+02 0.  0.
          3    1    3    3  502    0 -0.29879903567E+03 -0.35974292065E+03  0.88013820148E+03  0.99666397867E+03  0.00000000000E+00 0. -1.
         -3    1    3    3    0  502 -0.68861629651E+03 -0.86025310979E+03  0.23594845316E+04  0.26041111865E+04  0.00000000000E+00 0.  1.
         13    1    5    5    0    0  0.20355796891E+03  0.42403994673E+03 -0.73843646174E+03  0.87551934939E+03  0.00000000000E+00 0. -1.
        -13    1    5    5    0    0  0.22898419459E+03  0.32989395406E+03 -0.52547699104E+03  0.66135455726E+03  0.00000000000E+00 0.  1.
          5    1    6    6  503    0  0.19297092092E+03  0.13149452577E+03 -0.17778751009E+03  0.29352866192E+03  0.47000000000E+01 0. -1.
         -5    1    6    6    0  503  0.36190224775E+03  0.33456760389E+03 -0.24494568867E+03  0.55039004251E+03  0.47000000000E+01 0.  1.
<mgrwt>
<rscale>  0 0.15839773E+04</rscale>
<asrwt>0</asrwt>
<pdfrwt beam="1">  1        2 0.57958030E+00 0.15839773E+04</pdfrwt>
<pdfrwt beam="2">  1       -2 0.34066090E+00 0.15839773E+04</pdfrwt>
<totfact> 0.86877389E-03</totfact>
</mgrwt>
</event>
<event>
12    1  0.3127365E-008  0.5458989E+03  0.7818608E-02  0.1002448E+00
         -2   -1    0    0    0  501 -0.00000000000E+00  0.00000000000E+00  0.12425838144E+03  0.12425838144E+03  0.00000000000E+00 0. -1.
          2   -1    0    0  501    0  0.00000000000E+00 -0.00000000000E+00 -0.29222919807E+04  0.29222919807E+04  0.00000000000E+00 0.  1.
         23    2    1    2    0    0  0.31022234379E+03 -0.22874863277E+03 -0.48705298883E+03  0.62805201356E+03  0.93085327709E+02 0.  0.
    5000000    2    1    2    0    0 -0.31022234379E+03  0.22874863277E+03 -0.23109806104E+04  0.24184983486E+04  0.59994919844E+03 0.  0.
         23    2    4    4    0    0 -0.33992784093E+03 -0.98961312021E+02 -0.10353757782E+04  0.10980301657E+04  0.91230282117E+02 0.  0.
         23    2    4    4    0    0  0.29705497141E+02  0.32770994479E+03 -0.12756048322E+04  0.13204681829E+04  0.90511377857E+02 0.  0.
          3    1    3    3  502    0  0.22135397083E+03 -0.10748344920E+03 -0.30943811480E+03  0.39535075457E+03  0.00000000000E+00 0. -1.
         -3    1    3    3    0  502  0.88868372966E+02 -0.12126518356E+03 -0.17761487403E+03  0.23270125899E+03  0.00000000000E+00 0.  1.
         11    1    5    5    0    0 -0.26899672502E+03 -0.75106951199E+02 -0.68490472053E+03  0.73965854852E+03  0.00000000000E+00 0.  1.
        -11    1    5    5    0    0 -0.70931115910E+02 -0.23854360822E+02 -0.35047105765E+03  0.35837161716E+03  0.00000000000E+00 0. -1.
          5    1    6    6  503    0  0.18890906180E+02  0.75358425446E+01 -0.80377967030E+02  0.83044342631E+02  0.47000000000E+01 0. -1.
         -5    1    6    6    0  503  0.10814590960E+02  0.32017410224E+03 -0.11952268652E+04  0.12374238403E+04  0.47000000000E+01 0.  1.
<mgrwt>
<rscale>  0 0.54589894E+03</rscale>
<asrwt>0</asrwt>
<pdfrwt beam="1">  1        2 0.44958336E+00 0.54589894E+03</pdfrwt>
<pdfrwt beam="2">  1       -2 0.19116675E-01 0.54589894E+03</pdfrwt>
<totfact> 0.49008641E+01</totfact>
</mgrwt>
</event>
<event>
12    1  0.3127365E-008  0.1004799E+04  0.7818608E-02  0.9303297E-01
          1   -1    0    0  501    0  0.00000000000E+00  0.00000000000E+00  0.20181731969E+04  0.20181731969E+04  0.00000000000E+00 0. -1.
         -1   -1    0    0    0  501 -0.00000000000E+00 -0.00000000000E+00 -0.52571333408E+03  0.52571333408E+03  0.00000000000E+00 0.  1.
         23    2    1    2    0    0  0.83113874859E+03 -0.40181683386E+03  0.46285641020E+03  0.10364257438E+04  0.87714756845E+02 0.  0.
    5000000    2    1    2    0    0 -0.83113874859E+03  0.40181683386E+03  0.10296034526E+04  0.15074607871E+04  0.60008863328E+03 0.  0.
         23    2    4    4    0    0 -0.75595196329E+03  0.92034189879E+02  0.67301270316E+03  0.10203549092E+04  0.90798564024E+02 0.  0.
         23    2    4    4    0    0 -0.75186785306E+02  0.30978264398E+03  0.35659074944E+03  0.48710587794E+03  0.92178275839E+02 0.  0.
          2    1    3    3  502    0  0.66074528825E+03 -0.29558530819E+03  0.32903140250E+03  0.79512054066E+03  0.00000000000E+00 0. -1.
         -2    1    3    3    0  502  0.17039346035E+03 -0.10623152567E+03  0.13382500770E+03  0.24130520314E+03  0.00000000000E+00 0.  1.
         11    1    5    5    0    0 -0.21285826983E+03 -0.79468940030E+01  0.21845737885E+03  0.30511542493E+03  0.00000000000E+00 0.  1.
        -11    1    5    5    0    0 -0.54309369346E+03  0.99981083882E+02  0.45455532431E+03  0.71523948427E+03  0.00000000000E+00 0. -1.
          5    1    6    6  503    0 -0.61691962065E+02  0.20991944301E+03  0.17843331390E+03  0.28236963053E+03  0.47000000000E+01 0. -1.
         -5    1    6    6    0  503 -0.13494823241E+02  0.99863200971E+02  0.17815743555E+03  0.20473624741E+03  0.47000000000E+01 0.  1.
<mgrwt>
<rscale>  0 0.10047989E+04</rscale>
<asrwt>0</asrwt>
<pdfrwt beam="1">  1        1 0.31048818E+00 0.10047989E+04</pdfrwt>
<pdfrwt beam="2">  1       -1 0.80878975E-01 0.10047989E+04</pdfrwt>
<totfact> 0.44624323E+00</totfact>
</mgrwt>
</event>
<event>
12    1  0.3127365E-008  0.1675524E+04  0.7818608E-02  0.8775448E-01
          2   -1    0    0  501    0  0.00000000000E+00  0.00000000000E+00  0.18230627268E+04  0.18230627268E+04  0.00000000000E+00 0. -1.
         -2   -1    0    0    0  501 -0.00000000000E+00 -0.00000000000E+00 -0.15840496580E+04  0.15840496580E+04  0.00000000000E+00 0.  1.
         23    2    1    2    0    0  0.11761492484E+04 -0.11349221605E+04  0.30350185719E+03  0.16647291855E+04  0.88512817928E+02 0.  0.
    5000000    2    1    2    0    0 -0.11761492484E+04  0.11349221605E+04 -0.64488788410E+02  0.17423831993E+04  0.60030412662E+03 0.  0.
         23    2    4    4    0    0  0.29705385576E+02  0.16075228018E+03  0.13583687058E+02  0.18767703308E+03  0.91183587769E+02 0.  0.
         23    2    4    4    0    0 -0.12058546339E+04  0.97416988033E+03 -0.78072475468E+02  0.15547061662E+04  0.89014593304E+02 0.  0.
          4    1    3    3  502    0  0.70677009874E+03 -0.65296506743E+03  0.21743129966E+03  0.98649060909E+03  0.00000000000E+00 0. -1.
         -4    1    3    3    0  502  0.46937914964E+03 -0.48195709308E+03  0.86070557537E+02  0.67823857643E+03  0.00000000000E+00 0.  1.
         11    1    5    5    0    0  0.24464799860E+02  0.10699394947E+03  0.51945416726E+02  0.12142717148E+03  0.00000000000E+00 0. -1.
        -11    1    5    5    0    0  0.52405857165E+01  0.53758330709E+02 -0.38361729668E+02  0.66249861602E+02  0.00000000000E+00 0.  1.
          5    1    6    6  503    0 -0.99842454704E+03  0.84392685903E+03 -0.52091314454E+02  0.13083576402E+04  0.47000000000E+01 0. -1.
         -5    1    6    6    0  503 -0.20743008691E+03  0.13024302131E+03 -0.25981161014E+02  0.24634852604E+03  0.47000000000E+01 0.  1.
<mgrwt>
<rscale>  0 0.16755244E+04</rscale>
<asrwt>0</asrwt>
<pdfrwt beam="1">  1        2 0.28047119E+00 0.16755244E+04</pdfrwt>
<pdfrwt beam="2">  1       -2 0.24369995E+00 0.16755244E+04</pdfrwt>
<totfact> 0.54302351E-01</totfact>
</mgrwt>
</event>
<event>
12    1  0.3127365E-008  0.5457287E+03  0.7818608E-02  0.1002487E+00
         -2   -1    0    0    0  501 -0.00000000000E+00  0.00000000000E+00  0.15853055381E+03  0.15853055381E+03  0.00000000000E+00 0.  1.
          2   -1    0    0  501    0  0.00000000000E+00 -0.00000000000E+00 -0.20142072719E+04  0.20142072719E+04  0.00000000000E+00 0. -1.
         23    2    1    2    0    0 -0.29037803729E+03 -0.26681829876E+03 -0.55097743736E+03  0.68354602099E+03  0.90264152542E+02 0.  0.
    5000000    2    1    2    0    0  0.29037803729E+03  0.26681829876E+03 -0.13046992807E+04  0.14891918047E+04  0.59995050547E+03 0.  0.
         23    2    4    4    0    0 -0.15878449160E+03  0.14805763635E+03 -0.52091232548E+03  0.57291388718E+03  0.98727366175E+02 0.  0.
         23    2    4    4    0    0  0.44916252889E+03  0.11876066241E+03 -0.78378695520E+03  0.91627791749E+03  0.96913150042E+02 0.  0.
          3    1    3    3  502    0 -0.25226089454E+03 -0.21795242934E+03 -0.50984552291E+03  0.60916440934E+03  0.00000000000E+00 0. -1.
         -3    1    3    3    0  502 -0.38117142751E+02 -0.48865869421E+02 -0.41131914451E+02  0.74381611654E+02  0.00000000000E+00 0.  1.
         13    1    5    5    0    0 -0.15282532242E+03  0.11700538468E+03 -0.49790010610E+03  0.53380741365E+03  0.00000000000E+00 0.  1.
        -13    1    5    5    0    0 -0.59591691840E+01  0.31052251669E+02 -0.23012219387E+02  0.39106473533E+02  0.00000000000E+00 0. -1.
          5    1    6    6  503    0  0.98161882140E+02  0.62604466898E+02 -0.15440925758E+03  0.19344090365E+03  0.47000000000E+01 0. -1.
         -5    1    6    6    0  503  0.35100064675E+03  0.56156195515E+02 -0.62937769762E+03  0.72283701384E+03  0.47000000000E+01 0.  1.
<mgrwt>
<rscale>  0 0.54572873E+03</rscale>
<asrwt>0</asrwt>
<pdfrwt beam="1">  1        2 0.30987804E+00 0.54572873E+03</pdfrwt>
<pdfrwt beam="2">  1       -2 0.24389316E-01 0.54572873E+03</pdfrwt>
<totfact> 0.10351591E+02</totfact>
</mgrwt>
</event>
<event>
12    1  0.3127365E-008  0.9118337E+03  0.7818608E-02  0.9410908E-01
          2   -1    0    0  501    0  0.00000000000E+00  0.00000000000E+00  0.21354942414E+04  0.21354942414E+04  0.00000000000E+00 0. -1.
         -2   -1    0    0    0  501 -0.00000000000E+00 -0.00000000000E+00 -0.50167863561E+03  0.50167863561E+03  0.00000000000E+00 0.  1.
         23    2    1    2    0    0  0.82111965919E+03  0.63619869857E+02  0.13421973742E+04  0.15772859285E+04  0.89733641275E+02 0.  0.
    5000000    2    1    2    0    0 -0.82111965919E+03 -0.63619869857E+02  0.29161823162E+03  0.10598869485E+04  0.60002847277E+03 0.  0.
         23    2    4    4    0    0 -0.87060943890E+03 -0.13992060966E+03  0.21712938314E+03  0.91303951886E+03  0.94643657328E+02 0.  0.
         23    2    4    4    0    0  0.49489779713E+02  0.76300739801E+02  0.74488848480E+02  0.14684742968E+03  0.88003056007E+02 0.  0.
          3    1    3    3  502    0  0.55670137631E+03  0.83892323632E+02  0.93115441831E+03  0.10881189710E+04  0.00000000000E+00 0. -1.
         -3    1    3    3    0  502  0.26441828288E+03 -0.20272453775E+02  0.41104295590E+03  0.48916695749E+03  0.00000000000E+00 0.  1.
         11    1    5    5    0    0 -0.31893556858E+03 -0.74084980950E+02  0.12171364289E+03  0.34931746617E+03  0.00000000000E+00 0. -1.
        -11    1    5    5    0    0 -0.55167387032E+03 -0.65835628708E+02  0.95415740256E+02  0.56372205269E+03  0.00000000000E+00 0.  1.
          5    1    6    6  503    0  0.57950086203E+02  0.30492625323E+02  0.75455425831E+02  0.10001811825E+03  0.47000000000E+01 0. -1.
         -5    1    6    6    0  503 -0.84603064904E+01  0.45808114478E+02 -0.96657735126E+00  0.46829311438E+02  0.47000000000E+01 0.  1.
<mgrwt>
<rscale>  0 0.91183368E+03</rscale>
<asrwt>0</asrwt>
<pdfrwt beam="1">  1        2 0.32853757E+00 0.91183368E+03</pdfrwt>
<pdfrwt beam="2">  1       -2 0.77181330E-01 0.91183368E+03</pdfrwt>
<totfact> 0.85368625E+00</totfact>
</mgrwt>
</event>
<event>
12    1  0.3127365E-008  0.6591349E+03  0.7818608E-02  0.9789788E-01
         -2   -1    0    0    0  501 -0.00000000000E+00  0.00000000000E+00  0.70432206933E+03  0.70432206933E+03  0.00000000000E+00 0.  1.
          2   -1    0    0  501    0  0.00000000000E+00 -0.00000000000E+00 -0.13513655660E+04  0.13513655660E+04  0.00000000000E+00 0. -1.
         23    2    1    2    0    0  0.54090305841E+03  0.12710306532E+03 -0.10136287903E+04  0.11595501147E+04  0.91552368871E+02 0.  0.
    5000000    2    1    2    0    0 -0.54090305841E+03 -0.12710306532E+03  0.36658529358E+03  0.89613752064E+03  0.59995530717E+03 0.  0.
         23    2    4    4    0    0 -0.42925029415E+03 -0.30914578788E+03  0.38778945537E+03  0.66224482042E+03  0.91436356485E+02 0.  0.
         23    2    4    4    0    0 -0.11165276426E+03  0.18204272255E+03 -0.21204161789E+02  0.23389270022E+03  0.93006914451E+02 0.  0.
          1    1    3    3  502    0  0.18804905768E+03  0.65655317782E+02 -0.44470051816E+03  0.48726955549E+03  0.00000000000E+00 0. -1.
         -1    1    3    3    0  502  0.35285400073E+03  0.61447747543E+02 -0.56892827209E+03  0.67228055921E+03  0.00000000000E+00 0.  1.
         13    1    5    5    0    0 -0.29221524417E+03 -0.21824160937E+03  0.31693701398E+03  0.48318549214E+03  0.00000000000E+00 0. -1.
        -13    1    5    5    0    0 -0.13703504998E+03 -0.90904178506E+02  0.70852441394E+02  0.17905932828E+03  0.00000000000E+00 0.  1.
          5    1    6    6  503    0 -0.24809468365E+02  0.12552638039E+03 -0.69954044467E-01  0.12804091841E+03  0.47000000000E+01 0. -1.
         -5    1    6    6    0  503 -0.86843295899E+02  0.56516342160E+02 -0.21134207745E+02  0.10585178180E+03  0.47000000000E+01 0.  1.
<mgrwt>
<rscale>  0 0.65913490E+03</rscale>
<asrwt>0</asrwt>
<pdfrwt beam="1">  1        2 0.20790239E+00 0.65913490E+03</pdfrwt>
<pdfrwt beam="2">  1       -2 0.10835724E+00 0.65913490E+03</pdfrwt>
<totfact> 0.10884338E+01</totfact>
</mgrwt>
</event>
<event>
12    1  0.3127365E-008  0.7318739E+03  0.7818608E-02  0.9664224E-01
          1   -1    0    0  501    0  0.00000000000E+00  0.00000000000E+00  0.47112829721E+03  0.47112829721E+03  0.00000000000E+00 0. -1.
         -1   -1    0    0    0  501 -0.00000000000E+00 -0.00000000000E+00 -0.11637840066E+04  0.11637840066E+04  0.00000000000E+00 0.  1.
         23    2    1    2    0    0 -0.20782383867E+03 -0.57501534668E+03 -0.36351747567E+03  0.71715015906E+03  0.91246910541E+02 0.  0.
    5000000    2    1    2    0    0  0.20782383867E+03  0.57501534668E+03 -0.32913823368E+03  0.91776214471E+03  0.60010164185E+03 0.  0.
         23    2    4    4    0    0  0.37317432098E+03  0.19072279350E+03 -0.15459328319E+03  0.45536933184E+03  0.88475348958E+02 0.  0.
         23    2    4    4    0    0 -0.16535048230E+03  0.38429255318E+03 -0.17454495049E+03  0.46239281287E+03  0.91211979595E+02 0.  0.
          4    1    3    3  502    0 -0.12054703962E+03 -0.20635970362E+03 -0.15249979843E+03  0.28349974349E+03  0.00000000000E+00 0. -1.
         -4    1    3    3    0  502 -0.87276799054E+02 -0.36865564307E+03 -0.21101767724E+03  0.43365041557E+03  0.00000000000E+00 0.  1.
         13    1    5    5    0    0  0.10860447483E+02 -0.54686096339E+01  0.54893477680E+01  0.13341212455E+02  0.00000000000E+00 0.  1.
        -13    1    5    5    0    0  0.36231387350E+03  0.19619140314E+03 -0.16008263095E+03  0.44202811938E+03  0.00000000000E+00 0. -1.
          5    1    6    6  503    0 -0.51156656743E+02  0.18491332869E+03 -0.11949486456E+03  0.22607754269E+03  0.47000000000E+01 0. -1.
         -5    1    6    6    0  503 -0.11419382556E+03  0.19937922449E+03 -0.55050085936E+02  0.23631527017E+03  0.47000000000E+01 0.  1.
<mgrwt>
<rscale>  0 0.73187387E+03</rscale>
<asrwt>0</asrwt>
<pdfrwt beam="1">  1        1 0.72481277E-01 0.73187387E+03</pdfrwt>
<pdfrwt beam="2">  1       -1 0.17904369E+00 0.73187387E+03</pdfrwt>
<totfact> 0.10503301E+01</totfact>
</mgrwt>
</event>
<event>
12    1  0.3127365E-008  0.6046277E+03  0.7818608E-02  0.9895851E-01
         -2   -1    0    0    0  501 -0.00000000000E+00  0.00000000000E+00  0.40462222878E+03  0.40462222878E+03  0.00000000000E+00 0.  1.
          2   -1    0    0  501    0  0.00000000000E+00 -0.00000000000E+00 -0.99219632379E+03  0.99219632379E+03  0.00000000000E+00 0. -1.
         23    2    1    2    0    0 -0.44848728235E+03 -0.16493872682E+03 -0.12998364660E+03  0.50367718425E+03  0.91920245435E+02 0.  0.
    5000000    2    1    2    0    0  0.44848728235E+03  0.16493872682E+03 -0.45759044841E+03  0.89314136832E+03  0.59997238211E+03 0.  0.
         23    2    4    4    0    0 -0.76267644570E+02  0.17476289277E+03 -0.23549631122E+03  0.31607934196E+03  0.89937842546E+02 0.  0.
         23    2    4    4    0    0  0.52475492692E+03 -0.98241659537E+01 -0.22209413720E+03  0.57706202636E+03  0.90611968995E+02 0.  0.
          1    1    3    3  502    0 -0.61562742895E+02 -0.12524560555E+02 -0.49772942553E+02  0.80150993383E+02  0.00000000000E+00 0. -1.
         -1    1    3    3    0  502 -0.38692453945E+03 -0.15241416626E+03 -0.80210704044E+02  0.42352619087E+03  0.00000000000E+00 0.  1.
         13    1    5    5    0    0 -0.10588840818E+02  0.10790191756E+03 -0.80840681908E+02  0.13524112989E+03  0.00000000000E+00 0. -1.
        -13    1    5    5    0    0 -0.65678803752E+02  0.66860975209E+02 -0.15465562931E+03  0.18083821207E+03  0.00000000000E+00 0.  1.
          5    1    6    6  503    0  0.38042129885E+03  0.19973258058E+02 -0.12690954667E+03  0.40155624598E+03  0.47000000000E+01 0. -1.
         -5    1    6    6    0  503  0.14433362807E+03 -0.29797424012E+02 -0.95184590532E+02  0.17550578037E+03  0.47000000000E+01 0.  1.
<mgrwt>
<rscale>  0 0.60462774E+03</rscale>
<asrwt>0</asrwt>
<pdfrwt beam="1">  1        2 0.15264559E+00 0.60462774E+03</pdfrwt>
<pdfrwt beam="2">  1       -2 0.62249574E-01 0.60462774E+03</pdfrwt>
<totfact> 0.62774212E+01</totfact>
</mgrwt>
</event>
<event>
12    1  0.3127365E-008  0.1535334E+04  0.7818608E-02  0.8861290E-01
          1   -1    0    0  501    0  0.00000000000E+00  0.00000000000E+00  0.21675730635E+04  0.21675730635E+04  0.00000000000E+00 0. -1.
         -1   -1    0    0    0  501 -0.00000000000E+00 -0.00000000000E+00 -0.11438857730E+04  0.11438857730E+04  0.00000000000E+00 0.  1.
         23    2    1    2    0    0 -0.73760382089E+03  0.13238489295E+04  0.44862558187E+03  0.15831113230E+04  0.91329971913E+02 0.  0.
    5000000    2    1    2    0    0  0.73760382089E+03 -0.13238489295E+04  0.57506170868E+03  0.17283475134E+04  0.59987813250E+03 0.  0.
         23    2    4    4    0    0  0.35349702874E+03 -0.96212936008E+03  0.13927313447E+03  0.10378251760E+04  0.83851267592E+02 0.  0.
         23    2    4    4    0    0  0.38410679215E+03 -0.36171956937E+03  0.43578857420E+03  0.69052233745E+03  0.92359853165E+02 0.  0.
          3    1    3    3  502    0 -0.16515655691E+03  0.27019008702E+03  0.13052435355E+03  0.34251420158E+03  0.00000000000E+00 0. -1.
         -3    1    3    3    0  502 -0.57244726398E+03  0.10536588424E+04  0.31810122832E+03  0.12405971214E+04  0.00000000000E+00 0.  1.
         11    1    5    5    0    0  0.72540090099E+02 -0.18343158674E+03 -0.59851461677E+01  0.19734496107E+03  0.00000000000E+00 0. -1.
        -11    1    5    5    0    0  0.28095693864E+03 -0.77869777335E+03  0.14525828064E+03  0.84048021492E+03  0.00000000000E+00 0.  1.
          5    1    6    6  503    0  0.17925415220E+03 -0.13689552968E+03  0.23660718905E+03  0.32692122758E+03  0.47000000000E+01 0. -1.
         -5    1    6    6    0  503  0.20485263995E+03 -0.22482403968E+03  0.19918138515E+03  0.36360110988E+03  0.47000000000E+01 0.  1.
<mgrwt>
<rscale>  0 0.15353338E+04</rscale>
<asrwt>0</asrwt>
<pdfrwt beam="1">  1        1 0.33347278E+00 0.15353338E+04</pdfrwt>
<pdfrwt beam="2">  1       -1 0.17598243E+00 0.15353338E+04</pdfrwt>
<totfact> 0.48115590E-01</totfact>
</mgrwt>
</event>
<event>
12    1  0.3127365E-008  0.5572114E+03  0.7818608E-02  0.9998384E-01
          2   -1    0    0  501    0  0.00000000000E+00  0.00000000000E+00  0.19976781450E+04  0.19976781450E+04  0.00000000000E+00 0. -1.
         -2   -1    0    0    0  501 -0.00000000000E+00 -0.00000000000E+00 -0.16673085314E+03  0.16673085314E+03  0.00000000000E+00 0.  1.
         23    2    1    2    0    0  0.28192128774E+03 -0.29288466250E+03  0.80401843568E+03  0.90767778776E+03  0.11032807200E+03 0.  0.
    5000000    2    1    2    0    0 -0.28192128774E+03  0.29288466250E+03  0.10269288561E+04  0.12567312103E+04  0.59960772297E+03 0.  0.
         23    2    4    4    0    0 -0.49549835632E+02  0.42417830367E+03  0.70232826258E+03  0.82686098615E+03  0.89731167873E+02 0.  0.
         23    2    4    4    0    0 -0.23237145210E+03 -0.13129364117E+03  0.32460059355E+03  0.42987022418E+03  0.90489515047E+02 0.  0.
          1    1    3    3  502    0  0.11936732762E+03 -0.16526721228E+03  0.29778080547E+03  0.36088116945E+03  0.00000000000E+00 0. -1.
         -1    1    3    3    0  502  0.16255396011E+03 -0.12761745021E+03  0.50623763022E+03  0.54679661831E+03  0.00000000000E+00 0.  1.
         13    1    5    5    0    0 -0.66783723602E+02  0.23403752698E+03  0.43327628887E+03  0.49695268615E+03  0.00000000000E+00 0. -1.
        -13    1    5    5    0    0  0.17233887970E+02  0.19014077669E+03  0.26905197371E+03  0.32990830000E+03  0.00000000000E+00 0.  1.
          5    1    6    6  503    0 -0.25683456390E+02 -0.30073114905E+01  0.82690539974E+02  0.86766924895E+02  0.47000000000E+01 0. -1.
         -5    1    6    6    0  503 -0.20668799571E+03 -0.12828632968E+03  0.24191005358E+03  0.34310329928E+03  0.47000000000E+01 0.  1.
<mgrwt>
<rscale>  0 0.55721138E+03</rscale>
<asrwt>0</asrwt>
<pdfrwt beam="1">  1        2 0.30733508E+00 0.55721138E+03</pdfrwt>
<pdfrwt beam="2">  1       -2 0.25650902E-01 0.55721138E+03</pdfrwt>
<totfact> 0.96361146E+01</totfact>
</mgrwt>
</event>
<event>
12    1  0.3127365E-008  0.8398573E+03  0.7818608E-02  0.9504052E-01
         -1   -1    0    0    0  501 -0.00000000000E+00  0.00000000000E+00  0.45176742615E+03  0.45176742615E+03  0.00000000000E+00 0.  1.
          1   -1    0    0  501    0  0.00000000000E+00 -0.00000000000E+00 -0.26564339376E+04  0.26564339376E+04  0.00000000000E+00 0. -1.
         23    2    1    2    0    0 -0.73745004760E+03 -0.67921245916E+02 -0.19992731427E+04  0.21338253142E+04  0.87587122647E+02 0.  0.
    5000000    2    1    2    0    0  0.73745004760E+03  0.67921245916E+02 -0.20539336880E+03  0.97437604960E+03  0.59897945019E+03 0.  0.
         23    2    4    4    0    0 -0.10319522361E+02 -0.13590615238E+03 -0.88561992446E+02  0.18597204223E+03  0.90362598379E+02 0.  0.
         23    2    4    4    0    0  0.74776956996E+03  0.20382739830E+03 -0.11683137635E+03  0.78840400738E+03  0.85008060195E+02 0.  0.
          1    1    3    3  502    0 -0.22220106536E+03 -0.29052998054E+02 -0.72260351314E+03  0.75655351915E+03  0.00000000000E+00 0. -1.
         -1    1    3    3    0  502 -0.51524898223E+03 -0.38868247862E+02 -0.12766696295E+04  0.13772717950E+04  0.00000000000E+00 0.  1.
         13    1    5    5    0    0  0.25819226589E+02 -0.11713648850E+03 -0.50210921824E+02  0.13003355748E+03  0.00000000000E+00 0.  1.
        -13    1    5    5    0    0 -0.36138748950E+02 -0.18769663884E+02 -0.38351070622E+02  0.55938484748E+02  0.00000000000E+00 0. -1.
          5    1    6    6  503    0  0.49013072208E+03  0.16763996250E+03 -0.10045828046E+03  0.52767910501E+03  0.47000000000E+01 0. -1.
         -5    1    6    6    0  503  0.25763884788E+03  0.36187435805E+02 -0.16373095895E+02  0.26072490237E+03  0.47000000000E+01 0.  1.
<mgrwt>
<rscale>  0 0.83985728E+03</rscale>
<asrwt>0</asrwt>
<pdfrwt beam="1">  1        1 0.40868214E+00 0.83985728E+03</pdfrwt>
<pdfrwt beam="2">  1       -1 0.69502682E-01 0.83985728E+03</pdfrwt>
<totfact> 0.23120327E+00</totfact>
</mgrwt>
</event>
<event>
12    1  0.3127365E-008  0.4108324E+03  0.7818608E-02  0.1040092E+00
         -1   -1    0    0    0  501 -0.00000000000E+00  0.00000000000E+00  0.35156116107E+03  0.35156116107E+03  0.00000000000E+00 0.  1.
          1   -1    0    0  501    0  0.00000000000E+00 -0.00000000000E+00 -0.63436930840E+03  0.63436930840E+03  0.00000000000E+00 0. -1.
         23    2    1    2    0    0 -0.10075048671E+03 -0.18117617296E+03  0.96736778117E+02  0.24647531400E+03  0.91742083869E+02 0.  0.
    5000000    2    1    2    0    0  0.10075048671E+03  0.18117617296E+03 -0.37954492545E+03  0.73945515547E+03  0.59980339303E+03 0.  0.
         23    2    4    4    0    0 -0.10756889147E+02 -0.20391734198E+03 -0.14468495887E+03  0.26607831164E+03  0.90365577407E+02 0.  0.
         23    2    4    4    0    0  0.11150737585E+03  0.38509351493E+03 -0.23485996658E+03  0.47337684382E+03  0.90529123802E+02 0.  0.
          3    1    3    3  502    0 -0.73145293683E+02 -0.16010123603E+03  0.11190253803E+03  0.20857808558E+03  0.00000000000E+00 0. -1.
         -3    1    3    3    0  502 -0.27605193022E+02 -0.21074936930E+02 -0.15165759914E+02  0.37897228423E+02  0.00000000000E+00 0.  1.
         11    1    5    5    0    0 -0.62918174229E+01 -0.16258258684E+03 -0.15338113815E+03  0.22360334982E+03  0.00000000000E+00 0.  1.
        -11    1    5    5    0    0 -0.44650717246E+01 -0.41334755135E+02  0.86961792814E+01  0.42474961821E+02  0.00000000000E+00 0. -1.
          5    1    6    6  503    0  0.49211102487E+02  0.71788966274E+02 -0.23362981668E+02  0.90240274817E+02  0.47000000000E+01 0. -1.
         -5    1    6    6    0  503  0.62296273366E+02  0.31330454866E+03 -0.21149698491E+03  0.38313656901E+03  0.47000000000E+01 0.  1.
<mgrwt>
<rscale>  0 0.41083237E+03</rscale>
<asrwt>0</asrwt>
<pdfrwt beam="1">  1        1 0.97595278E-01 0.41083237E+03</pdfrwt>
<pdfrwt beam="2">  1       -1 0.54086332E-01 0.41083237E+03</pdfrwt>
<totfact> 0.11430703E+02</totfact>
</mgrwt>
</event>
<event>
12    1  0.3127365E-008  0.1015446E+04  0.7818608E-02  0.9291764E-01
          2   -1    0    0  501    0  0.00000000000E+00  0.00000000000E+00  0.13042044918E+04  0.13042044918E+04  0.00000000000E+00 0. -1.
         -2   -1    0    0    0  501 -0.00000000000E+00 -0.00000000000E+00 -0.82438271018E+03  0.82438271018E+03  0.00000000000E+00 0.  1.
         23    2    1    2    0    0  0.86572704564E+03  0.37713872565E+03  0.13770312319E+03  0.95864501150E+03  0.91220458271E+02 0.  0.
    5000000    2    1    2    0    0 -0.86572704564E+03 -0.37713872565E+03  0.34211865839E+03  0.11699421904E+04  0.60000218051E+03 0.  0.
         23    2    4    4    0    0 -0.10805131952E+03  0.12028973440E+03 -0.22968851223E+02  0.18860666121E+03  0.94340853684E+02 0.  0.
         23    2    4    4    0    0 -0.75767572611E+03 -0.49742846006E+03  0.36508750961E+03  0.98133552922E+03  0.90680496405E+02 0.  0.
          1    1    3    3  502    0  0.60642015927E+03  0.25870314927E+03  0.53840605368E+02  0.66149190456E+03  0.00000000000E+00 0. -1.
         -1    1    3    3    0  502  0.25930688637E+03  0.11843557638E+03  0.83862517820E+02  0.29715310694E+03  0.00000000000E+00 0.  1.
         13    1    5    5    0    0 -0.90593136994E+02  0.42883587481E+02 -0.39182139593E+02  0.10761672086E+03  0.00000000000E+00 0. -1.
        -13    1    5    5    0    0 -0.17458182529E+02  0.77406146922E+02  0.16213288370E+02  0.80989940352E+02  0.00000000000E+00 0.  1.
          5    1    6    6  503    0 -0.47300840228E+03 -0.29267397047E+03  0.26805524331E+03  0.61747121802E+03  0.47000000000E+01 0. -1.
         -5    1    6    6    0  503 -0.28466732384E+03 -0.20475448958E+03  0.97032266302E+02  0.36386431121E+03  0.47000000000E+01 0.  1.
<mgrwt>
<rscale>  0 0.10154462E+04</rscale>
<asrwt>0</asrwt>
<pdfrwt beam="1">  1        2 0.20064684E+00 0.10154462E+04</pdfrwt>
<pdfrwt beam="2">  1       -2 0.12682811E+00 0.10154462E+04</pdfrwt>
<totfact> 0.75312244E+00</totfact>
</mgrwt>
</event>
<event>
12    1  0.3127365E-008  0.4346234E+03  0.7818608E-02  0.1032409E+00
          2   -1    0    0  501    0  0.00000000000E+00  0.00000000000E+00  0.11314282273E+04  0.11314282273E+04  0.00000000000E+00 0. -1.
         -2   -1    0    0    0  501 -0.00000000000E+00 -0.00000000000E+00 -0.42350790946E+03  0.42350790946E+03  0.00000000000E+00 0.  1.
         23    2    1    2    0    0  0.24754667556E+03 -0.91489895013E+02  0.84090593748E+03  0.88607292798E+03  0.91393000458E+02 0.  0.
    5000000    2    1    2    0    0 -0.24754667556E+03  0.91489895013E+02 -0.13298561965E+03  0.66886320878E+03  0.60003588189E+03 0.  0.
         23    2    4    4    0    0 -0.40816316753E+03 -0.13980268000E+02 -0.41355442516E+01  0.42016509947E+03  0.98635636887E+02 0.  0.
         23    2    4    4    0    0  0.16061649197E+03  0.10547016301E+03 -0.12885007540E+03  0.24869810930E+03  0.91251273210E+02 0.  0.
          3    1    3    3  502    0  0.21459892378E+03 -0.88824857194E+02  0.80233866582E+03  0.83527832967E+03  0.00000000000E+00 0. -1.
         -3    1    3    3    0  502  0.32947751780E+02 -0.26650378186E+01  0.38567271656E+02  0.50794598305E+02  0.00000000000E+00 0.  1.
         11    1    5    5    0    0 -0.21531456951E+03 -0.26896440901E+02  0.43028750526E+02  0.22121314552E+03  0.00000000000E+00 0.  1.
        -11    1    5    5    0    0 -0.19284859802E+03  0.12916172901E+02 -0.47164294777E+02  0.19895195396E+03  0.00000000000E+00 0. -1.
          5    1    6    6  503    0  0.15514208639E+03  0.10070857583E+03 -0.14181189845E+03  0.23311797176E+03  0.47000000000E+01 0. -1.
         -5    1    6    6    0  503  0.54744055794E+01  0.47615871784E+01  0.12961823054E+02  0.15580137541E+02  0.47000000000E+01 0.  1.
<mgrwt>
<rscale>  0 0.43462337E+03</rscale>
<asrwt>0</asrwt>
<pdfrwt beam="1">  1        2 0.17406588E+00 0.43462337E+03</pdfrwt>
<pdfrwt beam="2">  1       -2 0.65155063E-01 0.43462337E+03</pdfrwt>
<totfact> 0.47828306E+01</totfact>
</mgrwt>
</event>
<event>
12    1  0.3492248E-008  0.1524406E+04  0.7818608E-02  0.8868383E-01
         -2   -1    0    0    0  501 -0.00000000000E+00  0.00000000000E+00  0.16778102303E+04  0.16778102303E+04  0.00000000000E+00 0.  1.
          2   -1    0    0  501    0  0.00000000000E+00 -0.00000000000E+00 -0.19602534166E+04  0.19602534166E+04  0.00000000000E+00 0. -1.
         23    2    1    2    0    0  0.47864790843E+02 -0.14804080367E+04  0.82109493438E+03  0.16959941150E+04  0.91105178683E+02 0.  0.
    5000000    2    1    2    0    0 -0.47864790843E+02  0.14804080367E+04 -0.11035381208E+04  0.19420695319E+04  0.59994890544E+03 0.  0.
         23    2    4    4    0    0  0.16975827171E+03  0.24487971705E+03 -0.78710281167E+02  0.31961985593E+03  0.84720701760E+02 0.  0.
         23    2    4    4    0    0 -0.21762306255E+03  0.12355283197E+04 -0.10248278396E+04  0.16224496759E+04  0.90447907653E+02 0.  0.
          3    1    3    3  502    0  0.70607547803E+02 -0.88817483026E+03  0.47542910482E+03  0.10098875129E+04  0.00000000000E+00 0. -1.
         -3    1    3    3    0  502 -0.22742756960E+02 -0.59223320648E+03  0.34566582956E+03  0.68610660219E+03  0.00000000000E+00 0.  1.
         13    1    5    5    0    0  0.13748660957E+03  0.24073252700E+03 -0.69551902684E+02  0.28581844680E+03  0.00000000000E+00 0.  1.
        -13    1    5    5    0    0  0.32271662134E+02  0.41471900495E+01 -0.91583784821E+01  0.33801409122E+02  0.00000000000E+00 0. -1.
          5    1    6    6  503    0 -0.17026550251E+03  0.84594425876E+03 -0.65722557588E+03  0.10847025297E+04  0.47000000000E+01 0.  1.
         -5    1    6    6    0  503 -0.47357560042E+02  0.38958406093E+03 -0.36760226372E+03  0.53774714626E+03  0.47000000000E+01 0. -1.
<mgrwt>
<rscale>  0 0.15244062E+04</rscale>
<asrwt>0</asrwt>
<pdfrwt beam="1">  1        2 0.30157745E+00 0.15244062E+04</pdfrwt>
<pdfrwt beam="2">  1       -2 0.25812465E+00 0.15244062E+04</pdfrwt>
<totfact> 0.37659485E-01</totfact>
</mgrwt>
</event>
<event>
12    1  0.3127365E-008  0.8690658E+03  0.7818608E-02  0.9465099E-01
         -2   -1    0    0    0  501 -0.00000000000E+00  0.00000000000E+00  0.26894666198E+03  0.26894666198E+03  0.00000000000E+00 0.  1.
          2   -1    0    0  501    0  0.00000000000E+00 -0.00000000000E+00 -0.35208115747E+04  0.35208115747E+04  0.00000000000E+00 0. -1.
         23    2    1    2    0    0  0.84575060611E+03 -0.11819236967E+02 -0.19340121823E+04  0.21129207693E+04  0.92721485248E+02 0.  0.
    5000000    2    1    2    0    0 -0.84575060611E+03  0.11819236967E+02 -0.13178527305E+04  0.16768374675E+04  0.59967848970E+03 0.  0.
         23    2    4    4    0    0 -0.71300650191E+02  0.47605477043E+02  0.20656337084E+02  0.12727036084E+03  0.91765986754E+02 0.  0.
         23    2    4    4    0    0 -0.77444995592E+03 -0.35786240075E+02 -0.13385090676E+04  0.15495671066E+04  0.92186250720E+02 0.  0.
          3    1    3    3  502    0  0.68100586290E+03  0.22347597429E+02 -0.15954278293E+04  0.17348366952E+04  0.00000000000E+00 0. -1.
         -3    1    3    3    0  502  0.16474474321E+03 -0.34166834396E+02 -0.33858435297E+03  0.37808407406E+03  0.00000000000E+00 0.  1.
         13    1    5    5    0    0 -0.84452109592E+02  0.49290620197E+02  0.38456788125E+02  0.10507449075E+03  0.00000000000E+00 0.  1.
        -13    1    5    5    0    0  0.13151459400E+02 -0.16851431539E+01 -0.17800451041E+02  0.22195870090E+02  0.00000000000E+00 0. -1.
          5    1    6    6  503    0 -0.25265079948E+03  0.15257802207E+02 -0.50424218678E+03  0.56422291689E+03  0.47000000000E+01 0. -1.
         -5    1    6    6    0  503 -0.52179915643E+03 -0.51044042283E+02 -0.83426688077E+03  0.98534418974E+03  0.47000000000E+01 0.  1.
<mgrwt>
<rscale>  0 0.86906578E+03</rscale>
<asrwt>0</asrwt>
<pdfrwt beam="1">  1        2 0.54166333E+00 0.86906578E+03</pdfrwt>
<pdfrwt beam="2">  1       -2 0.41376409E-01 0.86906578E+03</pdfrwt>
<totfact> 0.46120173E+00</totfact>
</mgrwt>
</event>
<event>
12    1  0.3127365E-008  0.6372615E+03  0.7818608E-02  0.9830980E-01
         -1   -1    0    0    0  501 -0.00000000000E+00  0.00000000000E+00  0.31471588437E+03  0.31471588437E+03  0.00000000000E+00 0.  1.
          1   -1    0    0  501    0  0.00000000000E+00 -0.00000000000E+00 -0.22117782821E+04  0.22117782821E+04  0.00000000000E+00 0. -1.
         23    2    1    2    0    0 -0.46992198287E+03 -0.18184237278E+03 -0.42904882833E+02  0.51371059822E+03  0.90357242293E+02 0.  0.
    5000000    2    1    2    0    0  0.46992198287E+03  0.18184237278E+03 -0.18541575148E+04  0.20127835682E+04  0.59958676107E+03 0.  0.
         23    2    4    4    0    0  0.21317775060E+03  0.38208172563E+03 -0.10773565551E+04  0.11662260406E+04  0.89189867502E+02 0.  0.
         23    2    4    4    0    0  0.25674423226E+03 -0.20023935285E+03 -0.77680095975E+03  0.84655752763E+03  0.85008924832E+02 0.  0.
          1    1    3    3  502    0 -0.77579625743E+02 -0.55311024490E+02 -0.34661780525E+02  0.10138711353E+03  0.00000000000E+00 0. -1.
         -1    1    3    3    0  502 -0.39234235712E+03 -0.12653134829E+03 -0.82431023083E+01  0.41232348469E+03  0.00000000000E+00 0.  1.
         13    1    5    5    0    0  0.16667040263E+03  0.26564230167E+03 -0.66511864374E+03  0.73534187002E+03  0.00000000000E+00 0.  1.
        -13    1    5    5    0    0  0.46507347977E+02  0.11643942396E+03 -0.41223791136E+03  0.43088417055E+03  0.00000000000E+00 0. -1.
          5    1    6    6  503    0  0.93371959279E+02 -0.96918596530E+02 -0.41539797758E+03  0.43667963876E+03  0.47000000000E+01 0. -1.
         -5    1    6    6    0  503  0.16337227298E+03 -0.10332075632E+03 -0.36140298217E+03  0.40987788887E+03  0.47000000000E+01 0.  1.
<mgrwt>
<rscale>  0 0.63726150E+03</rscale>
<asrwt>0</asrwt>
<pdfrwt beam="1">  1        1 0.34027359E+00 0.63726150E+03</pdfrwt>
<pdfrwt beam="2">  1       -1 0.48417827E-01 0.63726150E+03</pdfrwt>
<totfact> 0.97679011E+00</totfact>
</mgrwt>
</event>
<event>
12    1  0.3127365E-008  0.4304134E+03  0.7818608E-02  0.1033729E+00
          2   -1    0    0  501    0  0.00000000000E+00  0.00000000000E+00  0.15161673142E+04  0.15161673142E+04  0.00000000000E+00 0. -1.
         -2   -1    0    0    0  501 -0.00000000000E+00 -0.00000000000E+00 -0.60511734609E+03  0.60511734609E+03  0.00000000000E+00 0.  1.
         23    2    1    2    0    0 -0.32665572196E+03  0.11889802341E+03 -0.46053316458E+03  0.58437699273E+03  0.92547140902E+02 0.  0.
    5000000    2    1    2    0    0  0.32665572196E+03 -0.11889802341E+03  0.13715831327E+04  0.15369076676E+04  0.60000349004E+03 0.  0.
         23    2    4    4    0    0 -0.23114102613E+02  0.74100352473E+02  0.91769650385E+03  0.92546858176E+03  0.91104877274E+02 0.  0.
         23    2    4    4    0    0  0.34976982457E+03 -0.19299837588E+03  0.45388662885E+03  0.61143908581E+03  0.90870130041E+02 0.  0.
          1    1    3    3  502    0 -0.21323898771E+03  0.36378025617E+02 -0.31623789161E+03  0.38314570429E+03  0.00000000000E+00 0. -1.
         -1    1    3    3    0  502 -0.11341673425E+03  0.82519997790E+02 -0.14429527298E+03  0.20123128844E+03  0.00000000000E+00 0.  1.
         13    1    5    5    0    0  0.12788208565E+02  0.62450903919E+02  0.78278861854E+03  0.78537995582E+03  0.00000000000E+00 0. -1.
        -13    1    5    5    0    0 -0.35902311178E+02  0.11649448555E+02  0.13490788531E+03  0.14008862594E+03  0.00000000000E+00 0.  1.
          5    1    6    6  503    0  0.28053721098E+03 -0.13079731589E+03  0.29721722833E+03  0.42914943249E+03  0.47000000000E+01 0. -1.
         -5    1    6    6    0  503  0.69232613585E+02 -0.62201059990E+02  0.15666940051E+03  0.18228965331E+03  0.47000000000E+01 0.  1.
<mgrwt>
<rscale>  0 0.43041344E+03</rscale>
<asrwt>0</asrwt>
<pdfrwt beam="1">  1        2 0.23325651E+00 0.43041344E+03</pdfrwt>
<pdfrwt beam="2">  1       -2 0.93094977E-01 0.43041344E+03</pdfrwt>
<totfact> 0.13156968E+01</totfact>
</mgrwt>
</event>
<event>
12    1  0.3127365E-008  0.8460351E+03  0.7818608E-02  0.9495674E-01
          2   -1    0    0  501    0  0.00000000000E+00  0.00000000000E+00  0.78590063307E+03  0.78590063307E+03  0.00000000000E+00 0. -1.
         -2   -1    0    0    0  501 -0.00000000000E+00 -0.00000000000E+00 -0.95371873986E+03  0.95371873986E+03  0.00000000000E+00 0.  1.
         23    2    1    2    0    0  0.33877964712E+03  0.67171340720E+03  0.26984889822E+02  0.75791683444E+03  0.87972682850E+02 0.  0.
    5000000    2    1    2    0    0 -0.33877964712E+03 -0.67171340720E+03 -0.19480299662E+03  0.98170253849E+03  0.59985091137E+03 0.  0.
         23    2    4    4    0    0 -0.47158191152E+03 -0.39635193099E+03 -0.22257851036E+03  0.66141997294E+03  0.91928422426E+02 0.  0.
         23    2    4    4    0    0  0.13280226440E+03 -0.27536147621E+03  0.27775513740E+02  0.32028256555E+03  0.91373183295E+02 0.  0.
          4    1    3    3  502    0  0.23648641422E+03  0.49468701624E+03  0.57028810648E+02  0.55126522962E+03  0.00000000000E+00 0. -1.
         -4    1    3    3    0  502  0.10229323290E+03  0.17702639096E+03 -0.30043920825E+02  0.20665160482E+03  0.00000000000E+00 0.  1.
         11    1    5    5    0    0 -0.17651163339E+03 -0.20720731056E+03 -0.10471530055E+03  0.29164451039E+03  0.00000000000E+00 0. -1.
        -11    1    5    5    0    0 -0.29507027813E+03 -0.18914462044E+03 -0.11786320981E+03  0.36977546255E+03  0.00000000000E+00 0.  1.
          5    1    6    6  503    0  0.92506450053E+02 -0.98677498816E+02  0.31522729265E+02  0.13896209747E+03  0.47000000000E+01 0. -1.
         -5    1    6    6    0  503  0.40295814347E+02 -0.17668397739E+03 -0.37472155251E+01  0.18132046808E+03  0.47000000000E+01 0.  1.
<mgrwt>
<rscale>  0 0.84603509E+03</rscale>
<asrwt>0</asrwt>
<pdfrwt beam="1">  1        2 0.12090779E+00 0.84603509E+03</pdfrwt>
<pdfrwt beam="2">  1       -2 0.14672596E+00 0.84603509E+03</pdfrwt>
<totfact> 0.11267662E+01</totfact>
</mgrwt>
</event>
<event>
12    1  0.3127365E-008  0.9178686E+03  0.7818608E-02  0.9403516E-01
         -2   -1    0    0    0  501 -0.00000000000E+00  0.00000000000E+00  0.58557751774E+03  0.58557751774E+03  0.00000000000E+00 0. -1.
          2   -1    0    0  501    0  0.00000000000E+00 -0.00000000000E+00 -0.15190126400E+04  0.15190126400E+04  0.00000000000E+00 0.  1.
         23    2    1    2    0    0  0.38107141922E+03 -0.74684965402E+03 -0.53811929024E+03  0.10004991260E+04  0.91794871540E+02 0.  0.
    5000000    2    1    2    0    0 -0.38107141922E+03  0.74684965402E+03 -0.39531583201E+03  0.11040910317E+04  0.59978543408E+03 0.  0.
         23    2    4    4    0    0 -0.33294519451E+03  0.82932112602E+03 -0.35101932541E+03  0.96451058576E+03  0.91869856969E+02 0.  0.
         23    2    4    4    0    0 -0.48126224714E+02 -0.82471472000E+02 -0.44296506603E+02  0.13958044592E+03  0.91667023447E+02 0.  0.
          4    1    3    3  502    0  0.16758094208E+03 -0.39324073006E+03 -0.23189340084E+03  0.48630874276E+03  0.00000000000E+00 0. -1.
         -4    1    3    3    0  502  0.21349047714E+03 -0.35360892396E+03 -0.30622588940E+03  0.51419038329E+03  0.00000000000E+00 0.  1.
         13    1    5    5    0    0 -0.98566384152E+02  0.34212818636E+03 -0.16841667730E+03  0.39386698920E+03  0.00000000000E+00 0.  1.
        -13    1    5    5    0    0 -0.23437881036E+03  0.48719293966E+03 -0.18260264811E+03  0.57064359656E+03  0.00000000000E+00 0. -1.
          5    1    6    6  503    0 -0.31516236319E+02 -0.31851380721E+02  0.25405989403E+02  0.51723668694E+02  0.47000000000E+01 0. -1.
         -5    1    6    6    0  503 -0.16609988394E+02 -0.50620091279E+02 -0.69702496006E+02  0.87856777229E+02  0.47000000000E+01 0.  1.
<mgrwt>
<rscale>  0 0.91786861E+03</rscale>
<asrwt>0</asrwt>
<pdfrwt beam="1">  1        2 0.23369425E+00 0.91786861E+03</pdfrwt>
<pdfrwt beam="2">  1       -2 0.90088851E-01 0.91786861E+03</pdfrwt>
<totfact> 0.13119585E+01</totfact>
</mgrwt>
</event>
<event>
12    1  0.3127365E-008  0.2697482E+04  0.7818608E-02  0.8335822E-01
         -2   -1    0    0    0  501 -0.00000000000E+00  0.00000000000E+00  0.40994127888E+04  0.40994127888E+04  0.00000000000E+00 0. -1.
          2   -1    0    0  501    0  0.00000000000E+00 -0.00000000000E+00 -0.18892049501E+04  0.18892049501E+04  0.00000000000E+00 0.  1.
         23    2    1    2    0    0 -0.16664937765E+04  0.20852905179E+04  0.18027645821E+04  0.32224730214E+04  0.93456857508E+02 0.  0.
    5000000    2    1    2    0    0  0.16664937765E+04 -0.20852905179E+04  0.40744325663E+03  0.27661447175E+04  0.59992377836E+03 0.  0.
         23    2    4    4    0    0  0.16691127203E+04 -0.19231370498E+04  0.36052529180E+03  0.25734684180E+04  0.91475827963E+02 0.  0.
         23    2    4    4    0    0 -0.26189437986E+01 -0.16215346803E+03  0.46917964827E+02  0.19267629948E+03  0.92856097779E+02 0.  0.
          1    1    3    3  502    0 -0.29706605480E+03  0.31664418218E+03  0.29020990397E+03  0.52223899450E+03  0.00000000000E+00 0. -1.
         -1    1    3    3    0  502 -0.13694277217E+04  0.17686463357E+04  0.15125546781E+04  0.27002340269E+04  0.00000000000E+00 0.  1.
         11    1    5    5    0    0  0.83439295718E+03 -0.10153562117E+04  0.21523019542E+03  0.13317221484E+04  0.00000000000E+00 0.  1.
        -11    1    5    5    0    0  0.83471976310E+03 -0.90778083812E+03  0.14529509639E+03  0.12417462696E+04  0.00000000000E+00 0. -1.
          5    1    6    6  503    0  0.51618360661E+00 -0.16818499414E+03  0.26081758606E+02  0.17026099621E+03  0.47000000000E+01 0. -1.
         -5    1    6    6    0  503 -0.31351274052E+01  0.60315261018E+01  0.20836206221E+02  0.22415303269E+02  0.47000000000E+01 0.  1.
<mgrwt>
<rscale>  0 0.26974819E+04</rscale>
<asrwt>0</asrwt>
<pdfrwt beam="1">  1        2 0.29064691E+00 0.26974819E+04</pdfrwt>
<pdfrwt beam="2">  1       -2 0.63067889E+00 0.26974819E+04</pdfrwt>
<totfact> 0.24387741E-03</totfact>
</mgrwt>
</event>
<event>
12    1  0.3127365E-008  0.1067063E+04  0.7818608E-02  0.9237903E-01
         -2   -1    0    0    0  501 -0.00000000000E+00  0.00000000000E+00  0.68832729022E+03  0.68832729022E+03  0.00000000000E+00 0.  1.
          2   -1    0    0  501    0  0.00000000000E+00 -0.00000000000E+00 -0.18535585471E+04  0.18535585471E+04  0.00000000000E+00 0. -1.
         23    2    1    2    0    0 -0.92765637141E+03  0.41936558373E+03 -0.82044704069E+03  0.13107500754E+04  0.92296140068E+02 0.  0.
    5000000    2    1    2    0    0  0.92765637141E+03 -0.41936558373E+03 -0.34478421620E+03  0.12311357619E+04  0.60033763185E+03 0.  0.
         23    2    4    4    0    0  0.93008100035E+03 -0.28119743041E+03 -0.17097803427E+03  0.99096090803E+03  0.92991241271E+02 0.  0.
         23    2    4    4    0    0 -0.24246289403E+01 -0.13816815332E+03 -0.17380618192E+03  0.24017485386E+03  0.91537173510E+02 0.  0.
          1    1    3    3  502    0 -0.37397875669E+03  0.15228793368E+03 -0.38036170695E+03  0.55473124422E+03  0.00000000000E+00 0. -1.
         -1    1    3    3    0  502 -0.55367761471E+03  0.26707765004E+03 -0.44008533374E+03  0.75601883122E+03  0.00000000000E+00 0.  1.
         13    1    5    5    0    0  0.39432293890E+03 -0.71796693671E+02 -0.75932768720E+02  0.40793520408E+03  0.00000000000E+00 0.  1.
        -13    1    5    5    0    0  0.53575806145E+03 -0.20940073674E+03 -0.95045265552E+02  0.58302570394E+03  0.00000000000E+00 0. -1.
          5    1    6    6  503    0  0.71613177864E+01 -0.46548724762E+02 -0.47190373161E+01  0.47564982525E+02  0.47000000000E+01 0. -1.
         -5    1    6    6    0  503 -0.95859467267E+01 -0.91619428554E+02 -0.16908714461E+03  0.19260987133E+03  0.47000000000E+01 0.  1.
<mgrwt>
<rscale>  0 0.10670628E+04</rscale>
<asrwt>0</asrwt>
<pdfrwt beam="1">  1        2 0.28516285E+00 0.10670628E+04</pdfrwt>
<pdfrwt beam="2">  1       -2 0.10589651E+00 0.10670628E+04</pdfrwt>
<totfact> 0.57495441E+00</totfact>
</mgrwt>
</event>
<event>
12    1  0.3127365E-008  0.1431439E+04  0.7818608E-02  0.8931371E-01
         -1   -1    0    0    0  501 -0.00000000000E+00  0.00000000000E+00  0.13308475831E+04  0.13308475831E+04  0.00000000000E+00 0.  1.
          1   -1    0    0  501    0  0.00000000000E+00 -0.00000000000E+00 -0.16252979966E+04  0.16252979966E+04  0.00000000000E+00 0. -1.
         23    2    1    2    0    0 -0.14025417536E+04  0.11320166192E+03 -0.18851711130E+03  0.14227465077E+04  0.93439483486E+02 0.  0.
    5000000    2    1    2    0    0  0.14025417536E+04 -0.11320166192E+03 -0.10593330227E+03  0.15333990721E+04  0.60012737224E+03 0.  0.
         23    2    4    4    0    0  0.83588681394E+03 -0.22764520706E+03 -0.29008623163E+03  0.91824511225E+03  0.92168098406E+02 0.  0.
         23    2    4    4    0    0  0.56665493961E+03  0.11444354515E+03  0.18415292936E+03  0.61515395981E+03  0.10152313656E+03 0.  0.
          1    1    3    3  502    0 -0.99807980367E+03  0.12006995405E+03 -0.11897179084E+03  0.10122916454E+04  0.00000000000E+00 0. -1.
         -1    1    3    3    0  502 -0.40446194988E+03 -0.68682921329E+01 -0.69545320465E+02  0.41045486224E+03  0.00000000000E+00 0.  1.
         13    1    5    5    0    0  0.44916136314E+03 -0.13280630438E+03 -0.20389313574E+03  0.51083838483E+03  0.00000000000E+00 0. -1.
        -13    1    5    5    0    0  0.38672545080E+03 -0.94838902686E+02 -0.86193095889E+02  0.40740672741E+03  0.00000000000E+00 0.  1.
          5    1    6    6  503    0  0.18045417947E+03  0.83948535109E+02  0.73710643948E+02  0.21228852175E+03  0.47000000000E+01 0. -1.
         -5    1    6    6    0  503  0.38620076014E+03  0.30495010040E+02  0.11044228541E+03  0.40286543806E+03  0.47000000000E+01 0.  1.
<mgrwt>
<rscale>  0 0.14314385E+04</rscale>
<asrwt>0</asrwt>
<pdfrwt beam="1">  1        1 0.25004585E+00 0.14314385E+04</pdfrwt>
<pdfrwt beam="2">  1       -1 0.20474578E+00 0.14314385E+04</pdfrwt>
<totfact> 0.71374302E-01</totfact>
</mgrwt>
</event>
<event>
12    1  0.3127365E-008  0.1487942E+04  0.7818608E-02  0.8892511E-01
         -2   -1    0    0    0  501 -0.00000000000E+00  0.00000000000E+00  0.13998532307E+04  0.13998532307E+04  0.00000000000E+00 0. -1.
          2   -1    0    0  501    0  0.00000000000E+00 -0.00000000000E+00 -0.26112707668E+04  0.26112707668E+04  0.00000000000E+00 0.  1.
         23    2    1    2    0    0 -0.27328527390E+03  0.14116736309E+04 -0.18349507617E+04  0.23329397822E+04  0.89757722431E+02 0.  0.
    5000000    2    1    2    0    0  0.27328527390E+03 -0.14116736309E+04  0.62353322549E+03  0.16781842153E+04  0.60000107998E+03 0.  0.
         23    2    4    4    0    0  0.13844206722E+03 -0.13712730393E+04  0.61020520355E+03  0.15099700953E+04  0.90018575474E+02 0.  0.
         23    2    4    4    0    0  0.13484320668E+03 -0.40400591624E+02  0.13328021941E+02  0.16821412000E+03  0.91123300034E+02 0.  0.
          2    1    3    3  502    0 -0.12817285558E+03  0.89010898062E+03 -0.11400074162E+04  0.14520121168E+04  0.00000000000E+00 0. -1.
         -2    1    3    3    0  502 -0.14511241833E+03  0.52156465027E+03 -0.69494334543E+03  0.88092766543E+03  0.00000000000E+00 0.  1.
         11    1    5    5    0    0  0.32726116704E+02 -0.20224313439E+03  0.59056061488E+02  0.21321562448E+03  0.00000000000E+00 0. -1.
        -11    1    5    5    0    0  0.10571595052E+03 -0.11690299049E+04  0.55114914206E+03  0.12967544708E+04  0.00000000000E+00 0.  1.
          5    1    6    6  503    0  0.63727050460E+01  0.14683955885E+02 -0.18360998971E+02  0.24808188431E+02  0.47000000000E+01 0. -1.
         -5    1    6    6    0  503  0.12847050163E+03 -0.55084547509E+02  0.31689020912E+02  0.14340593157E+03  0.47000000000E+01 0.  1.
<mgrwt>
<rscale>  0 0.14879415E+04</rscale>
<asrwt>0</asrwt>
<pdfrwt beam="1">  1        2 0.40173396E+00 0.14879415E+04</pdfrwt>
<pdfrwt beam="2">  1       -2 0.21536204E+00 0.14879415E+04</pdfrwt>
<totfact> 0.29820854E-01</totfact>
</mgrwt>
</event>
<event>
12    1  0.3127365E-008  0.8691822E+03  0.7818608E-02  0.9464947E-01
         -2   -1    0    0    0  501 -0.00000000000E+00  0.00000000000E+00  0.95941817878E+03  0.95941817878E+03  0.00000000000E+00 0.  1.
          2   -1    0    0  501    0  0.00000000000E+00 -0.00000000000E+00 -0.17909102544E+04  0.17909102544E+04  0.00000000000E+00 0. -1.
         23    2    1    2    0    0 -0.85008217955E+03  0.10941176666E+03 -0.13355122257E+04  0.15890471249E+04  0.82868652253E+02 0.  0.
    5000000    2    1    2    0    0  0.85008217955E+03 -0.10941176666E+03  0.50402015006E+03  0.11612813083E+04  0.59993942913E+03 0.  0.
         23    2    4    4    0    0  0.51466582577E+03  0.17938541895E+02 -0.15795421746E+02  0.52322040860E+03  0.91144923795E+02 0.  0.
         23    2    4    4    0    0  0.33541635378E+03 -0.12735030855E+03  0.51981557180E+03  0.63806089968E+03  0.90505533177E+02 0.  0.
          2    1    3    3  502    0 -0.60752851091E+03  0.41627049490E+02 -0.92580010840E+03  0.11081198236E+04  0.00000000000E+00 0. -1.
         -2    1    3    3    0  502 -0.24255366864E+03  0.67784717166E+02 -0.40971211729E+03  0.48092730127E+03  0.00000000000E+00 0.  1.
         11    1    5    5    0    0  0.22418403597E+03 -0.17240095769E+02  0.30744508449E+02  0.22693815829E+03  0.00000000000E+00 0.  1.
        -11    1    5    5    0    0  0.29048178979E+03  0.35178637664E+02 -0.46539930195E+02  0.29628225032E+03  0.00000000000E+00 0. -1.
          5    1    6    6  503    0  0.49005598427E+02 -0.29607535552E+02  0.14717876051E+03  0.15799314031E+03  0.47000000000E+01 0. -1.
         -5    1    6    6    0  503  0.28641075536E+03 -0.97742772999E+02  0.37263681129E+03  0.48006775937E+03  0.47000000000E+01 0.  1.
<mgrwt>
<rscale>  0 0.86918219E+03</rscale>
<asrwt>0</asrwt>
<pdfrwt beam="1">  1        2 0.27552465E+00 0.86918219E+03</pdfrwt>
<pdfrwt beam="2">  1       -2 0.14760280E+00 0.86918219E+03</pdfrwt>
<totfact> 0.27656394E+00</totfact>
</mgrwt>
</event>
<event>
12    1  0.3127365E-008  0.1047359E+04  0.7818608E-02  0.9258075E-01
         -4   -1    0    0    0  501 -0.00000000000E+00  0.00000000000E+00  0.51562368888E+03  0.51562368888E+03  0.00000000000E+00 0.  1.
          4   -1    0    0  501    0  0.00000000000E+00 -0.00000000000E+00 -0.21811181626E+04  0.21811181626E+04  0.00000000000E+00 0. -1.
         23    2    1    2    0    0  0.39517626177E+03 -0.88555924492E+03 -0.65859694550E+03  0.11755120765E+04  0.87745377802E+02 0.  0.
    5000000    2    1    2    0    0 -0.39517626177E+03  0.88555924492E+03 -0.10068975282E+04  0.15212297749E+04  0.59993161418E+03 0.  0.
         23    2    4    4    0    0  0.13537020337E+03  0.10406631306E+03 -0.13468457471E+03  0.23236278497E+03  0.81839108612E+02 0.  0.
         23    2    4    4    0    0 -0.53054646514E+03  0.78149293186E+03 -0.87221295349E+03  0.12888669900E+04  0.90619685206E+02 0.  0.
          2    1    3    3  502    0  0.12291680400E+03 -0.27268875086E+03 -0.15522536258E+03  0.33699051729E+03  0.00000000000E+00 0.  1.
         -2    1    3    3    0  502  0.27225945776E+03 -0.61287049406E+03 -0.50337158292E+03  0.83852155925E+03  0.00000000000E+00 0. -1.
         11    1    5    5    0    0 -0.44695838815E+01  0.10160299007E+02  0.62474516581E+01  0.12737327358E+02  0.00000000000E+00 0. -1.
        -11    1    5    5    0    0  0.13983978725E+03  0.93906014056E+02 -0.14093202637E+03  0.21962545761E+03  0.00000000000E+00 0.  1.
          5    1    6    6  503    0 -0.22912576419E+03  0.30312167791E+03 -0.29721586587E+03  0.48243209715E+03  0.47000000000E+01 0. -1.
         -5    1    6    6    0  503 -0.30142070094E+03  0.47837125395E+03 -0.57499708762E+03  0.80643489280E+03  0.47000000000E+01 0.  1.
<mgrwt>
<rscale>  0 0.10473588E+04</rscale>
<asrwt>0</asrwt>
<pdfrwt beam="1">  1        4 0.33555664E+00 0.10473588E+04</pdfrwt>
<pdfrwt beam="2">  1       -4 0.79326721E-01 0.10473588E+04</pdfrwt>
<totfact> 0.51102289E-02</totfact>
</mgrwt>
</event>
<event>
12    1  0.3127365E-008  0.9492901E+03  0.7818608E-02  0.9365981E-01
          1   -1    0    0  501    0  0.00000000000E+00  0.00000000000E+00  0.78725248900E+03  0.78725248900E+03  0.00000000000E+00 0. -1.
         -1   -1    0    0    0  501 -0.00000000000E+00 -0.00000000000E+00 -0.11930992844E+04  0.11930992844E+04  0.00000000000E+00 0.  1.
         23    2    1    2    0    0 -0.75442697843E+03  0.40693723694E+03 -0.35621884142E+03  0.93279619930E+03  0.91972310291E+02 0.  0.
    5000000    2    1    2    0    0  0.75442697843E+03 -0.40693723694E+03 -0.49627953986E+02  0.10475555741E+04  0.60012645870E+03 0.  0.
         23    2    4    4    0    0  0.56117000246E+02  0.11990712933E+03 -0.48668256156E+02  0.16809915708E+03  0.91443370841E+02 0.  0.
         23    2    4    4    0    0  0.69830997818E+03 -0.52684436627E+03 -0.95969783037E+00  0.87945641703E+03  0.90779163510E+02 0.  0.
          1    1    3    3  502    0 -0.54927790504E+03  0.33327161436E+03 -0.24054462929E+03  0.68603054202E+03  0.00000000000E+00 0. -1.
         -1    1    3    3    0  502 -0.20514907339E+03  0.73665622580E+02 -0.11567421213E+03  0.24676565728E+03  0.00000000000E+00 0.  1.
         13    1    5    5    0    0  0.79195905250E+02  0.10368103932E+03 -0.50328772660E+02  0.13983824470E+03  0.00000000000E+00 0. -1.
        -13    1    5    5    0    0 -0.23078905004E+02  0.16226090012E+02  0.16605165040E+01  0.28260912376E+02  0.00000000000E+00 0.  1.
          5    1    6    6  503    0  0.37819850647E+03 -0.22881867917E+03 -0.21050598816E+01  0.44206178246E+03  0.47000000000E+01 0. -1.
         -5    1    6    6    0  503  0.32011147171E+03 -0.29802568710E+03  0.11453620513E+01  0.43739463457E+03  0.47000000000E+01 0.  1.
<mgrwt>
<rscale>  0 0.94929013E+03</rscale>
<asrwt>0</asrwt>
<pdfrwt beam="1">  1        1 0.12111577E+00 0.94929013E+03</pdfrwt>
<pdfrwt beam="2">  1       -1 0.18355374E+00 0.94929013E+03</pdfrwt>
<totfact> 0.44933552E+00</totfact>
</mgrwt>
</event>
<event>
12    1  0.3127365E-008  0.1115655E+04  0.7818608E-02  0.9190067E-01
         -2   -1    0    0    0  501 -0.00000000000E+00  0.00000000000E+00  0.32329378505E+03  0.32329378505E+03  0.00000000000E+00 0.  1.
          2   -1    0    0  501    0  0.00000000000E+00 -0.00000000000E+00 -0.41301629411E+04  0.41301629411E+04  0.00000000000E+00 0. -1.
         23    2    1    2    0    0  0.96259025175E+03 -0.47984426363E+03 -0.18070346433E+04  0.21048530850E+04  0.90563776427E+02 0.  0.
    5000000    2    1    2    0    0 -0.96259025175E+03  0.47984426363E+03 -0.19998345128E+04  0.23486036411E+04  0.59980869811E+03 0.  0.
         23    2    4    4    0    0 -0.28929174410E+03 -0.50635113531E+02 -0.90212505531E+03  0.95302246644E+03  0.90380186909E+02 0.  0.
         23    2    4    4    0    0 -0.67329850765E+03  0.53047937717E+03 -0.10977094575E+04  0.13955811747E+04  0.89115161626E+02 0.  0.
          1    1    3    3  502    0  0.45869506004E+03 -0.19950547828E+03 -0.91159651068E+03  0.10398133449E+04  0.00000000000E+00 0. -1.
         -1    1    3    3    0  502  0.50389519171E+03 -0.28033878535E+03 -0.89543813258E+03  0.10650397401E+04  0.00000000000E+00 0.  1.
         11    1    5    5    0    0 -0.22064520738E+03 -0.42124393497E+02 -0.54884627782E+03  0.59303541947E+03  0.00000000000E+00 0. -1.
        -11    1    5    5    0    0 -0.68646536722E+02 -0.85107200343E+01 -0.35327877749E+03  0.35998704697E+03  0.00000000000E+00 0.  1.
          5    1    6    6  503    0 -0.43848655421E+03  0.29780555882E+03 -0.64122895251E+03  0.83195869406E+03  0.47000000000E+01 0. -1.
         -5    1    6    6    0  503 -0.23481195344E+03  0.23267381834E+03 -0.45648050499E+03  0.56362248062E+03  0.47000000000E+01 0.  1.
<mgrwt>
<rscale>  0 0.11156548E+04</rscale>
<asrwt>0</asrwt>
<pdfrwt beam="1">  1        2 0.63540957E+00 0.11156548E+04</pdfrwt>
<pdfrwt beam="2">  1       -2 0.49737514E-01 0.11156548E+04</pdfrwt>
<totfact> 0.10606846E+00</totfact>
</mgrwt>
</event>
<event>
12    1  0.3127365E-008  0.6501361E+03  0.7818608E-02  0.9806524E-01
         -2   -1    0    0    0  501 -0.00000000000E+00  0.00000000000E+00  0.20353897391E+03  0.20353897391E+03  0.00000000000E+00 0.  1.
          2   -1    0    0  501    0  0.00000000000E+00 -0.00000000000E+00 -0.39466910406E+04  0.39466910406E+04  0.00000000000E+00 0. -1.
         23    2    1    2    0    0  0.22595201513E+03 -0.58104688778E+03 -0.28007110020E+04  0.28707576865E+04  0.92724208571E+02 0.  0.
    5000000    2    1    2    0    0 -0.22595201513E+03  0.58104688778E+03 -0.94244106472E+03  0.12794723281E+04  0.60015371268E+03 0.  0.
         23    2    4    4    0    0 -0.13823197595E+02  0.33608572024E+03 -0.85663771066E+02  0.35895472506E+03  0.91463221184E+02 0.  0.
         23    2    4    4    0    0 -0.21212881753E+03  0.24496116754E+03 -0.85677729366E+03  0.92051760299E+03  0.90998448676E+02 0.  0.
          4    1    3    3  502    0  0.19895523022E+02 -0.15495274897E+03 -0.75780481384E+03  0.77374047466E+03  0.00000000000E+00 0. -1.
         -4    1    3    3    0  502  0.20605649210E+03 -0.42609413881E+03 -0.20429061881E+04  0.20970172118E+04  0.00000000000E+00 0.  1.
         13    1    5    5    0    0 -0.22518376767E+02  0.15263288128E+03 -0.83179949827E+02  0.17527914249E+03  0.00000000000E+00 0. -1.
        -13    1    5    5    0    0  0.86951791723E+01  0.18345283897E+03 -0.24838212392E+01  0.18367558257E+03  0.00000000000E+00 0.  1.
          5    1    6    6  503    0 -0.99627396744E+02  0.60395145450E+02 -0.36872776203E+03  0.38672398978E+03  0.47000000000E+01 0. -1.
         -5    1    6    6    0  503 -0.11250142079E+03  0.18456602209E+03 -0.48804953163E+03  0.53379361322E+03  0.47000000000E+01 0.  1.
<mgrwt>
<rscale>  0 0.65013606E+03</rscale>
<asrwt>0</asrwt>
<pdfrwt beam="1">  1        2 0.60718319E+00 0.65013606E+03</pdfrwt>
<pdfrwt beam="2">  1       -2 0.31313691E-01 0.65013606E+03</pdfrwt>
<totfact> 0.40366461E+00</totfact>
</mgrwt>
</event>
<event>
12    1  0.3127365E-008  0.8641745E+03  0.7818608E-02  0.9471508E-01
          1   -1    0    0  501    0  0.00000000000E+00  0.00000000000E+00  0.60842485699E+03  0.60842485699E+03  0.00000000000E+00 0. -1.
         -1   -1    0    0    0  501 -0.00000000000E+00 -0.00000000000E+00 -0.12552992246E+04  0.12552992246E+04  0.00000000000E+00 0.  1.
         23    2    1    2    0    0  0.73158161490E+03 -0.21709345109E+03 -0.37827658939E+03  0.85641446900E+03  0.89506082839E+02 0.  0.
    5000000    2    1    2    0    0 -0.73158161490E+03  0.21709345109E+03 -0.26859777824E+03  0.10073096126E+04  0.60015553270E+03 0.  0.
         23    2    4    4    0    0 -0.50720540214E+03  0.41363890350E+03 -0.20767995131E+03  0.69272800530E+03  0.91578734945E+02 0.  0.
         23    2    4    4    0    0 -0.22437621275E+03 -0.19654545241E+03 -0.60917826933E+02  0.31458160732E+03  0.79219986841E+02 0.  0.
          3    1    3    3  502    0  0.16050738194E+03 -0.50571546149E+02 -0.43473751867E+02  0.17381043709E+03  0.00000000000E+00 0. -1.
         -3    1    3    3    0  502  0.57107423295E+03 -0.16652190495E+03 -0.33480283753E+03  0.68260403191E+03  0.00000000000E+00 0.  1.
         11    1    5    5    0    0 -0.29535409324E+03  0.20471788957E+03 -0.15119296907E+03  0.38987532443E+03  0.00000000000E+00 0.  1.
        -11    1    5    5    0    0 -0.21185130890E+03  0.20892101393E+03 -0.56486982240E+02  0.30285268086E+03  0.00000000000E+00 0. -1.
          5    1    6    6  503    0 -0.20195841068E+02 -0.57774889775E+02 -0.64025058108E+01  0.61716221252E+02  0.47000000000E+01 0. -1.
         -5    1    6    6    0  503 -0.20418037168E+03 -0.13877056263E+03 -0.54515321122E+02  0.25286538607E+03  0.47000000000E+01 0.  1.
<mgrwt>
<rscale>  0 0.86417445E+03</rscale>
<asrwt>0</asrwt>
<pdfrwt beam="1">  1        1 0.93603824E-01 0.86417445E+03</pdfrwt>
<pdfrwt beam="2">  1       -1 0.19312296E+00 0.86417445E+03</pdfrwt>
<totfact> 0.57483288E+00</totfact>
</mgrwt>
</event>
<event>
12    1  0.3127365E-008  0.1241699E+04  0.7818608E-02  0.9077120E-01
          1   -1    0    0  501    0  0.00000000000E+00  0.00000000000E+00  0.71663052773E+03  0.71663052773E+03  0.00000000000E+00 0. -1.
         -1   -1    0    0    0  501 -0.00000000000E+00 -0.00000000000E+00 -0.22034311038E+04  0.22034311038E+04  0.00000000000E+00 0.  1.
         23    2    1    2    0    0 -0.10810980933E+04 -0.47208592098E+03 -0.80613075595E+03  0.14317708676E+04  0.92102211718E+02 0.  0.
    5000000    2    1    2    0    0  0.10810980933E+04  0.47208592098E+03 -0.68066982013E+03  0.14882907640E+04  0.60004982285E+03 0.  0.
         23    2    4    4    0    0  0.11116254652E+04  0.43242078451E+03 -0.69236813581E+03  0.13820828504E+04  0.89891379654E+02 0.  0.
         23    2    4    4    0    0 -0.30527371876E+02  0.39665136477E+02  0.11698315676E+02  0.10620791357E+03  0.92940985736E+02 0.  0.
          3    1    3    3  502    0 -0.89416181088E+03 -0.42393396357E+03 -0.65655564497E+03  0.11875650148E+04  0.00000000000E+00 0. -1.
         -3    1    3    3    0  502 -0.18693628244E+03 -0.48151957415E+02 -0.14957511098E+03  0.24420585276E+03  0.00000000000E+00 0.  1.
         13    1    5    5    0    0  0.65642803279E+03  0.29940109180E+03 -0.39952371086E+03  0.82471690388E+03  0.00000000000E+00 0.  1.
        -13    1    5    5    0    0  0.45519743240E+03  0.13301969271E+03 -0.29284442495E+03  0.55736594652E+03  0.00000000000E+00 0. -1.
          5    1    6    6  503    0 -0.23005210237E+02 -0.28163118411E+02 -0.76887301355E+00  0.36675360971E+02  0.47000000000E+01 0. -1.
         -5    1    6    6    0  503 -0.75221616395E+01  0.67828254888E+02  0.12467188690E+02  0.69532552597E+02  0.47000000000E+01 0.  1.
<mgrwt>
<rscale>  0 0.12416992E+04</rscale>
<asrwt>0</asrwt>
<pdfrwt beam="1">  1        1 0.11025085E+00 0.12416992E+04</pdfrwt>
<pdfrwt beam="2">  1       -1 0.33898939E+00 0.12416992E+04</pdfrwt>
<totfact> 0.47598432E-01</totfact>
</mgrwt>
</event>
<event>
12    1  0.3127365E-008  0.7715646E+03  0.7818608E-02  0.9602113E-01
         -1   -1    0    0    0  501 -0.00000000000E+00  0.00000000000E+00  0.65930527708E+03  0.65930527708E+03  0.00000000000E+00 0.  1.
          1   -1    0    0  501    0  0.00000000000E+00 -0.00000000000E+00 -0.14726829916E+04  0.14726829916E+04  0.00000000000E+00 0. -1.
         23    2    1    2    0    0  0.23362220443E+03  0.70257459853E+03 -0.90623368350E+03  0.11745531831E+04  0.10062450019E+03 0.  0.
    5000000    2    1    2    0    0 -0.23362220443E+03 -0.70257459853E+03  0.92855968987E+02  0.95743508552E+03  0.59989108271E+03 0.  0.
         23    2    4    4    0    0 -0.86740564837E+02 -0.74715437425E+02  0.24825100034E+03  0.28796895177E+03  0.90505446443E+02 0.  0.
         23    2    4    4    0    0 -0.14688163959E+03 -0.62785916110E+03 -0.15539503135E+03  0.66946613375E+03  0.90862237751E+02 0.  0.
          3    1    3    3  502    0  0.56351647329E+02  0.32462905416E+03 -0.38417969588E+03  0.50611616225E+03  0.00000000000E+00 0. -1.
         -3    1    3    3    0  502  0.17727055710E+03  0.37794554436E+03 -0.52205398761E+03  0.66843702089E+03  0.00000000000E+00 0.  1.
         13    1    5    5    0    0 -0.10271914330E+02  0.20630676866E+02  0.50252382691E+02  0.55285070481E+02  0.00000000000E+00 0. -1.
        -13    1    5    5    0    0 -0.76468650507E+02 -0.95346114291E+02  0.19799861765E+03  0.23268388129E+03  0.00000000000E+00 0.  1.
          5    1    6    6  503    0 -0.47203355809E+02 -0.39147795630E+03 -0.84907139846E+02  0.40337880394E+03  0.47000000000E+01 0. -1.
         -5    1    6    6    0  503 -0.99678283784E+02 -0.23638120480E+03 -0.70487891503E+02  0.26608732982E+03  0.47000000000E+01 0.  1.
<mgrwt>
<rscale>  0 0.77156459E+03</rscale>
<asrwt>0</asrwt>
<pdfrwt beam="1">  1        1 0.22656662E+00 0.77156459E+03</pdfrwt>
<pdfrwt beam="2">  1       -1 0.10143158E+00 0.77156459E+03</pdfrwt>
<totfact> 0.65354127E+00</totfact>
</mgrwt>
</event>
<event>
12    1  0.3127365E-008  0.1009800E+04  0.7818608E-02  0.9297861E-01
          2   -1    0    0  501    0  0.00000000000E+00  0.00000000000E+00  0.26169256401E+04  0.26169256401E+04  0.00000000000E+00 0. -1.
         -2   -1    0    0    0  501 -0.00000000000E+00 -0.00000000000E+00 -0.45707974792E+03  0.45707974792E+03  0.00000000000E+00 0.  1.
         23    2    1    2    0    0 -0.39121485040E+03 -0.90237336052E+03  0.13183572027E+04  0.16472788713E+04  0.90195483366E+02 0.  0.
    5000000    2    1    2    0    0  0.39121485040E+03  0.90237336052E+03  0.84148868949E+03  0.14267265166E+04  0.60009882337E+03 0.  0.
         23    2    4    4    0    0 -0.21599983589E+02  0.20701579450E+03 -0.38452916890E+02  0.22812165496E+03  0.85080927251E+02 0.  0.
         23    2    4    4    0    0  0.41281483399E+03  0.69535756602E+03  0.87994160638E+03  0.11986048617E+04  0.91750487879E+02 0.  0.
          2    1    3    3  502    0 -0.27690989636E+03 -0.72860922154E+03  0.10543598178E+04  0.13111922490E+04  0.00000000000E+00 0.  1.
         -2    1    3    3    0  502 -0.11430495404E+03 -0.17376413898E+03  0.26399738488E+03  0.33608662237E+03  0.00000000000E+00 0. -1.
         13    1    5    5    0    0  0.29512690359E+02  0.74441068912E+02 -0.30905590591E+02  0.85834883135E+02  0.00000000000E+00 0. -1.
        -13    1    5    5    0    0 -0.51112673947E+02  0.13257472559E+03 -0.75473262987E+01  0.14228677183E+03  0.00000000000E+00 0.  1.
          5    1    6    6  503    0  0.25301849977E+03  0.38215282360E+03  0.43957117896E+03  0.63506224355E+03  0.47000000000E+01 0. -1.
         -5    1    6    6    0  503  0.15979633422E+03  0.31320474242E+03  0.44037042743E+03  0.56354261814E+03  0.47000000000E+01 0.  1.
<mgrwt>
<rscale>  0 0.10098001E+04</rscale>
<asrwt>0</asrwt>
<pdfrwt beam="1">  1        2 0.40260393E+00 0.10098001E+04</pdfrwt>
<pdfrwt beam="2">  1       -2 0.70319963E-01 0.10098001E+04</pdfrwt>
<totfact> 0.55399548E+00</totfact>
</mgrwt>
</event>
<event>
12    1  0.3127365E-008  0.1576928E+04  0.7818608E-02  0.8834849E-01
         -1   -1    0    0    0  501 -0.00000000000E+00  0.00000000000E+00  0.13107515313E+04  0.13107515313E+04  0.00000000000E+00 0.  1.
          1   -1    0    0  501    0  0.00000000000E+00 -0.00000000000E+00 -0.21330048349E+04  0.21330048349E+04  0.00000000000E+00 0. -1.
         23    2    1    2    0    0  0.15110771224E+04 -0.43628107672E+03 -0.78485358239E+03  0.17600401887E+04  0.89727768823E+02 0.  0.
    5000000    2    1    2    0    0 -0.15110771224E+04  0.43628107672E+03 -0.37399721265E+02  0.16837161774E+04  0.59983846101E+03 0.  0.
         23    2    4    4    0    0 -0.98750465986E+03  0.27348291706E+03 -0.29632989563E+03  0.10705718814E+04  0.91402335995E+02 0.  0.
         23    2    4    4    0    0 -0.52357246252E+03  0.16279815966E+03  0.25893017436E+03  0.61314429604E+03  0.90938046325E+02 0.  0.
          2    1    3    3  502    0  0.23742464204E+03 -0.69089245565E+02 -0.16080417238E+03  0.29496061832E+03  0.00000000000E+00 0. -1.
         -2    1    3    3    0  502  0.12736524803E+04 -0.36719183116E+03 -0.62404941001E+03  0.14650795704E+04  0.00000000000E+00 0.  1.
         13    1    5    5    0    0 -0.24865460480E+03  0.50952207481E+02 -0.36875499739E+02  0.25648594974E+03  0.00000000000E+00 0. -1.
        -13    1    5    5    0    0 -0.73885005506E+03  0.22253070958E+03 -0.25945439589E+03  0.81408593165E+03  0.00000000000E+00 0.  1.
          5    1    6    6  503    0 -0.47924291625E+03  0.12057342255E+03  0.23523833776E+03  0.54733069396E+03  0.47000000000E+01 0. -1.
         -5    1    6    6    0  503 -0.44329546272E+02  0.42224737110E+02  0.23691836600E+02  0.65813602076E+02  0.47000000000E+01 0.  1.
<mgrwt>
<rscale>  0 0.15769281E+04</rscale>
<asrwt>0</asrwt>
<pdfrwt beam="1">  1        1 0.32815459E+00 0.15769281E+04</pdfrwt>
<pdfrwt beam="2">  1       -1 0.20165408E+00 0.15769281E+04</pdfrwt>
<totfact> 0.33246639E-01</totfact>
</mgrwt>
</event>
<event>
12    1  0.3127365E-008  0.6899307E+03  0.7818608E-02  0.9734609E-01
          2   -1    0    0  501    0  0.00000000000E+00  0.00000000000E+00  0.56466859567E+03  0.56466859567E+03  0.00000000000E+00 0. -1.
         -2   -1    0    0    0  501 -0.00000000000E+00 -0.00000000000E+00 -0.95400455904E+03  0.95400455904E+03  0.00000000000E+00 0.  1.
         23    2    1    2    0    0 -0.57790097900E+03  0.16005187882E+03 -0.26177181768E+03  0.66065424161E+03  0.91396920014E+02 0.  0.
    5000000    2    1    2    0    0  0.57790097900E+03 -0.16005187882E+03 -0.12756414569E+03  0.85801891310E+03  0.60028134948E+03 0.  0.
         23    2    4    4    0    0  0.51861647863E+03 -0.31479779247E+03 -0.21606000266E+03  0.65146206989E+03  0.98286325092E+02 0.  0.
         23    2    4    4    0    0  0.59284500368E+02  0.15474591365E+03  0.88495856962E+02  0.20655684322E+03  0.85867706425E+02 0.  0.
          3    1    3    3  502    0 -0.34066872564E+03  0.93898900106E+02 -0.10474135478E+03  0.36856876627E+03  0.00000000000E+00 0. -1.
         -3    1    3    3    0  502 -0.23723225336E+03  0.66152978713E+02 -0.15703046290E+03  0.29208547535E+03  0.00000000000E+00 0.  1.
         11    1    5    5    0    0  0.34618711533E+03 -0.20388537141E+03 -0.93150265904E+02  0.41242179323E+03  0.00000000000E+00 0. -1.
        -11    1    5    5    0    0  0.17242936331E+03 -0.11091242106E+03 -0.12290973675E+03  0.23904027666E+03  0.00000000000E+00 0.  1.
          5    1    6    6  503    0  0.21756711066E+02  0.12004944663E+03  0.95162476789E+02  0.15480055265E+03  0.47000000000E+01 0. -1.
         -5    1    6    6    0  503  0.37527789302E+02  0.34696467021E+02 -0.66666198273E+01  0.51756290570E+02  0.47000000000E+01 0.  1.
<mgrwt>
<rscale>  0 0.68993075E+03</rscale>
<asrwt>0</asrwt>
<pdfrwt beam="1">  1        2 0.86872092E-01 0.68993075E+03</pdfrwt>
<pdfrwt beam="2">  1       -2 0.14676993E+00 0.68993075E+03</pdfrwt>
<totfact> 0.17268854E+01</totfact>
</mgrwt>
</event>
<event>
12    1  0.3127365E-008  0.3665488E+03  0.7818608E-02  0.1056020E+00
         -1   -1    0    0    0  501 -0.00000000000E+00  0.00000000000E+00  0.12604947924E+03  0.12604947924E+03  0.00000000000E+00 0.  1.
          1   -1    0    0  501    0  0.00000000000E+00 -0.00000000000E+00 -0.12393413659E+04  0.12393413659E+04  0.00000000000E+00 0. -1.
         23    2    1    2    0    0 -0.13719462400E+03 -0.30614042183E+02 -0.17110151298E+03  0.23929595147E+03  0.90704135586E+02 0.  0.
    5000000    2    1    2    0    0  0.13719462400E+03  0.30614042183E+02 -0.94219037371E+03  0.11260948937E+04  0.60050597406E+03 0.  0.
         23    2    4    4    0    0  0.20376529414E+03  0.26227213523E+03 -0.64352328275E+03  0.73120397233E+03  0.10114378723E+03 0.  0.
         23    2    4    4    0    0 -0.66570670139E+02 -0.23165809305E+03 -0.29866709096E+03  0.39489092137E+03  0.92949891688E+02 0.  0.
          4    1    3    3  502    0 -0.74168291168E+02 -0.18351756600E+02 -0.26143235571E+02  0.80753892483E+02  0.00000000000E+00 0. -1.
         -4    1    3    3    0  502 -0.63026332830E+02 -0.12262285583E+02 -0.14495827741E+03  0.15854205899E+03  0.00000000000E+00 0.  1.
         13    1    5    5    0    0  0.14330181268E+02  0.59529134463E+02 -0.63408232108E+02  0.88145764754E+02  0.00000000000E+00 0.  1.
        -13    1    5    5    0    0  0.18943511287E+03  0.20274300077E+03 -0.58011505064E+03  0.64305820758E+03  0.00000000000E+00 0. -1.
          5    1    6    6  503    0 -0.47021408370E+02 -0.22861530020E+03 -0.29121132731E+03  0.37323195936E+03  0.47000000000E+01 0. -1.
         -5    1    6    6    0  503 -0.19549261769E+02 -0.30427928475E+01 -0.74557636421E+01  0.21658962014E+02  0.47000000000E+01 0.  1.
<mgrwt>
<rscale>  0 0.36654881E+03</rscale>
<asrwt>0</asrwt>
<pdfrwt beam="1">  1        1 0.19066790E+00 0.36654881E+03</pdfrwt>
<pdfrwt beam="2">  1       -1 0.19392228E-01 0.36654881E+03</pdfrwt>
<totfact> 0.22640909E+02</totfact>
</mgrwt>
</event>
<event>
12    1  0.3127365E-008  0.7308401E+03  0.7818608E-02  0.9665898E-01
          2   -1    0    0  501    0  0.00000000000E+00  0.00000000000E+00  0.75181510653E+03  0.75181510653E+03  0.00000000000E+00 0. -1.
         -2   -1    0    0    0  501 -0.00000000000E+00 -0.00000000000E+00 -0.77172696543E+03  0.77172696543E+03  0.00000000000E+00 0.  1.
         23    2    1    2    0    0 -0.59015268324E+02  0.63016564014E+03 -0.10111545053E+03  0.64761574787E+03  0.92683799220E+02 0.  0.
    5000000    2    1    2    0    0  0.59015268324E+02 -0.63016564014E+03  0.81203591628E+02  0.87592632409E+03  0.60005113618E+03 0.  0.
         23    2    4    4    0    0 -0.15614942533E+03 -0.55793535551E+03 -0.66659265806E+02  0.58995138182E+03  0.89020622476E+02 0.  0.
         23    2    4    4    0    0  0.21516469365E+03 -0.72230284630E+02  0.14786285743E+03  0.28597494227E+03  0.91679788320E+02 0.  0.
          3    1    3    3  502    0 -0.74373724659E+02  0.32742100610E+03 -0.37193960971E+02  0.33781556638E+03  0.00000000000E+00 0. -1.
         -3    1    3    3    0  502  0.15358456335E+02  0.30274463405E+03 -0.63921489561E+02  0.30980018149E+03  0.00000000000E+00 0.  1.
         11    1    5    5    0    0 -0.15197798560E+03 -0.39577685726E+03 -0.46866239766E+02  0.42653613361E+03  0.00000000000E+00 0. -1.
        -11    1    5    5    0    0 -0.41714397361E+01 -0.16215849826E+03 -0.19793026040E+02  0.16341524821E+03  0.00000000000E+00 0.  1.
          5    1    6    6  503    0  0.17205757197E+03 -0.27472375919E+02  0.13918750953E+03  0.22305558123E+03  0.47000000000E+01 0. -1.
         -5    1    6    6    0  503  0.43107121689E+02 -0.44757908711E+02  0.86753479017E+01  0.62919361040E+02  0.47000000000E+01 0.  1.
<mgrwt>
<rscale>  0 0.73084013E+03</rscale>
<asrwt>0</asrwt>
<pdfrwt beam="1">  1        2 0.11566386E+00 0.73084013E+03</pdfrwt>
<pdfrwt beam="2">  1       -2 0.11872723E+00 0.73084013E+03</pdfrwt>
<totfact> 0.20709741E+01</totfact>
</mgrwt>
</event>
<event>
12    1  0.3127365E-008  0.5139580E+03  0.7818608E-02  0.1010199E+00
          1   -1    0    0  501    0  0.00000000000E+00  0.00000000000E+00  0.12981146407E+04  0.12981146407E+04  0.00000000000E+00 0. -1.
         -1   -1    0    0    0  501 -0.00000000000E+00 -0.00000000000E+00 -0.23624865729E+03  0.23624865729E+03  0.00000000000E+00 0.  1.
         23    2    1    2    0    0  0.34276346582E+03  0.12527130952E+01  0.14192688181E+03  0.38382027690E+03  0.98419522409E+02 0.  0.
    5000000    2    1    2    0    0 -0.34276346582E+03 -0.12527130952E+01  0.91993910163E+03  0.11505430211E+04  0.59997744119E+03 0.  0.
         23    2    4    4    0    0 -0.41543201089E+02 -0.26011010211E+03  0.30662609951E+03  0.41429915929E+03  0.90780646162E+02 0.  0.
         23    2    4    4    0    0 -0.30122026473E+03  0.25885738901E+03  0.61331300213E+03  0.73624386182E+03  0.90340410479E+02 0.  0.
          1    1    3    3  502    0  0.25609028344E+03 -0.37982586649E+02  0.82827329331E+02  0.27181846266E+03  0.00000000000E+00 0. -1.
         -1    1    3    3    0  502  0.86673182380E+02  0.39235299744E+02  0.59099552477E+02  0.11200181424E+03  0.00000000000E+00 0.  1.
         11    1    5    5    0    0 -0.15697835237E+02 -0.21670427181E+03  0.28731068509E+03  0.36021464881E+03  0.00000000000E+00 0. -1.
        -11    1    5    5    0    0 -0.25845365851E+02 -0.43405830302E+02  0.19315414416E+02  0.54084510483E+02  0.00000000000E+00 0.  1.
          5    1    6    6  503    0 -0.19825566708E+03  0.21936184165E+03  0.47109308934E+03  0.55621553010E+03  0.47000000000E+01 0. -1.
         -5    1    6    6    0  503 -0.10296459764E+03  0.39495547367E+02  0.14221991279E+03  0.18002833172E+03  0.47000000000E+01 0.  1.
<mgrwt>
<rscale>  0 0.51395798E+03</rscale>
<asrwt>0</asrwt>
<pdfrwt beam="1">  1        1 0.19970994E+00 0.51395798E+03</pdfrwt>
<pdfrwt beam="2">  1       -1 0.36345948E-01 0.51395798E+03</pdfrwt>
<totfact> 0.69251372E+01</totfact>
</mgrwt>
</event>
<event>
12    1  0.3127365E-008  0.1681608E+04  0.7818608E-02  0.8771924E-01
          2   -1    0    0  501    0  0.00000000000E+00  0.00000000000E+00  0.49971344386E+04  0.49971344386E+04  0.00000000000E+00 0. -1.
         -2   -1    0    0    0  501 -0.00000000000E+00 -0.00000000000E+00 -0.59655413503E+03  0.59655413503E+03  0.00000000000E+00 0.  1.
         23    2    1    2    0    0  0.15080303566E+04 -0.67220162125E+03  0.16967805383E+04  0.23693501769E+04  0.93517323097E+02 0.  0.
    5000000    2    1    2    0    0 -0.15080303566E+04  0.67220162125E+03  0.27037997653E+04  0.32243383967E+04  0.59984527117E+03 0.  0.
         23    2    4    4    0    0 -0.46134247434E+03 -0.12007919027E+01  0.46835441667E+03  0.66397700111E+03  0.93119696415E+02 0.  0.
         23    2    4    4    0    0 -0.10466878823E+04  0.67340241315E+03  0.22354453486E+04  0.25603613955E+04  0.95959555249E+02 0.  0.
          3    1    3    3  502    0  0.34629629336E+03 -0.11311664373E+03  0.38681435853E+03  0.53135849090E+03  0.00000000000E+00 0. -1.
         -3    1    3    3    0  502  0.11617340633E+04 -0.55908497751E+03  0.13099661798E+04  0.18379916860E+04  0.00000000000E+00 0.  1.
         13    1    5    5    0    0 -0.28861057810E+03  0.19046833230E+02  0.34785768045E+03  0.45239784869E+03  0.00000000000E+00 0. -1.
        -13    1    5    5    0    0 -0.17273189624E+03 -0.20247625133E+02  0.12049673622E+03  0.21157915243E+03  0.00000000000E+00 0.  1.
          5    1    6    6  503    0 -0.54889652195E+03  0.31264700487E+03  0.12014912351E+04  0.13574383299E+04  0.47000000000E+01 0. -1.
         -5    1    6    6    0  503 -0.49779136036E+03  0.36075540828E+03  0.10339541135E+04  0.12029230657E+04  0.47000000000E+01 0.  1.
<mgrwt>
<rscale>  0 0.16816084E+04</rscale>
<asrwt>0</asrwt>
<pdfrwt beam="1">  1        2 0.76878989E+00 0.16816084E+04</pdfrwt>
<pdfrwt beam="2">  1       -2 0.91777562E-01 0.16816084E+04</pdfrwt>
<totfact> 0.33907405E-02</totfact>
</mgrwt>
</event>
<event>
12    1  0.3127365E-008  0.9221214E+03  0.7818608E-02  0.9398343E-01
          2   -1    0    0  501    0  0.00000000000E+00  0.00000000000E+00  0.39058280584E+03  0.39058280584E+03  0.00000000000E+00 0. -1.
         -2   -1    0    0    0  501 -0.00000000000E+00 -0.00000000000E+00 -0.24466999855E+04  0.24466999855E+04  0.00000000000E+00 0.  1.
         23    2    1    2    0    0  0.56588189932E+03  0.65977802740E+03 -0.70915173747E+03  0.11253168521E+04  0.88952017266E+02 0.  0.
    5000000    2    1    2    0    0 -0.56588189932E+03 -0.65977802740E+03 -0.13469654422E+04  0.17119659393E+04  0.60081786373E+03 0.  0.
         23    2    4    4    0    0 -0.45132285660E+03 -0.20897652813E+03 -0.36825164936E+03  0.62437529245E+03  0.82895828335E+02 0.  0.
         23    2    4    4    0    0 -0.11455904272E+03 -0.45080149926E+03 -0.97871379284E+03  0.10875906468E+04  0.92881434075E+02 0.  0.
          2    1    3    3  502    0  0.16524382885E+03  0.24682016556E+03 -0.21207245552E+03  0.36496635939E+03  0.00000000000E+00 0. -1.
         -2    1    3    3    0  502  0.40063807047E+03  0.41295786184E+03 -0.49707928195E+03  0.76035049268E+03  0.00000000000E+00 0.  1.
         11    1    5    5    0    0 -0.23336122589E+03 -0.97896168655E+02 -0.13713135588E+03  0.28783003727E+03  0.00000000000E+00 0.  1.
        -11    1    5    5    0    0 -0.21796163071E+03 -0.11108035948E+03 -0.23112029348E+03  0.33654525518E+03  0.00000000000E+00 0. -1.
          5    1    6    6  503    0 -0.12728142910E+03 -0.43531422422E+03 -0.94170905111E+03  0.10452449775E+04  0.47000000000E+01 0. -1.
         -5    1    6    6    0  503  0.12722386376E+02 -0.15487275045E+02 -0.37004741729E+02  0.42345669364E+02  0.47000000000E+01 0.  1.
<mgrwt>
<rscale>  0 0.92212143E+03</rscale>
<asrwt>0</asrwt>
<pdfrwt beam="1">  1        2 0.60089661E-01 0.92212143E+03</pdfrwt>
<pdfrwt beam="2">  1       -2 0.37641539E+00 0.92212143E+03</pdfrwt>
<totfact> 0.88867058E-01</totfact>
</mgrwt>
</event>
<event>
12    1  0.3127365E-008  0.8103827E+03  0.7818608E-02  0.9545109E-01
         -2   -1    0    0    0  501 -0.00000000000E+00  0.00000000000E+00  0.38433269672E+03  0.38433269672E+03  0.00000000000E+00 0.  1.
          2   -1    0    0  501    0  0.00000000000E+00 -0.00000000000E+00 -0.18189072891E+04  0.18189072891E+04  0.00000000000E+00 0. -1.
         23    2    1    2    0    0  0.51750893168E+03  0.46954152512E+03 -0.88234161189E+03  0.11293507917E+04  0.92853391703E+02 0.  0.
    5000000    2    1    2    0    0 -0.51750893168E+03 -0.46954152512E+03 -0.55223298045E+03  0.10738891941E+04  0.59999333195E+03 0.  0.
         23    2    4    4    0    0  0.91977602495E+02 -0.21278668126E+03 -0.19124815082E+03  0.31429860585E+03  0.92031013065E+02 0.  0.
         23    2    4    4    0    0 -0.60948653418E+03 -0.25675484386E+03 -0.36098482963E+03  0.75959058828E+03  0.96285665547E+02 0.  0.
          1    1    3    3  502    0  0.35494204006E+03  0.26154402594E+03 -0.54686654882E+03  0.70246149469E+03  0.00000000000E+00 0. -1.
         -1    1    3    3    0  502  0.16256689162E+03  0.20799749918E+03 -0.33547506307E+03  0.42688929696E+03  0.00000000000E+00 0.  1.
         11    1    5    5    0    0  0.71317109153E+02 -0.21574735858E+03 -0.18337237177E+03  0.29199054697E+03  0.00000000000E+00 0. -1.
        -11    1    5    5    0    0  0.20660493342E+02  0.29606773183E+01 -0.78757790421E+01  0.22308058877E+02  0.00000000000E+00 0.  1.
          5    1    6    6  503    0 -0.50211675001E+03 -0.24774352398E+03 -0.31386506675E+03  0.64189676307E+03  0.47000000000E+01 0. -1.
         -5    1    6    6    0  503 -0.10736978417E+03 -0.90113198798E+01 -0.47119762876E+02  0.11769382521E+03  0.47000000000E+01 0.  1.
<mgrwt>
<rscale>  0 0.81038267E+03</rscale>
<asrwt>0</asrwt>
<pdfrwt beam="1">  1        2 0.27983188E+00 0.81038267E+03</pdfrwt>
<pdfrwt beam="2">  1       -2 0.59128109E-01 0.81038267E+03</pdfrwt>
<totfact> 0.22996682E+01</totfact>
</mgrwt>
</event>
<event>
12    1  0.3127365E-008  0.1265316E+04  0.7818608E-02  0.9057531E-01
          1   -1    0    0  501    0  0.00000000000E+00  0.00000000000E+00  0.21731791469E+04  0.21731791469E+04  0.00000000000E+00 0. -1.
         -1   -1    0    0    0  501 -0.00000000000E+00 -0.00000000000E+00 -0.97177329871E+03  0.97177329871E+03  0.00000000000E+00 0.  1.
         23    2    1    2    0    0  0.12450613630E+04  0.20197065027E+03 -0.55199981908E+02  0.12655542433E+04  0.87238543546E+02 0.  0.
    5000000    2    1    2    0    0 -0.12450613630E+04 -0.20197065027E+03  0.12566058301E+04  0.18793982023E+04  0.60175530693E+03 0.  0.
         23    2    4    4    0    0 -0.11491047324E+04 -0.20320890846E+03  0.83398017136E+03  0.14364917185E+04  0.79056843463E+02 0.  0.
         23    2    4    4    0    0 -0.95956630623E+02  0.12382581870E+01  0.42262565876E+03  0.44290648388E+03  0.91348222619E+02 0.  0.
          2    1    3    3  502    0  0.95375530472E+03  0.12103557467E+03 -0.25278516810E+02  0.96173686372E+03  0.00000000000E+00 0. -1.
         -2    1    3    3    0  502  0.29130605829E+03  0.80935075602E+02 -0.29921465098E+02  0.30381737958E+03  0.00000000000E+00 0.  1.
         11    1    5    5    0    0 -0.61283713708E+03 -0.81057376198E+02  0.40580521273E+03  0.73947111201E+03  0.00000000000E+00 0. -1.
        -11    1    5    5    0    0 -0.53626759531E+03 -0.12215153226E+03  0.42817495863E+03  0.69702060645E+03  0.00000000000E+00 0.  1.
          5    1    6    6  503    0 -0.49766535705E+01  0.32666107410E+01  0.22669964896E+03  0.22682649463E+03  0.47000000000E+01 0. -1.
         -5    1    6    6    0  503 -0.90979977052E+02 -0.20283525540E+01  0.19592600980E+03  0.21607998925E+03  0.47000000000E+01 0.  1.
<mgrwt>
<rscale>  0 0.12653158E+04</rscale>
<asrwt>0</asrwt>
<pdfrwt beam="1">  1        1 0.33433525E+00 0.12653158E+04</pdfrwt>
<pdfrwt beam="2">  1       -1 0.14950358E+00 0.12653158E+04</pdfrwt>
<totfact> 0.78043870E-01</totfact>
</mgrwt>
</event>
<event>
12    1  0.3127365E-008  0.8312992E+03  0.7818608E-02  0.9515786E-01
          1   -1    0    0  501    0  0.00000000000E+00  0.00000000000E+00  0.12074305650E+04  0.12074305650E+04  0.00000000000E+00 0. -1.
         -1   -1    0    0    0  501 -0.00000000000E+00 -0.00000000000E+00 -0.74245057564E+03  0.74245057564E+03  0.00000000000E+00 0.  1.
         23    2    1    2    0    0  0.29033866493E+02 -0.75841425233E+03  0.60152633261E+03  0.97300256981E+03  0.94153749222E+02 0.  0.
    5000000    2    1    2    0    0 -0.29033866493E+02  0.75841425233E+03 -0.13654634328E+03  0.97687857079E+03  0.59967632491E+03 0.  0.
         23    2    4    4    0    0 -0.24845519807E+03  0.40700726472E+03 -0.23774859106E+03  0.54050225632E+03  0.90738071174E+02 0.  0.
         23    2    4    4    0    0  0.21942133157E+03  0.35140698761E+03  0.10120224778E+03  0.43637631446E+03  0.92465134927E+02 0.  0.
          1    1    3    3  502    0 -0.31651788892E+02 -0.39863249953E+03  0.31928996116E+03  0.51171846236E+03  0.00000000000E+00 0. -1.
         -1    1    3    3    0  502  0.60685655385E+02 -0.35978175280E+03  0.28223637145E+03  0.46128410745E+03  0.00000000000E+00 0.  1.
         13    1    5    5    0    0 -0.72878631356E+01  0.10637679881E+02 -0.28990245204E+02  0.31728654231E+02  0.00000000000E+00 0. -1.
        -13    1    5    5    0    0 -0.24116733493E+03  0.39636958484E+03 -0.20875834585E+03  0.50877360209E+03  0.00000000000E+00 0.  1.
          5    1    6    6  503    0  0.10003334987E+03  0.94695781719E+02  0.59686350944E+02  0.15019491553E+03  0.47000000000E+01 0. -1.
         -5    1    6    6    0  503  0.11938798170E+03  0.25671120590E+03  0.41515896836E+02  0.28618139894E+03  0.47000000000E+01 0.  1.
<mgrwt>
<rscale>  0 0.83129924E+03</rscale>
<asrwt>0</asrwt>
<pdfrwt beam="1">  1        1 0.18575855E+00 0.83129924E+03</pdfrwt>
<pdfrwt beam="2">  1       -1 0.11422317E+00 0.83129924E+03</pdfrwt>
<totfact> 0.75404990E+00</totfact>
</mgrwt>
</event>
<event>
12    1  0.3127365E-008  0.7830894E+03  0.7818608E-02  0.9584822E-01
         -2   -1    0    0    0  501 -0.00000000000E+00  0.00000000000E+00  0.67458023880E+03  0.67458023880E+03  0.00000000000E+00 0.  1.
          2   -1    0    0  501    0  0.00000000000E+00 -0.00000000000E+00 -0.11482906961E+04  0.11482906961E+04  0.00000000000E+00 0. -1.
         23    2    1    2    0    0 -0.40248110311E+03  0.62212576151E+03 -0.44541793550E+03  0.86897374460E+03  0.87673998735E+02 0.  0.
    5000000    2    1    2    0    0  0.40248110311E+03 -0.62212576151E+03 -0.28292521811E+02  0.95389719031E+03  0.60007323002E+03 0.  0.
         23    2    4    4    0    0 -0.16686830263E+02 -0.27227679477E+03  0.20482783119E+03  0.35341733564E+03  0.92391933780E+02 0.  0.
         23    2    4    4    0    0  0.41916793337E+03 -0.34984896675E+03 -0.23312035300E+03  0.60047985467E+03  0.90193685927E+02 0.  0.
          2    1    3    3  502    0 -0.58410885678E+02  0.63773914339E+02 -0.81943582756E+02  0.11913729253E+03  0.00000000000E+00 0. -1.
         -2    1    3    3    0  502 -0.34407021743E+03  0.55835184717E+03 -0.36347435274E+03  0.74983645208E+03  0.00000000000E+00 0.  1.
         11    1    5    5    0    0 -0.82432968038E+01 -0.21422646053E+03  0.20220196535E+03  0.29469740943E+03  0.00000000000E+00 0. -1.
        -11    1    5    5    0    0 -0.84435334588E+01 -0.58050334241E+02  0.26258658370E+01  0.58719926210E+02  0.00000000000E+00 0.  1.
          5    1    6    6  503    0  0.36753772854E+03 -0.27198048379E+03 -0.21464080921E+03  0.50512387831E+03  0.47000000000E+01 0. -1.
         -5    1    6    6    0  503  0.51630204835E+02 -0.77868482953E+02 -0.18479543794E+02  0.95355976360E+02  0.47000000000E+01 0.  1.
<mgrwt>
<rscale>  0 0.78308939E+03</rscale>
<asrwt>0</asrwt>
<pdfrwt beam="1">  1        2 0.17666011E+00 0.78308939E+03</pdfrwt>
<pdfrwt beam="2">  1       -2 0.10378158E+00 0.78308939E+03</pdfrwt>
<totfact> 0.15613071E+01</totfact>
</mgrwt>
</event>
<event>
12    1  0.3127365E-008  0.2201322E+04  0.7818608E-02  0.8517878E-01
         -2   -1    0    0    0  501 -0.00000000000E+00  0.00000000000E+00  0.11945914453E+04  0.11945914453E+04  0.00000000000E+00 0.  1.
          2   -1    0    0  501    0  0.00000000000E+00 -0.00000000000E+00 -0.46112296628E+04  0.46112296628E+04  0.00000000000E+00 0. -1.
         23    2    1    2    0    0  0.13078078025E+04  0.17450466377E+04 -0.26148863212E+04  0.34061540419E+04  0.93305242218E+02 0.  0.
    5000000    2    1    2    0    0 -0.13078078025E+04 -0.17450466377E+04 -0.80175189631E+03  0.23996670662E+04  0.60003908992E+03 0.  0.
         23    2    4    4    0    0 -0.65545750969E+03 -0.11855954466E+04 -0.70593773888E+03  0.15302749915E+04  0.90179534681E+02 0.  0.
         23    2    4    4    0    0 -0.65235029278E+03 -0.55945119111E+03 -0.95814157433E+02  0.86939207470E+03  0.90087108143E+02 0.  0.
          4    1    3    3  502    0  0.84454689812E+03  0.10787597195E+04 -0.15877522039E+04  0.20971263807E+04  0.00000000000E+00 0. -1.
         -4    1    3    3    0  502  0.46326090435E+03  0.66628691829E+03 -0.10271341172E+04  0.13090276612E+04  0.00000000000E+00 0.  1.
         11    1    5    5    0    0 -0.41179001275E+03 -0.82307041964E+03 -0.45777793843E+03  0.10278991056E+04  0.00000000000E+00 0.  1.
        -11    1    5    5    0    0 -0.24366749694E+03 -0.36252502699E+03 -0.24815980045E+03  0.50237588599E+03  0.00000000000E+00 0. -1.
          5    1    6    6  503    0 -0.15339644536E+03 -0.85034952588E+02 -0.25594401488E+02  0.17730926654E+03  0.47000000000E+01 0. -1.
         -5    1    6    6    0  503 -0.49895384742E+03 -0.47441623853E+03 -0.70219755945E+02  0.69208280816E+03  0.47000000000E+01 0.  1.
<mgrwt>
<rscale>  0 0.22013215E+04</rscale>
<asrwt>0</asrwt>
<pdfrwt beam="1">  1        2 0.70941994E+00 0.22013215E+04</pdfrwt>
<pdfrwt beam="2">  1       -2 0.18378330E+00 0.22013215E+04</pdfrwt>
<totfact> 0.14345162E-02</totfact>
</mgrwt>
</event>
<event>
12    1  0.3127365E-008  0.8925215E+03  0.7818608E-02  0.9434978E-01
         -2   -1    0    0    0  501 -0.00000000000E+00  0.00000000000E+00  0.26705263690E+03  0.26705263690E+03  0.00000000000E+00 0.  1.
          2   -1    0    0  501    0  0.00000000000E+00 -0.00000000000E+00 -0.33201526571E+04  0.33201526571E+04  0.00000000000E+00 0. -1.
         23    2    1    2    0    0  0.63825855556E+03  0.54157091068E+03 -0.15590389183E+04  0.17725729532E+04  0.10363151398E+03 0.  0.
    5000000    2    1    2    0    0 -0.63825855556E+03 -0.54157091068E+03 -0.14940611019E+04  0.18146323408E+04  0.59999910078E+03 0.  0.
         23    2    4    4    0    0  0.43027214364E+02 -0.29736348036E+02 -0.21227117531E+02  0.11051762886E+03  0.95015599769E+02 0.  0.
         23    2    4    4    0    0 -0.68128576992E+03 -0.51183456264E+03 -0.14728339844E+04  0.17041147119E+04  0.92962820777E+02 0.  0.
          4    1    3    3  502    0  0.52870501576E+03  0.47877986310E+03 -0.12583277095E+04  0.14464258624E+04  0.00000000000E+00 0. -1.
         -4    1    3    3    0  502  0.10955353979E+03  0.62791047579E+02 -0.30071120877E+03  0.32614709077E+03  0.00000000000E+00 0.  1.
         13    1    5    5    0    0  0.55157804552E+02  0.15361660715E+01 -0.43491236310E+02  0.70258315130E+02  0.00000000000E+00 0.  1.
        -13    1    5    5    0    0 -0.12130590187E+02 -0.31272514108E+02  0.22264118779E+02  0.40259313728E+02  0.00000000000E+00 0. -1.
          5    1    6    6  503    0 -0.71134194160E+02 -0.90793948500E+02 -0.18094437453E+03  0.21463124501E+03  0.47000000000E+01 0. -1.
         -5    1    6    6    0  503 -0.61015157576E+03 -0.42104061414E+03 -0.12918896098E+04  0.14894834669E+04  0.47000000000E+01 0.  1.
<mgrwt>
<rscale>  0 0.89252151E+03</rscale>
<asrwt>0</asrwt>
<pdfrwt beam="1">  1        2 0.51079270E+00 0.89252151E+03</pdfrwt>
<pdfrwt beam="2">  1       -2 0.41085022E-01 0.89252151E+03</pdfrwt>
<totfact> 0.63547510E+00</totfact>
</mgrwt>
</event>
<event>
12    1  0.4101524E-008  0.1462393E+04  0.7818608E-02  0.8909854E-01
         -1   -1    0    0    0  501 -0.00000000000E+00  0.00000000000E+00  0.11517875755E+04  0.11517875755E+04  0.00000000000E+00 0.  1.
          1   -1    0    0  501    0  0.00000000000E+00 -0.00000000000E+00 -0.19094095052E+04  0.19094095052E+04  0.00000000000E+00 0. -1.
         23    2    1    2    0    0  0.85245998609E+03 -0.11160004191E+04 -0.13817140857E+03  0.14131912350E+04  0.76636578501E+02 0.  0.
    5000000    2    1    2    0    0 -0.85245998609E+03  0.11160004191E+04 -0.61945052109E+03  0.16480058457E+04  0.60004946129E+03 0.  0.
         23    2    4    4    0    0 -0.46970817664E+03  0.10043343949E+04 -0.51427899907E+03  0.12256676404E+04  0.92005042798E+02 0.  0.
         23    2    4    4    0    0 -0.38275180946E+03  0.11166602423E+03 -0.10517152202E+03  0.42233820528E+03  0.91325034839E+02 0.  0.
          1    1    3    3  502    0  0.39600712593E+03 -0.45689650988E+03 -0.52738410764E+02  0.60692454597E+03  0.00000000000E+00 0. -1.
         -1    1    3    3    0  502  0.45645286016E+03 -0.65910390924E+03 -0.85432997803E+02  0.80626668903E+03  0.00000000000E+00 0.  1.
         13    1    5    5    0    0 -0.13099448653E+03  0.32274341738E+03 -0.20463957255E+03  0.40398047430E+03  0.00000000000E+00 0.  1.
        -13    1    5    5    0    0 -0.33871369011E+03  0.68159097751E+03 -0.30963942652E+03  0.82168716611E+03  0.00000000000E+00 0. -1.
          5    1    6    6  503    0 -0.24446596034E+03  0.11586121149E+03 -0.67081807928E+02  0.27876421049E+03  0.47000000000E+01 0. -1.
         -5    1    6    6    0  503 -0.13828584911E+03 -0.41951872644E+01 -0.38089714090E+02  0.14357399479E+03  0.47000000000E+01 0.  1.
<mgrwt>
<rscale>  0 0.14623929E+04</rscale>
<asrwt>0</asrwt>
<pdfrwt beam="1">  1        1 0.29375531E+00 0.14623929E+04</pdfrwt>
<pdfrwt beam="2">  1       -1 0.17719809E+00 0.14623929E+04</pdfrwt>
<totfact> 0.71200279E-01</totfact>
</mgrwt>
</event>
<event>
12    1  0.3127365E-008  0.8310423E+03  0.7818608E-02  0.9516141E-01
         -2   -1    0    0    0  501 -0.00000000000E+00  0.00000000000E+00  0.12446954365E+04  0.12446954365E+04  0.00000000000E+00 0.  1.
          2   -1    0    0  501    0  0.00000000000E+00 -0.00000000000E+00 -0.77309435982E+03  0.77309435982E+03  0.00000000000E+00 0. -1.
         23    2    1    2    0    0 -0.70672346087E+03 -0.41632826127E+03  0.56037613307E+03  0.99764855429E+03  0.92162661046E+02 0.  0.
    5000000    2    1    2    0    0  0.70672346087E+03  0.41632826127E+03 -0.88775056388E+02  0.10201412420E+04  0.60001655958E+03 0.  0.
         23    2    4    4    0    0  0.30831034985E+03  0.25183432817E+03  0.23679842267E+03  0.47210369092E+03  0.91283083472E+02 0.  0.
         23    2    4    4    0    0  0.39841311102E+03  0.16449393310E+03 -0.32557347906E+03  0.54803755111E+03  0.92497600498E+02 0.  0.
          2    1    3    3  502    0 -0.49534707915E+03 -0.28852568851E+03  0.33919583226E+03  0.66608529061E+03  0.00000000000E+00 0. -1.
         -2    1    3    3    0  502 -0.21137638172E+03 -0.12780257276E+03  0.22118030081E+03  0.33156326367E+03  0.00000000000E+00 0.  1.
         11    1    5    5    0    0  0.80645224917E+02  0.20199064879E+02  0.39028279635E+02  0.91841500071E+02  0.00000000000E+00 0. -1.
        -11    1    5    5    0    0  0.22766512493E+03  0.23163526329E+03  0.19777014304E+03  0.38026219085E+03  0.00000000000E+00 0.  1.
          5    1    6    6  503    0  0.22490106120E+03  0.66492900737E+02 -0.12729994658E+03  0.26688791575E+03  0.47000000000E+01 0. -1.
         -5    1    6    6    0  503  0.17351204982E+03  0.98001032359E+02 -0.19827353248E+03  0.28114963535E+03  0.47000000000E+01 0.  1.
<mgrwt>
<rscale>  0 0.83104228E+03</rscale>
<asrwt>0</asrwt>
<pdfrwt beam="1">  1        2 0.11893759E+00 0.83104228E+03</pdfrwt>
<pdfrwt beam="2">  1       -2 0.19149161E+00 0.83104228E+03</pdfrwt>
<totfact> 0.55158453E+00</totfact>
</mgrwt>
</event>
<event>
12    1  0.3127365E-008  0.6083810E+03  0.7818608E-02  0.9888169E-01
          1   -1    0    0  501    0  0.00000000000E+00  0.00000000000E+00  0.66376591818E+03  0.66376591818E+03  0.00000000000E+00 0. -1.
         -1   -1    0    0    0  501 -0.00000000000E+00 -0.00000000000E+00 -0.65908152113E+03  0.65908152113E+03  0.00000000000E+00 0.  1.
         23    2    1    2    0    0  0.17282175195E+03 -0.44042164918E+03  0.21817745551E+03  0.52951512955E+03  0.94584794314E+02 0.  0.
    5000000    2    1    2    0    0 -0.17282175195E+03  0.44042164918E+03 -0.21349305847E+03  0.79333230976E+03  0.59996523289E+03 0.  0.
         23    2    4    4    0    0 -0.33778274660E+03  0.42514582610E+03 -0.24335810982E+03  0.60208290114E+03  0.91839495239E+02 0.  0.
         23    2    4    4    0    0  0.16496099465E+03  0.15275823082E+02  0.29865051356E+02  0.19124940862E+03  0.90768576490E+02 0.  0.
          3    1    3    3  502    0  0.18420790926E+02 -0.12747346858E+03  0.92652988000E+02  0.15866123319E+03  0.00000000000E+00 0. -1.
         -3    1    3    3    0  502  0.15440096102E+03 -0.31294818060E+03  0.12552446751E+03  0.37085389636E+03  0.00000000000E+00 0.  1.
         11    1    5    5    0    0 -0.17319237858E+03  0.14720240953E+03 -0.89377638007E+02  0.24423863647E+03  0.00000000000E+00 0. -1.
        -11    1    5    5    0    0 -0.16459036801E+03  0.27794341657E+03 -0.15398047182E+03  0.35784426467E+03  0.00000000000E+00 0.  1.
          5    1    6    6  503    0  0.93482249196E+02 -0.36321166238E+02  0.20510992290E+02  0.10247413740E+03  0.47000000000E+01 0. -1.
         -5    1    6    6    0  503  0.71478745451E+02  0.51596989320E+02  0.93540590653E+01  0.88775271214E+02  0.47000000000E+01 0.  1.
<mgrwt>
<rscale>  0 0.60838101E+03</rscale>
<asrwt>0</asrwt>
<pdfrwt beam="1">  1        1 0.10211783E+00 0.60838101E+03</pdfrwt>
<pdfrwt beam="2">  1       -1 0.10139716E+00 0.60838101E+03</pdfrwt>
<totfact> 0.28392373E+01</totfact>
</mgrwt>
</event>
<event>
12    1  0.3127365E-008  0.5973577E+03  0.7818608E-02  0.9910903E-01
         -2   -1    0    0    0  501 -0.00000000000E+00  0.00000000000E+00  0.16086749226E+04  0.16086749226E+04  0.00000000000E+00 0. -1.
          2   -1    0    0  501    0  0.00000000000E+00 -0.00000000000E+00 -0.42090235328E+03  0.42090235328E+03  0.00000000000E+00 0.  1.
         23    2    1    2    0    0  0.27771114178E+03  0.38923630556E+03  0.11629905298E+04  0.12613192042E+04  0.98746051072E+02 0.  0.
    5000000    2    1    2    0    0 -0.27771114178E+03 -0.38923630556E+03  0.24782039538E+02  0.76825807171E+03  0.60081439349E+03 0.  0.
         23    2    4    4    0    0 -0.71785921274E+02 -0.47391026336E+03  0.13158254642E+03  0.50463767718E+03  0.87184072489E+02 0.  0.
         23    2    4    4    0    0 -0.20592522051E+03  0.84673957793E+02 -0.10680050688E+03  0.26362039453E+03  0.92273986427E+02 0.  0.
          1    1    3    3  502    0  0.10308155324E+03  0.72438809888E+02  0.27573358106E+03  0.30315374898E+03  0.00000000000E+00 0. -1.
         -1    1    3    3    0  502  0.17462958854E+03  0.31679749568E+03  0.88725694872E+03  0.95816545519E+03  0.00000000000E+00 0.  1.
         11    1    5    5    0    0 -0.64049654177E+02 -0.41542879260E+03  0.14406575753E+03  0.44434039025E+03  0.00000000000E+00 0.  1.
        -11    1    5    5    0    0 -0.77362670963E+01 -0.58481470759E+02 -0.12483211106E+02  0.60297286923E+02  0.00000000000E+00 0. -1.
          5    1    6    6  503    0 -0.13746252070E+03  0.32176454369E+02 -0.10701906343E+03  0.17721861852E+03  0.47000000000E+01 0. -1.
         -5    1    6    6    0  503 -0.68462699807E+02  0.52497503424E+02  0.21855654279E+00  0.86401776010E+02  0.47000000000E+01 0.  1.
<mgrwt>
<rscale>  0 0.59735769E+03</rscale>
<asrwt>0</asrwt>
<pdfrwt beam="1">  1        2 0.64754209E-01 0.59735769E+03</pdfrwt>
<pdfrwt beam="2">  1       -2 0.24748845E+00 0.59735769E+03</pdfrwt>
<totfact> 0.52494734E+00</totfact>
</mgrwt>
</event>
<event>
12    1  0.3127365E-008  0.3231570E+03  0.7818608E-02  0.1074205E+00
         -2   -1    0    0    0  501 -0.00000000000E+00  0.00000000000E+00  0.12367490331E+04  0.12367490331E+04  0.00000000000E+00 0.  1.
          2   -1    0    0  501    0  0.00000000000E+00 -0.00000000000E+00 -0.53073490685E+03  0.53073490685E+03  0.00000000000E+00 0. -1.
         23    2    1    2    0    0 -0.10993833746E+03  0.16913613173E+03 -0.42066589951E+03  0.47517519817E+03  0.90211977325E+02 0.  0.
    5000000    2    1    2    0    0  0.10993833746E+03 -0.16913613173E+03  0.11266800257E+04  0.12923087417E+04  0.59996711118E+03 0.  0.
         23    2    4    4    0    0  0.63380139375E+02  0.11333218163E+03  0.90527832451E+03  0.91913165555E+03  0.91722025505E+02 0.  0.
         23    2    4    4    0    0  0.46558198083E+02 -0.28246831336E+03  0.22140170124E+03  0.37317708619E+03  0.91029723100E+02 0.  0.
          4    1    3    3  502    0 -0.52674086447E+02  0.58201348405E+02 -0.26068643180E+03  0.27224873198E+03  0.00000000000E+00 0. -1.
         -4    1    3    3    0  502 -0.57264251012E+02  0.11093478332E+03 -0.15997946771E+03  0.20292646620E+03  0.00000000000E+00 0.  1.
         11    1    5    5    0    0  0.81893560102E+02  0.70556828761E+02  0.72058654660E+03  0.72864929315E+03  0.00000000000E+00 0. -1.
        -11    1    5    5    0    0 -0.18513420727E+02  0.42775352874E+02  0.18469177790E+03  0.19048236240E+03  0.00000000000E+00 0.  1.
          5    1    6    6  503    0  0.36818165102E+02 -0.26592106988E+03  0.22809654535E+03  0.35230628250E+03  0.47000000000E+01 0. -1.
         -5    1    6    6    0  503  0.97400329811E+01 -0.16547243480E+02 -0.66948441101E+01  0.20870803696E+02  0.47000000000E+01 0.  1.
<mgrwt>
<rscale>  0 0.32315697E+03</rscale>
<asrwt>0</asrwt>
<pdfrwt beam="1">  1        2 0.81651525E-01 0.32315697E+03</pdfrwt>
<pdfrwt beam="2">  1       -2 0.19026908E+00 0.32315697E+03</pdfrwt>
<totfact> 0.96696100E+00</totfact>
</mgrwt>
</event>
<event>
12    1  0.3127365E-008  0.9134503E+03  0.7818608E-02  0.9408922E-01
          1   -1    0    0  501    0  0.00000000000E+00  0.00000000000E+00  0.12134343719E+04  0.12134343719E+04  0.00000000000E+00 0. -1.
         -1   -1    0    0    0  501 -0.00000000000E+00 -0.00000000000E+00 -0.71106618948E+03  0.71106618948E+03  0.00000000000E+00 0.  1.
         23    2    1    2    0    0 -0.51409867893E+03  0.64884788343E+03  0.17621050571E+03  0.85120798391E+03  0.90575173430E+02 0.  0.
    5000000    2    1    2    0    0  0.51409867893E+03 -0.64884788343E+03  0.32615767670E+03  0.10732925775E+04  0.60023087161E+03 0.  0.
         23    2    4    4    0    0  0.28950938936E+02  0.76912734217E+02 -0.27876418118E+02  0.12680258295E+03  0.92455799197E+02 0.  0.
         23    2    4    4    0    0  0.48514773999E+03 -0.72576061765E+03  0.35403409482E+03  0.94648999450E+03  0.91686234805E+02 0.  0.
          4    1    3    3  502    0 -0.13100249467E+03  0.19239572533E+03  0.87814552572E+02  0.24877532912E+03  0.00000000000E+00 0. -1.
         -4    1    3    3    0  502 -0.38309618426E+03  0.45645215811E+03  0.88395953139E+02  0.60243265479E+03  0.00000000000E+00 0.  1.
         11    1    5    5    0    0 -0.32701511004E+02  0.40484092363E+02 -0.13479447902E+02  0.53759148730E+02  0.00000000000E+00 0.  1.
        -11    1    5    5    0    0  0.61652449940E+02  0.36428641853E+02 -0.14396970216E+02  0.73043434218E+02  0.00000000000E+00 0. -1.
          5    1    6    6  503    0  0.31878829525E+03 -0.43143866257E+03  0.17749097756E+03  0.56505790311E+03  0.47000000000E+01 0. -1.
         -5    1    6    6    0  503  0.16635944474E+03 -0.29432195508E+03  0.17654311726E+03  0.38143209140E+03  0.47000000000E+01 0.  1.
<mgrwt>
<rscale>  0 0.91345033E+03</rscale>
<asrwt>0</asrwt>
<pdfrwt beam="1">  1        1 0.18668221E+00 0.91345033E+03</pdfrwt>
<pdfrwt beam="2">  1       -1 0.10939480E+00 0.91345033E+03</pdfrwt>
<totfact> 0.81862397E+00</totfact>
</mgrwt>
</event>
<event>
12    1  0.3127365E-008  0.5995748E+03  0.7818608E-02  0.9906289E-01
          2   -1    0    0  501    0  0.00000000000E+00  0.00000000000E+00  0.10345820578E+04  0.10345820578E+04  0.00000000000E+00 0. -1.
         -2   -1    0    0    0  501 -0.00000000000E+00 -0.00000000000E+00 -0.40904017564E+03  0.40904017564E+03  0.00000000000E+00 0.  1.
         23    2    1    2    0    0  0.56053330778E+02 -0.48906411114E+03  0.10848846544E+03  0.51231993513E+03  0.91522063456E+02 0.  0.
    5000000    2    1    2    0    0 -0.56053330778E+02  0.48906411114E+03  0.51705341673E+03  0.93130229831E+03  0.59804185004E+03 0.  0.
         23    2    4    4    0    0  0.20341953736E+03  0.13235729468E+03  0.20107599290E+02  0.25993815202E+03  0.90915156557E+02 0.  0.
         23    2    4    4    0    0 -0.25947286814E+03  0.35670681646E+03  0.49694581744E+03  0.67136414629E+03  0.95962228260E+02 0.  0.
          4    1    3    3  502    0  0.94107622761E+01 -0.27025714738E+03  0.10037860671E+03  0.28844991392E+03  0.00000000000E+00 0.  1.
         -4    1    3    3    0  502  0.46642568502E+02 -0.21880696377E+03  0.81098587327E+01  0.22387002121E+03  0.00000000000E+00 0. -1.
         13    1    5    5    0    0  0.71046860033E+02  0.90593634645E+02  0.35011535781E+02  0.12033565804E+03  0.00000000000E+00 0. -1.
        -13    1    5    5    0    0  0.13237267733E+03  0.41763660039E+02 -0.14903936492E+02  0.13960249398E+03  0.00000000000E+00 0.  1.
          5    1    6    6  503    0 -0.16527425865E+03  0.14743677138E+03  0.25714590677E+03  0.33941020830E+03  0.47000000000E+01 0. -1.
         -5    1    6    6    0  503 -0.94198609489E+02  0.20927004508E+03  0.23979991067E+03  0.33195393800E+03  0.47000000000E+01 0.  1.
<mgrwt>
<rscale>  0 0.59957479E+03</rscale>
<asrwt>0</asrwt>
<pdfrwt beam="1">  1        2 0.15916647E+00 0.59957479E+03</pdfrwt>
<pdfrwt beam="2">  1       -2 0.62929258E-01 0.59957479E+03</pdfrwt>
<totfact> 0.57717957E+01</totfact>
</mgrwt>
</event>
<event>
12    1  0.3127365E-008  0.8160136E+03  0.7818608E-02  0.9537123E-01
         -2   -1    0    0    0  501 -0.00000000000E+00  0.00000000000E+00  0.34366040884E+03  0.34366040884E+03  0.00000000000E+00 0.  1.
          2   -1    0    0  501    0  0.00000000000E+00 -0.00000000000E+00 -0.25403375510E+04  0.25403375510E+04  0.00000000000E+00 0. -1.
         23    2    1    2    0    0  0.52458721097E+03  0.57650205179E+03 -0.52402193176E+03  0.94357547678E+03  0.90494959919E+02 0.  0.
    5000000    2    1    2    0    0 -0.52458721097E+03 -0.57650205179E+03 -0.16726552104E+04  0.19404224830E+04  0.59993133125E+03 0.  0.
         23    2    4    4    0    0 -0.53303625337E+03 -0.43519598173E+03 -0.83335178225E+03  0.10846444805E+04  0.91952521412E+02 0.  0.
         23    2    4    4    0    0  0.84490423958E+01 -0.14130607007E+03 -0.83930342812E+03  0.85577800252E+03  0.88808520938E+02 0.  0.
          1    1    3    3  502    0  0.14400042077E+03  0.19887756527E+03 -0.20370334812E+03  0.31903520367E+03  0.00000000000E+00 0. -1.
         -1    1    3    3    0  502  0.38058679020E+03  0.37762448652E+03 -0.32031858364E+03  0.62454027310E+03  0.00000000000E+00 0.  1.
         11    1    5    5    0    0 -0.25324236585E+03 -0.21138153666E+03 -0.47131448831E+03  0.57528357945E+03  0.00000000000E+00 0. -1.
        -11    1    5    5    0    0 -0.27979388752E+03 -0.22381444506E+03 -0.36203729395E+03  0.50936090106E+03  0.00000000000E+00 0.  1.
          5    1    6    6  503    0 -0.31235659123E+02 -0.28636558076E+02 -0.32377565532E+03  0.32657079453E+03  0.47000000000E+01 0. -1.
         -5    1    6    6    0  503  0.39684701519E+02 -0.11266951199E+03 -0.51552777280E+03  0.52920720799E+03  0.47000000000E+01 0.  1.
<mgrwt>
<rscale>  0 0.81601365E+03</rscale>
<asrwt>0</asrwt>
<pdfrwt beam="1">  1        2 0.39082118E+00 0.81601365E+03</pdfrwt>
<pdfrwt beam="2">  1       -2 0.52870829E-01 0.81601365E+03</pdfrwt>
<totfact> 0.11555141E+01</totfact>
</mgrwt>
</event>
<event>
12    1  0.3127365E-008  0.7826328E+03  0.7818608E-02  0.9585501E-01
          1   -1    0    0  501    0  0.00000000000E+00  0.00000000000E+00  0.24072584154E+04  0.24072584154E+04  0.00000000000E+00 0. -1.
         -1   -1    0    0    0  501 -0.00000000000E+00 -0.00000000000E+00 -0.71814935156E+03  0.71814935156E+03  0.00000000000E+00 0.  1.
         23    2    1    2    0    0  0.60754714324E+03 -0.34701081624E+03  0.20251885248E+04  0.21445460348E+04  0.90327718009E+02 0.  0.
    5000000    2    1    2    0    0 -0.60754714324E+03  0.34701081624E+03 -0.33607946098E+03  0.98086173212E+03  0.59967515841E+03 0.  0.
         23    2    4    4    0    0  0.21766960149E+02  0.19578542253E+03  0.49595516386E+02  0.22204725697E+03  0.89663464422E+02 0.  0.
         23    2    4    4    0    0 -0.62931410339E+03  0.15122539371E+03 -0.38567497736E+03  0.75881447516E+03  0.90271031434E+02 0.  0.
          3    1    3    3  502    0  0.23116216270E+02 -0.36452005485E+02  0.14435968701E+03  0.15067457447E+03  0.00000000000E+00 0. -1.
         -3    1    3    3    0  502  0.58443092697E+03 -0.31055881076E+03  0.18808288378E+04  0.19938714604E+04  0.00000000000E+00 0.  1.
         13    1    5    5    0    0  0.27480352544E+02  0.27593621729E+02  0.36293729758E+02  0.53233566063E+02  0.00000000000E+00 0. -1.
        -13    1    5    5    0    0 -0.57133923949E+01  0.16819180080E+03  0.13301786628E+02  0.16881369091E+03  0.00000000000E+00 0.  1.
          5    1    6    6  503    0 -0.36032556984E+03  0.42397171879E+02 -0.22815988723E+03  0.42861528275E+03  0.47000000000E+01 0. -1.
         -5    1    6    6    0  503 -0.26898853354E+03  0.10882822183E+03 -0.15751509013E+03  0.33019919240E+03  0.47000000000E+01 0.  1.
<mgrwt>
<rscale>  0 0.78263284E+03</rscale>
<asrwt>0</asrwt>
<pdfrwt beam="1">  1        1 0.37034744E+00 0.78263284E+03</pdfrwt>
<pdfrwt beam="2">  1       -1 0.11048452E+00 0.78263284E+03</pdfrwt>
<totfact> 0.12541727E+00</totfact>
</mgrwt>
</event>
<event>
12    1  0.3127365E-008  0.5092607E+03  0.7818608E-02  0.1011390E+00
         -2   -1    0    0    0  501 -0.00000000000E+00  0.00000000000E+00  0.14378947097E+03  0.14378947097E+03  0.00000000000E+00 0.  1.
          2   -1    0    0  501    0  0.00000000000E+00 -0.00000000000E+00 -0.18639319908E+04  0.18639319908E+04  0.00000000000E+00 0. -1.
         23    2    1    2    0    0  0.24064053758E+03  0.23282804606E+03 -0.51987787865E+03  0.62472668879E+03  0.88846269614E+02 0.  0.
    5000000    2    1    2    0    0 -0.24064053758E+03 -0.23282804606E+03 -0.12002646412E+04  0.13829947730E+04  0.59993546806E+03 0.  0.
         23    2    4    4    0    0  0.16351396765E+03 -0.19541209237E+03 -0.45190260134E+03  0.52683044595E+03  0.91715070868E+02 0.  0.
         23    2    4    4    0    0 -0.40415450523E+03 -0.37415953694E+02 -0.74836203982E+03  0.85616432700E+03  0.90723726210E+02 0.  0.
          4    1    3    3  502    0 -0.66258970796E+01  0.26171123645E+01 -0.21353415485E+02  0.22510445178E+02  0.00000000000E+00 0. -1.
         -4    1    3    3    0  502  0.24726643466E+03  0.23021093370E+03 -0.49852446316E+03  0.60221624361E+03  0.00000000000E+00 0.  1.
         13    1    5    5    0    0  0.59534590784E+02 -0.19022193977E+02 -0.14497116479E+03  0.15786972472E+03  0.00000000000E+00 0. -1.
        -13    1    5    5    0    0  0.10397937686E+03 -0.17638989839E+03 -0.30693143655E+03  0.36896072123E+03  0.00000000000E+00 0.  1.
          5    1    6    6  503    0 -0.36880048670E+03 -0.36353565963E+02 -0.72277669328E+03  0.81225834504E+03  0.47000000000E+01 0. -1.
         -5    1    6    6    0  503 -0.35354018531E+02 -0.10623877317E+01 -0.25585346543E+02  0.43905981959E+02  0.47000000000E+01 0.  1.
<mgrwt>
<rscale>  0 0.50926066E+03</rscale>
<asrwt>0</asrwt>
<pdfrwt beam="1">  1        2 0.28675878E+00 0.50926066E+03</pdfrwt>
<pdfrwt beam="2">  1       -2 0.22121456E-01 0.50926066E+03</pdfrwt>
<totfact> 0.14908236E+02</totfact>
</mgrwt>
</event>
<event>
12    1  0.3127365E-008  0.1036534E+04  0.7818608E-02  0.9269358E-01
          2   -1    0    0  501    0  0.00000000000E+00  0.00000000000E+00  0.18336531041E+04  0.18336531041E+04  0.00000000000E+00 0.  1.
         -2   -1    0    0    0  501 -0.00000000000E+00 -0.00000000000E+00 -0.62904152148E+03  0.62904152148E+03  0.00000000000E+00 0. -1.
         23    2    1    2    0    0 -0.44448558975E+03 -0.85394849026E+03  0.81036205068E+03  0.12616277089E+04  0.90677224552E+02 0.  0.
    5000000    2    1    2    0    0  0.44448558975E+03  0.85394849026E+03  0.39424953196E+03  0.12010669168E+04  0.60027792028E+03 0.  0.
         23    2    4    4    0    0  0.28239609102E+03  0.89503725664E+03  0.34295523936E+03  0.10032602311E+04  0.89852947572E+02 0.  0.
         23    2    4    4    0    0  0.16208949873E+03 -0.41088766384E+02  0.51294292600E+02  0.19780668562E+03  0.92385540542E+02 0.  0.
          3    1    3    3  502    0 -0.91737838888E+02 -0.21352398327E+03  0.15151795517E+03  0.27742749189E+03  0.00000000000E+00 0. -1.
         -3    1    3    3    0  502 -0.35274775086E+03 -0.64042450699E+03  0.65884409551E+03  0.98420021697E+03  0.00000000000E+00 0.  1.
         11    1    5    5    0    0  0.50710368117E+02  0.28324358518E+03  0.12486192117E+03  0.31367016010E+03  0.00000000000E+00 0. -1.
        -11    1    5    5    0    0  0.23168572291E+03  0.61179367146E+03  0.21809331819E+03  0.68959007104E+03  0.00000000000E+00 0.  1.
          5    1    6    6  503    0  0.70041329794E+02 -0.14830818350E+02 -0.24293400692E+02  0.75749589896E+02  0.47000000000E+01 0. -1.
         -5    1    6    6    0  503  0.92048168932E+02 -0.26257948034E+02  0.75587693292E+02  0.12205709572E+03  0.47000000000E+01 0.  1.
<mgrwt>
<rscale>  0 0.10365340E+04</rscale>
<asrwt>0</asrwt>
<pdfrwt beam="1">  1        2 0.28210048E+00 0.10365340E+04</pdfrwt>
<pdfrwt beam="2">  1       -2 0.96775619E-01 0.10365340E+04</pdfrwt>
<totfact> 0.73370444E+00</totfact>
</mgrwt>
</event>
<event>
12    1  0.3127365E-008  0.7504968E+03  0.7818608E-02  0.9634571E-01
         -4   -1    0    0    0  501 -0.00000000000E+00  0.00000000000E+00  0.89802174146E+03  0.89802174146E+03  0.00000000000E+00 0.  1.
          4   -1    0    0  501    0  0.00000000000E+00 -0.00000000000E+00 -0.99759105645E+03  0.99759105645E+03  0.00000000000E+00 0. -1.
         23    2    1    2    0    0  0.36655544728E+02 -0.65324604054E+03 -0.58617366708E+03  0.88328311264E+03  0.92279307877E+02 0.  0.
    5000000    2    1    2    0    0 -0.36655544728E+02  0.65324604054E+03  0.48660435209E+03  0.10123296853E+04  0.59996131357E+03 0.  0.
         23    2    4    4    0    0 -0.51428933661E+02  0.73257111292E+03  0.32123322853E+03  0.80574533253E+03  0.82032817072E+02 0.  0.
         23    2    4    4    0    0  0.14773388934E+02 -0.79325072386E+02  0.16537112356E+03  0.20658435275E+03  0.93908285906E+02 0.  0.
          3    1    3    3  502    0 -0.27215882243E+02 -0.15292234032E+03 -0.15952767140E+03  0.22265449548E+03  0.00000000000E+00 0. -1.
         -3    1    3    3    0  502  0.63871426970E+02 -0.50032370022E+03 -0.42664599568E+03  0.66062861716E+03  0.00000000000E+00 0.  1.
         13    1    5    5    0    0 -0.71007930639E+02  0.44834925507E+03  0.19062431455E+03  0.49233810540E+03  0.00000000000E+00 0. -1.
        -13    1    5    5    0    0  0.19578996978E+02  0.28422185786E+03  0.13060891398E+03  0.31340722713E+03  0.00000000000E+00 0.  1.
          5    1    6    6  503    0  0.35443465029E+02 -0.71342873681E+02  0.62816425777E+02  0.10155805328E+03  0.47000000000E+01 0. -1.
         -5    1    6    6    0  503 -0.20670076096E+02 -0.79821987046E+01  0.10255469779E+03  0.10502629947E+03  0.47000000000E+01 0.  1.
<mgrwt>
<rscale>  0 0.75049682E+03</rscale>
<asrwt>0</asrwt>
<pdfrwt beam="1">  1        4 0.15347555E+00 0.75049682E+03</pdfrwt>
<pdfrwt beam="2">  1       -4 0.13815719E+00 0.75049682E+03</pdfrwt>
<totfact> 0.20193004E-01</totfact>
</mgrwt>
</event>
<event>
12    1  0.3127365E-008  0.7271887E+03  0.7818608E-02  0.9671833E-01
          2   -1    0    0  501    0  0.00000000000E+00  0.00000000000E+00  0.69113324588E+03  0.69113324588E+03  0.00000000000E+00 0.  1.
         -2   -1    0    0    0  501 -0.00000000000E+00 -0.00000000000E+00 -0.10126563282E+04  0.10126563282E+04  0.00000000000E+00 0. -1.
         23    2    1    2    0    0  0.71325259150E+03 -0.39136978224E+02 -0.27483931999E+03  0.76978247859E+03  0.82264513535E+02 0.  0.
    5000000    2    1    2    0    0 -0.71325259150E+03  0.39136978224E+02 -0.46683762367E+02  0.93400709553E+03  0.59994076248E+03 0.  0.
         23    2    4    4    0    0 -0.23638960481E+03  0.14646009352E+02 -0.29543220775E+03  0.38880702763E+03  0.88295891822E+02 0.  0.
         23    2    4    4    0    0 -0.47686298669E+03  0.24490968873E+02  0.24874844538E+03  0.54520006790E+03  0.85844098937E+02 0.  0.
          3    1    3    3  502    0  0.39635762231E+03 -0.60530235401E+02 -0.16726813626E+03  0.43444436188E+03  0.00000000000E+00 0. -1.
         -3    1    3    3    0  502  0.31689496919E+03  0.21393257177E+02 -0.10757118373E+03  0.33533811672E+03  0.00000000000E+00 0.  1.
         13    1    5    5    0    0 -0.23791131245E+03  0.75763111423E+00 -0.27060464539E+03  0.36031824920E+03  0.00000000000E+00 0. -1.
        -13    1    5    5    0    0  0.15217076461E+01  0.13888378237E+02 -0.24827562357E+02  0.28488778436E+02  0.00000000000E+00 0.  1.
          5    1    6    6  503    0 -0.21528197609E+03 -0.27818237113E+02  0.13090974613E+03  0.25353428797E+03  0.47000000000E+01 0. -1.
         -5    1    6    6    0  503 -0.26158101060E+03  0.52309205985E+02  0.11783869925E+03  0.29166577992E+03  0.47000000000E+01 0.  1.
<mgrwt>
<rscale>  0 0.72718866E+03</rscale>
<asrwt>0</asrwt>
<pdfrwt beam="1">  1        2 0.10632819E+00 0.72718866E+03</pdfrwt>
<pdfrwt beam="2">  1       -2 0.15579328E+00 0.72718866E+03</pdfrwt>
<totfact> 0.11479097E+01</totfact>
</mgrwt>
</event>
<event>
12    1  0.3127365E-008  0.6394951E+03  0.7818608E-02  0.9826693E-01
         -2   -1    0    0    0  501 -0.00000000000E+00  0.00000000000E+00  0.38863119619E+03  0.38863119619E+03  0.00000000000E+00 0.  1.
          2   -1    0    0  501    0  0.00000000000E+00 -0.00000000000E+00 -0.12581442629E+04  0.12581442629E+04  0.00000000000E+00 0. -1.
         23    2    1    2    0    0  0.16432246423E+02  0.56373495993E+03 -0.29591430102E+03  0.64343195433E+03  0.91500177744E+02 0.  0.
    5000000    2    1    2    0    0 -0.16432246423E+02 -0.56373495993E+03 -0.57359876572E+03  0.10033435048E+04  0.59967951510E+03 0.  0.
         23    2    4    4    0    0 -0.22044869367E+03 -0.31663492376E+03 -0.73296603159E+02  0.40268634276E+03  0.89042670249E+02 0.  0.
         23    2    4    4    0    0  0.20401644724E+03 -0.24710003617E+03 -0.50030216256E+03  0.60065716205E+03  0.88349498210E+02 0.  0.
          4    1    3    3  502    0  0.48258041561E+02  0.41591301277E+03 -0.19690917197E+03  0.46269395368E+03  0.00000000000E+00 0.  1.
         -4    1    3    3    0  502 -0.31825795138E+02  0.14782194716E+03 -0.99005129050E+02  0.18073800064E+03  0.00000000000E+00 0. -1.
         11    1    5    5    0    0 -0.10823973654E+03 -0.17996269111E+03 -0.82461319955E+02  0.22561533646E+03  0.00000000000E+00 0.  1.
        -11    1    5    5    0    0 -0.11220895713E+03 -0.13667223265E+03  0.91647167953E+01  0.17707100630E+03  0.00000000000E+00 0. -1.
          5    1    6    6  503    0  0.76813099501E+02 -0.11848480642E+03 -0.29435776047E+03  0.32650801331E+03  0.47000000000E+01 0. -1.
         -5    1    6    6    0  503  0.12720334774E+03 -0.12861522974E+03 -0.20594440209E+03  0.27414914873E+03  0.47000000000E+01 0.  1.
<mgrwt>
<rscale>  0 0.63949506E+03</rscale>
<asrwt>0</asrwt>
<pdfrwt beam="1">  1        2 0.19356065E+00 0.63949506E+03</pdfrwt>
<pdfrwt beam="2">  1       -2 0.59789415E-01 0.63949506E+03</pdfrwt>
<totfact> 0.47041453E+01</totfact>
</mgrwt>
</event>
<event>
12    1  0.3127365E-008  0.1935121E+04  0.7818608E-02  0.8637569E-01
         -2   -1    0    0    0  501 -0.00000000000E+00  0.00000000000E+00  0.43655028761E+04  0.43655028761E+04  0.00000000000E+00 0.  1.
          2   -1    0    0  501    0  0.00000000000E+00 -0.00000000000E+00 -0.99023415316E+03  0.99023415316E+03  0.00000000000E+00 0. -1.
         23    2    1    2    0    0  0.12461071889E+03 -0.19240199016E+04  0.81542645517E+03  0.20954156446E+04  0.92010907173E+02 0.  0.
    5000000    2    1    2    0    0 -0.12461071889E+03  0.19240199016E+04  0.25598422678E+04  0.32603213847E+04  0.59960210336E+03 0.  0.
         23    2    4    4    0    0 -0.12641145944E+03  0.18189532991E+04  0.25378841513E+04  0.31262845554E+04  0.90709397629E+02 0.  0.
         23    2    4    4    0    0  0.18007405522E+01  0.10506660246E+03  0.21958116546E+02  0.13403682924E+03  0.80258825639E+02 0.  0.
          4    1    3    3  502    0  0.16798024666E+02 -0.97012509107E+03  0.40717254525E+03  0.10522425327E+04  0.00000000000E+00 0.  1.
         -4    1    3    3    0  502  0.10781269422E+03 -0.95389481050E+03  0.40825390991E+03  0.10431731120E+04  0.00000000000E+00 0. -1.
         13    1    5    5    0    0 -0.14826034676E+02  0.27566589370E+03  0.33113899817E+03  0.43112009042E+03  0.00000000000E+00 0. -1.
        -13    1    5    5    0    0 -0.11158542476E+03  0.15432874054E+04  0.22067451531E+04  0.26951644650E+04  0.00000000000E+00 0.  1.
          5    1    6    6  503    0  0.21176816508E+02  0.87175019936E+02  0.43358551203E+02  0.99749664764E+02  0.47000000000E+01 0. -1.
         -5    1    6    6    0  503 -0.19376075956E+02  0.17891582522E+02 -0.21400434657E+02  0.34287164480E+02  0.47000000000E+01 0.  1.
<mgrwt>
<rscale>  0 0.19351206E+04</rscale>
<asrwt>0</asrwt>
<pdfrwt beam="1">  1        2 0.15234372E+00 0.19351206E+04</pdfrwt>
<pdfrwt beam="2">  1       -2 0.67161581E+00 0.19351206E+04</pdfrwt>
<totfact> 0.64427739E-03</totfact>
</mgrwt>
</event>
<event>
12    1  0.3127365E-008  0.3955077E+03  0.7818608E-02  0.1045346E+00
          2   -1    0    0  501    0  0.00000000000E+00  0.00000000000E+00  0.45045691859E+03  0.45045691859E+03  0.00000000000E+00 0.  1.
         -2   -1    0    0    0  501 -0.00000000000E+00 -0.00000000000E+00 -0.59374148399E+03  0.59374148399E+03  0.00000000000E+00 0. -1.
         23    2    1    2    0    0  0.31705261760E+03  0.66787878409E+02 -0.13402643939E+03  0.36225294870E+03  0.91000710738E+02 0.  0.
    5000000    2    1    2    0    0 -0.31705261760E+03 -0.66787878409E+02 -0.92581260074E+01  0.68194545389E+03  0.59998408825E+03 0.  0.
         23    2    4    4    0    0 -0.31098775249E+03 -0.15580512827E+03  0.21798386675E+03  0.42029308971E+03  0.90225799565E+02 0.  0.
         23    2    4    4    0    0 -0.60648651158E+01  0.89017249865E+02 -0.22724199275E+03  0.26165236417E+03  0.94139168492E+02 0.  0.
          3    1    3    3  502    0  0.31952971688E+02  0.38481884542E+02 -0.21575849750E+02  0.54473526873E+02  0.00000000000E+00 0. -1.
         -3    1    3    3    0  502  0.28509964591E+03  0.28305993868E+02 -0.11245058964E+03  0.30777942183E+03  0.00000000000E+00 0.  1.
         13    1    5    5    0    0 -0.47557345573E+02 -0.49142794166E+02  0.12338902953E+02  0.69490746596E+02  0.00000000000E+00 0.  1.
        -13    1    5    5    0    0 -0.26343040691E+03 -0.10666233411E+03  0.20564496379E+03  0.35080234312E+03  0.00000000000E+00 0. -1.
          5    1    6    6  503    0  0.16950753330E+02  0.11772043228E+02 -0.14451424317E+03  0.14605603555E+03  0.47000000000E+01 0. -1.
         -5    1    6    6    0  503 -0.23015618445E+02  0.77245206637E+02 -0.82727749580E+02  0.11559632862E+03  0.47000000000E+01 0.  1.
<mgrwt>
<rscale>  0 0.39550765E+03</rscale>
<asrwt>0</asrwt>
<pdfrwt beam="1">  1        2 0.69301065E-01 0.39550765E+03</pdfrwt>
<pdfrwt beam="2">  1       -2 0.91344843E-01 0.39550765E+03</pdfrwt>
<totfact> 0.73687175E+01</totfact>
</mgrwt>
</event>
<event>
12    1  0.3127365E-008  0.1112544E+04  0.7818608E-02  0.9193051E-01
         -1   -1    0    0    0  501 -0.00000000000E+00  0.00000000000E+00  0.51888294155E+03  0.51888294155E+03  0.00000000000E+00 0.  1.
          1   -1    0    0  501    0  0.00000000000E+00 -0.00000000000E+00 -0.24114951761E+04  0.24114951761E+04  0.00000000000E+00 0. -1.
         23    2    1    2    0    0 -0.60159358455E+03  0.84366241908E+03 -0.84179141084E+03  0.13373183209E+04  0.78271282408E+02 0.  0.
    5000000    2    1    2    0    0  0.60159358455E+03 -0.84366241908E+03 -0.10508208237E+04  0.15930597967E+04  0.59994499261E+03 0.  0.
         23    2    4    4    0    0  0.70168544821E+03 -0.66704026804E+03 -0.88301956485E+03  0.13134125688E+04  0.89575869728E+02 0.  0.
         23    2    4    4    0    0 -0.10009186365E+03 -0.17662215105E+03 -0.16780125883E+03  0.27964722799E+03  0.93976296191E+02 0.  0.
          1    1    3    3  502    0 -0.88526069275E+02  0.17521438141E+03 -0.16884455422E+03  0.25893131885E+03  0.00000000000E+00 0. -1.
         -1    1    3    3    0  502 -0.51306751528E+03  0.66844803767E+03 -0.67294685663E+03  0.10783870020E+04  0.00000000000E+00 0.  1.
         13    1    5    5    0    0  0.50410848769E+03 -0.52952385421E+03 -0.64687292821E+03  0.97619950051E+03  0.00000000000E+00 0.  1.
        -13    1    5    5    0    0  0.19757696051E+03 -0.13751641383E+03 -0.23614663664E+03  0.33721306825E+03  0.00000000000E+00 0. -1.
          5    1    6    6  503    0 -0.42836157606E+02 -0.13924305329E+03 -0.73981461074E+02  0.16345920246E+03  0.47000000000E+01 0.  1.
         -5    1    6    6    0  503 -0.57255706047E+02 -0.37379097760E+02 -0.93819797755E+02  0.11618802552E+03  0.47000000000E+01 0. -1.
<mgrwt>
<rscale>  0 0.11125444E+04</rscale>
<asrwt>0</asrwt>
<pdfrwt beam="1">  1        1 0.37099926E+00 0.11125444E+04</pdfrwt>
<pdfrwt beam="2">  1       -1 0.79828145E-01 0.11125444E+04</pdfrwt>
<totfact> 0.24492716E+00</totfact>
</mgrwt>
</event>
<event>
12    1  0.3127365E-008  0.4890046E+03  0.7818608E-02  0.1016689E+00
          2   -1    0    0  501    0  0.00000000000E+00  0.00000000000E+00  0.92611570803E+03  0.92611570803E+03  0.00000000000E+00 0. -1.
         -2   -1    0    0    0  501 -0.00000000000E+00 -0.00000000000E+00 -0.37067840447E+03  0.37067840447E+03  0.00000000000E+00 0.  1.
         23    2    1    2    0    0 -0.32814162505E+03 -0.27254806010E+03  0.22153578829E+03  0.48848445304E+03  0.87060807536E+02 0.  0.
    5000000    2    1    2    0    0  0.32814162505E+03  0.27254806010E+03  0.33390151528E+03  0.80830965946E+03  0.59992908958E+03 0.  0.
         23    2    4    4    0    0 -0.51650977650E+02  0.12100641510E+03  0.35429447627E+03  0.38878477251E+03  0.91206619465E+02 0.  0.
         23    2    4    4    0    0  0.37979260270E+03  0.15154164500E+03 -0.20392960994E+02  0.41952488695E+03  0.91531233329E+02 0.  0.
          1    1    3    3  502    0 -0.11686573848E+03 -0.58333207421E+02  0.37925315663E+02  0.13600990216E+03  0.00000000000E+00 0. -1.
         -1    1    3    3    0  502 -0.21127588658E+03 -0.21421485268E+03  0.18361047262E+03  0.35247455088E+03  0.00000000000E+00 0.  1.
         13    1    5    5    0    0 -0.47172035661E+02  0.68472658428E+02  0.10479259354E+03  0.13377291790E+03  0.00000000000E+00 0.  1.
        -13    1    5    5    0    0 -0.44789419893E+01  0.52533756674E+02  0.24950188273E+03  0.25501185462E+03  0.00000000000E+00 0. -1.
          5    1    6    6  503    0  0.86869612811E+02  0.51380007022E+02  0.30985706917E+02  0.10568083452E+03  0.47000000000E+01 0. -1.
         -5    1    6    6    0  503  0.29292298989E+03  0.10016163798E+03 -0.51378667911E+02  0.31384405243E+03  0.47000000000E+01 0.  1.
<mgrwt>
<rscale>  0 0.48900457E+03</rscale>
<asrwt>0</asrwt>
<pdfrwt beam="1">  1        2 0.14247934E+00 0.48900457E+03</pdfrwt>
<pdfrwt beam="2">  1       -2 0.57027447E-01 0.48900457E+03</pdfrwt>
<totfact> 0.84257482E+01</totfact>
</mgrwt>
</event>
<event>
12    1  0.3127365E-008  0.6850382E+03  0.7818608E-02  0.9743167E-01
          1   -1    0    0  501    0  0.00000000000E+00  0.00000000000E+00  0.20637210733E+04  0.20637210733E+04  0.00000000000E+00 0. -1.
         -1   -1    0    0    0  501 -0.00000000000E+00 -0.00000000000E+00 -0.31319969416E+03  0.31319969416E+03  0.00000000000E+00 0.  1.
         23    2    1    2    0    0 -0.81499107335E+02 -0.56129132067E+03  0.17889604303E+03  0.60169228291E+03  0.91322275226E+02 0.  0.
    5000000    2    1    2    0    0  0.81499107335E+02  0.56129132067E+03  0.15716253361E+04  0.17752284845E+04  0.59978323095E+03 0.  0.
         23    2    4    4    0    0  0.18008358058E+03 -0.29001777841E+02  0.57319762317E+03  0.60767489918E+03  0.86267425907E+02 0.  0.
         23    2    4    4    0    0 -0.98584473242E+02  0.59029309851E+03  0.99842771291E+03  0.11675535854E+04  0.90325169530E+02 0.  0.
          4    1    3    3  502    0  0.14359103616E+02 -0.10775655394E+03  0.13636975978E+02  0.10956106008E+03  0.00000000000E+00 0. -1.
         -4    1    3    3    0  502 -0.95858210951E+02 -0.45353476673E+03  0.16525906705E+03  0.49213122283E+03  0.00000000000E+00 0.  1.
         11    1    5    5    0    0  0.14502469163E+03  0.73677317772E+01  0.48226632312E+03  0.50365390008E+03  0.00000000000E+00 0.  1.
        -11    1    5    5    0    0  0.35058888946E+02 -0.36369509618E+02  0.90931300058E+02  0.10402099910E+03  0.00000000000E+00 0. -1.
          5    1    6    6  503    0 -0.20438812673E+01  0.19779858073E+03  0.38591634805E+03  0.43368418658E+03  0.47000000000E+01 0.  1.
         -5    1    6    6    0  503 -0.96540591975E+02  0.39249451777E+03  0.61251136486E+03  0.73386939878E+03  0.47000000000E+01 0. -1.
<mgrwt>
<rscale>  0 0.68503822E+03</rscale>
<asrwt>0</asrwt>
<pdfrwt beam="1">  1        1 0.31749554E+00 0.68503822E+03</pdfrwt>
<pdfrwt beam="2">  1       -1 0.48184570E-01 0.68503822E+03</pdfrwt>
<totfact> 0.12271482E+01</totfact>
</mgrwt>
</event>
<event>
12    1  0.3127365E-008  0.4363185E+03  0.7818608E-02  0.1031882E+00
         -1   -1    0    0    0  501 -0.00000000000E+00  0.00000000000E+00  0.14269375707E+03  0.14269375707E+03  0.00000000000E+00 0.  1.
          1   -1    0    0  501    0  0.00000000000E+00 -0.00000000000E+00 -0.14247251005E+04  0.14247251005E+04  0.00000000000E+00 0. -1.
         23    2    1    2    0    0 -0.23722710297E+03  0.21057353504E+02 -0.38480924804E+03  0.46217394441E+03  0.93842884670E+02 0.  0.
    5000000    2    1    2    0    0  0.23722710297E+03 -0.21057353504E+02 -0.89722209539E+03  0.11052449132E+04  0.59986558418E+03 0.  0.
         23    2    4    4    0    0 -0.18178435247E+03  0.38204743604E+02 -0.22242470365E+03  0.30361668785E+03  0.90582509970E+02 0.  0.
         23    2    4    4    0    0  0.41901145544E+03 -0.59262097108E+02 -0.67479739174E+03  0.80162822530E+03  0.90408493823E+02 0.  0.
          4    1    3    3  502    0 -0.14549933773E+03  0.45555665585E+02 -0.17639929848E+03  0.23315678942E+03  0.00000000000E+00 0. -1.
         -4    1    3    3    0  502 -0.91727765239E+02 -0.24498312080E+02 -0.20840994955E+03  0.22901715500E+03  0.00000000000E+00 0.  1.
         11    1    5    5    0    0 -0.75804481386E+02  0.55508088861E+02 -0.69999108457E+02  0.11716374231E+03  0.00000000000E+00 0. -1.
        -11    1    5    5    0    0 -0.10597987109E+03 -0.17303345257E+02 -0.15242559519E+03  0.18645294554E+03  0.00000000000E+00 0.  1.
          5    1    6    6  503    0  0.30355942517E+03 -0.52893489992E+02 -0.55657222095E+03  0.63619240252E+03  0.47000000000E+01 0. -1.
         -5    1    6    6    0  503  0.11545203027E+03 -0.63686071163E+01 -0.11822517079E+03  0.16543582278E+03  0.47000000000E+01 0.  1.
<mgrwt>
<rscale>  0 0.43631850E+03</rscale>
<asrwt>0</asrwt>
<pdfrwt beam="1">  1        1 0.21918847E+00 0.43631850E+03</pdfrwt>
<pdfrwt beam="2">  1       -1 0.21952886E-01 0.43631850E+03</pdfrwt>
<totfact> 0.13610065E+02</totfact>
</mgrwt>
</event>
<event>
12    1  0.3127365E-008  0.5117265E+03  0.7818608E-02  0.1010763E+00
         -1   -1    0    0    0  501 -0.00000000000E+00  0.00000000000E+00  0.40639450028E+03  0.40639450028E+03  0.00000000000E+00 0.  1.
          1   -1    0    0  501    0  0.00000000000E+00 -0.00000000000E+00 -0.10571462769E+04  0.10571462769E+04  0.00000000000E+00 0. -1.
         23    2    1    2    0    0  0.25250685751E+03 -0.22122396547E+03  0.17421370634E+03  0.38963196213E+03  0.93610333018E+02 0.  0.
    5000000    2    1    2    0    0 -0.25250685751E+03  0.22122396547E+03 -0.82496548295E+03  0.10739088150E+04  0.60001028240E+03 0.  0.
         23    2    4    4    0    0  0.12559251340E+03  0.25331943837E+03 -0.36074140174E+03  0.46731845491E+03  0.91148023002E+02 0.  0.
         23    2    4    4    0    0 -0.37809937091E+03 -0.32095472903E+02 -0.46422408121E+03  0.60659036013E+03  0.91970722311E+02 0.  0.
          4    1    3    3  502    0  0.19166791541E+03 -0.10904101318E+03  0.10150451630E+03  0.24275440095E+03  0.00000000000E+00 0. -1.
         -4    1    3    3    0  502  0.60838942096E+02 -0.11218295229E+03  0.72709190042E+02  0.14687756117E+03  0.00000000000E+00 0.  1.
         11    1    5    5    0    0  0.38267406381E+02  0.45452999090E+02 -0.13862653936E+03  0.15082336335E+03  0.00000000000E+00 0. -1.
        -11    1    5    5    0    0  0.87325107019E+02  0.20786643928E+03 -0.22211486238E+03  0.31649509157E+03  0.00000000000E+00 0.  1.
          5    1    6    6  503    0 -0.30197988543E+03 -0.62363729144E+02 -0.36806562172E+03  0.48018275459E+03  0.47000000000E+01 0. -1.
         -5    1    6    6    0  503 -0.76119485483E+02  0.30268256241E+02 -0.96158459496E+02  0.12640760554E+03  0.47000000000E+01 0.  1.
<mgrwt>
<rscale>  0 0.51172650E+03</rscale>
<asrwt>0</asrwt>
<pdfrwt beam="1">  1        1 0.16263789E+00 0.51172650E+03</pdfrwt>
<pdfrwt beam="2">  1       -1 0.62522231E-01 0.51172650E+03</pdfrwt>
<totfact> 0.37539473E+01</totfact>
</mgrwt>
</event>
<event>
12    1  0.3127365E-008  0.1570446E+04  0.7818608E-02  0.8838913E-01
          2   -1    0    0  501    0  0.00000000000E+00  0.00000000000E+00  0.31473962360E+04  0.31473962360E+04  0.00000000000E+00 0. -1.
         -2   -1    0    0    0  501 -0.00000000000E+00 -0.00000000000E+00 -0.78845521185E+03  0.78845521185E+03  0.00000000000E+00 0.  1.
         23    2    1    2    0    0  0.14896869170E+04 -0.28448732259E+03  0.10946905357E+04  0.18727654000E+04  0.93822849630E+02 0.  0.
    5000000    2    1    2    0    0 -0.14896869170E+04  0.28448732259E+03  0.12642504884E+04  0.20630860478E+04  0.59824292382E+03 0.  0.
         23    2    4    4    0    0 -0.13538595980E+04  0.41720797683E+03  0.11381688418E+04  0.18194999847E+04  0.90297147060E+02 0.  0.
         23    2    4    4    0    0 -0.13582731896E+03 -0.13272065424E+03  0.12608164660E+03  0.24358606311E+03  0.85870576430E+02 0.  0.
          4    1    3    3  502    0  0.59867845001E+03 -0.14055215250E+03  0.49094939657E+03  0.78689395986E+03  0.00000000000E+00 0. -1.
         -4    1    3    3    0  502  0.89100846698E+03 -0.14393517009E+03  0.60374113912E+03  0.10858714401E+04  0.00000000000E+00 0.  1.
         13    1    5    5    0    0 -0.29045693725E+03  0.59984349474E+02  0.26865074858E+03  0.40017068770E+03  0.00000000000E+00 0. -1.
        -13    1    5    5    0    0 -0.10634026608E+04  0.35722362736E+03  0.86951809326E+03  0.14193292970E+04  0.00000000000E+00 0.  1.
          5    1    6    6  503    0 -0.86881933254E+02 -0.31636585518E+02  0.35249470426E+02  0.99065428049E+02  0.47000000000E+01 0. -1.
         -5    1    6    6    0  503 -0.48945385706E+02 -0.10108406872E+03  0.90832176173E+02  0.14452063507E+03  0.47000000000E+01 0.  1.
<mgrwt>
<rscale>  0 0.15704458E+04</rscale>
<asrwt>0</asrwt>
<pdfrwt beam="1">  1        2 0.48421480E+00 0.15704458E+04</pdfrwt>
<pdfrwt beam="2">  1       -2 0.12130080E+00 0.15704458E+04</pdfrwt>
<totfact> 0.68637253E-01</totfact>
</mgrwt>
</event>
<event>
12    1  0.3127365E-008  0.1069707E+04  0.7818608E-02  0.9235231E-01
          1   -1    0    0  501    0  0.00000000000E+00  0.00000000000E+00  0.12311056258E+04  0.12311056258E+04  0.00000000000E+00 0. -1.
         -1   -1    0    0    0  501 -0.00000000000E+00 -0.00000000000E+00 -0.11889206553E+04  0.11889206553E+04  0.00000000000E+00 0.  1.
         23    2    1    2    0    0  0.66043162327E+02  0.10362753252E+04 -0.43471846601E+03  0.11294439724E+04  0.91843852030E+02 0.  0.
    5000000    2    1    2    0    0 -0.66043162327E+02 -0.10362753252E+04  0.47690343652E+03  0.12905823086E+04  0.59994796325E+03 0.  0.
         23    2    4    4    0    0  0.13518472271E+03 -0.42125471810E+03  0.44822719322E+03  0.63650892053E+03  0.92225497552E+02 0.  0.
         23    2    4    4    0    0 -0.20122788503E+03 -0.61502060715E+03  0.28676243299E+02  0.65407338811E+03  0.90811129118E+02 0.  0.
          1    1    3    3  502    0  0.52019206480E+02  0.45170673342E+03 -0.23281821362E+03  0.51083196009E+03  0.00000000000E+00 0. -1.
         -1    1    3    3    0  502  0.14023955847E+02  0.58456859183E+03 -0.20190025239E+03  0.61861201234E+03  0.00000000000E+00 0.  1.
         11    1    5    5    0    0  0.95081437741E+02 -0.36707504236E+03  0.34163258800E+03  0.51038945101E+03  0.00000000000E+00 0.  1.
        -11    1    5    5    0    0  0.40103284966E+02 -0.54179675744E+02  0.10659460523E+03  0.12611946952E+03  0.00000000000E+00 0. -1.
          5    1    6    6  503    0 -0.12776264006E+03 -0.24752524251E+03  0.16435584125E+02  0.27907750948E+03  0.47000000000E+01 0. -1.
         -5    1    6    6    0  503 -0.73465244978E+02 -0.36749536464E+03  0.12240659174E+02  0.37499587863E+03  0.47000000000E+01 0.  1.
<mgrwt>
<rscale>  0 0.10697073E+04</rscale>
<asrwt>0</asrwt>
<pdfrwt beam="1">  1        1 0.18940087E+00 0.10697073E+04</pdfrwt>
<pdfrwt beam="2">  1       -1 0.18291087E+00 0.10697073E+04</pdfrwt>
<totfact> 0.20023106E+00</totfact>
</mgrwt>
</event>
<event>
12    1  0.3127365E-008  0.1015143E+04  0.7818608E-02  0.9292090E-01
          2   -1    0    0  501    0  0.00000000000E+00  0.00000000000E+00  0.22759779534E+04  0.22759779534E+04  0.00000000000E+00 0. -1.
         -2   -1    0    0    0  501 -0.00000000000E+00 -0.00000000000E+00 -0.54718803966E+03  0.54718803966E+03  0.00000000000E+00 0.  1.
         23    2    1    2    0    0  0.12579673247E+03  0.93874567362E+03  0.13258260751E+04  0.16320063300E+04  0.92529033864E+02 0.  0.
    5000000    2    1    2    0    0 -0.12579673247E+03 -0.93874567362E+03  0.40296383863E+03  0.11911596631E+04  0.59951082562E+03 0.  0.
         23    2    4    4    0    0 -0.30098073239E+03 -0.40981128516E+03  0.35162200923E+03  0.62429454626E+03  0.87011219937E+02 0.  0.
         23    2    4    4    0    0  0.17518399992E+03 -0.52893438845E+03  0.51341829398E+02  0.56686511680E+03  0.90769246383E+02 0.  0.
          3    1    3    3  502    0  0.27024793076E+02  0.51570214799E+03  0.68633893575E+03  0.85891802846E+03  0.00000000000E+00 0. -1.
         -3    1    3    3    0  502  0.98771939393E+02  0.42304352562E+03  0.63948713936E+03  0.77308830155E+03  0.00000000000E+00 0.  1.
         11    1    5    5    0    0 -0.12266939684E+03 -0.23776097332E+03  0.16839063739E+03  0.31612255237E+03  0.00000000000E+00 0.  1.
        -11    1    5    5    0    0 -0.17831133555E+03 -0.17205031184E+03  0.18323137184E+03  0.30817199389E+03  0.00000000000E+00 0. -1.
          5    1    6    6  503    0  0.12494488940E+03 -0.23790261918E+03  0.13759168814E+02  0.26911017507E+03  0.47000000000E+01 0. -1.
         -5    1    6    6    0  503  0.50239110524E+02 -0.29103176927E+03  0.37582660584E+02  0.29775494174E+03  0.47000000000E+01 0.  1.
<mgrwt>
<rscale>  0 0.10151430E+04</rscale>
<asrwt>0</asrwt>
<pdfrwt beam="1">  1        2 0.35015045E+00 0.10151430E+04</pdfrwt>
<pdfrwt beam="2">  1       -2 0.84182777E-01 0.10151430E+04</pdfrwt>
<totfact> 0.57851388E+00</totfact>
</mgrwt>
</event>
<event>
12    1  0.3127365E-008  0.3797480E+03  0.7818608E-02  0.1051027E+00
          1   -1    0    0  501    0  0.00000000000E+00  0.00000000000E+00  0.40189447406E+03  0.40189447406E+03  0.00000000000E+00 0. -1.
         -1   -1    0    0    0  501 -0.00000000000E+00 -0.00000000000E+00 -0.85862431717E+03  0.85862431717E+03  0.00000000000E+00 0.  1.
         23    2    1    2    0    0 -0.35950125423E+03  0.23893396313E+02 -0.41656146313E+03  0.55853760120E+03  0.92891082507E+02 0.  0.
    5000000    2    1    2    0    0  0.35950125423E+03 -0.23893396313E+02 -0.40168379987E+02  0.70198119003E+03  0.60112564928E+03 0.  0.
         23    2    4    4    0    0  0.22069506147E+03 -0.34892112502E+02 -0.30489107747E+03  0.39012953492E+03  0.96533492774E+02 0.  0.
         23    2    4    4    0    0  0.13880619276E+03  0.10998716189E+02  0.26472269748E+03  0.31185165511E+03  0.88233878578E+02 0.  0.
          3    1    3    3  502    0 -0.19087170613E+02  0.24077614572E+02 -0.24382342277E+02  0.39224357489E+02  0.00000000000E+00 0. -1.
         -3    1    3    3    0  502 -0.34041408362E+03 -0.18421825880E+00 -0.39217912085E+03  0.51931324371E+03  0.00000000000E+00 0.  1.
         11    1    5    5    0    0  0.19617476425E+03 -0.33451489167E+02 -0.30658295677E+03  0.36550875453E+03  0.00000000000E+00 0. -1.
        -11    1    5    5    0    0  0.24520297228E+02 -0.14406233346E+01  0.16918793036E+01  0.24620780396E+02  0.00000000000E+00 0.  1.
          5    1    6    6  503    0  0.33024098248E+02 -0.35877864128E+02  0.82444191578E+02  0.95900713889E+02  0.47000000000E+01 0. -1.
         -5    1    6    6    0  503  0.10578209451E+03  0.46876580316E+02  0.18227850590E+03  0.21595094122E+03  0.47000000000E+01 0.  1.
<mgrwt>
<rscale>  0 0.37974804E+03</rscale>
<asrwt>0</asrwt>
<pdfrwt beam="1">  1        1 0.61829920E-01 0.37974804E+03</pdfrwt>
<pdfrwt beam="2">  1       -1 0.13209605E+00 0.37974804E+03</pdfrwt>
<totfact> 0.31182093E+01</totfact>
</mgrwt>
</event>
<event>
12    1  0.3127365E-008  0.3685883E+03  0.7818608E-02  0.1055234E+00
          2   -1    0    0  501    0  0.00000000000E+00  0.00000000000E+00  0.25614095156E+03  0.25614095156E+03  0.00000000000E+00 0. -1.
         -2   -1    0    0    0  501 -0.00000000000E+00 -0.00000000000E+00 -0.11289154252E+04  0.11289154252E+04  0.00000000000E+00 0.  1.
         23    2    1    2    0    0  0.16545051846E+03  0.14033176198E+03  0.70676335238E+02  0.24616789521E+03  0.92393781124E+02 0.  0.
    5000000    2    1    2    0    0 -0.16545051846E+03 -0.14033176198E+03 -0.94345080883E+03  0.11388884815E+04  0.59991721689E+03 0.  0.
         23    2    4    4    0    0  0.13651202536E+03 -0.16539819331E+03 -0.70579728326E+03  0.74332552702E+03  0.91602066755E+02 0.  0.
         23    2    4    4    0    0 -0.30196254382E+03  0.25066431325E+02 -0.23765352557E+03  0.39556295448E+03  0.90449703671E+02 0.  0.
          3    1    3    3  502    0  0.10363333521E+03  0.89286948311E+02  0.89948860080E+02  0.16371568262E+03  0.00000000000E+00 0. -1.
         -3    1    3    3    0  502  0.61817183249E+02  0.51044813672E+02 -0.19272524842E+02  0.82452212592E+02  0.00000000000E+00 0.  1.
         11    1    5    5    0    0  0.51452052484E+02 -0.70650582639E+02 -0.44010082244E+03  0.44869538938E+03  0.00000000000E+00 0. -1.
        -11    1    5    5    0    0  0.85059972877E+02 -0.94747610669E+02 -0.26569646082E+03  0.29463013764E+03  0.00000000000E+00 0.  1.
          5    1    6    6  503    0 -0.12522298529E+03 -0.82202575353E+01 -0.14941696070E+03  0.19518167646E+03  0.47000000000E+01 0. -1.
         -5    1    6    6    0  503 -0.17673955852E+03  0.33286688861E+02 -0.88236564869E+02  0.20038127802E+03  0.47000000000E+01 0.  1.
<mgrwt>
<rscale>  0 0.36858835E+03</rscale>
<asrwt>0</asrwt>
<pdfrwt beam="1">  1        2 0.39406301E-01 0.36858835E+03</pdfrwt>
<pdfrwt beam="2">  1       -2 0.17367929E+00 0.36858835E+03</pdfrwt>
<totfact> 0.27677818E+01</totfact>
</mgrwt>
</event>
<event>
12    1  0.3127365E-008  0.1020549E+04  0.7818608E-02  0.9286290E-01
          2   -1    0    0  501    0  0.00000000000E+00  0.00000000000E+00  0.21481246318E+04  0.21481246318E+04  0.00000000000E+00 0. -1.
         -2   -1    0    0    0  501 -0.00000000000E+00 -0.00000000000E+00 -0.82057309874E+03  0.82057309874E+03  0.00000000000E+00 0.  1.
         23    2    1    2    0    0  0.81166922908E+03  0.49897017475E+03  0.15493050776E+04  0.18210915869E+04  0.90830455037E+02 0.  0.
    5000000    2    1    2    0    0 -0.81166922908E+03 -0.49897017475E+03 -0.22175354457E+03  0.11476061436E+04  0.60003921010E+03 0.  0.
         23    2    4    4    0    0 -0.24894849870E+03 -0.44149983654E+03  0.42227734493E+02  0.51667059317E+03  0.90927771396E+02 0.  0.
         23    2    4    4    0    0 -0.56272073037E+03 -0.57470338211E+02 -0.26398127907E+03  0.63093555047E+03  0.91848206197E+02 0.  0.
          4    1    3    3  502    0  0.34354133403E+03  0.16944697565E+03  0.67252792274E+03  0.77396817287E+03  0.00000000000E+00 0. -1.
         -4    1    3    3    0  502  0.46812789505E+03  0.32952319911E+03  0.87677715488E+03  0.10471234140E+04  0.00000000000E+00 0.  1.
         13    1    5    5    0    0 -0.51858301716E+02 -0.16680921743E+03  0.36939028192E+02  0.17854716542E+03  0.00000000000E+00 0. -1.
        -13    1    5    5    0    0 -0.19709019699E+03 -0.27469061911E+03  0.52887063005E+01  0.33812342775E+03  0.00000000000E+00 0.  1.
          5    1    6    6  503    0 -0.25473624515E+03  0.18810071713E+02 -0.10833750614E+03  0.27749500649E+03  0.47000000000E+01 0. -1.
         -5    1    6    6    0  503 -0.30798448523E+03 -0.76280409924E+02 -0.15564377292E+03  0.35344054398E+03  0.47000000000E+01 0.  1.
<mgrwt>
<rscale>  0 0.10205491E+04</rscale>
<asrwt>0</asrwt>
<pdfrwt beam="1">  1        2 0.33048071E+00 0.10205491E+04</pdfrwt>
<pdfrwt beam="2">  1       -2 0.12624202E+00 0.10205491E+04</pdfrwt>
<totfact> 0.25776530E+00</totfact>
</mgrwt>
</event>
<event>
12    1  0.3127365E-008  0.6754077E+03  0.7818608E-02  0.9760238E-01
          2   -1    0    0  501    0  0.00000000000E+00  0.00000000000E+00  0.28987243690E+04  0.28987243690E+04  0.00000000000E+00 0. -1.
         -2   -1    0    0    0  501 -0.00000000000E+00 -0.00000000000E+00 -0.16656027797E+03  0.16656027797E+03  0.00000000000E+00 0.  1.
         23    2    1    2    0    0  0.53106261840E+03 -0.10265536913E+03  0.14452080476E+04  0.15457893552E+04  0.90954935574E+02 0.  0.
    5000000    2    1    2    0    0 -0.53106261840E+03  0.10265536913E+03  0.12869560434E+04  0.15194952918E+04  0.60003704430E+03 0.  0.
         23    2    4    4    0    0 -0.17388577495E+03  0.32248705476E+03  0.57541130942E+03  0.68824383171E+03  0.91363196422E+02 0.  0.
         23    2    4    4    0    0 -0.35717684345E+03 -0.21983168563E+03  0.71154473401E+03  0.83125146007E+03  0.93711332595E+02 0.  0.
          4    1    3    3  502    0  0.27321247100E+03 -0.97608193840E+02  0.73332638710E+03  0.78863172891E+03  0.00000000000E+00 0. -1.
         -4    1    3    3    0  502  0.25785014740E+03 -0.50471752897E+01  0.71188166051E+03  0.75715762630E+03  0.00000000000E+00 0.  1.
         13    1    5    5    0    0 -0.13501138710E+03  0.17639098395E+03  0.39195299329E+03  0.45052081285E+03  0.00000000000E+00 0. -1.
        -13    1    5    5    0    0 -0.38874387848E+02  0.14609607081E+03  0.18345831614E+03  0.23772301886E+03  0.00000000000E+00 0.  1.
          5    1    6    6  503    0 -0.78144075155E+02 -0.96794897375E+02  0.21971712794E+03  0.25253406691E+03  0.47000000000E+01 0. -1.
         -5    1    6    6    0  503 -0.27903276830E+03 -0.12303678826E+03  0.49182760607E+03  0.57871739316E+03  0.47000000000E+01 0.  1.
<mgrwt>
<rscale>  0 0.67540772E+03</rscale>
<asrwt>0</asrwt>
<pdfrwt beam="1">  1        2 0.44595756E+00 0.67540772E+03</pdfrwt>
<pdfrwt beam="2">  1       -2 0.25624660E-01 0.67540772E+03</pdfrwt>
<totfact> 0.29441339E+01</totfact>
</mgrwt>
</event>
<event>
12    1  0.3127365E-008  0.6245433E+03  0.7818608E-02  0.9855755E-01
          2   -1    0    0  501    0  0.00000000000E+00  0.00000000000E+00  0.26036858382E+04  0.26036858382E+04  0.00000000000E+00 0. -1.
         -2   -1    0    0    0  501 -0.00000000000E+00 -0.00000000000E+00 -0.36830907373E+03  0.36830907373E+03  0.00000000000E+00 0.  1.
         23    2    1    2    0    0  0.11545202970E+03 -0.59926403465E+03  0.19869872450E+04  0.20805905138E+04  0.91060527999E+02 0.  0.
    5000000    2    1    2    0    0 -0.11545202970E+03  0.59926403465E+03  0.24838951945E+03  0.89140439815E+03  0.60038145649E+03 0.  0.
         23    2    4    4    0    0 -0.12650111266E+01  0.30660636765E+03 -0.16940958218E+03  0.36125248925E+03  0.88287538866E+02 0.  0.
         23    2    4    4    0    0 -0.11418701857E+03  0.29265766700E+03  0.41779910162E+03  0.53015190890E+03  0.88418165179E+02 0.  0.
          2    1    3    3  502    0  0.55132507465E+02 -0.27134460473E+03  0.10560487616E+04  0.10917446931E+04  0.00000000000E+00 0. -1.
         -2    1    3    3    0  502  0.60319522233E+02 -0.32791942992E+03  0.93093848336E+03  0.98884582069E+03  0.00000000000E+00 0.  1.
         11    1    5    5    0    0  0.34110536759E+02  0.17268049618E+03 -0.64397807531E+02  0.18742774633E+03  0.00000000000E+00 0.  1.
        -11    1    5    5    0    0 -0.35375547886E+02  0.13392587147E+03 -0.10501177465E+03  0.17382474292E+03  0.00000000000E+00 0. -1.
          5    1    6    6  503    0 -0.87890943065E+02  0.11619818939E+03  0.15815448053E+03  0.21508548719E+03  0.47000000000E+01 0. -1.
         -5    1    6    6    0  503 -0.26296075506E+02  0.17645947761E+03  0.25964462110E+03  0.31506642171E+03  0.47000000000E+01 0.  1.
<mgrwt>
<rscale>  0 0.62454327E+03</rscale>
<asrwt>0</asrwt>
<pdfrwt beam="1">  1        2 0.40056704E+00 0.62454327E+03</pdfrwt>
<pdfrwt beam="2">  1       -2 0.56662936E-01 0.62454327E+03</pdfrwt>
<totfact> 0.95258411E+00</totfact>
</mgrwt>
</event>
<event>
12    1  0.3127365E-008  0.1211032E+04  0.7818608E-02  0.9103255E-01
          2   -1    0    0  501    0  0.00000000000E+00  0.00000000000E+00  0.14259206271E+04  0.14259206271E+04  0.00000000000E+00 0. -1.
         -2   -1    0    0    0  501 -0.00000000000E+00 -0.00000000000E+00 -0.12232717477E+04  0.12232717477E+04  0.00000000000E+00 0.  1.
         23    2    1    2    0    0 -0.73562174435E+03 -0.86696303383E+03  0.61909731916E+03  0.12977208846E+04  0.89631194189E+02 0.  0.
    5000000    2    1    2    0    0  0.73562174435E+03  0.86696303383E+03 -0.41644843978E+03  0.13514714903E+04  0.60023464845E+03 0.  0.
         23    2    4    4    0    0  0.82191941740E+03  0.74915614339E+03 -0.37174415062E+03  0.11763133972E+04  0.93450731139E+02 0.  0.
         23    2    4    4    0    0 -0.86297673048E+02  0.11780689045E+03 -0.44704289167E+02  0.17515809301E+03  0.85767897657E+02 0.  0.
          4    1    3    3  502    0 -0.36397477762E+03 -0.44560484082E+03  0.36270264996E+03  0.68014301819E+03  0.00000000000E+00 0. -1.
         -4    1    3    3    0  502 -0.37164696673E+03 -0.42135819301E+03  0.25639466921E+03  0.61757786642E+03  0.00000000000E+00 0.  1.
         11    1    5    5    0    0  0.19879779106E+03  0.23530066601E+03 -0.90033119793E+02  0.32092511247E+03  0.00000000000E+00 0.  1.
        -11    1    5    5    0    0  0.62312162634E+03  0.51385547738E+03 -0.28171103082E+03  0.85538828478E+03  0.00000000000E+00 0. -1.
          5    1    6    6  503    0 -0.61803909725E+02  0.15552747090E+02 -0.12758633242E+02  0.65165051382E+02  0.47000000000E+01 0. -1.
         -5    1    6    6    0  503 -0.24493763323E+02  0.10225414336E+03 -0.31945655924E+02  0.10999304163E+03  0.47000000000E+01 0.  1.
<mgrwt>
<rscale>  0 0.12110315E+04</rscale>
<asrwt>0</asrwt>
<pdfrwt beam="1">  1        2 0.21937240E+00 0.12110315E+04</pdfrwt>
<pdfrwt beam="2">  1       -2 0.18819565E+00 0.12110315E+04</pdfrwt>
<totfact> 0.21605414E+00</totfact>
</mgrwt>
</event>
<event>
12    1  0.3127365E-008  0.1207985E+04  0.7818608E-02  0.9105896E-01
          1   -1    0    0  501    0  0.00000000000E+00  0.00000000000E+00  0.11185052867E+04  0.11185052867E+04  0.00000000000E+00 0. -1.
         -1   -1    0    0    0  501 -0.00000000000E+00 -0.00000000000E+00 -0.14465883400E+04  0.14465883400E+04  0.00000000000E+00 0.  1.
         23    2    1    2    0    0 -0.96727136332E+03 -0.64546572757E+03 -0.45049139004E+03  0.12508836971E+04  0.97609607134E+02 0.  0.
    5000000    2    1    2    0    0  0.96727136332E+03  0.64546572757E+03  0.12240833677E+03  0.13142099296E+04  0.59993669861E+03 0.  0.
         23    2    4    4    0    0  0.40910963207E+03  0.22143827095E+02 -0.12496039405E+03  0.43715553112E+03  0.87343106042E+02 0.  0.
         23    2    4    4    0    0  0.55816173124E+03  0.62332190048E+03  0.24736873082E+03  0.87705439846E+03  0.89209971613E+02 0.  0.
          4    1    3    3  502    0 -0.74606522874E+03 -0.46007929350E+03 -0.30846202119E+03  0.92921208578E+03  0.00000000000E+00 0. -1.
         -4    1    3    3    0  502 -0.22120613458E+03 -0.18538643408E+03 -0.14202936885E+03  0.32167161132E+03  0.00000000000E+00 0.  1.
         11    1    5    5    0    0  0.24179310077E+03  0.14084966929E+02 -0.11820649205E+03  0.26950893239E+03  0.00000000000E+00 0.  1.
        -11    1    5    5    0    0  0.16731653130E+03  0.80588601662E+01 -0.67539020012E+01  0.16764659873E+03  0.00000000000E+00 0. -1.
          5    1    6    6  503    0  0.36666479854E+03  0.34667647712E+03  0.13638900819E+03  0.52273483319E+03  0.47000000000E+01 0. -1.
         -5    1    6    6    0  503  0.19149693271E+03  0.27664542336E+03  0.11097972263E+03  0.35431956527E+03  0.47000000000E+01 0.  1.
<mgrwt>
<rscale>  0 0.12079848E+04</rscale>
<asrwt>0</asrwt>
<pdfrwt beam="1">  1        1 0.17207774E+00 0.12079848E+04</pdfrwt>
<pdfrwt beam="2">  1       -1 0.22255205E+00 0.12079848E+04</pdfrwt>
<totfact> 0.12729276E+00</totfact>
</mgrwt>
</event>
<event>
12    1  0.3127365E-008  0.5748614E+03  0.7818608E-02  0.9958978E-01
          1   -1    0    0  501    0  0.00000000000E+00  0.00000000000E+00  0.12295071263E+04  0.12295071263E+04  0.00000000000E+00 0. -1.
         -1   -1    0    0    0  501 -0.00000000000E+00 -0.00000000000E+00 -0.73709494831E+03  0.73709494831E+03  0.00000000000E+00 0.  1.
         23    2    1    2    0    0  0.40782150761E+03 -0.14050480794E+03  0.98463743698E+03  0.10788199051E+04  0.91002868691E+02 0.  0.
    5000000    2    1    2    0    0 -0.40782150761E+03  0.14050480794E+03 -0.49222525902E+03  0.88778216953E+03  0.59984288926E+03 0.  0.
         23    2    4    4    0    0  0.13763818904E+03 -0.13648344844E+02 -0.10025935795E+03  0.19325343576E+03  0.90357087034E+02 0.  0.
         23    2    4    4    0    0 -0.54545969665E+03  0.15415315278E+03 -0.39196590107E+03  0.69452873377E+03  0.86275252834E+02 0.  0.
          1    1    3    3  502    0  0.11292891492E+03 -0.27623932504E+01  0.30556300645E+03  0.32577495538E+03  0.00000000000E+00 0. -1.
         -1    1    3    3    0  502  0.29489259270E+03 -0.13774241468E+03  0.67907443053E+03  0.75304494967E+03  0.00000000000E+00 0.  1.
         11    1    5    5    0    0  0.10380129104E+03 -0.10634983405E+02 -0.20195874865E+02  0.10628115663E+03  0.00000000000E+00 0. -1.
        -11    1    5    5    0    0  0.33836898001E+02 -0.30133614392E+01 -0.80063483082E+02  0.86972279128E+02  0.00000000000E+00 0.  1.
          5    1    6    6  503    0 -0.22343074871E+03  0.20997165978E+02 -0.14121177168E+03  0.26518867795E+03  0.47000000000E+01 0. -1.
         -5    1    6    6    0  503 -0.32202894794E+03  0.13315598680E+03 -0.25075412939E+03  0.42934005582E+03  0.47000000000E+01 0.  1.
<mgrwt>
<rscale>  0 0.57486144E+03</rscale>
<asrwt>0</asrwt>
<pdfrwt beam="1">  1        1 0.18915494E+00 0.57486144E+03</pdfrwt>
<pdfrwt beam="2">  1       -1 0.11339922E+00 0.57486144E+03</pdfrwt>
<totfact> 0.77115905E+00</totfact>
</mgrwt>
</event>
<event>
12    1  0.3127365E-008  0.1238124E+04  0.7818608E-02  0.9080126E-01
          2   -1    0    0  501    0  0.00000000000E+00  0.00000000000E+00  0.39810925230E+04  0.39810925230E+04  0.00000000000E+00 0. -1.
         -2   -1    0    0    0  501 -0.00000000000E+00 -0.00000000000E+00 -0.60259032959E+03  0.60259032959E+03  0.00000000000E+00 0.  1.
         23    2    1    2    0    0  0.45786892635E+03 -0.11035967063E+04  0.31171061275E+03  0.12381229233E+04  0.90637868746E+02 0.  0.
    5000000    2    1    2    0    0 -0.45786892635E+03  0.11035967063E+04  0.30667915807E+04  0.33455599293E+04  0.59999249811E+03 0.  0.
         23    2    4    4    0    0 -0.10148314535E+03  0.77922328924E+03  0.23264284155E+04  0.24573655693E+04  0.94279401526E+02 0.  0.
         23    2    4    4    0    0 -0.35638578100E+03  0.32437341701E+03  0.74036316513E+03  0.88819435998E+03  0.92318287804E+02 0.  0.
          3    1    3    3  502    0  0.20285041219E+03 -0.60550629851E+03  0.17336490600E+03  0.66169597089E+03  0.00000000000E+00 0. -1.
         -3    1    3    3    0  502  0.25501851416E+03 -0.49809040774E+03  0.13834570675E+03  0.57642695238E+03  0.00000000000E+00 0.  1.
         13    1    5    5    0    0 -0.97284642840E+02  0.56745189476E+03  0.18035709962E+04  0.18932338189E+04  0.00000000000E+00 0.  1.
        -13    1    5    5    0    0 -0.41985025103E+01  0.21177139448E+03  0.52285741931E+03  0.56413175046E+03  0.00000000000E+00 0. -1.
          5    1    6    6  503    0 -0.15178004860E+03  0.79493964459E+02  0.24934966150E+03  0.30257861330E+03  0.47000000000E+01 0. -1.
         -5    1    6    6    0  503 -0.20460573240E+03  0.24487945255E+03  0.49101350363E+03  0.58561574668E+03  0.47000000000E+01 0.  1.
<mgrwt>
<rscale>  0 0.12381238E+04</rscale>
<asrwt>0</asrwt>
<pdfrwt beam="1">  1        2 0.61247576E+00 0.12381238E+04</pdfrwt>
<pdfrwt beam="2">  1       -2 0.92706207E-01 0.12381238E+04</pdfrwt>
<totfact> 0.35240657E-01</totfact>
</mgrwt>
</event>
<event>
12    1  0.3127365E-008  0.1703798E+04  0.7818608E-02  0.8759201E-01
         -2   -1    0    0    0  501 -0.00000000000E+00  0.00000000000E+00  0.11329815578E+04  0.11329815578E+04  0.00000000000E+00 0.  1.
          2   -1    0    0  501    0  0.00000000000E+00 -0.00000000000E+00 -0.26486688704E+04  0.26486688704E+04  0.00000000000E+00 0. -1.
         23    2    1    2    0    0  0.66858717509E+02  0.16695247700E+04 -0.55341128437E+03  0.17622965415E+04  0.87418560189E+02 0.  0.
    5000000    2    1    2    0    0 -0.66858717509E+02 -0.16695247700E+04 -0.96227602816E+03  0.20193538867E+04  0.60002659907E+03 0.  0.
         23    2    4    4    0    0  0.18174856239E+03 -0.10871355801E+04 -0.78542533106E+03  0.13565417426E+04  0.91740063641E+02 0.  0.
         23    2    4    4    0    0 -0.24860727990E+03 -0.58238918997E+03 -0.17685069710E+03  0.66281214416E+03  0.84029882573E+02 0.  0.
          3    1    3    3  502    0  0.65532754204E+02  0.91736837778E+03 -0.33874215669E+03  0.98010485722E+03  0.00000000000E+00 0. -1.
         -3    1    3    3    0  502  0.13259633054E+01  0.75215639225E+03 -0.21466912768E+03  0.78219168429E+03  0.00000000000E+00 0.  1.
         13    1    5    5    0    0  0.15472801431E+02 -0.69299295276E+02 -0.25374523832E+02  0.75403357813E+02  0.00000000000E+00 0. -1.
        -13    1    5    5    0    0  0.16627576096E+03 -0.10178362848E+04 -0.76005080723E+03  0.12811383848E+04  0.00000000000E+00 0.  1.
          5    1    6    6  503    0 -0.16880534886E+03 -0.40757981090E+03 -0.83056511184E+02  0.44892874948E+03  0.47000000000E+01 0. -1.
         -5    1    6    6    0  503 -0.79801931041E+02 -0.17480937907E+03 -0.93794185916E+02  0.21388339468E+03  0.47000000000E+01 0.  1.
<mgrwt>
<rscale>  0 0.17037985E+04</rscale>
<asrwt>0</asrwt>
<pdfrwt beam="1">  1        2 0.40748752E+00 0.17037985E+04</pdfrwt>
<pdfrwt beam="2">  1       -2 0.17430485E+00 0.17037985E+04</pdfrwt>
<totfact> 0.52245683E-01</totfact>
</mgrwt>
</event>
<event>
12    1  0.3127365E-008  0.6178978E+03  0.7818608E-02  0.9868954E-01
         -1   -1    0    0    0  501 -0.00000000000E+00  0.00000000000E+00  0.81674910566E+03  0.81674910566E+03  0.00000000000E+00 0.  1.
          1   -1    0    0  501    0  0.00000000000E+00 -0.00000000000E+00 -0.54133488160E+03  0.54133488160E+03  0.00000000000E+00 0. -1.
         23    2    1    2    0    0 -0.50031571956E+03 -0.21941139201E+02  0.27156539431E+03  0.57675552937E+03  0.90010801828E+02 0.  0.
    5000000    2    1    2    0    0  0.50031571956E+03  0.21941139201E+02  0.38488297547E+01  0.78132845789E+03  0.59971836123E+03 0.  0.
         23    2    4    4    0    0 -0.11069187376E+03  0.80780893289E+00 -0.66594549927E+02  0.15904510410E+03  0.92774821945E+02 0.  0.
         23    2    4    4    0    0  0.61100759332E+03  0.21133330268E+02  0.70443379682E+02  0.62228335379E+03  0.92181375110E+02 0.  0.
          3    1    3    3  502    0 -0.14860233596E+03 -0.16472140304E+01  0.12869243860E+03  0.19658868564E+03  0.00000000000E+00 0. -1.
         -3    1    3    3    0  502 -0.35171338361E+03 -0.20293925170E+02  0.14287295570E+03  0.38016684374E+03  0.00000000000E+00 0.  1.
         13    1    5    5    0    0 -0.66133529281E+02  0.19965836190E+02  0.85481334046E+01  0.69608540386E+02  0.00000000000E+00 0.  1.
        -13    1    5    5    0    0 -0.44558344480E+02 -0.19158027257E+02 -0.75142683332E+02  0.89436563717E+02  0.00000000000E+00 0. -1.
          5    1    6    6  503    0  0.25765640209E+03 -0.32976536841E+02  0.46970604633E+02  0.26401250201E+03  0.47000000000E+01 0. -1.
         -5    1    6    6    0  503  0.35335119124E+03  0.54109867109E+02  0.23472775049E+02  0.35827085178E+03  0.47000000000E+01 0.  1.
<mgrwt>
<rscale>  0 0.61789778E+03</rscale>
<asrwt>0</asrwt>
<pdfrwt beam="1">  1        1 0.83282290E-01 0.61789778E+03</pdfrwt>
<pdfrwt beam="2">  1       -1 0.12565371E+00 0.61789778E+03</pdfrwt>
<totfact> 0.22820213E+01</totfact>
</mgrwt>
</event>
<event>
12    1  0.3127365E-008  0.5164052E+03  0.7818608E-02  0.1009583E+00
         -1   -1    0    0    0  501 -0.00000000000E+00  0.00000000000E+00  0.10385911121E+04  0.10385911121E+04  0.00000000000E+00 0.  1.
          1   -1    0    0  501    0  0.00000000000E+00 -0.00000000000E+00 -0.63352999174E+03  0.63352999174E+03  0.00000000000E+00 0. -1.
         23    2    1    2    0    0  0.19718744303E+03  0.45622260335E+03  0.67886649558E+03  0.84625219253E+03  0.90890610408E+02 0.  0.
    5000000    2    1    2    0    0 -0.19718744303E+03 -0.45622260335E+03 -0.27380537517E+03  0.82586891135E+03  0.60005676713E+03 0.  0.
         23    2    4    4    0    0 -0.13717219386E+03 -0.27897531586E+03  0.14656648011E+03  0.35674369708E+03  0.95608026262E+02 0.  0.
         23    2    4    4    0    0 -0.60015249175E+02 -0.17724728749E+03 -0.42037185528E+03  0.46912521428E+03  0.91364866900E+02 0.  0.
          2    1    3    3  502    0  0.50853160331E+02  0.21277697159E+03  0.25457122791E+03  0.33565844788E+03  0.00000000000E+00 0.  1.
         -2    1    3    3    0  502  0.14633428270E+03  0.24344563176E+03  0.42429526767E+03  0.51059374465E+03  0.00000000000E+00 0. -1.
         11    1    5    5    0    0 -0.65109116761E+02 -0.41962275069E+02  0.37820426814E+02  0.86199850921E+02  0.00000000000E+00 0. -1.
        -11    1    5    5    0    0 -0.72063077095E+02 -0.23701304079E+03  0.10874605330E+03  0.27054384615E+03  0.00000000000E+00 0.  1.
          5    1    6    6  503    0 -0.44674022279E+02 -0.24386978722E+02 -0.14525291512E+03  0.15398374053E+03  0.47000000000E+01 0. -1.
         -5    1    6    6    0  503 -0.15341226896E+02 -0.15286030877E+03 -0.27511894016E+03  0.31514147375E+03  0.47000000000E+01 0.  1.
<mgrwt>
<rscale>  0 0.51640521E+03</rscale>
<asrwt>0</asrwt>
<pdfrwt beam="1">  1        1 0.97466153E-01 0.51640521E+03</pdfrwt>
<pdfrwt beam="2">  1       -1 0.15978325E+00 0.51640521E+03</pdfrwt>
<totfact> 0.99224685E+00</totfact>
</mgrwt>
</event>
<event>
12    1  0.3127365E-008  0.1245681E+04  0.7818608E-02  0.9073786E-01
          1   -1    0    0  501    0  0.00000000000E+00  0.00000000000E+00  0.32232960921E+04  0.32232960921E+04  0.00000000000E+00 0. -1.
         -1   -1    0    0    0  501 -0.00000000000E+00 -0.00000000000E+00 -0.54187095757E+03  0.54187095757E+03  0.00000000000E+00 0.  1.
         23    2    1    2    0    0 -0.78082730014E+03 -0.90409060365E+03  0.18045525393E+04  0.21661867817E+04  0.94256107974E+02 0.  0.
    5000000    2    1    2    0    0  0.78082730014E+03  0.90409060365E+03  0.87687259515E+03  0.15989802679E+04  0.60063404561E+03 0.  0.
         23    2    4    4    0    0  0.83870948791E+03  0.75470078214E+03  0.65699424383E+03  0.13087292633E+04  0.90133082306E+02 0.  0.
         23    2    4    4    0    0 -0.57882187769E+02  0.14938982151E+03  0.21987835132E+03  0.29025100460E+03  0.10115082726E+03 0.  0.
          1    1    3    3  502    0 -0.38149374596E+03 -0.37764407247E+03  0.77093482371E+03  0.93941099955E+03  0.00000000000E+00 0. -1.
         -1    1    3    3    0  502 -0.39933355418E+03 -0.52644653118E+03  0.10336177156E+04  0.12267757822E+04  0.00000000000E+00 0.  1.
         11    1    5    5    0    0  0.56811997721E+03  0.45313939832E+03  0.42004118866E+03  0.83936298643E+03  0.00000000000E+00 0.  1.
        -11    1    5    5    0    0  0.27058951070E+03  0.30156138382E+03  0.23695305517E+03  0.46936627687E+03  0.00000000000E+00 0. -1.
          5    1    6    6  503    0 -0.54126250216E+02  0.11716154301E+03  0.92846602686E+02  0.15905678153E+03  0.47000000000E+01 0. -1.
         -5    1    6    6    0  503 -0.37559375523E+01  0.32228278504E+02  0.12703174864E+03  0.13119422306E+03  0.47000000000E+01 0.  1.
<mgrwt>
<rscale>  0 0.12456811E+04</rscale>
<asrwt>0</asrwt>
<pdfrwt beam="1">  1        1 0.49589170E+00 0.12456811E+04</pdfrwt>
<pdfrwt beam="2">  1       -1 0.83364764E-01 0.12456811E+04</pdfrwt>
<totfact> 0.57976867E-01</totfact>
</mgrwt>
</event>
<event>
12    1  0.3127365E-008  0.5569167E+03  0.7818608E-02  0.9999055E-01
         -1   -1    0    0    0  501 -0.00000000000E+00  0.00000000000E+00  0.36082665718E+03  0.36082665718E+03  0.00000000000E+00 0.  1.
          1   -1    0    0  501    0  0.00000000000E+00 -0.00000000000E+00 -0.10000574211E+04  0.10000574211E+04  0.00000000000E+00 0. -1.
         23    2    1    2    0    0 -0.39771398619E+03 -0.88376762824E+02 -0.39374667764E+02  0.41963002909E+03  0.92477726155E+02 0.  0.
    5000000    2    1    2    0    0  0.39771398619E+03  0.88376762824E+02 -0.59985609612E+03  0.94125404915E+03  0.60012080614E+03 0.  0.
         23    2    4    4    0    0  0.45345778968E+03 -0.12976018027E+03 -0.45351554732E+03  0.66099122424E+03  0.93655621590E+02 0.  0.
         23    2    4    4    0    0 -0.55743803489E+02  0.21813694309E+03 -0.14634054880E+03  0.28026282491E+03  0.80253331599E+02 0.  0.
          1    1    3    3  502    0 -0.25395311704E+03 -0.60366213062E+02  0.19542564987E+02  0.26175976998E+03  0.00000000000E+00 0. -1.
         -1    1    3    3    0  502 -0.14376086915E+03 -0.28010549762E+02 -0.58917232750E+02  0.15787025911E+03  0.00000000000E+00 0.  1.
         11    1    5    5    0    0  0.27894208369E+03 -0.36555853698E+02 -0.29328484037E+03  0.40640006654E+03  0.00000000000E+00 0.  1.
        -11    1    5    5    0    0  0.17451570599E+03 -0.93204326572E+02 -0.16023070695E+03  0.25459115770E+03  0.00000000000E+00 0. -1.
          5    1    6    6  503    0 -0.15343225318E+02  0.24378348304E+02  0.67977471907E+01  0.29966945058E+02  0.47000000000E+01 0. -1.
         -5    1    6    6    0  503 -0.40400578171E+02  0.19375859479E+03 -0.15313829599E+03  0.25029587985E+03  0.47000000000E+01 0.  1.
<mgrwt>
<rscale>  0 0.55691669E+03</rscale>
<asrwt>0</asrwt>
<pdfrwt beam="1">  1        1 0.15385498E+00 0.55691669E+03</pdfrwt>
<pdfrwt beam="2">  1       -1 0.55511795E-01 0.55691669E+03</pdfrwt>
<totfact> 0.51958454E+01</totfact>
</mgrwt>
</event>
<event>
12    1  0.3127365E-008  0.1317011E+04  0.7818608E-02  0.9016183E-01
         -2   -1    0    0    0  501 -0.00000000000E+00  0.00000000000E+00  0.21797288245E+04  0.21797288245E+04  0.00000000000E+00 0.  1.
          2   -1    0    0  501    0  0.00000000000E+00 -0.00000000000E+00 -0.12534299308E+04  0.12534299308E+04  0.00000000000E+00 0. -1.
         23    2    1    2    0    0  0.97520272573E+03  0.79182600455E+03 -0.57645833792E+03  0.13847523831E+04  0.85006877995E+02 0.  0.
    5000000    2    1    2    0    0 -0.97520272573E+03 -0.79182600455E+03  0.15027572316E+04  0.20484063722E+04  0.59973376649E+03 0.  0.
         23    2    4    4    0    0 -0.67182863636E+03 -0.82902818976E+03  0.11087242040E+04  0.15415036538E+04  0.91228822382E+02 0.  0.
         23    2    4    4    0    0 -0.30337408937E+03  0.37202185209E+02  0.39403302759E+03  0.50690271838E+03  0.90931283872E+02 0.  0.
          3    1    3    3  502    0  0.67993601521E+03  0.60110749810E+03 -0.41331608663E+03  0.99723286975E+03  0.00000000000E+00 0. -1.
         -3    1    3    3    0  502  0.29526671053E+03  0.19071850645E+03 -0.16314225129E+03  0.38751951332E+03  0.00000000000E+00 0.  1.
         13    1    5    5    0    0 -0.17666324673E+03 -0.26294925234E+03  0.37348714783E+03  0.48973958554E+03  0.00000000000E+00 0.  1.
        -13    1    5    5    0    0 -0.49516538963E+03 -0.56607893741E+03  0.73523705622E+03  0.10517640683E+04  0.00000000000E+00 0. -1.
          5    1    6    6  503    0 -0.15980570832E+03  0.12710011618E+02  0.27669244294E+03  0.31981276833E+03  0.47000000000E+01 0. -1.
         -5    1    6    6    0  503 -0.14356838105E+03  0.24492173591E+02  0.11734058465E+03  0.18708995005E+03  0.47000000000E+01 0.  1.
<mgrwt>
<rscale>  0 0.13170107E+04</rscale>
<asrwt>0</asrwt>
<pdfrwt beam="1">  1        2 0.19283537E+00 0.13170107E+04</pdfrwt>
<pdfrwt beam="2">  1       -2 0.33534290E+00 0.13170107E+04</pdfrwt>
<totfact> 0.32660473E-01</totfact>
</mgrwt>
</event>
<event>
12    1  0.3127365E-008  0.1116767E+04  0.7818608E-02  0.9189002E-01
          2   -1    0    0  501    0  0.00000000000E+00  0.00000000000E+00  0.26829981857E+04  0.26829981857E+04  0.00000000000E+00 0. -1.
         -2   -1    0    0    0  501 -0.00000000000E+00 -0.00000000000E+00 -0.65102858808E+03  0.65102858808E+03  0.00000000000E+00 0.  1.
         23    2    1    2    0    0 -0.10069611334E+04  0.24579690800E+03  0.79464531120E+02  0.10435173730E+04  0.90703097456E+02 0.  0.
    5000000    2    1    2    0    0  0.10069611334E+04 -0.24579690800E+03  0.19525050665E+04  0.22905094008E+04  0.59980866646E+03 0.  0.
         23    2    4    4    0    0  0.22975054197E+03 -0.32738217685E+03  0.64210200154E+03  0.76196929855E+03  0.91311720445E+02 0.  0.
         23    2    4    4    0    0  0.77721059140E+03  0.81585268844E+02  0.13104030650E+04  0.15285401023E+04  0.92553725377E+02 0.  0.
          2    1    3    3  502    0 -0.69835236634E+03  0.18631825627E+03  0.16407844055E+02  0.72296593111E+03  0.00000000000E+00 0. -1.
         -2    1    3    3    0  502 -0.30860876702E+03  0.59478651733E+02  0.63056687065E+02  0.32055144186E+03  0.00000000000E+00 0.  1.
         11    1    5    5    0    0  0.51684797769E+02 -0.15102238463E+03  0.24795537792E+03  0.29489141802E+03  0.00000000000E+00 0. -1.
        -11    1    5    5    0    0  0.17806574420E+03 -0.17635979222E+03  0.39414662362E+03  0.46707788053E+03  0.00000000000E+00 0.  1.
          5    1    6    6  503    0  0.32851690939E+03  0.77135535312E+02  0.59497628525E+03  0.68402640342E+03  0.47000000000E+01 0. -1.
         -5    1    6    6    0  503  0.44869368201E+03  0.44497335311E+01  0.71542677972E+03  0.84451369885E+03  0.47000000000E+01 0.  1.
<mgrwt>
<rscale>  0 0.11167667E+04</rscale>
<asrwt>0</asrwt>
<pdfrwt beam="1">  1        2 0.41276894E+00 0.11167667E+04</pdfrwt>
<pdfrwt beam="2">  1       -2 0.10015825E+00 0.11167667E+04</pdfrwt>
<totfact> 0.22279694E+00</totfact>
</mgrwt>
</event>
<event>
12    1  0.3127365E-008  0.3369559E+03  0.7818608E-02  0.1068100E+00
          2   -1    0    0  501    0  0.00000000000E+00  0.00000000000E+00  0.43624193005E+03  0.43624193005E+03  0.00000000000E+00 0.  1.
         -2   -1    0    0    0  501 -0.00000000000E+00 -0.00000000000E+00 -0.72780775081E+03  0.72780775081E+03  0.00000000000E+00 0. -1.
         23    2    1    2    0    0  0.24851928555E+03 -0.77182414679E+02 -0.41573353434E+03  0.49837047428E+03  0.88429619681E+02 0.  0.
    5000000    2    1    2    0    0 -0.24851928555E+03  0.77182414679E+02  0.12416771357E+03  0.66567920658E+03  0.59999352042E+03 0.  0.
         23    2    4    4    0    0 -0.16431586133E+03  0.18090450914E+03  0.31929854979E+03  0.41230466958E+03  0.91199961332E+02 0.  0.
         23    2    4    4    0    0 -0.84203424221E+02 -0.10372209446E+03 -0.19513083622E+03  0.25337453699E+03  0.90962207659E+02 0.  0.
          4    1    3    3  502    0  0.17468974191E+03 -0.27065771002E+02 -0.33135987704E+03  0.37556414899E+03  0.00000000000E+00 0. -1.
         -4    1    3    3    0  502  0.73829543639E+02 -0.50116643678E+02 -0.84373657290E+02  0.12280632529E+03  0.00000000000E+00 0.  1.
         13    1    5    5    0    0 -0.16962916709E+03  0.18716563454E+03  0.31050903493E+03  0.40027601709E+03  0.00000000000E+00 0. -1.
        -13    1    5    5    0    0  0.53133057608E+01 -0.62611253981E+01  0.87895148603E+01  0.12028652495E+02  0.00000000000E+00 0.  1.
          5    1    6    6  503    0 -0.85607255191E+02 -0.10978612479E+03 -0.13928719686E+03  0.19698885387E+03  0.47000000000E+01 0. -1.
         -5    1    6    6    0  503  0.14038309699E+01  0.60640303250E+01 -0.55843639355E+02  0.56385683126E+02  0.47000000000E+01 0.  1.
<mgrwt>
<rscale>  0 0.33695589E+03</rscale>
<asrwt>0</asrwt>
<pdfrwt beam="1">  1        2 0.67114144E-01 0.33695589E+03</pdfrwt>
<pdfrwt beam="2">  1       -2 0.11197042E+00 0.33695589E+03</pdfrwt>
<totfact> 0.47679674E+01</totfact>
</mgrwt>
</event>
<event>
12    1  0.3127365E-008  0.4630868E+03  0.7818608E-02  0.1023890E+00
         -2   -1    0    0    0  501 -0.00000000000E+00  0.00000000000E+00  0.12919164967E+03  0.12919164967E+03  0.00000000000E+00 0.  1.
          2   -1    0    0  501    0  0.00000000000E+00 -0.00000000000E+00 -0.19483918221E+04  0.19483918221E+04  0.00000000000E+00 0. -1.
         23    2    1    2    0    0 -0.22459960053E+03 -0.16193594863E+03 -0.30239834069E+03  0.42317065943E+03  0.10469201750E+03 0.  0.
    5000000    2    1    2    0    0  0.22459960053E+03  0.16193594863E+03 -0.15168018318E+04  0.16544128124E+04  0.59977139385E+03 0.  0.
         23    2    4    4    0    0  0.61048964956E+02 -0.20900243787E+03 -0.68343562301E+03  0.72319935900E+03  0.92325873458E+02 0.  0.
         23    2    4    4    0    0  0.16355063557E+03  0.37093838649E+03 -0.83336620877E+03  0.93121345339E+03  0.91187503905E+02 0.  0.
          2    1    3    3  502    0 -0.79346735732E+02 -0.44790217439E+01 -0.10648609386E+03  0.13287307588E+03  0.00000000000E+00 0. -1.
         -2    1    3    3    0  502 -0.14525286480E+03 -0.15745692688E+03 -0.19591224683E+03  0.29029758355E+03  0.00000000000E+00 0.  1.
         13    1    5    5    0    0  0.12956325068E+02 -0.70015312893E+02 -0.10870390471E+03  0.12994825623E+03  0.00000000000E+00 0.  1.
        -13    1    5    5    0    0  0.48092639887E+02 -0.13898712497E+03 -0.57473171830E+03  0.59325110277E+03  0.00000000000E+00 0. -1.
          5    1    6    6  503    0  0.10978918875E+03  0.32584361311E+03 -0.71804601086E+03  0.79614062193E+03  0.47000000000E+01 0. -1.
         -5    1    6    6    0  503  0.53761446823E+02  0.45094773381E+02 -0.11532019791E+03  0.13507283145E+03  0.47000000000E+01 0.  1.
<mgrwt>
<rscale>  0 0.46308678E+03</rscale>
<asrwt>0</asrwt>
<pdfrwt beam="1">  1        2 0.29975257E+00 0.46308678E+03</pdfrwt>
<pdfrwt beam="2">  1       -2 0.19875640E-01 0.46308678E+03</pdfrwt>
<totfact> 0.16301007E+02</totfact>
</mgrwt>
</event>
<event>
12    1  0.3127365E-008  0.5602635E+03  0.7818608E-02  0.9991459E-01
          1   -1    0    0  501    0  0.00000000000E+00  0.00000000000E+00  0.17628274037E+04  0.17628274037E+04  0.00000000000E+00 0. -1.
         -1   -1    0    0    0  501 -0.00000000000E+00 -0.00000000000E+00 -0.41713934805E+03  0.41713934805E+03  0.00000000000E+00 0.  1.
         23    2    1    2    0    0 -0.40083331658E+03  0.20130765310E+03  0.13553487640E+04  0.14307166722E+04  0.93743294869E+02 0.  0.
    5000000    2    1    2    0    0  0.40083331658E+03 -0.20130765310E+03 -0.96607083185E+01  0.74925007951E+03  0.60007518986E+03 0.  0.
         23    2    4    4    0    0  0.50964313649E+03 -0.10998784579E+03 -0.12592785461E+03  0.54377936077E+03  0.89469077554E+02 0.  0.
         23    2    4    4    0    0 -0.10880981991E+03 -0.91319807315E+02  0.11626714629E+03  0.20547071874E+03  0.92310794807E+02 0.  0.
          2    1    3    3  502    0 -0.27467703264E+02  0.22707132382E+02  0.20730497669E+03  0.21034600529E+03  0.00000000000E+00 0.  1.
         -2    1    3    3    0  502 -0.37336561332E+03  0.17860052072E+03  0.11480437873E+04  0.12203706669E+04  0.00000000000E+00 0. -1.
         13    1    5    5    0    0  0.33007634976E+03 -0.11233049915E+03 -0.96760397062E+02  0.36184404396E+03  0.00000000000E+00 0. -1.
        -13    1    5    5    0    0  0.17956678673E+03  0.23426533694E+01 -0.29167457549E+02  0.18193531681E+03  0.00000000000E+00 0.  1.
          5    1    6    6  503    0 -0.76433480680E+02 -0.58034506896E+02  0.19509183233E+02  0.98044781554E+02  0.47000000000E+01 0. -1.
         -5    1    6    6    0  503 -0.32376339226E+02 -0.33285300418E+02  0.96757963059E+02  0.10742593719E+03  0.47000000000E+01 0.  1.
<mgrwt>
<rscale>  0 0.56026346E+03</rscale>
<asrwt>0</asrwt>
<pdfrwt beam="1">  1        1 0.27120421E+00 0.56026346E+03</pdfrwt>
<pdfrwt beam="2">  1       -1 0.64175285E-01 0.56026346E+03</pdfrwt>
<totfact> 0.11452330E+01</totfact>
</mgrwt>
</event>
<event>
12    1  0.3127365E-008  0.4908492E+03  0.7818608E-02  0.1016195E+00
         -1   -1    0    0    0  501 -0.00000000000E+00  0.00000000000E+00  0.12090947424E+03  0.12090947424E+03  0.00000000000E+00 0.  1.
          1   -1    0    0  501    0  0.00000000000E+00 -0.00000000000E+00 -0.25226338605E+04  0.25226338605E+04  0.00000000000E+00 0. -1.
         23    2    1    2    0    0  0.25566585184E+03  0.26650894878E+03 -0.10921103495E+04  0.11563889673E+04  0.90212973276E+02 0.  0.
    5000000    2    1    2    0    0 -0.25566585184E+03 -0.26650894878E+03 -0.13096140368E+04  0.14871543675E+04  0.60012260401E+03 0.  0.
         23    2    4    4    0    0 -0.31459795891E+03 -0.86302494582E+00 -0.32544806867E+03  0.46173418685E+03  0.91155873848E+02 0.  0.
         23    2    4    4    0    0  0.58932107073E+02 -0.26564592383E+03 -0.98416596809E+03  0.10254201806E+04  0.94144272266E+02 0.  0.
          1    1    3    3  502    0  0.18684381164E+03  0.21066128148E+03 -0.92921737172E+03  0.97094475094E+03  0.00000000000E+00 0. -1.
         -1    1    3    3    0  502  0.68822040200E+02  0.55847667301E+02 -0.16289297781E+03  0.18544421635E+03  0.00000000000E+00 0.  1.
         11    1    5    5    0    0 -0.10993775971E+03  0.36037832302E+02 -0.83410544840E+02  0.14262662920E+03  0.00000000000E+00 0.  1.
        -11    1    5    5    0    0 -0.20466019920E+03 -0.36900857248E+02 -0.24203752383E+03  0.31910755764E+03  0.00000000000E+00 0. -1.
          5    1    6    6  503    0  0.56253002991E+02 -0.60991773381E+02 -0.29651435674E+03  0.30794033598E+03  0.47000000000E+01 0. -1.
         -5    1    6    6    0  503  0.26791040813E+01 -0.20465415045E+03 -0.68765161135E+03  0.71747984465E+03  0.47000000000E+01 0.  1.
<mgrwt>
<rscale>  0 0.49084922E+03</rscale>
<asrwt>0</asrwt>
<pdfrwt beam="1">  1        1 0.38809751E+00 0.49084922E+03</pdfrwt>
<pdfrwt beam="2">  1       -1 0.18601458E-01 0.49084922E+03</pdfrwt>
<totfact> 0.32913818E+01</totfact>
</mgrwt>
</event>
<event>
12    1  0.3127365E-008  0.4633487E+03  0.7818608E-02  0.1023814E+00
         -2   -1    0    0    0  501 -0.00000000000E+00  0.00000000000E+00  0.11317630293E+04  0.11317630293E+04  0.00000000000E+00 0.  1.
          2   -1    0    0  501    0  0.00000000000E+00 -0.00000000000E+00 -0.24355604914E+03  0.24355604914E+03  0.00000000000E+00 0. -1.
         23    2    1    2    0    0  0.33608354247E+03  0.28781687126E+02  0.20213329984E+03  0.40386684625E+03  0.92032741811E+02 0.  0.
    5000000    2    1    2    0    0 -0.33608354247E+03 -0.28781687126E+02  0.68607368031E+03  0.97145223217E+03  0.59936784327E+03 0.  0.
         23    2    4    4    0    0  0.10351887861E+03  0.93939896511E+01 -0.12697340167E+02  0.14011523135E+03  0.93094845931E+02 0.  0.
         23    2    4    4    0    0 -0.43960242108E+03 -0.38175676777E+02  0.69877102048E+03  0.83133700082E+03  0.90180923477E+02 0.  0.
          2    1    3    3  502    0  0.28752702283E+03  0.45400089486E+02  0.13919974545E+03  0.32266007828E+03  0.00000000000E+00 0. -1.
         -2    1    3    3    0  502  0.48556519646E+02 -0.16618402360E+02  0.62933554390E+02  0.81206767977E+02  0.00000000000E+00 0.  1.
         13    1    5    5    0    0  0.23711597624E+02  0.42060769897E+02  0.13237218262E+02  0.50065678598E+02  0.00000000000E+00 0. -1.
        -13    1    5    5    0    0  0.79807280984E+02 -0.32666780246E+02 -0.25934558429E+02  0.90049552751E+02  0.00000000000E+00 0.  1.
          5    1    6    6  503    0 -0.17680124821E+03 -0.58122686480E+02  0.31069765747E+03  0.36220443455E+03  0.47000000000E+01 0. -1.
         -5    1    6    6    0  503 -0.26280117287E+03  0.19947009703E+02  0.38807336301E+03  0.46913256627E+03  0.47000000000E+01 0.  1.
<mgrwt>
<rscale>  0 0.46334866E+03</rscale>
<asrwt>0</asrwt>
<pdfrwt beam="1">  1        2 0.37470162E-01 0.46334866E+03</pdfrwt>
<pdfrwt beam="2">  1       -2 0.17411739E+00 0.46334866E+03</pdfrwt>
<totfact> 0.28706440E+01</totfact>
</mgrwt>
</event>
<event>
12    1  0.3127365E-008  0.6861709E+03  0.7818608E-02  0.9741178E-01
          2   -1    0    0  501    0  0.00000000000E+00  0.00000000000E+00  0.19794101951E+04  0.19794101951E+04  0.00000000000E+00 0. -1.
         -2   -1    0    0    0  501 -0.00000000000E+00 -0.00000000000E+00 -0.28737868431E+03  0.28737868431E+03  0.00000000000E+00 0.  1.
         23    2    1    2    0    0 -0.29375401735E+03 -0.54172045026E+03  0.92196275400E+03  0.11124082396E+04  0.87660155145E+02 0.  0.
    5000000    2    1    2    0    0  0.29375401735E+03  0.54172045026E+03  0.77006875678E+03  0.11543806398E+04  0.59986356986E+03 0.  0.
         23    2    4    4    0    0  0.72946013203E+02  0.50675577120E+03  0.75021445635E+03  0.91252075695E+03  0.88033339545E+02 0.  0.
         23    2    4    4    0    0  0.22080800415E+03  0.34964679065E+02  0.19854300431E+02  0.24185988285E+03  0.90129385930E+02 0.  0.
          1    1    3    3  502    0 -0.11636010476E+03 -0.30145907422E+03  0.45362850310E+03  0.55695248113E+03  0.00000000000E+00 0. -1.
         -1    1    3    3    0  502 -0.17739391259E+03 -0.24026137604E+03  0.46833425090E+03  0.55545575846E+03  0.00000000000E+00 0.  1.
         11    1    5    5    0    0 -0.14102244754E+01  0.16469773968E+03  0.29995983711E+03  0.34220350388E+03  0.00000000000E+00 0.  1.
        -11    1    5    5    0    0  0.74356237678E+02  0.34205803152E+03  0.45025461924E+03  0.57031725308E+03  0.00000000000E+00 0. -1.
          5    1    6    6  503    0  0.15863074783E+03  0.58519334885E+02 -0.86471690394E+01  0.16936673299E+03  0.47000000000E+01 0. -1.
         -5    1    6    6    0  503  0.62177256323E+02 -0.23554655820E+02  0.28501469471E+02  0.72493149860E+02  0.47000000000E+01 0.  1.
<mgrwt>
<rscale>  0 0.68617090E+03</rscale>
<asrwt>0</asrwt>
<pdfrwt beam="1">  1        2 0.30452464E+00 0.68617090E+03</pdfrwt>
<pdfrwt beam="2">  1       -2 0.44212106E-01 0.68617090E+03</pdfrwt>
<totfact> 0.34622173E+01</totfact>
</mgrwt>
</event>
<event>
12    1  0.3127365E-008  0.1158507E+04  0.7818608E-02  0.9149971E-01
         -1   -1    0    0    0  501 -0.00000000000E+00  0.00000000000E+00  0.68356754998E+03  0.68356754998E+03  0.00000000000E+00 0.  1.
          1   -1    0    0  501    0  0.00000000000E+00 -0.00000000000E+00 -0.24566667150E+04  0.24566667150E+04  0.00000000000E+00 0. -1.
         23    2    1    2    0    0  0.11055528885E+04 -0.16778422042E+03 -0.14455656669E+04  0.18297843014E+04  0.89731590440E+02 0.  0.
    5000000    2    1    2    0    0 -0.11055528885E+04  0.16778422042E+03 -0.32753349814E+03  0.13104499636E+04  0.59966839242E+03 0.  0.
         23    2    4    4    0    0 -0.39227367574E+03 -0.12699473000E+03  0.84308149281E+02  0.43086137553E+03  0.92343720772E+02 0.  0.
         23    2    4    4    0    0 -0.71327921277E+03  0.29477895042E+03 -0.41184164742E+03  0.87958858810E+03  0.91655205989E+02 0.  0.
          4    1    3    3  502    0  0.27300527580E+03 -0.77625557266E+02 -0.39153462380E+03  0.48358760260E+03  0.00000000000E+00 0. -1.
         -4    1    3    3    0  502  0.83254761270E+03 -0.90158663158E+02 -0.10540310431E+04  0.13461966988E+04  0.00000000000E+00 0.  1.
         13    1    5    5    0    0 -0.39119788375E+03 -0.13243956350E+03  0.74618903963E+02  0.41969513108E+03  0.00000000000E+00 0.  1.
        -13    1    5    5    0    0 -0.10757919921E+01  0.54448334996E+01  0.96892453182E+01  0.11166244449E+02  0.00000000000E+00 0. -1.
          5    1    6    6  503    0 -0.60084245065E+02  0.54365461551E+02 -0.42846013803E+02  0.91780122104E+02  0.47000000000E+01 0. -1.
         -5    1    6    6    0  503 -0.65319496770E+03  0.24041348887E+03 -0.36899563362E+03  0.78780846599E+03  0.47000000000E+01 0.  1.
<mgrwt>
<rscale>  0 0.11585075E+04</rscale>
<asrwt>0</asrwt>
<pdfrwt beam="1">  1        1 0.37794873E+00 0.11585075E+04</pdfrwt>
<pdfrwt beam="2">  1       -1 0.10516424E+00 0.11585075E+04</pdfrwt>
<totfact> 0.12250517E+00</totfact>
</mgrwt>
</event>
<event>
12    1  0.3127365E-008  0.3654987E+03  0.7818608E-02  0.1056428E+00
         -1   -1    0    0    0  501 -0.00000000000E+00  0.00000000000E+00  0.11006834530E+04  0.11006834530E+04  0.00000000000E+00 0.  1.
          1   -1    0    0  501    0  0.00000000000E+00 -0.00000000000E+00 -0.10106247618E+04  0.10106247618E+04  0.00000000000E+00 0. -1.
         23    2    1    2    0    0  0.27701666878E+03  0.34352546904E+01 -0.88574708600E+03  0.93275894101E+03  0.93494951228E+02 0.  0.
    5000000    2    1    2    0    0 -0.27701666878E+03 -0.34352546904E+01  0.97580577722E+03  0.11785492738E+04  0.60002619963E+03 0.  0.
         23    2    4    4    0    0 -0.31205654879E+03  0.87805410619E+02  0.19805915927E+03  0.38936055021E+03  0.85352959603E+02 0.  0.
         23    2    4    4    0    0  0.35039880011E+02 -0.91240665309E+02  0.77774661795E+03  0.78918872363E+03  0.91522606845E+02 0.  0.
          3    1    3    3  502    0  0.17626177701E+03  0.39287639680E+00 -0.69514545904E+03  0.71714404244E+03  0.00000000000E+00 0. -1.
         -3    1    3    3    0  502  0.10075489177E+03  0.30423782936E+01 -0.19060162697E+03  0.21561489857E+03  0.00000000000E+00 0.  1.
         11    1    5    5    0    0 -0.10527560621E+03 -0.93090325560E+01  0.77450053690E+02  0.13102718102E+03  0.00000000000E+00 0.  1.
        -11    1    5    5    0    0 -0.20678094258E+03  0.97114443175E+02  0.12060910558E+03  0.25833336919E+03  0.00000000000E+00 0. -1.
          5    1    6    6  503    0  0.37629352893E+02 -0.11149462423E+02  0.45091278723E+03  0.45264192294E+03  0.47000000000E+01 0. -1.
         -5    1    6    6    0  503 -0.25894728817E+01 -0.80091202887E+02  0.32683383072E+03  0.33654680069E+03  0.47000000000E+01 0.  1.
<mgrwt>
<rscale>  0 0.36549868E+03</rscale>
<asrwt>0</asrwt>
<pdfrwt beam="1">  1        1 0.15548073E+00 0.36549868E+03</pdfrwt>
<pdfrwt beam="2">  1       -1 0.16933591E+00 0.36549868E+03</pdfrwt>
<totfact> 0.41960157E+00</totfact>
</mgrwt>
</event>
<event>
12    1  0.3127365E-008  0.8572194E+03  0.7818608E-02  0.9480698E-01
         -2   -1    0    0    0  501 -0.00000000000E+00  0.00000000000E+00  0.12035322546E+04  0.12035322546E+04  0.00000000000E+00 0.  1.
          2   -1    0    0  501    0  0.00000000000E+00 -0.00000000000E+00 -0.11927105354E+04  0.11927105354E+04  0.00000000000E+00 0. -1.
         23    2    1    2    0    0  0.55524203082E+03  0.50710752740E+03 -0.82632051591E+03  0.11209506533E+04  0.90956115047E+02 0.  0.
    5000000    2    1    2    0    0 -0.55524203082E+03 -0.50710752740E+03  0.83714223513E+03  0.12752921367E+04  0.60009262204E+03 0.  0.
         23    2    4    4    0    0 -0.66602093179E+03 -0.41749231738E+03  0.71223708354E+03  0.10648116575E+04  0.93050986476E+02 0.  0.
         23    2    4    4    0    0  0.11077890096E+03 -0.89615210019E+02  0.12490515160E+03  0.21048047926E+03  0.91639972103E+02 0.  0.
          3    1    3    3  502    0  0.81351399485E+02  0.10372061386E+03 -0.10695174702E+03  0.16974890906E+03  0.00000000000E+00 0. -1.
         -3    1    3    3    0  502  0.47389063134E+03  0.40338691354E+03 -0.71936876889E+03  0.95120174419E+03  0.00000000000E+00 0.  1.
         13    1    5    5    0    0 -0.33565160485E+03 -0.26308463504E+03  0.36695958342E+03  0.56261430918E+03  0.00000000000E+00 0.  1.
        -13    1    5    5    0    0 -0.33036932694E+03 -0.15440768233E+03  0.34527750012E+03  0.50219734830E+03  0.00000000000E+00 0. -1.
          5    1    6    6  503    0  0.47588927528E+02  0.12087136653E+02  0.31184119896E+02  0.58355327343E+02  0.47000000000E+01 0. -1.
         -5    1    6    6    0  503  0.63189973436E+02 -0.10170234667E+03  0.93721031700E+02  0.15212515191E+03  0.47000000000E+01 0.  1.
<mgrwt>
<rscale>  0 0.85721937E+03</rscale>
<asrwt>0</asrwt>
<pdfrwt beam="1">  1        2 0.18349393E+00 0.85721937E+03</pdfrwt>
<pdfrwt beam="2">  1       -2 0.18515881E+00 0.85721937E+03</pdfrwt>
<totfact> 0.32269398E+00</totfact>
</mgrwt>
</event>
<event>
12    1  0.3127365E-008  0.5165551E+03  0.7818608E-02  0.1009546E+00
          2   -1    0    0  501    0  0.00000000000E+00  0.00000000000E+00  0.76824460551E+03  0.76824460551E+03  0.00000000000E+00 0. -1.
         -2   -1    0    0    0  501 -0.00000000000E+00 -0.00000000000E+00 -0.38773211623E+03  0.38773211623E+03  0.00000000000E+00 0.  1.
         23    2    1    2    0    0 -0.48046178793E+02 -0.36786109965E+03  0.18230648830E+03  0.42321304097E+03  0.90793162947E+02 0.  0.
    5000000    2    1    2    0    0  0.48046178793E+02  0.36786109965E+03  0.19820600098E+03  0.73276368077E+03  0.60002230717E+03 0.  0.
         23    2    4    4    0    0  0.28067344723E+03  0.26181054365E+03 -0.67896310482E-01  0.39541139154E+03  0.95014836774E+02 0.  0.
         23    2    4    4    0    0 -0.23262726843E+03  0.10605055600E+03  0.19827389729E+03  0.33735228923E+03  0.95560777807E+02 0.  0.
          1    1    3    3  502    0  0.16358249496E+02 -0.18057152673E+03  0.11166388164E+03  0.21293776334E+03  0.00000000000E+00 0. -1.
         -1    1    3    3    0  502 -0.64404428289E+02 -0.18728957292E+03  0.70642606662E+02  0.21027527764E+03  0.00000000000E+00 0.  1.
         13    1    5    5    0    0  0.26527215891E+03  0.20152893674E+03 -0.23923672937E+01  0.33315004737E+03  0.00000000000E+00 0. -1.
        -13    1    5    5    0    0  0.15401288312E+02  0.60281606909E+02  0.23244709833E+01  0.62261344176E+02  0.00000000000E+00 0.  1.
          5    1    6    6  503    0 -0.55326920490E+02  0.91372668211E+01  0.30580639227E+01  0.56356007051E+02  0.47000000000E+01 0. -1.
         -5    1    6    6    0  503 -0.17730034794E+03  0.96913289184E+02  0.19521583337E+03  0.28099628218E+03  0.47000000000E+01 0.  1.
<mgrwt>
<rscale>  0 0.51655511E+03</rscale>
<asrwt>0</asrwt>
<pdfrwt beam="1">  1        2 0.11819148E+00 0.51655511E+03</pdfrwt>
<pdfrwt beam="2">  1       -2 0.59651095E-01 0.51655511E+03</pdfrwt>
<totfact> 0.98221481E+01</totfact>
</mgrwt>
</event>
<event>
12    1  0.3127365E-008  0.8487502E+03  0.7818608E-02  0.9492016E-01
         -1   -1    0    0    0  501 -0.00000000000E+00  0.00000000000E+00  0.43115167709E+03  0.43115167709E+03  0.00000000000E+00 0.  1.
          1   -1    0    0  501    0  0.00000000000E+00 -0.00000000000E+00 -0.20355941741E+04  0.20355941741E+04  0.00000000000E+00 0. -1.
         23    2    1    2    0    0 -0.77012580238E+02 -0.81239863961E+03 -0.47105157217E+03  0.94670979762E+03  0.91909575776E+02 0.  0.
    5000000    2    1    2    0    0  0.77012580238E+02  0.81239863961E+03 -0.11333909248E+04  0.15200360535E+04  0.60001010697E+03 0.  0.
         23    2    4    4    0    0  0.14543305957E+03  0.70934054288E+03 -0.54196098062E+03  0.90906334038E+03  0.91431240361E+02 0.  0.
         23    2    4    4    0    0 -0.68420479330E+02  0.10305809673E+03 -0.59142994417E+03  0.61097271315E+03  0.90531453435E+02 0.  0.
          1    1    3    3  502    0 -0.59538143650E+02 -0.55660727769E+03 -0.27339733186E+03  0.62297877427E+03  0.00000000000E+00 0. -1.
         -1    1    3    3    0  502 -0.17474436587E+02 -0.25579136192E+03 -0.19765424032E+03  0.32373102335E+03  0.00000000000E+00 0.  1.
         11    1    5    5    0    0  0.11789573003E+03  0.35558863820E+03 -0.26328704510E+03  0.45788945270E+03  0.00000000000E+00 0. -1.
        -11    1    5    5    0    0  0.27537329534E+02  0.35375190468E+03 -0.27867393552E+03  0.45117388767E+03  0.00000000000E+00 0.  1.
          5    1    6    6  503    0  0.19194401690E+02  0.51640296166E+01 -0.55016863496E+02  0.58685922733E+02  0.47000000000E+01 0. -1.
         -5    1    6    6    0  503 -0.87614881020E+02  0.97894067115E+02 -0.53641308067E+03  0.55228679042E+03  0.47000000000E+01 0.  1.
<mgrwt>
<rscale>  0 0.84875024E+03</rscale>
<asrwt>0</asrwt>
<pdfrwt beam="1">  1        1 0.31316834E+00 0.84875024E+03</pdfrwt>
<pdfrwt beam="2">  1       -1 0.66331027E-01 0.84875024E+03</pdfrwt>
<totfact> 0.67038418E+00</totfact>
</mgrwt>
</event>
<event>
12    1  0.3127365E-008  0.1232869E+04  0.7818608E-02  0.9084563E-01
          2   -1    0    0  501    0  0.00000000000E+00  0.00000000000E+00  0.16530432053E+04  0.16530432053E+04  0.00000000000E+00 0. -1.
         -2   -1    0    0    0  501 -0.00000000000E+00 -0.00000000000E+00 -0.10838192495E+04  0.10838192495E+04  0.00000000000E+00 0.  1.
         23    2    1    2    0    0  0.10425633899E+04  0.63623269701E+03 -0.82764828057E+02  0.12280128465E+04  0.97134276823E+02 0.  0.
    5000000    2    1    2    0    0 -0.10425633899E+04 -0.63623269701E+03  0.65198878386E+03  0.15088496083E+04  0.59983939470E+03 0.  0.
         23    2    4    4    0    0 -0.28830316840E+03 -0.80545849272E+02 -0.71267721347E+02  0.32101676313E+03  0.91467608268E+02 0.  0.
         23    2    4    4    0    0 -0.75426022148E+03 -0.55568684774E+03  0.72325650521E+03  0.11878328451E+04  0.10074989434E+03 0.  0.
          4    1    3    3  502    0  0.74312255623E+03  0.41540252591E+03 -0.26829626735E+02  0.85176887768E+03  0.00000000000E+00 0. -1.
         -4    1    3    3    0  502  0.29944083365E+03  0.22083017110E+03 -0.55935201322E+02  0.37624396882E+03  0.00000000000E+00 0.  1.
         11    1    5    5    0    0 -0.10724545671E+03 -0.19520481040E+02 -0.70742701317E+02  0.12995063276E+03  0.00000000000E+00 0. -1.
        -11    1    5    5    0    0 -0.18105771168E+03 -0.61025368232E+02 -0.52502002988E+00  0.19106613037E+03  0.00000000000E+00 0.  1.
          5    1    6    6  503    0 -0.56545676460E+03 -0.36027706740E+03  0.51383920404E+03  0.84474477538E+03  0.47000000000E+01 0. -1.
         -5    1    6    6    0  503 -0.18880345689E+03 -0.19540978034E+03  0.20941730117E+03  0.34308806977E+03  0.47000000000E+01 0.  1.
<mgrwt>
<rscale>  0 0.12328686E+04</rscale>
<asrwt>0</asrwt>
<pdfrwt beam="1">  1        2 0.25431434E+00 0.12328686E+04</pdfrwt>
<pdfrwt beam="2">  1       -2 0.16674142E+00 0.12328686E+04</pdfrwt>
<totfact> 0.22668434E+00</totfact>
</mgrwt>
</event>
<event>
12    1  0.3127365E-008  0.1059367E+04  0.7818608E-02  0.9245726E-01
         -2   -1    0    0    0  501 -0.00000000000E+00  0.00000000000E+00  0.53551537978E+03  0.53551537978E+03  0.00000000000E+00 0. -1.
          2   -1    0    0  501    0  0.00000000000E+00 -0.00000000000E+00 -0.26835522089E+04  0.26835522089E+04  0.00000000000E+00 0.  1.
         23    2    1    2    0    0  0.11802714995E+03 -0.10394760987E+04 -0.46496913103E+03  0.11484522441E+04  0.91133398124E+02 0.  0.
    5000000    2    1    2    0    0 -0.11802714995E+03  0.10394760987E+04 -0.16830676981E+04  0.20706153446E+04  0.60024166886E+03 0.  0.
         23    2    4    4    0    0  0.30093567603E+02  0.23302321080E+03 -0.89398894648E+03  0.92889113965E+03  0.91744609120E+02 0.  0.
         23    2    4    4    0    0 -0.14812071755E+03  0.80645288789E+03 -0.78907875163E+03  0.11417242050E+04  0.92643815616E+02 0.  0.
          4    1    3    3  502    0  0.17261502886E+02 -0.17780067145E+03 -0.43062895947E+02  0.18375377889E+03  0.00000000000E+00 0. -1.
         -4    1    3    3    0  502  0.10076564706E+03 -0.86167542725E+03 -0.42190623508E+03  0.96469846519E+03  0.00000000000E+00 0.  1.
         13    1    5    5    0    0  0.42651634293E+02  0.40794165550E+02 -0.18412616861E+03  0.19335400647E+03  0.00000000000E+00 0. -1.
        -13    1    5    5    0    0 -0.12558066690E+02  0.19222904525E+03 -0.70986277787E+03  0.73553713318E+03  0.00000000000E+00 0.  1.
          5    1    6    6  503    0 -0.73313994077E+02  0.29677715148E+03 -0.35100881638E+03  0.46548995537E+03  0.47000000000E+01 0. -1.
         -5    1    6    6    0  503 -0.74806723471E+02  0.50967573641E+03 -0.43806993525E+03  0.67623424960E+03  0.47000000000E+01 0.  1.
<mgrwt>
<rscale>  0 0.10593674E+04</rscale>
<asrwt>0</asrwt>
<pdfrwt beam="1">  1        2 0.41285420E+00 0.10593674E+04</pdfrwt>
<pdfrwt beam="2">  1       -2 0.82386980E-01 0.10593674E+04</pdfrwt>
<totfact> 0.35327135E+00</totfact>
</mgrwt>
</event>
<event>
12    1  0.3127365E-008  0.7955647E+03  0.7818608E-02  0.9566459E-01
         -1   -1    0    0    0  501 -0.00000000000E+00  0.00000000000E+00  0.43218038278E+03  0.43218038278E+03  0.00000000000E+00 0.  1.
          1   -1    0    0  501    0  0.00000000000E+00 -0.00000000000E+00 -0.15209288587E+04  0.15209288587E+04  0.00000000000E+00 0. -1.
         23    2    1    2    0    0 -0.27122760280E+03 -0.63551377963E+03 -0.57505008088E+03  0.90379727654E+03  0.93406343177E+02 0.  0.
    5000000    2    1    2    0    0  0.27122760280E+03  0.63551377963E+03 -0.51369839502E+03  0.10493119649E+04  0.59977277535E+03 0.  0.
         23    2    4    4    0    0  0.30014097340E+03  0.45379090907E+02 -0.18475354050E+03  0.36683934840E+03  0.91067947179E+02 0.  0.
         23    2    4    4    0    0 -0.28913370595E+02  0.59013468872E+03 -0.32894485452E+03  0.68247261652E+03  0.92028371434E+02 0.  0.
          3    1    3    3  502    0 -0.13407322349E+03 -0.37358344222E+03 -0.27729838365E+03  0.48418448048E+03  0.00000000000E+00 0. -1.
         -3    1    3    3    0  502 -0.13715437931E+03 -0.26193033740E+03 -0.29775169723E+03  0.41961279606E+03  0.00000000000E+00 0.  1.
         11    1    5    5    0    0  0.61553473770E+02  0.10512502531E+02 -0.85997647291E+02  0.10627764667E+03  0.00000000000E+00 0.  1.
        -11    1    5    5    0    0  0.23858749963E+03  0.34866588376E+02 -0.98755893208E+02  0.26056170172E+03  0.00000000000E+00 0. -1.
          5    1    6    6  503    0  0.23075227357E+02  0.17359207601E+03 -0.66457354716E+02  0.18736420407E+03  0.47000000000E+01 0. -1.
         -5    1    6    6    0  503 -0.51988597953E+02  0.41654261271E+03 -0.26248749981E+03  0.49510841244E+03  0.47000000000E+01 0.  1.
<mgrwt>
<rscale>  0 0.79556467E+03</rscale>
<asrwt>0</asrwt>
<pdfrwt beam="1">  1        1 0.23398906E+00 0.79556467E+03</pdfrwt>
<pdfrwt beam="2">  1       -1 0.66489290E-01 0.79556467E+03</pdfrwt>
<totfact> 0.14939209E+01</totfact>
</mgrwt>
</event>
<event>
12    1  0.3127365E-008  0.5662604E+03  0.7818608E-02  0.9977988E-01
          1   -1    0    0  501    0  0.00000000000E+00  0.00000000000E+00  0.89843341899E+03  0.89843341899E+03  0.00000000000E+00 0. -1.
         -1   -1    0    0    0  501 -0.00000000000E+00 -0.00000000000E+00 -0.55004575572E+03  0.55004575572E+03  0.00000000000E+00 0.  1.
         23    2    1    2    0    0 -0.26656709823E+03  0.32190902283E+03  0.54341707825E+03  0.69165609471E+03  0.91665672849E+02 0.  0.
    5000000    2    1    2    0    0  0.26656709823E+03 -0.32190902283E+03 -0.19502941498E+03  0.75682308001E+03  0.60005105190E+03 0.  0.
         23    2    4    4    0    0  0.14857837258E+03 -0.47286233341E+03 -0.66033429018E+02  0.50848652277E+03  0.92324487152E+02 0.  0.
         23    2    4    4    0    0  0.11798872565E+03  0.15095331058E+03 -0.12899598596E+03  0.24833655724E+03  0.91229599976E+02 0.  0.
          2    1    3    3  502    0 -0.20166680471E+03  0.26782964419E+03  0.48233133506E+03  0.58740593733E+03  0.00000000000E+00 0. -1.
         -2    1    3    3    0  502 -0.64900293514E+02  0.54079378644E+02  0.61085743186E+02  0.10425015738E+03  0.00000000000E+00 0.  1.
         11    1    5    5    0    0  0.28051873106E+02 -0.20534093716E+03 -0.56937682821E+02  0.21492721509E+03  0.00000000000E+00 0. -1.
        -11    1    5    5    0    0  0.12052649947E+03 -0.26752139625E+03 -0.90957461968E+01  0.29355930768E+03  0.00000000000E+00 0.  1.
          5    1    6    6  503    0  0.10046043935E+03  0.55339312741E+02 -0.73487391906E+02  0.13629829852E+03  0.47000000000E+01 0. -1.
         -5    1    6    6    0  503  0.17528286296E+02  0.95613997838E+02 -0.55508594057E+02  0.11203825872E+03  0.47000000000E+01 0.  1.
<mgrwt>
<rscale>  0 0.56626041E+03</rscale>
<asrwt>0</asrwt>
<pdfrwt beam="1">  1        1 0.13822053E+00 0.56626041E+03</pdfrwt>
<pdfrwt beam="2">  1       -1 0.84622424E-01 0.56626041E+03</pdfrwt>
<totfact> 0.26530244E+01</totfact>
</mgrwt>
</event>
<event>
12    1  0.3127365E-008  0.9934076E+03  0.7818608E-02  0.9315805E-01
         -4   -1    0    0    0  501 -0.00000000000E+00  0.00000000000E+00  0.18296276947E+04  0.18296276947E+04  0.00000000000E+00 0.  1.
          4   -1    0    0  501    0  0.00000000000E+00 -0.00000000000E+00 -0.62471446297E+03  0.62471446297E+03  0.00000000000E+00 0. -1.
         23    2    1    2    0    0 -0.82810147209E+03 -0.44530506319E+03  0.88470168676E+03  0.12939145617E+04  0.86424366510E+02 0.  0.
    5000000    2    1    2    0    0  0.82810147209E+03  0.44530506319E+03  0.32021154497E+03  0.11604275959E+04  0.60000677038E+03 0.  0.
         23    2    4    4    0    0  0.33940008419E+02  0.19068496474E+03  0.23154148510E+03  0.31701484361E+03  0.96820823164E+02 0.  0.
         23    2    4    4    0    0  0.79416146367E+03  0.25462009845E+03  0.88670059868E+02  0.84341275232E+03  0.89212478692E+02 0.  0.
          3    1    3    3  502    0 -0.63835060633E+03 -0.30611353725E+03  0.63882800458E+03  0.95357129452E+03  0.00000000000E+00 0. -1.
         -3    1    3    3    0  502 -0.18975086576E+03 -0.13919152595E+03  0.24587368217E+03  0.34034326721E+03  0.00000000000E+00 0.  1.
         11    1    5    5    0    0  0.50891866556E+02  0.69426824390E+02  0.13917214259E+03  0.16364275511E+03  0.00000000000E+00 0. -1.
        -11    1    5    5    0    0 -0.16951858137E+02  0.12125814035E+03  0.92369342507E+02  0.15337208850E+03  0.00000000000E+00 0.  1.
          5    1    6    6  503    0  0.49869747063E+03  0.18029932338E+03  0.17974605448E+02  0.53061491655E+03  0.47000000000E+01 0. -1.
         -5    1    6    6    0  503  0.29546399304E+03  0.74320775070E+02  0.70695454420E+02  0.31279783577E+03  0.47000000000E+01 0.  1.
<mgrwt>
<rscale>  0 0.99340759E+03</rscale>
<asrwt>0</asrwt>
<pdfrwt beam="1">  1        4 0.96109918E-01 0.99340759E+03</pdfrwt>
<pdfrwt beam="2">  1       -4 0.28148118E+00 0.99340759E+03</pdfrwt>
<totfact> 0.71243412E-02</totfact>
</mgrwt>
</event>
<event>
12    1  0.3127365E-008  0.6890443E+03  0.7818608E-02  0.9736154E-01
         -1   -1    0    0    0  501 -0.00000000000E+00  0.00000000000E+00  0.10246011453E+04  0.10246011453E+04  0.00000000000E+00 0.  1.
          1   -1    0    0  501    0  0.00000000000E+00 -0.00000000000E+00 -0.48999157034E+03  0.48999157034E+03  0.00000000000E+00 0. -1.
         23    2    1    2    0    0  0.51314450633E+03 -0.24716194121E+03  0.32355089776E+03  0.66082955459E+03  0.87202105542E+02 0.  0.
    5000000    2    1    2    0    0 -0.51314450633E+03  0.24716194121E+03  0.21105867725E+03  0.85376316110E+03  0.59996621608E+03 0.  0.
         23    2    4    4    0    0 -0.58801174844E+03  0.50174888250E+02  0.16911866566E+03  0.62048079265E+03  0.90110794344E+02 0.  0.
         23    2    4    4    0    0  0.74867242111E+02  0.19698705296E+03  0.41940011592E+02  0.23328236844E+03  0.90844349734E+02 0.  0.
          4    1    3    3  502    0  0.41582531670E+03 -0.21009535830E+03  0.22469318255E+03  0.51724054353E+03  0.00000000000E+00 0.  1.
         -4    1    3    3    0  502  0.97319189632E+02 -0.37066582914E+02  0.98857715210E+02  0.14358901106E+03  0.00000000000E+00 0. -1.
         13    1    5    5    0    0 -0.27999839290E+03  0.69067596928E+02  0.80406146338E+02  0.29939034944E+03  0.00000000000E+00 0.  1.
        -13    1    5    5    0    0 -0.30801335555E+03 -0.18892708678E+02  0.88712519319E+02  0.32109044321E+03  0.00000000000E+00 0. -1.
          5    1    6    6  503    0  0.29358559425E+02  0.67903972113E+02  0.59707343839E+02  0.95183671649E+02  0.47000000000E+01 0. -1.
         -5    1    6    6    0  503  0.45508682687E+02  0.12908308085E+03 -0.17767332248E+02  0.13809869680E+03  0.47000000000E+01 0.  1.
<mgrwt>
<rscale>  0 0.68904426E+03</rscale>
<asrwt>0</asrwt>
<pdfrwt beam="1">  1        1 0.75383319E-01 0.68904426E+03</pdfrwt>
<pdfrwt beam="2">  1       -1 0.15763094E+00 0.68904426E+03</pdfrwt>
<totfact> 0.14379764E+01</totfact>
</mgrwt>
</event>
<event>
12    1  0.3127365E-008  0.6591350E+03  0.7818608E-02  0.9789787E-01
         -2   -1    0    0    0  501 -0.00000000000E+00  0.00000000000E+00  0.25546995600E+03  0.25546995600E+03  0.00000000000E+00 0.  1.
          2   -1    0    0  501    0  0.00000000000E+00 -0.00000000000E+00 -0.26067131272E+04  0.26067131272E+04  0.00000000000E+00 0. -1.
         23    2    1    2    0    0 -0.52050723362E+03  0.12429813942E+03 -0.18188969103E+04  0.18981556333E+04  0.90725025228E+02 0.  0.
    5000000    2    1    2    0    0  0.52050723362E+03 -0.12429813942E+03 -0.53234626086E+03  0.96402744986E+03  0.59964870959E+03 0.  0.
         23    2    4    4    0    0  0.47888244573E+03 -0.30772944708E+03 -0.48455199324E+03  0.75223068159E+03  0.83872252524E+02 0.  0.
         23    2    4    4    0    0  0.41624787894E+02  0.18343130766E+03 -0.47794267624E+02  0.21179676827E+03  0.84816928941E+02 0.  0.
          4    1    3    3  502    0 -0.41123112336E+03  0.59624660242E+02 -0.14179299535E+04  0.14775626857E+04  0.00000000000E+00 0. -1.
         -4    1    3    3    0  502 -0.10927611026E+03  0.64673479179E+02 -0.40096695678E+03  0.42059294765E+03  0.00000000000E+00 0.  1.
         11    1    5    5    0    0  0.17460515811E+03 -0.12959774930E+03 -0.13616756089E+03  0.25656216108E+03  0.00000000000E+00 0. -1.
        -11    1    5    5    0    0  0.30427728762E+03 -0.17813169778E+03 -0.34838443235E+03  0.49566852051E+03  0.00000000000E+00 0.  1.
          5    1    6    6  503    0 -0.25435059163E+02  0.54407385237E+02 -0.21429846520E+02  0.63940864279E+02  0.47000000000E+01 0. -1.
         -5    1    6    6    0  503  0.67059847057E+02  0.12902392242E+03 -0.26364421104E+02  0.14785590399E+03  0.47000000000E+01 0.  1.
<mgrwt>
<rscale>  0 0.65913499E+03</rscale>
<asrwt>0</asrwt>
<pdfrwt beam="1">  1        2 0.40103281E+00 0.65913499E+03</pdfrwt>
<pdfrwt beam="2">  1       -2 0.39303068E-01 0.65913499E+03</pdfrwt>
<totfact> 0.19653598E+01</totfact>
</mgrwt>
</event>
<event>
12    1  0.3127365E-008  0.3019681E+03  0.7818608E-02  0.1084261E+00
          1   -1    0    0  501    0  0.00000000000E+00  0.00000000000E+00  0.57697987299E+03  0.57697987299E+03  0.00000000000E+00 0. -1.
         -1   -1    0    0    0  501 -0.00000000000E+00 -0.00000000000E+00 -0.39733516090E+03  0.39733516090E+03  0.00000000000E+00 0.  1.
         23    2    1    2    0    0  0.16131477792E+03 -0.19205287516E+03  0.18049761481E+03  0.32398441107E+03  0.97363983225E+02 0.  0.
    5000000    2    1    2    0    0 -0.16131477792E+03  0.19205287516E+03 -0.85290272765E+00  0.65033062283E+03  0.60001868897E+03 0.  0.
         23    2    4    4    0    0 -0.17656661394E+03  0.71467461084E+02 -0.26892026076E+03  0.34194957332E+03  0.91258078510E+02 0.  0.
         23    2    4    4    0    0  0.15251836021E+02  0.12058541408E+03  0.26806735803E+03  0.30838104951E+03  0.92007079417E+02 0.  0.
          4    1    3    3  502    0  0.10646960081E+03 -0.15108026769E+03  0.77741019531E+02  0.20051107026E+03  0.00000000000E+00 0. -1.
         -4    1    3    3    0  502  0.54845177108E+02 -0.40972607474E+02  0.10275659528E+03  0.12347334080E+03  0.00000000000E+00 0.  1.
         13    1    5    5    0    0 -0.15081800057E+03  0.82869786758E+02 -0.18152550017E+03  0.25012992237E+03  0.00000000000E+00 0. -1.
        -13    1    5    5    0    0 -0.25748613365E+02 -0.11402325674E+02 -0.87394760591E+02  0.91819650945E+02  0.00000000000E+00 0.  1.
          5    1    6    6  503    0  0.47642772709E+02  0.36588134437E+02  0.13274924279E+03  0.14578400747E+03  0.47000000000E+01 0. -1.
         -5    1    6    6    0  503 -0.32390936688E+02  0.83997279640E+02  0.13531811525E+03  0.16259704204E+03  0.47000000000E+01 0.  1.
<mgrwt>
<rscale>  0 0.30196810E+03</rscale>
<asrwt>0</asrwt>
<pdfrwt beam="1">  1        1 0.88766134E-01 0.30196810E+03</pdfrwt>
<pdfrwt beam="2">  1       -1 0.61128487E-01 0.30196810E+03</pdfrwt>
<totfact> 0.10487055E+02</totfact>
</mgrwt>
</event>
<event>
12    1  0.3127365E-008  0.3523829E+03  0.7818608E-02  0.1061641E+00
         -2   -1    0    0    0  501 -0.00000000000E+00  0.00000000000E+00  0.22355016529E+03  0.22355016529E+03  0.00000000000E+00 0.  1.
          2   -1    0    0  501    0  0.00000000000E+00 -0.00000000000E+00 -0.87668018399E+03  0.87668018399E+03  0.00000000000E+00 0. -1.
         23    2    1    2    0    0 -0.12350597771E+03 -0.15038048720E+03 -0.34889420627E+02  0.21669403431E+03  0.88718743091E+02 0.  0.
    5000000    2    1    2    0    0  0.12350597771E+03  0.15038048720E+03 -0.61824059807E+03  0.88353631497E+03  0.60045563142E+03 0.  0.
         23    2    4    4    0    0  0.99707799531E+02  0.31210476295E+03 -0.13566251124E+03  0.36633385870E+03  0.91897501216E+02 0.  0.
         23    2    4    4    0    0  0.23798178178E+02 -0.16172427575E+03 -0.48257808683E+03  0.51720245627E+03  0.88857617751E+02 0.  0.
          4    1    3    3  502    0  0.36439861400E+01 -0.24285352373E+02  0.17453807952E+02  0.30127933665E+02  0.00000000000E+00 0. -1.
         -4    1    3    3    0  502 -0.12714996385E+03 -0.12609513482E+03 -0.52343228579E+02  0.18656610065E+03  0.00000000000E+00 0.  1.
         11    1    5    5    0    0  0.69180181577E+02  0.13905508785E+03 -0.21525728689E+02  0.15679786980E+03  0.00000000000E+00 0.  1.
        -11    1    5    5    0    0  0.30527617954E+02  0.17304967510E+03 -0.11413678255E+03  0.20953598890E+03  0.00000000000E+00 0. -1.
          5    1    6    6  503    0 -0.12024423298E+02 -0.75768099531E+02 -0.11749949063E+03  0.14040517070E+03  0.47000000000E+01 0. -1.
         -5    1    6    6    0  503  0.35822601476E+02 -0.85956176221E+02 -0.36507859620E+03  0.37679728557E+03  0.47000000000E+01 0.  1.
<mgrwt>
<rscale>  0 0.35238293E+03</rscale>
<asrwt>0</asrwt>
<pdfrwt beam="1">  1        2 0.13487387E+00 0.35238293E+03</pdfrwt>
<pdfrwt beam="2">  1       -2 0.34392333E-01 0.35238293E+03</pdfrwt>
<totfact> 0.24980616E+02</totfact>
</mgrwt>
</event>
<event>
12    1  0.3127365E-008  0.9215790E+03  0.7818608E-02  0.9399002E-01
         -2   -1    0    0    0  501 -0.00000000000E+00  0.00000000000E+00  0.61036258063E+03  0.61036258063E+03  0.00000000000E+00 0.  1.
          2   -1    0    0  501    0  0.00000000000E+00 -0.00000000000E+00 -0.20062813554E+04  0.20062813554E+04  0.00000000000E+00 0. -1.
         23    2    1    2    0    0 -0.75669139924E+03  0.49050341867E+03 -0.76419698805E+02  0.90946049082E+03  0.90016312917E+02 0.  0.
    5000000    2    1    2    0    0  0.75669139924E+03 -0.49050341867E+03 -0.13194990760E+04  0.17071834452E+04  0.60018499373E+03 0.  0.
         23    2    4    4    0    0  0.47647300887E+03 -0.44167119165E+03 -0.47258795918E+03  0.80926888265E+03  0.97348731613E+02 0.  0.
         23    2    4    4    0    0  0.28021839037E+03 -0.48832227014E+02 -0.84691111680E+03  0.89791456257E+03  0.89917680178E+02 0.  0.
          2    1    3    3  502    0 -0.43238175884E+03  0.24423547744E+03 -0.88179187192E+01  0.49667163147E+03  0.00000000000E+00 0. -1.
         -2    1    3    3    0  502 -0.32430964040E+03  0.24626794123E+03 -0.67601780086E+02  0.41278885935E+03  0.00000000000E+00 0.  1.
         13    1    5    5    0    0  0.42394502666E+03 -0.37445040878E+03 -0.37025762242E+03  0.67604230727E+03  0.00000000000E+00 0. -1.
        -13    1    5    5    0    0  0.52527982214E+02 -0.67220782874E+02 -0.10233033676E+03  0.13322657538E+03  0.00000000000E+00 0.  1.
          5    1    6    6  503    0  0.32124338489E+02  0.88468583797E+01 -0.19707176519E+03  0.19992401222E+03  0.47000000000E+01 0. -1.
         -5    1    6    6    0  503  0.24809405188E+03 -0.57679085393E+02 -0.64983935161E+03  0.69799055035E+03  0.47000000000E+01 0.  1.
<mgrwt>
<rscale>  0 0.92157899E+03</rscale>
<asrwt>0</asrwt>
<pdfrwt beam="1">  1        2 0.30865867E+00 0.92157899E+03</pdfrwt>
<pdfrwt beam="2">  1       -2 0.93901937E-01 0.92157899E+03</pdfrwt>
<totfact> 0.64157928E+00</totfact>
</mgrwt>
</event>
<event>
12    1  0.3127365E-008  0.1283264E+04  0.7818608E-02  0.9042943E-01
         -1   -1    0    0    0  501 -0.00000000000E+00  0.00000000000E+00  0.75352330822E+03  0.75352330822E+03  0.00000000000E+00 0.  1.
          1   -1    0    0  501    0  0.00000000000E+00 -0.00000000000E+00 -0.22236953570E+04  0.22236953570E+04  0.00000000000E+00 0. -1.
         23    2    1    2    0    0 -0.11706225350E+04 -0.35252019803E+03 -0.75036301511E+03  0.14370210603E+04  0.85774494098E+02 0.  0.
    5000000    2    1    2    0    0  0.11706225350E+04  0.35252019803E+03 -0.71980903371E+03  0.15401976050E+04  0.59954650183E+03 0.  0.
         23    2    4    4    0    0  0.11034280734E+04  0.14220171032E+03 -0.65886126353E+03  0.12962795081E+04  0.92019340079E+02 0.  0.
         23    2    4    4    0    0  0.67194461622E+02  0.21031848771E+03 -0.60947770175E+02  0.24391809688E+03  0.83859676546E+02 0.  0.
          3    1    3    3  502    0 -0.96470349785E+03 -0.32232438243E+03 -0.61069305423E+03  0.11863776181E+04  0.00000000000E+00 0. -1.
         -3    1    3    3    0  502 -0.20591903716E+03 -0.30195815599E+02 -0.13966996088E+03  0.25064344219E+03  0.00000000000E+00 0.  1.
         11    1    5    5    0    0  0.76104325976E+03  0.81264304165E+02 -0.40670717240E+03  0.86671878625E+03  0.00000000000E+00 0. -1.
        -11    1    5    5    0    0  0.34238481362E+03  0.60937406150E+02 -0.25215409113E+03  0.42956072183E+03  0.00000000000E+00 0.  1.
          5    1    6    6  503    0  0.37867880071E+02  0.40096846154E+02  0.11530011437E+02  0.56539937888E+02  0.47000000000E+01 0. -1.
         -5    1    6    6    0  503  0.29326581551E+02  0.17022164156E+03 -0.72477781612E+02  0.18737815899E+03  0.47000000000E+01 0.  1.
<mgrwt>
<rscale>  0 0.12832638E+04</rscale>
<asrwt>0</asrwt>
<pdfrwt beam="1">  1        1 0.34210697E+00 0.12832638E+04</pdfrwt>
<pdfrwt beam="2">  1       -1 0.11592666E+00 0.12832638E+04</pdfrwt>
<totfact> 0.13799729E+00</totfact>
</mgrwt>
</event>
<event>
12    1  0.3127365E-008  0.9516065E+03  0.7818608E-02  0.9363275E-01
          2   -1    0    0  501    0  0.00000000000E+00  0.00000000000E+00  0.10529355595E+04  0.10529355595E+04  0.00000000000E+00 0.  1.
         -2   -1    0    0    0  501 -0.00000000000E+00 -0.00000000000E+00 -0.11904642622E+04  0.11904642622E+04  0.00000000000E+00 0. -1.
         23    2    1    2    0    0  0.89455280348E+03 -0.10912653533E+03  0.44983757689E+03  0.10114904755E+04  0.92875279761E+02 0.  0.
    5000000    2    1    2    0    0 -0.89455280348E+03  0.10912653533E+03 -0.58736627959E+03  0.12319093462E+04  0.60039001659E+03 0.  0.
         23    2    4    4    0    0 -0.81210913521E+03  0.20734345358E+03 -0.28238905560E+03  0.88914645334E+03  0.91242980766E+02 0.  0.
         23    2    4    4    0    0 -0.82443668274E+02 -0.98216918241E+02 -0.30497722399E+03  0.34276289290E+03  0.89620154698E+02 0.  0.
          1    1    3    3  502    0  0.81959110497E+02 -0.37461107415E+02  0.49178342037E+02  0.10266031214E+03  0.00000000000E+00 0. -1.
         -1    1    3    3    0  502  0.81259369299E+03 -0.71665427920E+02  0.40065923486E+03  0.90883016341E+03  0.00000000000E+00 0.  1.
         13    1    5    5    0    0 -0.62213842227E+03  0.19357192697E+03 -0.23719731408E+03  0.69338940948E+03  0.00000000000E+00 0. -1.
        -13    1    5    5    0    0 -0.18997071294E+03  0.13771526611E+02 -0.45191741515E+02  0.19575704386E+03  0.00000000000E+00 0.  1.
          5    1    6    6  503    0 -0.89713932950E+02 -0.43296260005E+02 -0.17554174849E+03  0.20189143458E+03  0.47000000000E+01 0. -1.
         -5    1    6    6    0  503  0.72702646755E+01 -0.54920658236E+02 -0.12943547550E+03  0.14087145831E+03  0.47000000000E+01 0.  1.
<mgrwt>
<rscale>  0 0.95160651E+03</rscale>
<asrwt>0</asrwt>
<pdfrwt beam="1">  1        2 0.16199009E+00 0.95160651E+03</pdfrwt>
<pdfrwt beam="2">  1       -2 0.18314835E+00 0.95160651E+03</pdfrwt>
<totfact> 0.40075024E+00</totfact>
</mgrwt>
</event>
<event>
12    1  0.3127365E-008  0.4843728E+03  0.7818608E-02  0.1017940E+00
          2   -1    0    0  501    0  0.00000000000E+00  0.00000000000E+00  0.24809899185E+04  0.24809899185E+04  0.00000000000E+00 0.  1.
         -2   -1    0    0    0  501 -0.00000000000E+00 -0.00000000000E+00 -0.15185964439E+03  0.15185964439E+03  0.00000000000E+00 0. -1.
         23    2    1    2    0    0 -0.26554864586E+03  0.35048480496E+03  0.60053692309E+03  0.75053872017E+03  0.96478456948E+02 0.  0.
    5000000    2    1    2    0    0  0.26554864586E+03 -0.35048480496E+03  0.17285933510E+04  0.18823108427E+04  0.60141786936E+03 0.  0.
         23    2    4    4    0    0  0.28421298266E+03 -0.27530452066E+03  0.48218650117E+03  0.63016482947E+03  0.89634211006E+02 0.  0.
         23    2    4    4    0    0 -0.18664336793E+02 -0.75180284302E+02  0.12464068498E+04  0.12521460132E+04  0.91319058927E+02 0.  0.
          1    1    3    3  502    0 -0.13586112288E+03  0.22605539160E+03  0.29203110173E+03  0.39349898241E+03  0.00000000000E+00 0. -1.
         -1    1    3    3    0  502 -0.12968752299E+03  0.12442941336E+03  0.30850582136E+03  0.35703973776E+03  0.00000000000E+00 0.  1.
         13    1    5    5    0    0  0.20973196829E+03 -0.25125558195E+03  0.38203702691E+03  0.50305979358E+03  0.00000000000E+00 0.  1.
        -13    1    5    5    0    0  0.74481014366E+02 -0.24048938706E+02  0.10014947426E+03  0.12710503589E+03  0.00000000000E+00 0. -1.
          5    1    6    6  503    0  0.37633003855E+01  0.20485548347E+02  0.23206389132E+03  0.23304411552E+03  0.47000000000E+01 0. -1.
         -5    1    6    6    0  503 -0.22427637179E+02 -0.95665832649E+02  0.10143429585E+04  0.10191018977E+04  0.47000000000E+01 0.  1.
<mgrwt>
<rscale>  0 0.48437283E+03</rscale>
<asrwt>0</asrwt>
<pdfrwt beam="1">  1        2 0.38169073E+00 0.48437283E+03</pdfrwt>
<pdfrwt beam="2">  1       -2 0.23363024E-01 0.48437283E+03</pdfrwt>
<totfact> 0.62713171E+01</totfact>
</mgrwt>
</event>
<event>
12    1  0.3127365E-008  0.1231555E+04  0.7818608E-02  0.9085676E-01
         -2   -1    0    0    0  501 -0.00000000000E+00  0.00000000000E+00  0.46036119754E+03  0.46036119754E+03  0.00000000000E+00 0.  1.
          2   -1    0    0  501    0  0.00000000000E+00 -0.00000000000E+00 -0.34076274113E+04  0.34076274113E+04  0.00000000000E+00 0. -1.
         23    2    1    2    0    0 -0.26189821270E+02 -0.11611437698E+04 -0.10812862551E+04  0.15896783324E+04  0.94638649806E+02 0.  0.
    5000000    2    1    2    0    0  0.26189821270E+02  0.11611437698E+04 -0.18659799586E+04  0.22783102765E+04  0.59989644841E+03 0.  0.
         23    2    4    4    0    0  0.27728744592E+03  0.40565712233E+03 -0.60923875865E+03  0.78811917929E+03  0.92271052657E+02 0.  0.
         23    2    4    4    0    0 -0.25109762465E+03  0.75548664748E+03 -0.12567412000E+04  0.14901910972E+04  0.86376910520E+02 0.  0.
          2    1    3    3  502    0 -0.54346016131E+02 -0.46587024477E+03 -0.41462652154E+03  0.62602214561E+03  0.00000000000E+00 0. -1.
         -2    1    3    3    0  502  0.28156194861E+02 -0.69527352505E+03 -0.66665973360E+03  0.96365618680E+03  0.00000000000E+00 0.  1.
         13    1    5    5    0    0  0.21924437911E+03  0.36825099989E+03 -0.49623148587E+03  0.65568482082E+03  0.00000000000E+00 0. -1.
        -13    1    5    5    0    0  0.58043066816E+02  0.37406122446E+02 -0.11300727278E+03  0.13243435847E+03  0.00000000000E+00 0.  1.
          5    1    6    6  503    0 -0.16637095579E+03  0.60885604845E+03 -0.10037120859E+04  0.11856833574E+04  0.47000000000E+01 0. -1.
         -5    1    6    6    0  503 -0.84726668858E+02  0.14663059903E+03 -0.25302911413E+03  0.30450773978E+03  0.47000000000E+01 0.  1.
<mgrwt>
<rscale>  0 0.12315549E+04</rscale>
<asrwt>0</asrwt>
<pdfrwt beam="1">  1        2 0.52425038E+00 0.12315549E+04</pdfrwt>
<pdfrwt beam="2">  1       -2 0.70824798E-01 0.12315549E+04</pdfrwt>
<totfact> 0.17043568E+00</totfact>
</mgrwt>
</event>
<event>
12    1  0.3127365E-008  0.1169260E+04  0.7818608E-02  0.9140197E-01
          2   -1    0    0  501    0  0.00000000000E+00  0.00000000000E+00  0.14889113804E+04  0.14889113804E+04  0.00000000000E+00 0. -1.
         -2   -1    0    0    0  501 -0.00000000000E+00 -0.00000000000E+00 -0.14109015987E+04  0.14109015987E+04  0.00000000000E+00 0.  1.
         23    2    1    2    0    0  0.55108986532E+03  0.96116527233E+03 -0.79532779194E+03  0.13667906639E+04  0.89619762740E+02 0.  0.
    5000000    2    1    2    0    0 -0.55108986532E+03 -0.96116527233E+03  0.87333757365E+03  0.15330223152E+04  0.59991681178E+03 0.  0.
         23    2    4    4    0    0 -0.58960639506E+03 -0.98981180762E+03  0.84449346565E+03  0.14312685110E+04  0.89427185644E+02 0.  0.
         23    2    4    4    0    0  0.38516529746E+02  0.28646535284E+02  0.28844107996E+02  0.10175380420E+03  0.84957089498E+02 0.  0.
          3    1    3    3  502    0  0.12618681100E+03  0.19495101707E+03 -0.21015317483E+03  0.31319860667E+03  0.00000000000E+00 0. -1.
         -3    1    3    3    0  502  0.42490305432E+03  0.76621425526E+03 -0.58517461711E+03  0.10535920572E+04  0.00000000000E+00 0.  1.
         13    1    5    5    0    0 -0.76395606006E+02 -0.85362481191E+02  0.10324479491E+03  0.15421585356E+03  0.00000000000E+00 0.  1.
        -13    1    5    5    0    0 -0.51321078906E+03 -0.90444932643E+03  0.74124867074E+03  0.12770526575E+04  0.00000000000E+00 0. -1.
          5    1    6    6  503    0  0.52716848531E+02  0.29697581051E+02 -0.87159260340E+01  0.61311253502E+02  0.47000000000E+01 0. -1.
         -5    1    6    6    0  503 -0.14200318785E+02 -0.10510457668E+01  0.37560034030E+02  0.40442550700E+02  0.47000000000E+01 0.  1.
<mgrwt>
<rscale>  0 0.11692596E+04</rscale>
<asrwt>0</asrwt>
<pdfrwt beam="1">  1        2 0.22906329E+00 0.11692596E+04</pdfrwt>
<pdfrwt beam="2">  1       -2 0.21706178E+00 0.11692596E+04</pdfrwt>
<totfact> 0.12938535E+00</totfact>
</mgrwt>
</event>
<event>
12    1  0.3127365E-008  0.5360803E+03  0.7818608E-02  0.1004768E+00
         -1   -1    0    0    0  501 -0.00000000000E+00  0.00000000000E+00  0.93150523548E+03  0.93150523548E+03  0.00000000000E+00 0.  1.
          1   -1    0    0  501    0  0.00000000000E+00 -0.00000000000E+00 -0.35125929805E+03  0.35125929805E+03  0.00000000000E+00 0. -1.
         23    2    1    2    0    0 -0.49331057138E+02  0.37691286063E+03  0.37846944244E+03  0.54419352000E+03  0.91709381427E+02 0.  0.
    5000000    2    1    2    0    0  0.49331057138E+02 -0.37691286063E+03  0.20177649499E+03  0.73857101354E+03  0.60023039777E+03 0.  0.
         23    2    4    4    0    0  0.20617387450E+03  0.60240504334E+02  0.10964414120E+03  0.25653448450E+03  0.87472962382E+02 0.  0.
         23    2    4    4    0    0 -0.15684281736E+03 -0.43715336496E+03  0.92132353789E+02  0.48203652904E+03  0.90377601548E+02 0.  0.
          3    1    3    3  502    0 -0.55775605347E+02  0.21542998362E+03  0.16796762860E+03  0.27880839344E+03  0.00000000000E+00 0. -1.
         -3    1    3    3    0  502  0.64445482090E+01  0.16148287700E+03  0.21050181384E+03  0.26538512655E+03  0.00000000000E+00 0.  1.
         13    1    5    5    0    0  0.10818861851E+03  0.27133524377E+02  0.84854926280E+01  0.11186156134E+03  0.00000000000E+00 0.  1.
        -13    1    5    5    0    0  0.97985255987E+02  0.33106979957E+02  0.10115864858E+03  0.14467292316E+03  0.00000000000E+00 0. -1.
          5    1    6    6  503    0 -0.10362184657E+03 -0.15922308968E+03  0.32146738102E+02  0.19273033530E+03  0.47000000000E+01 0. -1.
         -5    1    6    6    0  503 -0.53220970796E+02 -0.27793027528E+03  0.59985615686E+02  0.28930619375E+03  0.47000000000E+01 0.  1.
<mgrwt>
<rscale>  0 0.53608026E+03</rscale>
<asrwt>0</asrwt>
<pdfrwt beam="1">  1        1 0.54039892E-01 0.53608026E+03</pdfrwt>
<pdfrwt beam="2">  1       -1 0.14330850E+00 0.53608026E+03</pdfrwt>
<totfact> 0.29441163E+01</totfact>
</mgrwt>
</event>
<event>
12    1  0.3127365E-008  0.9234663E+03  0.7818608E-02  0.9396714E-01
          4   -1    0    0  501    0  0.00000000000E+00  0.00000000000E+00  0.51965686813E+03  0.51965686813E+03  0.00000000000E+00 0.  1.
         -4   -1    0    0    0  501 -0.00000000000E+00 -0.00000000000E+00 -0.26437701218E+04  0.26437701218E+04  0.00000000000E+00 0. -1.
         23    2    1    2    0    0  0.10482202818E+00  0.83344489528E+03 -0.19490982432E+04  0.21217569374E+04  0.90764172575E+02 0.  0.
    5000000    2    1    2    0    0 -0.10482202818E+00 -0.83344489528E+03 -0.17501501043E+03  0.10416700526E+04  0.59984651375E+03 0.  0.
         23    2    4    4    0    0 -0.20447524350E+03 -0.78551446767E+02 -0.70634870179E+02  0.24802149689E+03  0.92438752912E+02 0.  0.
         23    2    4    4    0    0  0.20437042148E+03 -0.75489344851E+03 -0.10438014025E+03  0.79364855566E+03  0.85740471447E+02 0.  0.
          3    1    3    3  502    0 -0.31975261062E+02  0.46528917657E+03 -0.11670469680E+04  0.12567875957E+04  0.00000000000E+00 0. -1.
         -3    1    3    3    0  502  0.32080083090E+02  0.36815571871E+03 -0.78205127525E+03  0.86496934169E+03  0.00000000000E+00 0.  1.
         13    1    5    5    0    0 -0.20791372646E+03 -0.74229328474E+02 -0.81904937451E+02  0.23547086791E+03  0.00000000000E+00 0.  1.
        -13    1    5    5    0    0  0.34384829522E+01 -0.43221182928E+01  0.11270067272E+02  0.12550628983E+02  0.00000000000E+00 0. -1.
          5    1    6    6  503    0  0.11909619663E+03 -0.54923830593E+03 -0.48817563495E+02  0.56413816150E+03  0.47000000000E+01 0.  1.
         -5    1    6    6    0  503  0.85274224844E+02 -0.20565514258E+03 -0.55562576757E+02  0.22951039416E+03  0.47000000000E+01 0. -1.
<mgrwt>
<rscale>  0 0.92346634E+03</rscale>
<asrwt>0</asrwt>
<pdfrwt beam="1">  1        4 0.79947209E-01 0.92346634E+03</pdfrwt>
<pdfrwt beam="2">  1       -4 0.40673387E+00 0.92346634E+03</pdfrwt>
<totfact> 0.17082702E-02</totfact>
</mgrwt>
</event>
<event>
12    1  0.3127365E-008  0.7508463E+03  0.7818608E-02  0.9634024E-01
         -2   -1    0    0    0  501 -0.00000000000E+00  0.00000000000E+00  0.39149641445E+03  0.39149641445E+03  0.00000000000E+00 0.  1.
          2   -1    0    0  501    0  0.00000000000E+00 -0.00000000000E+00 -0.15125093933E+04  0.15125093933E+04  0.00000000000E+00 0. -1.
         23    2    1    2    0    0  0.64614921833E+03  0.59722869628E+02 -0.51553278757E+03  0.83267306499E+03  0.80589978315E+02 0.  0.
    5000000    2    1    2    0    0 -0.64614921833E+03 -0.59722869628E+02 -0.60548019130E+03  0.10713327428E+04  0.60005995551E+03 0.  0.
         23    2    4    4    0    0 -0.16620369936E+03 -0.27127677652E+03 -0.12394709695E+03  0.35337679992E+03  0.91090727971E+02 0.  0.
         23    2    4    4    0    0 -0.47994551896E+03  0.21155390689E+03 -0.48153309435E+03  0.71795594286E+03  0.92107861999E+02 0.  0.
          4    1    3    3  502    0  0.44579277991E+03  0.58404049332E+02 -0.31331591092E+03  0.54800464929E+03  0.00000000000E+00 0. -1.
         -4    1    3    3    0  502  0.20035643841E+03  0.13188202955E+01 -0.20221687664E+03  0.28466841570E+03  0.00000000000E+00 0.  1.
         11    1    5    5    0    0 -0.31384015595E+02 -0.27336219396E+02 -0.49924183067E+02  0.64997302872E+02  0.00000000000E+00 0.  1.
        -11    1    5    5    0    0 -0.13481968377E+03 -0.24394055712E+03 -0.74022913882E+02  0.28837949705E+03  0.00000000000E+00 0. -1.
          5    1    6    6  503    0 -0.34002449846E+03  0.19060947106E+03 -0.33204204333E+03  0.51207678970E+03  0.47000000000E+01 0. -1.
         -5    1    6    6    0  503 -0.13992102050E+03  0.20944435828E+02 -0.14949105103E+03  0.20587915316E+03  0.47000000000E+01 0.  1.
<mgrwt>
<rscale>  0 0.75084629E+03</rscale>
<asrwt>0</asrwt>
<pdfrwt beam="1">  1        2 0.23269375E+00 0.75084629E+03</pdfrwt>
<pdfrwt beam="2">  1       -2 0.60230219E-01 0.75084629E+03</pdfrwt>
<totfact> 0.32827485E+01</totfact>
</mgrwt>
</event>
<event>
12    1  0.3127365E-008  0.9103559E+03  0.7818608E-02  0.9412728E-01
          2   -1    0    0  501    0  0.00000000000E+00  0.00000000000E+00  0.55130025138E+03  0.55130025138E+03  0.00000000000E+00 0. -1.
         -2   -1    0    0    0  501 -0.00000000000E+00 -0.00000000000E+00 -0.18855107979E+04  0.18855107979E+04  0.00000000000E+00 0.  1.
         23    2    1    2    0    0 -0.57382884339E+03 -0.63933841396E+03 -0.19083039350E+03  0.88589606235E+03  0.10179609584E+03 0.  0.
    5000000    2    1    2    0    0  0.57382884339E+03  0.63933841396E+03 -0.11433801530E+04  0.15509149869E+04  0.59998831097E+03 0.  0.
         23    2    4    4    0    0  0.25401509715E+03  0.23732111365E+02 -0.86884450704E+02  0.28380067197E+03  0.88921487546E+02 0.  0.
         23    2    4    4    0    0  0.31981374624E+03  0.61560630260E+03 -0.10564957023E+04  0.12671143150E+04  0.90241709219E+02 0.  0.
          3    1    3    3  502    0 -0.21967390438E+03 -0.28937967508E+03 -0.12209716573E+03  0.38328180037E+03  0.00000000000E+00 0. -1.
         -3    1    3    3    0  502 -0.35415493901E+03 -0.34995873888E+03 -0.68733227769E+02  0.50261426198E+03  0.00000000000E+00 0.  1.
         11    1    5    5    0    0  0.17408390174E+03 -0.80645570175E+01 -0.93050326458E+02  0.19755658728E+03  0.00000000000E+00 0. -1.
        -11    1    5    5    0    0  0.79931195414E+02  0.31796668383E+02  0.61658757544E+01  0.86244084692E+02  0.00000000000E+00 0.  1.
          5    1    6    6  503    0  0.12005976799E+03  0.14749643732E+03 -0.30571112693E+03  0.36007072922E+03  0.47000000000E+01 0. -1.
         -5    1    6    6    0  503  0.19975397825E+03  0.46810986527E+03 -0.75078457540E+03  0.90704358575E+03  0.47000000000E+01 0.  1.
<mgrwt>
<rscale>  0 0.91035586E+03</rscale>
<asrwt>0</asrwt>
<pdfrwt beam="1">  1        2 0.84815425E-01 0.91035586E+03</pdfrwt>
<pdfrwt beam="2">  1       -2 0.29007858E+00 0.91035586E+03</pdfrwt>
<totfact> 0.20387066E+00</totfact>
</mgrwt>
</event>
<event>
12    1  0.3127365E-008  0.8693018E+03  0.7818608E-02  0.9464791E-01
         -2   -1    0    0    0  501 -0.00000000000E+00  0.00000000000E+00  0.39565569297E+03  0.39565569297E+03  0.00000000000E+00 0. -1.
          2   -1    0    0  501    0  0.00000000000E+00 -0.00000000000E+00 -0.20056283157E+04  0.20056283157E+04  0.00000000000E+00 0.  1.
         23    2    1    2    0    0 -0.63187371321E+03 -0.43709519920E+03 -0.94529249836E+03  0.12214958312E+04  0.90319187044E+02 0.  0.
    5000000    2    1    2    0    0  0.63187371321E+03  0.43709519920E+03 -0.66468012437E+03  0.11797881775E+04  0.59981986745E+03 0.  0.
         23    2    4    4    0    0  0.43844391192E+03 -0.37044971900E+02 -0.24567005497E+03  0.51192953616E+03  0.90070418257E+02 0.  0.
         23    2    4    4    0    0  0.19342980130E+03  0.47414017110E+03 -0.41901006940E+03  0.66785864133E+03  0.90784010972E+02 0.  0.
          2    1    3    3  502    0 -0.48137756000E+03 -0.36985942230E+03 -0.77562541653E+03  0.98494422903E+03  0.00000000000E+00 0. -1.
         -2    1    3    3    0  502 -0.15049615321E+03 -0.67235776898E+02 -0.16966708183E+03  0.23655160216E+03  0.00000000000E+00 0.  1.
         13    1    5    5    0    0  0.16271806249E+03 -0.53473055909E+02 -0.11546629841E+03  0.20656476379E+03  0.00000000000E+00 0.  1.
        -13    1    5    5    0    0  0.27572584942E+03  0.16428084008E+02 -0.13020375655E+03  0.30536477237E+03  0.00000000000E+00 0. -1.
          5    1    6    6  503    0  0.75155982942E+01  0.10981378027E+03 -0.73730537686E+02  0.13256633337E+03  0.47000000000E+01 0. -1.
         -5    1    6    6    0  503  0.18591420300E+03  0.36432639083E+03 -0.34527953172E+03  0.53529230795E+03  0.47000000000E+01 0.  1.
<mgrwt>
<rscale>  0 0.86930184E+03</rscale>
<asrwt>0</asrwt>
<pdfrwt beam="1">  1        2 0.30855821E+00 0.86930184E+03</pdfrwt>
<pdfrwt beam="2">  1       -2 0.60870105E-01 0.86930184E+03</pdfrwt>
<totfact> 0.16971263E+01</totfact>
</mgrwt>
</event>
<event>
12    1  0.3127365E-008  0.6914068E+03  0.7818608E-02  0.9732042E-01
         -2   -1    0    0    0  501 -0.00000000000E+00  0.00000000000E+00  0.37992083586E+03  0.37992083586E+03  0.00000000000E+00 0.  1.
          2   -1    0    0  501    0  0.00000000000E+00 -0.00000000000E+00 -0.21109140748E+04  0.21109140748E+04  0.00000000000E+00 0. -1.
         23    2    1    2    0    0 -0.17883146833E+03  0.59367247139E+03 -0.85668082873E+02  0.63287392292E+03  0.93609211820E+02 0.  0.
    5000000    2    1    2    0    0  0.17883146833E+03 -0.59367247139E+03 -0.16453251561E+04  0.18579609878E+04  0.60041357867E+03 0.  0.
         23    2    4    4    0    0 -0.50731935326E+02 -0.50196649574E+03 -0.14256115745E+04  0.15149426150E+04  0.90214596660E+02 0.  0.
         23    2    4    4    0    0  0.22956340366E+03 -0.91705975646E+02 -0.21971358162E+03  0.34301837274E+03  0.90984635092E+02 0.  0.
          4    1    3    3  502    0 -0.15065192273E+03  0.56919498257E+03 -0.88642208499E+02  0.59542956857E+03  0.00000000000E+00 0. -1.
         -4    1    3    3    0  502 -0.28179545602E+02  0.24477488825E+02  0.29741256257E+01  0.37444354351E+02  0.00000000000E+00 0.  1.
         11    1    5    5    0    0 -0.62119319250E+02 -0.48343156137E+03 -0.13199588926E+04  0.14070736876E+04  0.00000000000E+00 0. -1.
        -11    1    5    5    0    0  0.11387383925E+02 -0.18534934376E+02 -0.10565268187E+03  0.10786892737E+03  0.00000000000E+00 0.  1.
          5    1    6    6  503    0  0.82402636417E+02 -0.28716348497E+02 -0.24973256863E+02  0.90887714889E+02  0.47000000000E+01 0. -1.
         -5    1    6    6    0  503  0.14716076724E+03 -0.62989627149E+02 -0.19474032476E+03  0.25213065785E+03  0.47000000000E+01 0.  1.
<mgrwt>
<rscale>  0 0.69140685E+03</rscale>
<asrwt>0</asrwt>
<pdfrwt beam="1">  1        2 0.32475601E+00 0.69140685E+03</pdfrwt>
<pdfrwt beam="2">  1       -2 0.58449360E-01 0.69140685E+03</pdfrwt>
<totfact> 0.16594065E+01</totfact>
</mgrwt>
</event>
<event>
12    1  0.3127365E-008  0.1395933E+04  0.7818608E-02  0.8956768E-01
          2   -1    0    0  501    0  0.00000000000E+00  0.00000000000E+00  0.32378200275E+04  0.32378200275E+04  0.00000000000E+00 0. -1.
         -2   -1    0    0    0  501 -0.00000000000E+00 -0.00000000000E+00 -0.73932697700E+03  0.73932697700E+03  0.00000000000E+00 0.  1.
         23    2    1    2    0    0 -0.13585065087E+03 -0.13613668018E+04  0.45240756064E+03  0.14440431935E+04  0.93878514010E+02 0.  0.
    5000000    2    1    2    0    0  0.13585065087E+03  0.13613668018E+04  0.20460854899E+04  0.25331038110E+04  0.59864356435E+03 0.  0.
         23    2    4    4    0    0 -0.58251588871E+02  0.10563080098E+04  0.17952177712E+04  0.20856310405E+04  0.88713763294E+02 0.  0.
         23    2    4    4    0    0  0.19410223974E+03  0.30505879202E+03  0.25086771865E+03  0.44747277053E+03  0.80998284197E+02 0.  0.
          4    1    3    3  502    0 -0.65028756622E+02 -0.83156978598E+03  0.23111143452E+03  0.86553425311E+03  0.00000000000E+00 0. -1.
         -4    1    3    3    0  502 -0.70821894248E+02 -0.52979701581E+03  0.22129612612E+03  0.57850894038E+03  0.00000000000E+00 0.  1.
         13    1    5    5    0    0 -0.81622949054E+02  0.85321343873E+03  0.14391556897E+04  0.16750536042E+04  0.00000000000E+00 0. -1.
        -13    1    5    5    0    0  0.23371360183E+02  0.20309457104E+03  0.35606208149E+03  0.41057743623E+03  0.00000000000E+00 0.  1.
          5    1    6    6  503    0  0.91711189631E+02  0.14208905630E+03  0.16618221780E+03  0.23714734183E+03  0.47000000000E+01 0. -1.
         -5    1    6    6    0  503  0.10239105011E+03  0.16296973572E+03  0.84685500847E+02  0.21032542870E+03  0.47000000000E+01 0.  1.
<mgrwt>
<rscale>  0 0.13959332E+04</rscale>
<asrwt>0</asrwt>
<pdfrwt beam="1">  1        2 0.49812615E+00 0.13959332E+04</pdfrwt>
<pdfrwt beam="2">  1       -2 0.11374261E+00 0.13959332E+04</pdfrwt>
<totfact> 0.71798169E-01</totfact>
</mgrwt>
</event>
<event>
12    1  0.3127365E-008  0.3471783E+03  0.7818608E-02  0.1063779E+00
         -2   -1    0    0    0  501 -0.00000000000E+00  0.00000000000E+00  0.13560780714E+03  0.13560780714E+03  0.00000000000E+00 0.  1.
          2   -1    0    0  501    0  0.00000000000E+00 -0.00000000000E+00 -0.17422063168E+04  0.17422063168E+04  0.00000000000E+00 0. -1.
         23    2    1    2    0    0  0.13929205809E+03  0.25676717969E+03 -0.52397072001E+03  0.60671329195E+03  0.90686499462E+02 0.  0.
    5000000    2    1    2    0    0 -0.13929205809E+03 -0.25676717969E+03 -0.10826277896E+04  0.12711008320E+04  0.59856723278E+03 0.  0.
         23    2    4    4    0    0 -0.89303404974E+02 -0.30012022767E+03 -0.20225295670E+03  0.38356623916E+03  0.90385574778E+02 0.  0.
         23    2    4    4    0    0 -0.49988653112E+02  0.43353047975E+02 -0.88037483293E+03  0.88753459282E+03  0.90991509470E+02 0.  0.
          1    1    3    3  502    0  0.54484088968E+02  0.49066263633E+02 -0.75423618265E+02  0.10518905062E+03  0.00000000000E+00 0. -1.
         -1    1    3    3    0  502  0.84807969118E+02  0.20770091606E+03 -0.44854710174E+03  0.50152424133E+03  0.00000000000E+00 0.  1.
         13    1    5    5    0    0 -0.10077040469E+03 -0.24181524903E+03 -0.13818155156E+03  0.29618141453E+03  0.00000000000E+00 0. -1.
        -13    1    5    5    0    0  0.11466999716E+02 -0.58304978641E+02 -0.64071405144E+02  0.87384824621E+02  0.00000000000E+00 0.  1.
          5    1    6    6  503    0 -0.32200275993E+02  0.46369623807E+02 -0.22933775152E+03  0.23623059510E+03  0.47000000000E+01 0. -1.
         -5    1    6    6    0  503 -0.17788377119E+02 -0.30165758313E+01 -0.65103708140E+03  0.65130399772E+03  0.47000000000E+01 0.  1.
<mgrwt>
<rscale>  0 0.34717826E+03</rscale>
<asrwt>0</asrwt>
<pdfrwt beam="1">  1        2 0.26803171E+00 0.34717826E+03</pdfrwt>
<pdfrwt beam="2">  1       -2 0.20862742E-01 0.34717826E+03</pdfrwt>
<totfact> 0.19675097E+02</totfact>
</mgrwt>
</event>
<event>
12    1  0.3127365E-008  0.1082885E+04  0.7818608E-02  0.9222036E-01
          1   -1    0    0  501    0  0.00000000000E+00  0.00000000000E+00  0.10843876939E+04  0.10843876939E+04  0.00000000000E+00 0. -1.
         -1   -1    0    0    0  501 -0.00000000000E+00 -0.00000000000E+00 -0.13979802283E+04  0.13979802283E+04  0.00000000000E+00 0.  1.
         23    2    1    2    0    0 -0.10508012894E+04 -0.34376436552E+02  0.33752907253E+03  0.11078552767E+04  0.89734887416E+02 0.  0.
    5000000    2    1    2    0    0  0.10508012894E+04  0.34376436552E+02 -0.65112160691E+03  0.13745126455E+04  0.59996714605E+03 0.  0.
         23    2    4    4    0    0  0.69981949264E+03  0.18321582566E+03 -0.15921206411E+03  0.74592324736E+03  0.87963904802E+02 0.  0.
         23    2    4    4    0    0  0.35098179680E+03 -0.14883938911E+03 -0.49190954280E+03  0.62858939813E+03  0.88364289746E+02 0.  0.
          1    1    3    3  502    0 -0.85719517578E+03  0.11074802110E+01  0.25402109114E+03  0.89404223091E+03  0.00000000000E+00 0. -1.
         -1    1    3    3    0  502 -0.19360611366E+03 -0.35483916763E+02  0.83507981390E+02  0.21381304579E+03  0.00000000000E+00 0.  1.
         11    1    5    5    0    0  0.21548698871E+03  0.96667309340E+02 -0.38079492690E+02  0.23922637555E+03  0.00000000000E+00 0.  1.
        -11    1    5    5    0    0  0.48433250393E+03  0.86548516324E+02 -0.12113257142E+03  0.50669687181E+03  0.00000000000E+00 0. -1.
          5    1    6    6  503    0  0.30341149218E+03 -0.14283607364E+03 -0.38051078380E+03  0.50721910858E+03  0.47000000000E+01 0. -1.
         -5    1    6    6    0  503  0.47570304627E+02 -0.60033154742E+01 -0.11139875900E+03  0.12137028955E+03  0.47000000000E+01 0.  1.
<mgrwt>
<rscale>  0 0.10828849E+04</rscale>
<asrwt>0</asrwt>
<pdfrwt beam="1">  1        1 0.16682888E+00 0.10828849E+04</pdfrwt>
<pdfrwt beam="2">  1       -1 0.21507388E+00 0.10828849E+04</pdfrwt>
<totfact> 0.15390232E+00</totfact>
</mgrwt>
</event>
<event>
12    1  0.3127365E-008  0.4101072E+03  0.7818608E-02  0.1040335E+00
         -2   -1    0    0    0  501 -0.00000000000E+00  0.00000000000E+00  0.51749968778E+03  0.51749968778E+03  0.00000000000E+00 0.  1.
          2   -1    0    0  501    0  0.00000000000E+00 -0.00000000000E+00 -0.66659840143E+03  0.66659840143E+03  0.00000000000E+00 0. -1.
         23    2    1    2    0    0  0.23663416197E+02 -0.32856125302E+03  0.21989753436E+03  0.40645738217E+03  0.91324824942E+02 0.  0.
    5000000    2    1    2    0    0 -0.23663416197E+02  0.32856125302E+03 -0.36899624801E+03  0.77764070704E+03  0.60004531824E+03 0.  0.
         23    2    4    4    0    0  0.12769287136E+03  0.58921132181E+02  0.10950937539E+03  0.20054142016E+03  0.91909676794E+02 0.  0.
         23    2    4    4    0    0 -0.15135628756E+03  0.26964012084E+03 -0.47850562340E+03  0.57709928688E+03  0.91986057276E+02 0.  0.
          4    1    3    3  502    0 -0.29372760267E+02 -0.11576146597E+03  0.52006657635E+02  0.13026192263E+03  0.00000000000E+00 0. -1.
         -4    1    3    3    0  502  0.53036176464E+02 -0.21279978705E+03  0.16789087672E+03  0.27619545954E+03  0.00000000000E+00 0.  1.
         11    1    5    5    0    0  0.33216262969E+02  0.59987210411E+02  0.70428431793E+02  0.98295216279E+02  0.00000000000E+00 0.  1.
        -11    1    5    5    0    0  0.94476608394E+02 -0.10660782299E+01  0.39080943600E+02  0.10224620389E+03  0.00000000000E+00 0. -1.
          5    1    6    6  503    0 -0.13712032058E+03  0.17385340406E+03 -0.37313648113E+03  0.43391233212E+03  0.47000000000E+01 0. -1.
         -5    1    6    6    0  503 -0.14235966980E+02  0.95786716785E+02 -0.10536914228E+03  0.14318695476E+03  0.47000000000E+01 0.  1.
<mgrwt>
<rscale>  0 0.41010720E+03</rscale>
<asrwt>0</asrwt>
<pdfrwt beam="1">  1        2 0.10255360E+00 0.41010720E+03</pdfrwt>
<pdfrwt beam="2">  1       -2 0.79615337E-01 0.41010720E+03</pdfrwt>
<totfact> 0.63602697E+01</totfact>
</mgrwt>
</event>
<event>
12    1  0.3127365E-008  0.6664869E+03  0.7818608E-02  0.9776325E-01
         -2   -1    0    0    0  501 -0.00000000000E+00  0.00000000000E+00  0.47822001374E+03  0.47822001374E+03  0.00000000000E+00 0.  1.
          2   -1    0    0  501    0  0.00000000000E+00 -0.00000000000E+00 -0.13907274812E+04  0.13907274812E+04  0.00000000000E+00 0. -1.
         23    2    1    2    0    0  0.20463866998E+03  0.58334096034E+03 -0.77645204026E+03  0.99679816575E+03  0.92548101751E+02 0.  0.
    5000000    2    1    2    0    0 -0.20463866998E+03 -0.58334096034E+03 -0.13605542716E+03  0.87214932915E+03  0.59997475931E+03 0.  0.
         23    2    4    4    0    0  0.40574148575E+02 -0.39985852277E+03 -0.30313674778E+03  0.51163903643E+03  0.91375685917E+02 0.  0.
         23    2    4    4    0    0 -0.24521281856E+03 -0.18348243758E+03  0.16708132063E+03  0.36051029272E+03  0.90864581507E+02 0.  0.
          4    1    3    3  502    0  0.12267238216E+03  0.40809533758E+03 -0.59259254467E+03  0.72990152891E+03  0.00000000000E+00 0. -1.
         -4    1    3    3    0  502  0.81966287817E+02  0.17524562276E+03 -0.18385949559E+03  0.26689663684E+03  0.00000000000E+00 0.  1.
         13    1    5    5    0    0  0.26053834933E+02 -0.11096740468E+03 -0.13644021949E+03  0.17778779686E+03  0.00000000000E+00 0. -1.
        -13    1    5    5    0    0  0.14520313643E+02 -0.28889111809E+03 -0.16669652829E+03  0.33385123957E+03  0.00000000000E+00 0.  1.
          5    1    6    6  503    0 -0.12101386372E+03 -0.60865926676E+02  0.30720210458E+02  0.13897783123E+03  0.47000000000E+01 0. -1.
         -5    1    6    6    0  503 -0.12419895483E+03 -0.12261651090E+03  0.13636111017E+03  0.22153246149E+03  0.47000000000E+01 0.  1.
<mgrwt>
<rscale>  0 0.66648688E+03</rscale>
<asrwt>0</asrwt>
<pdfrwt beam="1">  1        2 0.21395807E+00 0.66648688E+03</pdfrwt>
<pdfrwt beam="2">  1       -2 0.73572310E-01 0.66648688E+03</pdfrwt>
<totfact> 0.25195150E+01</totfact>
</mgrwt>
</event>
<event>
12    1  0.3127365E-008  0.6326832E+03  0.7818608E-02  0.9839827E-01
         -1   -1    0    0    0  501 -0.00000000000E+00  0.00000000000E+00  0.22479796823E+03  0.22479796823E+03  0.00000000000E+00 0.  1.
          1   -1    0    0  501    0  0.00000000000E+00 -0.00000000000E+00 -0.23828294087E+04  0.23828294087E+04  0.00000000000E+00 0. -1.
         23    2    1    2    0    0 -0.45889341396E+03 -0.36125129519E+03 -0.62159189464E+03  0.85783327566E+03  0.91737569681E+02 0.  0.
    5000000    2    1    2    0    0  0.45889341396E+03  0.36125129519E+03 -0.15364395458E+04  0.17497941013E+04  0.60003937807E+03 0.  0.
         23    2    4    4    0    0  0.75153713201E+02  0.25099854882E+03 -0.11620474883E+04  0.11949258413E+04  0.94048120802E+02 0.  0.
         23    2    4    4    0    0  0.38373970076E+03  0.11025274637E+03 -0.37439205756E+03  0.55486826001E+03  0.91090873223E+02 0.  0.
          1    1    3    3  502    0 -0.25171172816E+03 -0.15561267914E+03 -0.35847328711E+03  0.46484104549E+03  0.00000000000E+00 0. -1.
         -1    1    3    3    0  502 -0.20718168580E+03 -0.20563861605E+03 -0.26311860753E+03  0.39299223017E+03  0.00000000000E+00 0.  1.
         13    1    5    5    0    0  0.90552000482E+02  0.22956037723E+03 -0.96212356161E+03  0.99326702321E+03  0.00000000000E+00 0.  1.
        -13    1    5    5    0    0 -0.15398287281E+02  0.21438171592E+02 -0.19992392665E+03  0.20165881806E+03  0.00000000000E+00 0. -1.
          5    1    6    6  503    0  0.62976785367E+02  0.43513520559E+02 -0.39209982999E+02  0.86133702656E+02  0.47000000000E+01 0. -1.
         -5    1    6    6    0  503  0.32076291539E+03  0.66739225814E+02 -0.33518207456E+03  0.46873455735E+03  0.47000000000E+01 0.  1.
<mgrwt>
<rscale>  0 0.63268324E+03</rscale>
<asrwt>0</asrwt>
<pdfrwt beam="1">  1        1 0.36658913E+00 0.63268324E+03</pdfrwt>
<pdfrwt beam="2">  1       -1 0.34584303E-01 0.63268324E+03</pdfrwt>
<totfact> 0.13851676E+01</totfact>
</mgrwt>
</event>
<event>
12    1  0.3127365E-008  0.8116148E+03  0.7818608E-02  0.9543356E-01
         -2   -1    0    0    0  501 -0.00000000000E+00  0.00000000000E+00  0.29591314892E+03  0.29591314892E+03  0.00000000000E+00 0.  1.
          2   -1    0    0  501    0  0.00000000000E+00 -0.00000000000E+00 -0.23103729628E+04  0.23103729628E+04  0.00000000000E+00 0. -1.
         23    2    1    2    0    0 -0.56168726989E+03 -0.42935771766E+03 -0.10443730244E+04  0.12643037167E+04  0.88928258833E+02 0.  0.
    5000000    2    1    2    0    0  0.56168726989E+03  0.42935771766E+03 -0.97008678949E+03  0.13419823950E+04  0.60000644197E+03 0.  0.
         23    2    4    4    0    0  0.67299223848E+03  0.31650529910E+03 -0.79032285810E+03  0.10889924786E+04  0.90555182256E+02 0.  0.
         23    2    4    4    0    0 -0.11130496859E+03  0.11285241857E+03 -0.17976393140E+03  0.25298991637E+03  0.81020752544E+02 0.  0.
          4    1    3    3  502    0 -0.48065635195E+03 -0.34963026757E+03 -0.81972939420E+03  0.10125354969E+04  0.00000000000E+00 0. -1.
         -4    1    3    3    0  502 -0.81030917931E+02 -0.79727450091E+02 -0.22464363018E+03  0.25176821988E+03  0.00000000000E+00 0.  1.
         11    1    5    5    0    0  0.56213104438E+03  0.22681498038E+03 -0.62501576680E+03  0.87067850274E+03  0.00000000000E+00 0. -1.
        -11    1    5    5    0    0  0.11086119410E+03  0.89690318721E+02 -0.16530709130E+03  0.21831397588E+03  0.00000000000E+00 0.  1.
          5    1    6    6  503    0 -0.62773965252E+02  0.28743532317E+02 -0.32314603002E+02  0.76374635388E+02  0.47000000000E+01 0. -1.
         -5    1    6    6    0  503 -0.48531003339E+02  0.84108886250E+02 -0.14744932839E+03  0.17661528098E+03  0.47000000000E+01 0.  1.
<mgrwt>
<rscale>  0 0.81161477E+03</rscale>
<asrwt>0</asrwt>
<pdfrwt beam="1">  1        2 0.35544201E+00 0.81161477E+03</pdfrwt>
<pdfrwt beam="2">  1       -2 0.45525098E-01 0.81161477E+03</pdfrwt>
<totfact> 0.21117115E+01</totfact>
</mgrwt>
</event>
<event>
12    1  0.3127365E-008  0.4411666E+03  0.7818608E-02  0.1030389E+00
          2   -1    0    0  501    0  0.00000000000E+00  0.00000000000E+00  0.95844956443E+03  0.95844956443E+03  0.00000000000E+00 0. -1.
         -2   -1    0    0    0  501 -0.00000000000E+00 -0.00000000000E+00 -0.32657971768E+03  0.32657971768E+03  0.00000000000E+00 0.  1.
         23    2    1    2    0    0 -0.83236554817E+02 -0.31283908872E+03 -0.25700781519E+02  0.33777287433E+03  0.92915902683E+02 0.  0.
    5000000    2    1    2    0    0  0.83236554817E+02  0.31283908872E+03  0.65757062827E+03  0.94725640779E+03  0.60008245387E+03 0.  0.
         23    2    4    4    0    0 -0.15168053553E+03  0.55645811051E+02 -0.12988059161E+02  0.18585919061E+03  0.90947830697E+02 0.  0.
         23    2    4    4    0    0  0.23491709035E+03  0.25719327767E+03  0.67055868743E+03  0.76139721718E+03  0.93500522035E+02 0.  0.
          4    1    3    3  502    0 -0.18259148808E+02 -0.23309964819E+03 -0.21976105010E+02  0.23484418599E+03  0.00000000000E+00 0. -1.
         -4    1    3    3    0  502 -0.64977406009E+02 -0.79739440527E+02 -0.37246765091E+01  0.10292868833E+03  0.00000000000E+00 0.  1.
         13    1    5    5    0    0 -0.14446685308E+03  0.76330408669E+02 -0.13479927170E+02  0.16394728227E+03  0.00000000000E+00 0. -1.
        -13    1    5    5    0    0 -0.72136824453E+01 -0.20684597618E+02  0.49186800937E+00  0.21911908342E+02  0.00000000000E+00 0.  1.
          5    1    6    6  503    0  0.67503403473E+02  0.14137444081E+03  0.27628296411E+03  0.31764415350E+03  0.47000000000E+01 0. -1.
         -5    1    6    6    0  503  0.16741368687E+03  0.11581883686E+03  0.39427572332E+03  0.44375306367E+03  0.47000000000E+01 0.  1.
<mgrwt>
<rscale>  0 0.44116660E+03</rscale>
<asrwt>0</asrwt>
<pdfrwt beam="1">  1        2 0.14745378E+00 0.44116660E+03</pdfrwt>
<pdfrwt beam="2">  1       -2 0.50243034E-01 0.44116660E+03</pdfrwt>
<totfact> 0.10467158E+02</totfact>
</mgrwt>
</event>
<event>
12    1  0.3127365E-008  0.8225347E+03  0.7818608E-02  0.9527960E-01
         -2   -1    0    0    0  501 -0.00000000000E+00  0.00000000000E+00  0.68860301481E+03  0.68860301481E+03  0.00000000000E+00 0.  1.
          2   -1    0    0  501    0  0.00000000000E+00 -0.00000000000E+00 -0.11199734418E+04  0.11199734418E+04  0.00000000000E+00 0. -1.
         23    2    1    2    0    0  0.66894018491E+03 -0.28511286050E+03  0.77915654788E+02  0.73705053796E+03  0.91664235291E+02 0.  0.
    5000000    2    1    2    0    0 -0.66894018491E+03  0.28511286050E+03 -0.50928608174E+03  0.10715259186E+04  0.60002097214E+03 0.  0.
         23    2    4    4    0    0  0.86808918748E+02  0.68011694241E+02 -0.13048192425E+03  0.19399877931E+03  0.91916347234E+02 0.  0.
         23    2    4    4    0    0 -0.75574910366E+03  0.21710116626E+03 -0.37880415750E+03  0.87752713932E+03  0.90948702169E+02 0.  0.
          1    1    3    3  502    0  0.12828374728E+03 -0.88759853450E+02 -0.39466812362E+01  0.15604681251E+03  0.00000000000E+00 0. -1.
         -1    1    3    3    0  502  0.54065643763E+03 -0.19635300705E+03  0.81862336024E+02  0.58100372545E+03  0.00000000000E+00 0.  1.
         13    1    5    5    0    0  0.57562748065E+02  0.77026210364E+02 -0.13205374723E+03  0.16335452001E+03  0.00000000000E+00 0.  1.
        -13    1    5    5    0    0  0.29246170683E+02 -0.90145161223E+01  0.15718229859E+01  0.30644259300E+02  0.00000000000E+00 0. -1.
          5    1    6    6  503    0 -0.32054342515E+03  0.10955094065E+03 -0.11730471633E+03  0.35851357363E+03  0.47000000000E+01 0. -1.
         -5    1    6    6    0  503 -0.43520567851E+03  0.10755022561E+03 -0.26149944116E+03  0.51901356569E+03  0.47000000000E+01 0.  1.
<mgrwt>
<rscale>  0 0.82253469E+03</rscale>
<asrwt>0</asrwt>
<pdfrwt beam="1">  1        2 0.17230361E+00 0.82253469E+03</pdfrwt>
<pdfrwt beam="2">  1       -2 0.10593893E+00 0.82253469E+03</pdfrwt>
<totfact> 0.15393959E+01</totfact>
</mgrwt>
</event>
<event>
12    1  0.3127365E-008  0.1509844E+04  0.7818608E-02  0.8877933E-01
          1   -1    0    0  501    0  0.00000000000E+00  0.00000000000E+00  0.13008088410E+04  0.13008088410E+04  0.00000000000E+00 0. -1.
         -1   -1    0    0    0  501 -0.00000000000E+00 -0.00000000000E+00 -0.18066005380E+04  0.18066005380E+04  0.00000000000E+00 0.  1.
         23    2    1    2    0    0 -0.50672445691E+03 -0.13692586096E+04 -0.46973546714E+02  0.14636126795E+04  0.91196196850E+02 0.  0.
    5000000    2    1    2    0    0  0.50672445691E+03  0.13692586096E+04 -0.45881815033E+03  0.16437966995E+04  0.59992889485E+03 0.  0.
         23    2    4    4    0    0  0.89820599251E+02 -0.12386630432E+02 -0.70251945653E+02  0.14639400885E+03  0.90965385157E+02 0.  0.
         23    2    4    4    0    0  0.41690385766E+03  0.13816452401E+04 -0.38856620468E+03  0.14974026906E+04  0.92080000893E+02 0.  0.
          1    1    3    3  502    0 -0.13324877788E+03 -0.45877799909E+03  0.10255331762E+02  0.47784690130E+03  0.00000000000E+00 0. -1.
         -1    1    3    3    0  502 -0.37347567903E+03 -0.91048061055E+03 -0.57228878476E+02  0.98576577824E+03  0.00000000000E+00 0.  1.
         13    1    5    5    0    0  0.59405627657E+02 -0.39405800145E+02 -0.75985315681E+01  0.71690887597E+02  0.00000000000E+00 0.  1.
        -13    1    5    5    0    0  0.30414971594E+02  0.27019169712E+02 -0.62653414085E+02  0.74703121257E+02  0.00000000000E+00 0. -1.
          5    1    6    6  503    0  0.18664433084E+03  0.47338720955E+03 -0.14956412599E+03  0.53039897642E+03  0.47000000000E+01 0. -1.
         -5    1    6    6    0  503  0.23025952682E+03  0.90825803052E+03 -0.23900207869E+03  0.96700371422E+03  0.47000000000E+01 0.  1.
<mgrwt>
<rscale>  0 0.15098439E+04</rscale>
<asrwt>0</asrwt>
<pdfrwt beam="1">  1        1 0.20012444E+00 0.15098439E+04</pdfrwt>
<pdfrwt beam="2">  1       -1 0.27793854E+00 0.15098439E+04</pdfrwt>
<totfact> 0.39236747E-01</totfact>
</mgrwt>
</event>
<event>
12    1  0.3127365E-008  0.6438687E+03  0.7818608E-02  0.9818353E-01
          1   -1    0    0  501    0  0.00000000000E+00  0.00000000000E+00  0.12688568758E+04  0.12688568758E+04  0.00000000000E+00 0. -1.
         -1   -1    0    0    0  501 -0.00000000000E+00 -0.00000000000E+00 -0.46269097840E+03  0.46269097840E+03  0.00000000000E+00 0.  1.
         23    2    1    2    0    0 -0.26571215426E+03  0.51946364422E+03  0.31771386099E+02  0.59129151152E+03  0.90392499862E+02 0.  0.
    5000000    2    1    2    0    0  0.26571215426E+03 -0.51946364422E+03  0.77439451127E+03  0.11402563427E+04  0.60004353284E+03 0.  0.
         23    2    4    4    0    0  0.83018097565E+02  0.43266577251E+02  0.42819227422E+03  0.44891173948E+03  0.97000643873E+02 0.  0.
         23    2    4    4    0    0  0.18269405669E+03 -0.56273022147E+03  0.34620223705E+03  0.69134460318E+03  0.89771659744E+02 0.  0.
          3    1    3    3  502    0 -0.21653043237E+03  0.39419591968E+03 -0.11594807034E+02  0.44990031205E+03  0.00000000000E+00 0. -1.
         -3    1    3    3    0  502 -0.49181721885E+02  0.12526772454E+03  0.43366193133E+02  0.14139119947E+03  0.00000000000E+00 0.  1.
         11    1    5    5    0    0  0.19903582357E+02 -0.14060819539E+02  0.18918189989E+02  0.30850561571E+02  0.00000000000E+00 0.  1.
        -11    1    5    5    0    0  0.63114515207E+02  0.57327396790E+02  0.40927408423E+03  0.41806117791E+03  0.00000000000E+00 0. -1.
          5    1    6    6  503    0  0.95237805359E+02 -0.36984194125E+03  0.18073867969E+03  0.42254214158E+03  0.47000000000E+01 0. -1.
         -5    1    6    6    0  503  0.87456251331E+02 -0.19288828022E+03  0.16546355736E+03  0.26880246159E+03  0.47000000000E+01 0.  1.
<mgrwt>
<rscale>  0 0.64386874E+03</rscale>
<asrwt>0</asrwt>
<pdfrwt beam="1">  1        1 0.19520875E+00 0.64386874E+03</pdfrwt>
<pdfrwt beam="2">  1       -1 0.71183228E-01 0.64386874E+03</pdfrwt>
<totfact> 0.19878677E+01</totfact>
</mgrwt>
</event>
<event>
12    1  0.3127365E-008  0.3245597E+03  0.7818608E-02  0.1073570E+00
          2   -1    0    0  501    0  0.00000000000E+00  0.00000000000E+00  0.16136697200E+04  0.16136697200E+04  0.00000000000E+00 0. -1.
         -2   -1    0    0    0  501 -0.00000000000E+00 -0.00000000000E+00 -0.12678200408E+03  0.12678200408E+03  0.00000000000E+00 0.  1.
         23    2    1    2    0    0 -0.16277266487E+03 -0.17666004170E+03  0.37646162144E+03  0.45564971449E+03  0.90496403967E+02 0.  0.
    5000000    2    1    2    0    0  0.16277266487E+03  0.17666004170E+03  0.11104260944E+04  0.12848020096E+04  0.59997198418E+03 0.  0.
         23    2    4    4    0    0  0.15069008128E+03 -0.19952881475E+02  0.26150152758E+02  0.17874604104E+03  0.90336585190E+02 0.  0.
         23    2    4    4    0    0  0.12082583585E+02  0.19661292318E+03  0.10842759417E+04  0.11060559685E+04  0.94354954344E+02 0.  0.
          3    1    3    3  502    0 -0.64582079683E+02 -0.13697670478E+02  0.10867953662E+03  0.12716018588E+03  0.00000000000E+00 0. -1.
         -3    1    3    3    0  502 -0.98190585182E+02 -0.16296237122E+03  0.26778208482E+03  0.32848952861E+03  0.00000000000E+00 0.  1.
         11    1    5    5    0    0  0.24119789752E+02  0.31937131561E+02  0.65845757566E+01  0.40559847977E+02  0.00000000000E+00 0.  1.
        -11    1    5    5    0    0  0.12657029153E+03 -0.51890013037E+02  0.19565577002E+02  0.13818619307E+03  0.00000000000E+00 0. -1.
          5    1    6    6  503    0  0.46450441645E+02  0.65719788927E+02  0.32864920679E+03  0.33839196992E+03  0.47000000000E+01 0. -1.
         -5    1    6    6    0  503 -0.34367858059E+02  0.13089313425E+03  0.75562673488E+03  0.76766399859E+03  0.47000000000E+01 0.  1.
<mgrwt>
<rscale>  0 0.32455966E+03</rscale>
<asrwt>0</asrwt>
<pdfrwt beam="1">  1        2 0.24825687E+00 0.32455966E+03</pdfrwt>
<pdfrwt beam="2">  1       -2 0.19504925E-01 0.32455966E+03</pdfrwt>
<totfact> 0.25973195E+02</totfact>
</mgrwt>
</event>
<event>
12    1  0.3127365E-008  0.8597186E+03  0.7818608E-02  0.9477385E-01
          2   -1    0    0  501    0  0.00000000000E+00  0.00000000000E+00  0.30173058852E+04  0.30173058852E+04  0.00000000000E+00 0. -1.
         -2   -1    0    0    0  501 -0.00000000000E+00 -0.00000000000E+00 -0.36599454415E+03  0.36599454415E+03  0.00000000000E+00 0.  1.
         23    2    1    2    0    0 -0.40378342199E+03  0.70619898341E+03  0.39113914084E+03  0.90740246571E+03  0.92905065648E+02 0.  0.
    5000000    2    1    2    0    0  0.40378342199E+03 -0.70619898341E+03  0.22601722002E+04  0.24758979637E+04  0.59994524392E+03 0.  0.
         23    2    4    4    0    0  0.44051973025E+03 -0.65555116100E+03  0.14082096780E+04  0.16167626383E+04  0.84035553112E+02 0.  0.
         23    2    4    4    0    0 -0.36736308255E+02 -0.50647822417E+02  0.85196252226E+03  0.85913532532E+03  0.91425431981E+02 0.  0.
          2    1    3    3  502    0 -0.60894081949E+01  0.50150834736E+02  0.13363436577E+02  0.52256756061E+02  0.00000000000E+00 0. -1.
         -2    1    3    3    0  502 -0.39769401380E+03  0.65604814868E+03  0.37777570427E+03  0.85514570965E+03  0.00000000000E+00 0.  1.
         13    1    5    5    0    0  0.14122267360E+03 -0.17558972575E+03  0.47023538480E+03  0.52143735236E+03  0.00000000000E+00 0.  1.
        -13    1    5    5    0    0  0.29929705665E+03 -0.47996143525E+03  0.93797429317E+03  0.10953252860E+04  0.00000000000E+00 0. -1.
          5    1    6    6  503    0 -0.61340290891E+02 -0.90026122148E+01  0.47193575987E+03  0.47601379156E+03  0.47000000000E+01 0. -1.
         -5    1    6    6    0  503  0.24603982636E+02 -0.41645210202E+02  0.38002676239E+03  0.38312153376E+03  0.47000000000E+01 0.  1.
<mgrwt>
<rscale>  0 0.85971864E+03</rscale>
<asrwt>0</asrwt>
<pdfrwt beam="1">  1        2 0.46420089E+00 0.85971864E+03</pdfrwt>
<pdfrwt beam="2">  1       -2 0.56306855E-01 0.85971864E+03</pdfrwt>
<totfact> 0.52560981E+00</totfact>
</mgrwt>
</event>
<event>
12    1  0.3127365E-008  0.6918545E+03  0.7818608E-02  0.9731264E-01
          2   -1    0    0  501    0  0.00000000000E+00  0.00000000000E+00  0.16431656251E+04  0.16431656251E+04  0.00000000000E+00 0. -1.
         -2   -1    0    0    0  501 -0.00000000000E+00 -0.00000000000E+00 -0.31791203191E+03  0.31791203191E+03  0.00000000000E+00 0.  1.
         23    2    1    2    0    0  0.22653604068E+03 -0.54920860624E+03  0.56470761821E+03  0.82484435676E+03  0.92330102926E+02 0.  0.
    5000000    2    1    2    0    0 -0.22653604068E+03  0.54920860624E+03  0.76054597498E+03  0.11362333003E+04  0.59970597934E+03 0.  0.
         23    2    4    4    0    0 -0.23547768001E+02 -0.84081546129E+02  0.56021961699E+01  0.12612229606E+03  0.90836364878E+02 0.  0.
         23    2    4    4    0    0 -0.20298827268E+03  0.63329015237E+03  0.75494377881E+03  0.10101110042E+04  0.90130326221E+02 0.  0.
          1    1    3    3  502    0  0.13879009042E+03 -0.26858478022E+03  0.23378984380E+03  0.38217556754E+03  0.00000000000E+00 0. -1.
         -1    1    3    3    0  502  0.87745950262E+02 -0.28062382602E+03  0.33091777441E+03  0.44266878921E+03  0.00000000000E+00 0.  1.
         13    1    5    5    0    0 -0.34283904771E+02  0.20466199408E+01 -0.14088135828E+02  0.37122100569E+02  0.00000000000E+00 0.  1.
        -13    1    5    5    0    0  0.10736136770E+02 -0.86128166069E+02  0.19690331998E+02  0.89000195491E+02  0.00000000000E+00 0. -1.
          5    1    6    6  503    0 -0.17089716688E+02  0.97007525265E+02  0.15910734940E+03  0.18718909425E+03  0.47000000000E+01 0. -1.
         -5    1    6    6    0  503 -0.18589855599E+03  0.53628262711E+03  0.59583642941E+03  0.82292190994E+03  0.47000000000E+01 0.  1.
<mgrwt>
<rscale>  0 0.69185449E+03</rscale>
<asrwt>0</asrwt>
<pdfrwt beam="1">  1        2 0.25279471E+00 0.69185449E+03</pdfrwt>
<pdfrwt beam="2">  1       -2 0.48909544E-01 0.69185449E+03</pdfrwt>
<totfact> 0.43072584E+01</totfact>
</mgrwt>
</event>
<event>
12    1  0.3127365E-008  0.6455304E+03  0.7818608E-02  0.9815202E-01
         -2   -1    0    0    0  501 -0.00000000000E+00  0.00000000000E+00  0.47793696594E+03  0.47793696594E+03  0.00000000000E+00 0.  1.
          2   -1    0    0  501    0  0.00000000000E+00 -0.00000000000E+00 -0.18487539878E+04  0.18487539878E+04  0.00000000000E+00 0. -1.
         23    2    1    2    0    0 -0.40771302106E+03  0.31497550187E+03 -0.14427235066E+04  0.15340340698E+04  0.79811882444E+02 0.  0.
    5000000    2    1    2    0    0  0.40771302106E+03 -0.31497550187E+03  0.71906484755E+02  0.79265688390E+03  0.59807601417E+03 0.  0.
         23    2    4    4    0    0 -0.62746412568E+02 -0.28431659697E+03 -0.99940639327E+01  0.30536190547E+03  0.91503947412E+02 0.  0.
         23    2    4    4    0    0  0.47045943363E+03 -0.30658904896E+02  0.81900548687E+02  0.48729497844E+03  0.92068718865E+02 0.  0.
          2    1    3    3  502    0 -0.20923278191E+03  0.20276444985E+03 -0.87511000159E+03  0.92233903421E+03  0.00000000000E+00 0. -1.
         -2    1    3    3    0  502 -0.19848023915E+03  0.11221105202E+03 -0.56761350501E+03  0.61169503562E+03  0.00000000000E+00 0.  1.
         13    1    5    5    0    0 -0.31399436846E+02 -0.18572688684E+03  0.36624712601E+02  0.19188999636E+03  0.00000000000E+00 0. -1.
        -13    1    5    5    0    0 -0.31346975721E+02 -0.98589710130E+02 -0.46618776534E+02  0.11347190910E+03  0.00000000000E+00 0.  1.
          5    1    6    6  503    0  0.15192435487E+03 -0.51871115243E+02  0.37755047157E+02  0.16498228930E+03  0.47000000000E+01 0. -1.
         -5    1    6    6    0  503  0.31853507876E+03  0.21212210347E+02  0.44145501531E+02  0.32231268913E+03  0.47000000000E+01 0.  1.
<mgrwt>
<rscale>  0 0.64553037E+03</rscale>
<asrwt>0</asrwt>
<pdfrwt beam="1">  1        2 0.28442369E+00 0.64553037E+03</pdfrwt>
<pdfrwt beam="2">  1       -2 0.73528765E-01 0.64553037E+03</pdfrwt>
<totfact> 0.14175598E+01</totfact>
</mgrwt>
</event>
<event>
12    1  0.3127365E-008  0.4478150E+03  0.7818608E-02  0.1028376E+00
         -1   -1    0    0    0  501 -0.00000000000E+00  0.00000000000E+00  0.16572320837E+03  0.16572320837E+03  0.00000000000E+00 0.  1.
          1   -1    0    0  501    0  0.00000000000E+00 -0.00000000000E+00 -0.23514520421E+04  0.23514520421E+04  0.00000000000E+00 0. -1.
         23    2    1    2    0    0  0.13310309445E+03  0.34697924926E+03 -0.14418179126E+04  0.14917655266E+04  0.91730365632E+02 0.  0.
    5000000    2    1    2    0    0 -0.13310309445E+03 -0.34697924926E+03 -0.74391092116E+03  0.10254097239E+04  0.59995884038E+03 0.  0.
         23    2    4    4    0    0 -0.22586224838E+03 -0.11852915537E+03 -0.38106662671E+02  0.27228321788E+03  0.87310463766E+02 0.  0.
         23    2    4    4    0    0  0.92759153925E+02 -0.22845009388E+03 -0.70580425848E+03  0.75312650605E+03  0.90808462087E+02 0.  0.
          3    1    3    3  502    0  0.10222785981E+02  0.14922776582E+03 -0.53148945774E+03  0.55213628312E+03  0.00000000000E+00 0. -1.
         -3    1    3    3    0  502  0.12288030847E+03  0.19775148344E+03 -0.91032845489E+03  0.93962924347E+03  0.00000000000E+00 0.  1.
         13    1    5    5    0    0 -0.13051116558E+03 -0.86274924018E+02  0.17265587770E+02  0.15739957870E+03  0.00000000000E+00 0.  1.
        -13    1    5    5    0    0 -0.95351082804E+02 -0.32254231353E+02 -0.55372250441E+02  0.11488363918E+03  0.00000000000E+00 0. -1.
          5    1    6    6  503    0  0.49186849347E+02 -0.42796757811E+02 -0.26261648336E+03  0.27062966570E+03  0.47000000000E+01 0. -1.
         -5    1    6    6    0  503  0.43572304578E+02 -0.18565333607E+03 -0.44318777513E+03  0.48249684035E+03  0.47000000000E+01 0.  1.
<mgrwt>
<rscale>  0 0.44781505E+03</rscale>
<asrwt>0</asrwt>
<pdfrwt beam="1">  1        1 0.36176179E+00 0.44781505E+03</pdfrwt>
<pdfrwt beam="2">  1       -1 0.25495882E-01 0.44781505E+03</pdfrwt>
<totfact> 0.25618003E+01</totfact>
</mgrwt>
</event>
<event>
12    1  0.3127365E-008  0.6589005E+03  0.7818608E-02  0.9790220E-01
         -1   -1    0    0    0  501 -0.00000000000E+00  0.00000000000E+00  0.33770702014E+03  0.33770702014E+03  0.00000000000E+00 0.  1.
          1   -1    0    0  501    0  0.00000000000E+00 -0.00000000000E+00 -0.17168657813E+04  0.17168657813E+04  0.00000000000E+00 0. -1.
         23    2    1    2    0    0  0.61151664541E+03  0.11511123723E+03 -0.78449669088E+03  0.10056214779E+04  0.92931664550E+02 0.  0.
    5000000    2    1    2    0    0 -0.61151664541E+03 -0.11511123723E+03 -0.59466207024E+03  0.10489513235E+04  0.59956041959E+03 0.  0.
         23    2    4    4    0    0 -0.20385558559E+03 -0.15765707678E+03  0.51826149957E+02  0.27799518486E+03  0.90457279159E+02 0.  0.
         23    2    4    4    0    0 -0.40766105983E+03  0.42545839546E+02 -0.64648822020E+03  0.77095613864E+03  0.91807737629E+02 0.  0.
          3    1    3    3  502    0  0.27030117957E+03  0.90989888030E+02 -0.39564564053E+03  0.48772672704E+03  0.00000000000E+00 0. -1.
         -3    1    3    3    0  502  0.34121546584E+03  0.24121349205E+02 -0.38885105035E+03  0.51789475087E+03  0.00000000000E+00 0.  1.
         11    1    5    5    0    0 -0.58396334778E+02 -0.99987187024E+02  0.11190731023E+02  0.11633057184E+03  0.00000000000E+00 0. -1.
        -11    1    5    5    0    0 -0.14545925081E+03 -0.57669889756E+02  0.40635418934E+02  0.16166461302E+03  0.00000000000E+00 0.  1.
          5    1    6    6  503    0 -0.23251107096E+03 -0.17074863963E+02 -0.39520566780E+03  0.45887096112E+03  0.47000000000E+01 0. -1.
         -5    1    6    6    0  503 -0.17514998887E+03  0.59620703509E+02 -0.25128255240E+03  0.31208517752E+03  0.47000000000E+01 0.  1.
<mgrwt>
<rscale>  0 0.65890046E+03</rscale>
<asrwt>0</asrwt>
<pdfrwt beam="1">  1        1 0.26413320E+00 0.65890046E+03</pdfrwt>
<pdfrwt beam="2">  1       -1 0.51954926E-01 0.65890046E+03</pdfrwt>
<totfact> 0.18213422E+01</totfact>
</mgrwt>
</event>
<event>
12    1  0.3127365E-008  0.4471445E+03  0.7818608E-02  0.1028577E+00
         -2   -1    0    0    0  501 -0.00000000000E+00  0.00000000000E+00  0.85266046730E+02  0.85266046730E+02  0.00000000000E+00 0. -1.
          2   -1    0    0  501    0  0.00000000000E+00 -0.00000000000E+00 -0.25578059427E+04  0.25578059427E+04  0.00000000000E+00 0.  1.
         23    2    1    2    0    0  0.20867888686E+03 -0.16254948374E+03 -0.75270260997E+03  0.80248905509E+03  0.86361171823E+02 0.  0.
    5000000    2    1    2    0    0 -0.20867888686E+03  0.16254948374E+03 -0.17198372860E+04  0.18405829343E+04  0.59994669378E+03 0.  0.
         23    2    4    4    0    0 -0.66227209526E+02  0.35774203343E+03 -0.77250683278E+03  0.85858979235E+03  0.89689570569E+02 0.  0.
         23    2    4    4    0    0 -0.14245167734E+03 -0.19519254969E+03 -0.94733045322E+03  0.98199314199E+03  0.92102831038E+02 0.  0.
          1    1    3    3  502    0  0.20295293512E+03 -0.12164061605E+03 -0.65422958909E+03  0.69570301752E+03  0.00000000000E+00 0. -1.
         -1    1    3    3    0  502  0.57259517483E+01 -0.40908867688E+02 -0.98473020885E+02  0.10678603758E+03  0.00000000000E+00 0.  1.
         13    1    5    5    0    0 -0.84429036662E+02  0.22164632032E+03 -0.47486640972E+03  0.53080454088E+03  0.00000000000E+00 0.  1.
        -13    1    5    5    0    0  0.18201827136E+02  0.13609571311E+03 -0.29764042306E+03  0.32778525147E+03  0.00000000000E+00 0. -1.
          5    1    6    6  503    0 -0.39221883861E+02 -0.54908747358E+02 -0.44932129893E+03  0.45438424971E+03  0.47000000000E+01 0. -1.
         -5    1    6    6    0  503 -0.10322979348E+03 -0.14028380234E+03 -0.49800915429E+03  0.52760889228E+03  0.47000000000E+01 0.  1.
<mgrwt>
<rscale>  0 0.44714447E+03</rscale>
<asrwt>0</asrwt>
<pdfrwt beam="1">  1        2 0.39350864E+00 0.44714447E+03</pdfrwt>
<pdfrwt beam="2">  1       -2 0.13117852E-01 0.44714447E+03</pdfrwt>
<totfact> 0.15341608E+02</totfact>
</mgrwt>
</event>
<event>
12    1  0.3127365E-008  0.3686966E+03  0.7818608E-02  0.1055192E+00
         -2   -1    0    0    0  501 -0.00000000000E+00  0.00000000000E+00  0.13005959010E+04  0.13005959010E+04  0.00000000000E+00 0. -1.
          2   -1    0    0  501    0  0.00000000000E+00 -0.00000000000E+00 -0.18544481699E+03  0.18544481699E+03  0.00000000000E+00 0.  1.
         23    2    1    2    0    0  0.98612769116E+02  0.24668315121E+03  0.56922117439E+03  0.63243816142E+03  0.73404545694E+02 0.  0.
    5000000    2    1    2    0    0 -0.98612769116E+02 -0.24668315121E+03  0.54592990965E+03  0.85360255660E+03  0.60001733564E+03 0.  0.
         23    2    4    4    0    0 -0.10137337670E+03 -0.33888743347E+03  0.87081279186E+02  0.37663742895E+03  0.95662686768E+02 0.  0.
         23    2    4    4    0    0  0.27606075831E+01  0.92204282253E+02  0.45884863046E+03  0.47696512765E+03  0.91893507359E+02 0.  0.
          1    1    3    3  502    0  0.16327031732E+02  0.13794946262E+03  0.30308332112E+03  0.33340084845E+03  0.00000000000E+00 0. -1.
         -1    1    3    3    0  502  0.82285737384E+02  0.10873368859E+03  0.26613785326E+03  0.29903731297E+03  0.00000000000E+00 0.  1.
         13    1    5    5    0    0 -0.89223088301E+02 -0.33970711596E+03  0.74335181582E+02  0.35900891819E+03  0.00000000000E+00 0. -1.
        -13    1    5    5    0    0 -0.12150288398E+02  0.81968249517E+00  0.12746097604E+02  0.17628510762E+02  0.00000000000E+00 0.  1.
          5    1    6    6  503    0  0.11102244919E+02  0.86971757430E+02  0.45764042361E+03  0.46598733218E+03  0.47000000000E+01 0. -1.
         -5    1    6    6    0  503 -0.83416373359E+01  0.52325248233E+01  0.12082068522E+01  0.10977795465E+02  0.47000000000E+01 0.  1.
<mgrwt>
<rscale>  0 0.36869659E+03</rscale>
<asrwt>0</asrwt>
<pdfrwt beam="1">  1        2 0.28529973E-01 0.36869659E+03</pdfrwt>
<pdfrwt beam="2">  1       -2 0.20009167E+00 0.36869659E+03</pdfrwt>
<totfact> 0.26435987E+01</totfact>
</mgrwt>
</event>
<event>
12    1  0.3127365E-008  0.9282464E+03  0.7818608E-02  0.9390945E-01
          1   -1    0    0  501    0  0.00000000000E+00  0.00000000000E+00  0.10334173252E+04  0.10334173252E+04  0.00000000000E+00 0. -1.
         -1   -1    0    0    0  501 -0.00000000000E+00 -0.00000000000E+00 -0.11950089330E+04  0.11950089330E+04  0.00000000000E+00 0.  1.
         23    2    1    2    0    0  0.65303418733E+03 -0.54609945540E+03 -0.65271379730E+03  0.10769759961E+04  0.95727373604E+02 0.  0.
    5000000    2    1    2    0    0 -0.65303418733E+03  0.54609945540E+03  0.49112218948E+03  0.11514502620E+04  0.59996536225E+03 0.  0.
         23    2    4    4    0    0  0.59163765685E+02 -0.34058177784E+02  0.87242441537E+02  0.14380403828E+03  0.91695404343E+02 0.  0.
         23    2    4    4    0    0 -0.71219795301E+03  0.58015763318E+03  0.40387974795E+03  0.10076462237E+04  0.91778307884E+02 0.  0.
          1    1    3    3  502    0  0.38185110816E+03 -0.25718941516E+03 -0.34768965165E+03  0.57692699533E+03  0.00000000000E+00 0. -1.
         -1    1    3    3    0  502  0.27118307917E+03 -0.28891004024E+03 -0.30502414564E+03  0.50004900080E+03  0.00000000000E+00 0.  1.
         13    1    5    5    0    0  0.64252655824E+02 -0.32730046102E+02  0.17945956059E+02  0.74308256857E+02  0.00000000000E+00 0. -1.
        -13    1    5    5    0    0 -0.50888901390E+01 -0.13281316818E+01  0.69296485478E+02  0.69495781428E+02  0.00000000000E+00 0.  1.
          5    1    6    6  503    0 -0.51288210952E+03  0.36735791559E+03  0.25824489876E+03  0.68169818406E+03  0.47000000000E+01 0.  1.
         -5    1    6    6    0  503 -0.19931584349E+03  0.21279971759E+03  0.14563484919E+03  0.32594803968E+03  0.47000000000E+01 0. -1.
<mgrwt>
<rscale>  0 0.92824642E+03</rscale>
<asrwt>0</asrwt>
<pdfrwt beam="1">  1        1 0.15898728E+00 0.92824642E+03</pdfrwt>
<pdfrwt beam="2">  1       -1 0.18384753E+00 0.92824642E+03</pdfrwt>
<totfact> 0.28201972E+00</totfact>
</mgrwt>
</event>
<event>
12    1  0.3127365E-008  0.1117628E+04  0.7818608E-02  0.9188179E-01
         -2   -1    0    0    0  501 -0.00000000000E+00  0.00000000000E+00  0.85806439317E+03  0.85806439317E+03  0.00000000000E+00 0.  1.
          2   -1    0    0  501    0  0.00000000000E+00 -0.00000000000E+00 -0.16138439014E+04  0.16138439014E+04  0.00000000000E+00 0. -1.
         23    2    1    2    0    0 -0.48784934645E+03  0.96140653587E+03 -0.13368203206E+03  0.10900759804E+04  0.89973580536E+02 0.  0.
    5000000    2    1    2    0    0  0.48784934645E+03 -0.96140653587E+03 -0.62209747617E+03  0.13818323142E+04  0.60012978820E+03 0.  0.
         23    2    4    4    0    0  0.54914980064E+03 -0.81320533743E+03 -0.67088659301E+03  0.11921485099E+04  0.90889078197E+02 0.  0.
         23    2    4    4    0    0 -0.61300454187E+02 -0.14820119844E+03  0.48789116841E+02  0.18968380434E+03  0.88759375866E+02 0.  0.
          1    1    3    3  502    0 -0.25760156775E+03  0.49014766819E+03 -0.24036589369E+02  0.55423917397E+03  0.00000000000E+00 0. -1.
         -1    1    3    3    0  502 -0.23024777870E+03  0.47125886769E+03 -0.10964544269E+03  0.53583680638E+03  0.00000000000E+00 0.  1.
         11    1    5    5    0    0  0.33776535627E+02 -0.97487468795E+02 -0.61108939980E+02  0.11991231578E+03  0.00000000000E+00 0.  1.
        -11    1    5    5    0    0  0.51537326501E+03 -0.71571786864E+03 -0.60977765303E+03  0.10722361941E+04  0.00000000000E+00 0. -1.
          5    1    6    6  503    0  0.22224582759E+01 -0.73698569406E+02  0.54020512337E+02  0.91524445950E+02  0.47000000000E+01 0. -1.
         -5    1    6    6    0  503 -0.63522912463E+02 -0.74502629037E+02 -0.52313954961E+01  0.98159358393E+02  0.47000000000E+01 0.  1.
<mgrwt>
<rscale>  0 0.11176278E+04</rscale>
<asrwt>0</asrwt>
<pdfrwt beam="1">  1        2 0.24828368E+00 0.11176278E+04</pdfrwt>
<pdfrwt beam="2">  1       -2 0.13200991E+00 0.11176278E+04</pdfrwt>
<totfact> 0.44917293E+00</totfact>
</mgrwt>
</event>
<event>
12    1  0.3127365E-008  0.1263932E+04  0.7818608E-02  0.9058667E-01
          2   -1    0    0  501    0  0.00000000000E+00  0.00000000000E+00  0.16208475590E+04  0.16208475590E+04  0.00000000000E+00 0. -1.
         -2   -1    0    0    0  501 -0.00000000000E+00 -0.00000000000E+00 -0.10762614887E+04  0.10762614887E+04  0.00000000000E+00 0.  1.
         23    2    1    2    0    0  0.50167996533E+03 -0.10826014640E+04 -0.12424159341E+03  0.12029318248E+04  0.88883541712E+02 0.  0.
    5000000    2    1    2    0    0 -0.50167996533E+03  0.10826014640E+04  0.66882766371E+03  0.14941772229E+04  0.60127066464E+03 0.  0.
         23    2    4    4    0    0 -0.13003270972E+03  0.89694213654E+03  0.45913510427E+03  0.10200695866E+04  0.91231659362E+02 0.  0.
         23    2    4    4    0    0 -0.37164725560E+03  0.18565932748E+03  0.20969255944E+03  0.47410763627E+03  0.90642224201E+02 0.  0.
          2    1    3    3  502    0  0.48564493082E+03 -0.10372826152E+04 -0.13615501017E+03  0.11534055702E+04  0.00000000000E+00 0. -1.
         -2    1    3    3    0  502  0.16035034509E+02 -0.45318848832E+02  0.11913416757E+02  0.49526254553E+02  0.00000000000E+00 0.  1.
         13    1    5    5    0    0 -0.10761241942E+03  0.47454974378E+03  0.27289120311E+03  0.55789560033E+03  0.00000000000E+00 0. -1.
        -13    1    5    5    0    0 -0.22420290297E+02  0.42239239277E+03  0.18624390116E+03  0.46217398629E+03  0.00000000000E+00 0.  1.
          5    1    6    6  503    0 -0.17404371108E+03  0.38167904485E+02  0.97481409877E+02  0.20315687921E+03  0.47000000000E+01 0. -1.
         -5    1    6    6    0  503 -0.19760354452E+03  0.14749142299E+03  0.11221114956E+03  0.27095075706E+03  0.47000000000E+01 0.  1.
<mgrwt>
<rscale>  0 0.12639316E+04</rscale>
<asrwt>0</asrwt>
<pdfrwt beam="1">  1        2 0.24936116E+00 0.12639316E+04</pdfrwt>
<pdfrwt beam="2">  1       -2 0.16557869E+00 0.12639316E+04</pdfrwt>
<totfact> 0.24014545E+00</totfact>
</mgrwt>
</event>
<event>
12    1  0.3127365E-008  0.5928499E+03  0.7818608E-02  0.9920352E-01
         -2   -1    0    0    0  501 -0.00000000000E+00  0.00000000000E+00  0.26628764956E+03  0.26628764956E+03  0.00000000000E+00 0.  1.
          2   -1    0    0  501    0  0.00000000000E+00 -0.00000000000E+00 -0.23667556561E+04  0.23667556561E+04  0.00000000000E+00 0. -1.
         23    2    1    2    0    0 -0.28579459861E+03  0.49745429839E+03 -0.30700838749E+03  0.65674701828E+03  0.89012159010E+02 0.  0.
    5000000    2    1    2    0    0  0.28579459861E+03 -0.49745429839E+03 -0.17934596190E+04  0.19762962874E+04  0.60009189193E+03 0.  0.
         23    2    4    4    0    0  0.36996724842E+02 -0.82494553846E+02 -0.86679487529E+01  0.12487067713E+03  0.85693894814E+02 0.  0.
         23    2    4    4    0    0  0.24879787377E+03 -0.41495974455E+03 -0.17847916703E+04  0.18514256102E+04  0.90573242905E+02 0.  0.
          3    1    3    3  502    0 -0.18278029174E+03  0.39494706541E+03 -0.23398319205E+03  0.49410520508E+03  0.00000000000E+00 0. -1.
         -3    1    3    3    0  502 -0.10301430687E+03  0.10250723298E+03 -0.73025195441E+02  0.16264181321E+03  0.00000000000E+00 0.  1.
         11    1    5    5    0    0 -0.16265268499E+02 -0.46697907564E+02 -0.29280212408E+02  0.57468116107E+02  0.00000000000E+00 0. -1.
        -11    1    5    5    0    0  0.53261993341E+02 -0.35796646282E+02  0.20612263655E+02  0.67402561024E+02  0.00000000000E+00 0.  1.
          5    1    6    6  503    0  0.66749334915E+02 -0.19405406806E+03 -0.69785840192E+03  0.72742071333E+03  0.47000000000E+01 0.  1.
         -5    1    6    6    0  503  0.18204853885E+03 -0.22090567649E+03 -0.10869332684E+04  0.11240048969E+04  0.47000000000E+01 0.  1.
<mgrwt>
<rscale>  0 0.59284990E+03</rscale>
<asrwt>0</asrwt>
<pdfrwt beam="1">  1        2 0.36411625E+00 0.59284990E+03</pdfrwt>
<pdfrwt beam="2">  1       -2 0.40967331E-01 0.59284990E+03</pdfrwt>
<totfact> 0.25045378E+01</totfact>
</mgrwt>
</event>
<event>
12    1  0.3127365E-008  0.1433081E+04  0.7818608E-02  0.8930215E-01
         -2   -1    0    0    0  501 -0.00000000000E+00  0.00000000000E+00  0.13208517512E+04  0.13208517512E+04  0.00000000000E+00 0.  1.
          2   -1    0    0  501    0  0.00000000000E+00 -0.00000000000E+00 -0.18854949268E+04  0.18854949268E+04  0.00000000000E+00 0. -1.
         23    2    1    2    0    0  0.11978881700E+04  0.78085098944E+03  0.24822267042E+03  0.14555077403E+04  0.11056198484E+03 0.  0.
    5000000    2    1    2    0    0 -0.11978881700E+04 -0.78085098944E+03 -0.81286584599E+03  0.17508389377E+04  0.60001813860E+03 0.  0.
         23    2    4    4    0    0 -0.61433195450E+03 -0.38982897894E+03 -0.73611756327E+03  0.10386711273E+04  0.87168001800E+02 0.  0.
         23    2    4    4    0    0 -0.58355621550E+03 -0.39102201050E+03 -0.76748282714E+02  0.71216781042E+03  0.88637587713E+02 0.  0.
          2    1    3    3  502    0  0.23472509451E+03  0.18301918812E+03  0.14165790855E+02  0.29798080952E+03  0.00000000000E+00 0. -1.
         -2    1    3    3    0  502  0.96316307549E+03  0.59783180133E+03  0.23405687956E+03  0.11575269308E+04  0.00000000000E+00 0.  1.
         11    1    5    5    0    0 -0.40515761002E+03 -0.25247232738E+03 -0.42287093232E+03  0.63774194660E+03  0.00000000000E+00 0.  1.
        -11    1    5    5    0    0 -0.20917434448E+03 -0.13735665156E+03 -0.31324663095E+03  0.40092918068E+03  0.00000000000E+00 0. -1.
          5    1    6    6  503    0 -0.14012691761E+03 -0.13794378340E+03 -0.67481422721E+01  0.19680362762E+03  0.47000000000E+01 0.  1.
         -5    1    6    6    0  503 -0.44342929788E+03 -0.25307822710E+03 -0.70000140442E+02  0.51536418280E+03  0.47000000000E+01 0. -1.
<mgrwt>
<rscale>  0 0.14330805E+04</rscale>
<asrwt>0</asrwt>
<pdfrwt beam="1">  1        2 0.29007614E+00 0.14330805E+04</pdfrwt>
<pdfrwt beam="2">  1       -2 0.20320796E+00 0.14330805E+04</pdfrwt>
<totfact> 0.92718333E-01</totfact>
</mgrwt>
</event>
<event>
12    1  0.3127365E-008  0.4769295E+03  0.7818608E-02  0.1019982E+00
          1   -1    0    0  501    0  0.00000000000E+00  0.00000000000E+00  0.68228996052E+03  0.68228996052E+03  0.00000000000E+00 0. -1.
         -1   -1    0    0    0  501 -0.00000000000E+00 -0.00000000000E+00 -0.49927367032E+03  0.49927367032E+03  0.00000000000E+00 0.  1.
         23    2    1    2    0    0  0.36176966739E+03  0.29991093370E+02 -0.15008257408E+03  0.40525437634E+03  0.99647240642E+02 0.  0.
    5000000    2    1    2    0    0 -0.36176966739E+03 -0.29991093370E+02  0.33309886428E+03  0.77630925450E+03  0.59993703612E+03 0.  0.
         23    2    4    4    0    0 -0.30814728408E+03 -0.21613085026E+03  0.10020884764E+02  0.38867193383E+03  0.96426971837E+02 0.  0.
         23    2    4    4    0    0 -0.53622383311E+02  0.18613975689E+03  0.32307797952E+03  0.38763732066E+03  0.91432720808E+02 0.  0.
          1    1    3    3  502    0  0.16136931049E+03  0.82712144168E+01 -0.12040179559E+03  0.20150697194E+03  0.00000000000E+00 0. -1.
         -1    1    3    3    0  502  0.20040035690E+03  0.21719878953E+02 -0.29680778491E+02  0.20374740440E+03  0.00000000000E+00 0.  1.
         13    1    5    5    0    0 -0.98099521699E+02 -0.18848770256E+02 -0.58769123417E+01  0.10006662978E+03  0.00000000000E+00 0. -1.
        -13    1    5    5    0    0 -0.21004776238E+03 -0.19728208000E+03  0.15897797106E+02  0.28860530405E+03  0.00000000000E+00 0.  1.
          5    1    6    6  503    0  0.75113868615E+01  0.76597094806E+02  0.65801938065E+02  0.10136824413E+03  0.47000000000E+01 0. -1.
         -5    1    6    6    0  503 -0.61133770172E+02  0.10954266208E+03  0.25727604146E+03  0.28626907653E+03  0.47000000000E+01 0.  1.
<mgrwt>
<rscale>  0 0.47692947E+03</rscale>
<asrwt>0</asrwt>
<pdfrwt beam="1">  1        1 0.10496769E+00 0.47692947E+03</pdfrwt>
<pdfrwt beam="2">  1       -1 0.76811333E-01 0.47692947E+03</pdfrwt>
<totfact> 0.50764629E+01</totfact>
</mgrwt>
</event>
<event>
12    1  0.3127365E-008  0.7594237E+03  0.7818608E-02  0.9620681E-01
          2   -1    0    0  501    0  0.00000000000E+00  0.00000000000E+00  0.72361362122E+03  0.72361362122E+03  0.00000000000E+00 0. -1.
         -2   -1    0    0    0  501 -0.00000000000E+00 -0.00000000000E+00 -0.97699153163E+03  0.97699153163E+03  0.00000000000E+00 0.  1.
         23    2    1    2    0    0  0.42798961176E+03 -0.57767411691E+03  0.20457890409E+02  0.72517724278E+03  0.92633768393E+02 0.  0.
    5000000    2    1    2    0    0 -0.42798961176E+03  0.57767411691E+03 -0.27383580081E+03  0.97542791007E+03  0.59965912718E+03 0.  0.
         23    2    4    4    0    0 -0.11028644537E+02  0.26986957687E+03  0.12822235293E+03  0.31321516242E+03  0.93335666603E+02 0.  0.
         23    2    4    4    0    0 -0.41696096722E+03  0.30780454004E+03 -0.40205815374E+03  0.66221274764E+03  0.90966373448E+02 0.  0.
          1    1    3    3  502    0  0.34277086657E+03 -0.46773606648E+03  0.53056802856E+02  0.58230912683E+03  0.00000000000E+00 0. -1.
         -1    1    3    3    0  502  0.85218745190E+02 -0.10993805043E+03 -0.32598912447E+02  0.14286811595E+03  0.00000000000E+00 0.  1.
         11    1    5    5    0    0  0.21190223529E+02  0.19615915314E+03  0.55966138449E+02  0.20508448890E+03  0.00000000000E+00 0.  1.
        -11    1    5    5    0    0 -0.32218868066E+02  0.73710423733E+02  0.72256214481E+02  0.10813067353E+03  0.00000000000E+00 0. -1.
          5    1    6    6  503    0 -0.21581039853E+03  0.12047293312E+03 -0.23158336439E+03  0.33873411460E+03  0.47000000000E+01 0. -1.
         -5    1    6    6    0  503 -0.20115056869E+03  0.18733160692E+03 -0.17047478936E+03  0.32347863305E+03  0.47000000000E+01 0.  1.
<mgrwt>
<rscale>  0 0.75942373E+03</rscale>
<asrwt>0</asrwt>
<pdfrwt beam="1">  1        2 0.11132517E+00 0.75942373E+03</pdfrwt>
<pdfrwt beam="2">  1       -2 0.15030639E+00 0.75942373E+03</pdfrwt>
<totfact> 0.11873308E+01</totfact>
</mgrwt>
</event>
<event>
12    1  0.3127365E-008  0.2648315E+04  0.7818608E-02  0.8351972E-01
          2   -1    0    0  501    0  0.00000000000E+00  0.00000000000E+00  0.30906235868E+04  0.30906235868E+04  0.00000000000E+00 0. -1.
         -2   -1    0    0    0  501 -0.00000000000E+00 -0.00000000000E+00 -0.25270906676E+04  0.25270906676E+04  0.00000000000E+00 0.  1.
         23    2    1    2    0    0 -0.20542210611E+04 -0.16670210290E+04 -0.51789385547E+03  0.26973846538E+04  0.94269007513E+02 0.  0.
    5000000    2    1    2    0    0  0.20542210611E+04  0.16670210290E+04  0.10814267746E+04  0.29203296007E+04  0.60004818867E+03 0.  0.
         23    2    4    4    0    0  0.79377270400E+03  0.56646989004E+03  0.11585661058E+03  0.98635474314E+03  0.92247943967E+02 0.  0.
         23    2    4    4    0    0  0.12604483571E+04  0.11005511389E+04  0.96557016405E+03  0.19339748575E+04  0.89387569100E+02 0.  0.
          4    1    3    3  502    0 -0.11467124983E+04 -0.89204136134E+03 -0.32112963417E+03  0.14878882976E+04  0.00000000000E+00 0. -1.
         -4    1    3    3    0  502 -0.90750856278E+03 -0.77497966764E+03 -0.19676422130E+03  0.12094963562E+04  0.00000000000E+00 0.  1.
         13    1    5    5    0    0  0.14693968008E+03  0.12474968016E+03 -0.10127397416E+02  0.19301895363E+03  0.00000000000E+00 0.  1.
        -13    1    5    5    0    0  0.64683302392E+03  0.44172020989E+03  0.12598400800E+03  0.79333578952E+03  0.00000000000E+00 0. -1.
          5    1    6    6  503    0  0.10057915799E+04  0.84568725654E+03  0.78850004739E+03  0.15325005882E+04  0.47000000000E+01 0. -1.
         -5    1    6    6    0  503  0.25465677720E+03  0.25486388239E+03  0.17707011666E+03  0.40147426933E+03  0.47000000000E+01 0.  1.
<mgrwt>
<rscale>  0 0.26483149E+04</rscale>
<asrwt>0</asrwt>
<pdfrwt beam="1">  1        2 0.47548055E+00 0.26483149E+04</pdfrwt>
<pdfrwt beam="2">  1       -2 0.38878318E+00 0.26483149E+04</pdfrwt>
<totfact> 0.11036670E-02</totfact>
</mgrwt>
</event>
<event>
12    1  0.3127365E-008  0.1358022E+04  0.7818608E-02  0.8984778E-01
         -2   -1    0    0    0  501 -0.00000000000E+00  0.00000000000E+00  0.61398441498E+03  0.61398441498E+03  0.00000000000E+00 0.  1.
          2   -1    0    0  501    0  0.00000000000E+00 -0.00000000000E+00 -0.33347008302E+04  0.33347008302E+04  0.00000000000E+00 0. -1.
         23    2    1    2    0    0  0.12216951617E+04  0.58672900316E+03 -0.15410567551E+04  0.20543054689E+04  0.92331174071E+02 0.  0.
    5000000    2    1    2    0    0 -0.12216951617E+04 -0.58672900316E+03 -0.11796596601E+04  0.18943797763E+04  0.60023981189E+03 0.  0.
         23    2    4    4    0    0 -0.19100809644E+03 -0.13864214475E+03  0.11320506661E+02  0.25438037517E+03  0.94209788198E+02 0.  0.
         23    2    4    4    0    0 -0.10306870653E+04 -0.44808685841E+03 -0.11909801667E+04  0.16399994011E+04  0.89814357539E+02 0.  0.
          3    1    3    3  502    0  0.27015942530E+02  0.83884437866E+01 -0.54620621730E+02  0.61511295371E+02  0.00000000000E+00 0. -1.
         -3    1    3    3    0  502  0.11946792192E+04  0.57834055937E+03 -0.14864361334E+04  0.19927941735E+04  0.00000000000E+00 0.  1.
         13    1    5    5    0    0 -0.17107378161E+03 -0.12129472293E+03 -0.23107318420E+02  0.21098008610E+03  0.00000000000E+00 0. -1.
        -13    1    5    5    0    0 -0.19934314834E+02 -0.17347421815E+02  0.34427825081E+02  0.43400289070E+02  0.00000000000E+00 0.  1.
          5    1    6    6  503    0 -0.76163589060E+03 -0.34516376691E+03 -0.83069851315E+03  0.11786896816E+04  0.47000000000E+01 0. -1.
         -5    1    6    6    0  503 -0.26905117468E+03 -0.10292309150E+03 -0.36028165358E+03  0.46130971946E+03  0.47000000000E+01 0.  1.
<mgrwt>
<rscale>  0 0.13580220E+04</rscale>
<asrwt>0</asrwt>
<pdfrwt beam="1">  1        2 0.51303090E+00 0.13580220E+04</pdfrwt>
<pdfrwt beam="2">  1       -2 0.94459140E-01 0.13580220E+04</pdfrwt>
<totfact> 0.97446600E-01</totfact>
</mgrwt>
</event>
<event>
12    1  0.3127365E-008  0.7509403E+03  0.7818608E-02  0.9633876E-01
         -2   -1    0    0    0  501 -0.00000000000E+00  0.00000000000E+00  0.30065318007E+03  0.30065318007E+03  0.00000000000E+00 0.  1.
          2   -1    0    0  501    0  0.00000000000E+00 -0.00000000000E+00 -0.21861373351E+04  0.21861373351E+04  0.00000000000E+00 0. -1.
         23    2    1    2    0    0  0.24646332974E+03  0.57875974788E+03 -0.35885888777E+03  0.73006188740E+03  0.92215180053E+02 0.  0.
    5000000    2    1    2    0    0 -0.24646332974E+03 -0.57875974788E+03 -0.15266252673E+04  0.17567286278E+04  0.59983643299E+03 0.  0.
         23    2    4    4    0    0 -0.24182539037E+03  0.25003767027E+02 -0.47548871407E+03  0.54112788813E+03  0.87322198256E+02 0.  0.
         23    2    4    4    0    0 -0.46379393723E+01 -0.60376351491E+03 -0.10511365532E+04  0.12156007396E+04  0.90803151794E+02 0.  0.
          2    1    3    3  502    0  0.14911171502E+03  0.24436994055E+03 -0.13935853269E+03  0.31838934033E+03  0.00000000000E+00 0. -1.
         -2    1    3    3    0  502  0.97351614721E+02  0.33438980733E+03 -0.21950035508E+03  0.41167254707E+03  0.00000000000E+00 0.  1.
         11    1    5    5    0    0 -0.24910956273E+03  0.27140584788E+02 -0.46434549821E+03  0.52764469797E+03  0.00000000000E+00 0. -1.
        -11    1    5    5    0    0  0.72841723624E+01 -0.21368177609E+01 -0.11143215866E+02  0.13483190163E+02  0.00000000000E+00 0.  1.
          5    1    6    6  503    0  0.22283162770E+02 -0.52559747199E+02 -0.76611919661E+02  0.95658468536E+02  0.47000000000E+01 0. -1.
         -5    1    6    6    0  503 -0.26921102142E+02 -0.55120376771E+03 -0.97452463352E+03  0.11199422711E+04  0.47000000000E+01 0.  1.
<mgrwt>
<rscale>  0 0.75094026E+03</rscale>
<asrwt>0</asrwt>
<pdfrwt beam="1">  1        2 0.33632882E+00 0.75094026E+03</pdfrwt>
<pdfrwt beam="2">  1       -2 0.46254336E-01 0.75094026E+03</pdfrwt>
<totfact> 0.24167948E+01</totfact>
</mgrwt>
</event>
<event>
12    1  0.3127365E-008  0.1049379E+04  0.7818608E-02  0.9255985E-01
         -1   -1    0    0    0  501 -0.00000000000E+00  0.00000000000E+00  0.71512329792E+03  0.71512329792E+03  0.00000000000E+00 0.  1.
          1   -1    0    0  501    0  0.00000000000E+00 -0.00000000000E+00 -0.17101992240E+04  0.17101992240E+04  0.00000000000E+00 0. -1.
         23    2    1    2    0    0  0.35649000481E+02  0.10182347512E+04 -0.37224476855E+03  0.10889073769E+04  0.95290335740E+02 0.  0.
    5000000    2    1    2    0    0 -0.35649000481E+02 -0.10182347512E+04 -0.62283115754E+03  0.13364151450E+04  0.60001160764E+03 0.  0.
         23    2    4    4    0    0  0.13569659351E+03 -0.38864989663E+03 -0.51967785637E+03  0.66923922783E+03  0.91398917018E+02 0.  0.
         23    2    4    4    0    0 -0.17134559399E+03 -0.62958485454E+03 -0.10315330117E+03  0.66717591718E+03  0.93523789914E+02 0.  0.
          4    1    3    3  502    0  0.49369226260E+02  0.39423623293E+03 -0.17676476556E+03  0.43486240376E+03  0.00000000000E+00 0. -1.
         -4    1    3    3    0  502 -0.13720225779E+02  0.62399851823E+03 -0.19548000299E+03  0.65404497316E+03  0.00000000000E+00 0.  1.
         13    1    5    5    0    0  0.53510525307E+02 -0.63698092733E+02 -0.13931598290E+03  0.16226449527E+03  0.00000000000E+00 0. -1.
        -13    1    5    5    0    0  0.82186068202E+02 -0.32495180390E+03 -0.38036187347E+03  0.50697473256E+03  0.00000000000E+00 0.  1.
          5    1    6    6  503    0 -0.17050561085E+03 -0.48259905124E+03 -0.72700434127E+02  0.51699269890E+03  0.47000000000E+01 0. -1.
         -5    1    6    6    0  503 -0.83998313492E+00 -0.14698580329E+03 -0.30452867046E+02  0.15018321828E+03  0.47000000000E+01 0.  1.
<mgrwt>
<rscale>  0 0.10493795E+04</rscale>
<asrwt>0</asrwt>
<pdfrwt beam="1">  1        1 0.26310757E+00 0.10493795E+04</pdfrwt>
<pdfrwt beam="2">  1       -1 0.11001897E+00 0.10493795E+04</pdfrwt>
<totfact> 0.35823623E+00</totfact>
</mgrwt>
</event>
<event>
12    1  0.3127365E-008  0.7138687E+03  0.7818608E-02  0.9693804E-01
         -2   -1    0    0    0  501 -0.00000000000E+00  0.00000000000E+00  0.15998978499E+04  0.15998978499E+04  0.00000000000E+00 0.  1.
          2   -1    0    0  501    0  0.00000000000E+00 -0.00000000000E+00 -0.39162408276E+03  0.39162408276E+03  0.00000000000E+00 0. -1.
         23    2    1    2    0    0  0.71196554836E+02 -0.66851222454E+03  0.45347244735E+03  0.81609426852E+03  0.91624509985E+02 0.  0.
    5000000    2    1    2    0    0 -0.71196554836E+02  0.66851222454E+03  0.75480131977E+03  0.11754276641E+04  0.59993967821E+03 0.  0.
         23    2    4    4    0    0 -0.15815456937E+03  0.62682278080E+03  0.33530870583E+03  0.73358159171E+03  0.88262999880E+02 0.  0.
         23    2    4    4    0    0  0.86958014533E+02  0.41689443734E+02  0.41949261393E+03  0.44184607241E+03  0.99770699857E+02 0.  0.
          3    1    3    3  502    0  0.74562634284E+02 -0.47921203436E+03  0.36572001403E+03  0.60741656955E+03  0.00000000000E+00 0. -1.
         -3    1    3    3    0  502 -0.33660794475E+01 -0.18930019018E+03  0.87752433318E+02  0.20867769897E+03  0.00000000000E+00 0.  1.
         13    1    5    5    0    0 -0.41105486826E+02  0.34031095808E+03  0.18483921537E+03  0.38944414847E+03  0.00000000000E+00 0.  1.
        -13    1    5    5    0    0 -0.11704908254E+03  0.28651182272E+03  0.15046949046E+03  0.34413744324E+03  0.00000000000E+00 0. -1.
          5    1    6    6  503    0  0.43266195539E+02  0.48257090067E+01  0.34530783393E+03  0.34807304020E+03  0.47000000000E+01 0. -1.
         -5    1    6    6    0  503  0.43691818994E+02  0.36863734727E+02  0.74184780003E+02  0.93773032206E+02  0.47000000000E+01 0.  1.
<mgrwt>
<rscale>  0 0.71386875E+03</rscale>
<asrwt>0</asrwt>
<pdfrwt beam="1">  1        2 0.60249860E-01 0.71386875E+03</pdfrwt>
<pdfrwt beam="2">  1       -2 0.24613813E+00 0.71386875E+03</pdfrwt>
<totfact> 0.57054712E+00</totfact>
</mgrwt>
</event>
<event>
12    1  0.3127365E-008  0.2963413E+03  0.7818608E-02  0.1087084E+00
         -2   -1    0    0    0  501 -0.00000000000E+00  0.00000000000E+00  0.18028572428E+03  0.18028572428E+03  0.00000000000E+00 0.  1.
          2   -1    0    0  501    0  0.00000000000E+00 -0.00000000000E+00 -0.10020789009E+04  0.10020789009E+04  0.00000000000E+00 0. -1.
         23    2    1    2    0    0 -0.19280916078E+03  0.35776099791E+02 -0.25443738593E+03  0.33365374300E+03  0.90172806668E+02 0.  0.
    5000000    2    1    2    0    0  0.19280916078E+03 -0.35776099791E+02 -0.56735579066E+03  0.84871088214E+03  0.59996855457E+03 0.  0.
         23    2    4    4    0    0  0.14944474548E+03 -0.15617963821E+03  0.25134584541E+02  0.23536218660E+03  0.89653779603E+02 0.  0.
         23    2    4    4    0    0  0.43364415300E+02  0.12040353841E+03 -0.59249037520E+03  0.61334869555E+03  0.93671196460E+02 0.  0.
          1    1    3    3  502    0 -0.17182696767E+02  0.36028568347E+02 -0.54131026740E+02  0.67256753276E+02  0.00000000000E+00 0. -1.
         -1    1    3    3    0  502 -0.17562646402E+03 -0.25246855610E+00 -0.20030635919E+03  0.26639698973E+03  0.00000000000E+00 0.  1.
         11    1    5    5    0    0  0.70924725146E+02 -0.39910608389E+02 -0.26916596627E+02  0.85718588841E+02  0.00000000000E+00 0. -1.
        -11    1    5    5    0    0  0.78520020339E+02 -0.11626902982E+03  0.52051181168E+02  0.14964359776E+03  0.00000000000E+00 0.  1.
          5    1    6    6  503    0  0.68315763761E+02  0.64556988747E+02 -0.41560634480E+03  0.42612835180E+03  0.47000000000E+01 0. -1.
         -5    1    6    6    0  503 -0.24951348461E+02  0.55846549668E+02 -0.17688403040E+03  0.18722034374E+03  0.47000000000E+01 0.  1.
<mgrwt>
<rscale>  0 0.29634129E+03</rscale>
<asrwt>0</asrwt>
<pdfrwt beam="1">  1        2 0.15416599E+00 0.29634129E+03</pdfrwt>
<pdfrwt beam="2">  1       -2 0.27736265E-01 0.29634129E+03</pdfrwt>
<totfact> 0.31028907E+02</totfact>
</mgrwt>
</event>
<event>
12    1  0.3127365E-008  0.3090691E+03  0.7818608E-02  0.1080793E+00
         -2   -1    0    0    0  501 -0.00000000000E+00  0.00000000000E+00  0.94165429858E+02  0.94165429858E+02  0.00000000000E+00 0.  1.
          2   -1    0    0  501    0  0.00000000000E+00 -0.00000000000E+00 -0.20815427154E+04  0.20815427154E+04  0.00000000000E+00 0. -1.
         23    2    1    2    0    0  0.15702615662E+02  0.21500405134E+03 -0.72158687098E+03  0.75837916460E+03  0.89319822578E+02 0.  0.
    5000000    2    1    2    0    0 -0.15702615662E+02 -0.21500405134E+03 -0.12657904146E+04  0.14173289807E+04  0.60010228425E+03 0.  0.
         23    2    4    4    0    0 -0.13018608318E+03 -0.15925037942E+02 -0.11176379114E+04  0.11294711404E+04  0.96894442395E+02 0.  0.
         23    2    4    4    0    0  0.11448346751E+03 -0.19907901340E+03 -0.14815250317E+03  0.28785784023E+03  0.90410475489E+02 0.  0.
          1    1    3    3  502    0 -0.32683932777E+02  0.10445244297E+03 -0.40641760437E+03  0.42089644979E+03  0.00000000000E+00 0. -1.
         -1    1    3    3    0  502  0.48386548439E+02  0.11055160837E+03 -0.31516926660E+03  0.33748271481E+03  0.00000000000E+00 0.  1.
         13    1    5    5    0    0 -0.87120238948E+02 -0.51868642594E+02 -0.56803691175E+03  0.57701492635E+03  0.00000000000E+00 0.  1.
        -13    1    5    5    0    0 -0.43065844229E+02  0.35943604653E+02 -0.54960099965E+03  0.55245621407E+03  0.00000000000E+00 0. -1.
          5    1    6    6  503    0  0.56409639068E+02 -0.80511167781E+02 -0.13708364285E+02  0.99368530071E+02  0.47000000000E+01 0. -1.
         -5    1    6    6    0  503  0.58073828446E+02 -0.11856784562E+03 -0.13444413888E+03  0.18848931016E+03  0.47000000000E+01 0.  1.
<mgrwt>
<rscale>  0 0.30906905E+03</rscale>
<asrwt>0</asrwt>
<pdfrwt beam="1">  1        2 0.32023730E+00 0.30906905E+03</pdfrwt>
<pdfrwt beam="2">  1       -2 0.14486991E-01 0.30906905E+03</pdfrwt>
<totfact> 0.24305711E+02</totfact>
</mgrwt>
</event>
<event>
12    1  0.3127365E-008  0.1085173E+04  0.7818608E-02  0.9219765E-01
          1   -1    0    0  501    0  0.00000000000E+00  0.00000000000E+00  0.88137880963E+03  0.88137880963E+03  0.00000000000E+00 0. -1.
         -1   -1    0    0    0  501 -0.00000000000E+00 -0.00000000000E+00 -0.15985275832E+04  0.15985275832E+04  0.00000000000E+00 0.  1.
         23    2    1    2    0    0  0.98482789624E+03 -0.21791198049E+03  0.14603037806E+03  0.10230505099E+04  0.89083433240E+02 0.  0.
    5000000    2    1    2    0    0 -0.98482789624E+03  0.21791198049E+03 -0.86317915168E+03  0.14568558830E+04  0.59998266590E+03 0.  0.
         23    2    4    4    0    0 -0.97927360928E+03  0.64987032987E+02 -0.79433758615E+03  0.12658600074E+04  0.90715165926E+02 0.  0.
         23    2    4    4    0    0 -0.55542869590E+01  0.15292494750E+03 -0.68841565523E+02  0.19099587554E+03  0.91232525214E+02 0.  0.
          4    1    3    3  502    0  0.52456313934E+03 -0.12211257957E+03  0.33430881379E+02  0.53962541922E+03  0.00000000000E+00 0. -1.
         -4    1    3    3    0  502  0.46026475691E+03 -0.95799400915E+02  0.11259949669E+03  0.48342509070E+03  0.00000000000E+00 0.  1.
         13    1    5    5    0    0 -0.37407508867E+03  0.55859398041E+02 -0.26548908875E+03  0.46210053079E+03  0.00000000000E+00 0.  1.
        -13    1    5    5    0    0 -0.60519852061E+03  0.91276349453E+01 -0.52884849741E+03  0.80375947663E+03  0.00000000000E+00 0. -1.
          5    1    6    6  503    0  0.42516313737E+02  0.64814310357E+02 -0.28583214918E+02  0.82750359129E+02  0.47000000000E+01 0. -1.
         -5    1    6    6    0  503 -0.48070600696E+02  0.88110637142E+02 -0.40258350605E+02  0.10824551641E+03  0.47000000000E+01 0.  1.
<mgrwt>
<rscale>  0 0.10851728E+04</rscale>
<asrwt>0</asrwt>
<pdfrwt beam="1">  1        1 0.13559674E+00 0.10851728E+04</pdfrwt>
<pdfrwt beam="2">  1       -1 0.24592732E+00 0.10851728E+04</pdfrwt>
<totfact> 0.13925497E+00</totfact>
</mgrwt>
</event>
<event>
12    1  0.3127365E-008  0.7195505E+03  0.7818608E-02  0.9684370E-01
          1   -1    0    0  501    0  0.00000000000E+00  0.00000000000E+00  0.66093308690E+03  0.66093308690E+03  0.00000000000E+00 0. -1.
         -1   -1    0    0    0  501 -0.00000000000E+00 -0.00000000000E+00 -0.92353197606E+03  0.92353197606E+03  0.00000000000E+00 0.  1.
         23    2    1    2    0    0  0.56698442458E+03  0.30116936687E+03  0.53723507134E+02  0.65052773341E+03  0.90143171949E+02 0.  0.
    5000000    2    1    2    0    0 -0.56698442458E+03 -0.30116936687E+03 -0.31632239629E+03  0.93393732955E+03  0.60000395989E+03 0.  0.
         23    2    4    4    0    0 -0.24321956880E+03 -0.38225466657E+03 -0.35975959931E+03  0.58605096274E+03  0.93564805707E+02 0.  0.
         23    2    4    4    0    0 -0.32376485579E+03  0.81085299697E+02  0.43437203023E+02  0.34788636682E+03  0.87975143883E+02 0.  0.
          1    1    3    3  502    0  0.45851994502E+03  0.24311485617E+03  0.78917032035E+02  0.52495073218E+03  0.00000000000E+00 0. -1.
         -1    1    3    3    0  502  0.10846447957E+03  0.58054510702E+02 -0.25193524901E+02  0.12557700123E+03  0.00000000000E+00 0.  1.
         13    1    5    5    0    0 -0.17146100957E+03 -0.33577547326E+03 -0.29830105247E+03  0.48075728195E+03  0.00000000000E+00 0.  1.
        -13    1    5    5    0    0 -0.71758559231E+02 -0.46479193314E+02 -0.61458546846E+02  0.10529368079E+03  0.00000000000E+00 0. -1.
          5    1    6    6  503    0 -0.13199555122E+03  0.43855752785E+02 -0.23892249495E+02  0.14120581497E+03  0.47000000000E+01 0. -1.
         -5    1    6    6    0  503 -0.19176930456E+03  0.37229546912E+02  0.67329452518E+02  0.20668055185E+03  0.47000000000E+01 0.  1.
<mgrwt>
<rscale>  0 0.71955053E+03</rscale>
<asrwt>0</asrwt>
<pdfrwt beam="1">  1        1 0.10168201E+00 0.71955053E+03</pdfrwt>
<pdfrwt beam="2">  1       -1 0.14208184E+00 0.71955053E+03</pdfrwt>
<totfact> 0.12377855E+01</totfact>
</mgrwt>
</event>
<event>
12    1  0.3127365E-008  0.7585244E+03  0.7818608E-02  0.9622071E-01
          1   -1    0    0  501    0  0.00000000000E+00  0.00000000000E+00  0.10464843614E+04  0.10464843614E+04  0.00000000000E+00 0.  1.
         -1   -1    0    0    0  501 -0.00000000000E+00 -0.00000000000E+00 -0.62445074417E+03  0.62445074417E+03  0.00000000000E+00 0. -1.
         23    2    1    2    0    0 -0.29576077200E+02 -0.68309949715E+03  0.30210328201E+03  0.75340519427E+03  0.94092116561E+02 0.  0.
    5000000    2    1    2    0    0  0.29576077200E+02  0.68309949715E+03  0.11993033521E+03  0.91752991128E+03  0.59998182093E+03 0.  0.
         23    2    4    4    0    0  0.23973092341E+03  0.27449177450E+03  0.22453658419E+03  0.43766916874E+03  0.91219371369E+02 0.  0.
         23    2    4    4    0    0 -0.21015484621E+03  0.40860772264E+03 -0.10460624898E+03  0.47986074255E+03  0.90545759279E+02 0.  0.
          4    1    3    3  502    0  0.22460118811E+02 -0.19234385440E+03  0.53977529271E+02  0.20103280561E+03  0.00000000000E+00 0. -1.
         -4    1    3    3    0  502 -0.52036196011E+02 -0.49075564275E+03  0.24812575274E+03  0.55237238866E+03  0.00000000000E+00 0.  1.
         11    1    5    5    0    0  0.12520948123E+03  0.15350609523E+03  0.17378135956E+03  0.26351754475E+03  0.00000000000E+00 0.  1.
        -11    1    5    5    0    0  0.11452144218E+03  0.12098567928E+03  0.50755224629E+02  0.17415162398E+03  0.00000000000E+00 0. -1.
          5    1    6    6  503    0 -0.17625692238E+03  0.27028093945E+03 -0.97795962502E+02  0.33720087366E+03  0.47000000000E+01 0.  1.
         -5    1    6    6    0  503 -0.33897923831E+02  0.13832678319E+03 -0.68102864779E+01  0.14265986888E+03  0.47000000000E+01 0. -1.
<mgrwt>
<rscale>  0 0.75852437E+03</rscale>
<asrwt>0</asrwt>
<pdfrwt beam="1">  1        1 0.16099759E+00 0.75852437E+03</pdfrwt>
<pdfrwt beam="2">  1       -1 0.96069345E-01 0.75852437E+03</pdfrwt>
<totfact> 0.14973979E+01</totfact>
</mgrwt>
</event>
<event>
12    1  0.3127365E-008  0.1538309E+04  0.7818608E-02  0.8859370E-01
          1   -1    0    0  501    0  0.00000000000E+00  0.00000000000E+00  0.93051181587E+03  0.93051181587E+03  0.00000000000E+00 0. -1.
         -1   -1    0    0    0  501 -0.00000000000E+00 -0.00000000000E+00 -0.27179085771E+04  0.27179085771E+04  0.00000000000E+00 0.  1.
         23    2    1    2    0    0  0.31913785043E+03 -0.14901364826E+04 -0.10461805447E+04  0.18507072372E+04  0.90927670191E+02 0.  0.
    5000000    2    1    2    0    0 -0.31913785043E+03  0.14901364826E+04 -0.74121621651E+03  0.17977131558E+04  0.60001283850E+03 0.  0.
         23    2    4    4    0    0  0.11112520385E+02  0.40244387427E+03 -0.46986025435E+03  0.62553622510E+03  0.91882262985E+02 0.  0.
         23    2    4    4    0    0 -0.33025037082E+03  0.10876926084E+04 -0.27135596216E+03  0.11721769307E+04  0.90687269674E+02 0.  0.
          1    1    3    3  502    0  0.13904821002E+03 -0.54229782654E+03 -0.33884013894E+03  0.65439588716E+03  0.00000000000E+00 0. -1.
         -1    1    3    3    0  502  0.18008964041E+03 -0.94783865608E+03 -0.70734040575E+03  0.11963113500E+04  0.00000000000E+00 0.  1.
         13    1    5    5    0    0  0.47929965440E+02  0.28468125168E+03 -0.31009970381E+03  0.42367738074E+03  0.00000000000E+00 0. -1.
        -13    1    5    5    0    0 -0.36817445055E+02  0.11776262259E+03 -0.15976055054E+03  0.20185884436E+03  0.00000000000E+00 0.  1.
          5    1    6    6  503    0 -0.10434924403E+03  0.48821800921E+03 -0.13474709751E+03  0.51713098876E+03  0.47000000000E+01 0. -1.
         -5    1    6    6    0  503 -0.22590112679E+03  0.59947459915E+03 -0.13660886466E+03  0.65504594191E+03  0.47000000000E+01 0.  1.
<mgrwt>
<rscale>  0 0.15383088E+04</rscale>
<asrwt>0</asrwt>
<pdfrwt beam="1">  1        1 0.14315566E+00 0.15383088E+04</pdfrwt>
<pdfrwt beam="2">  1       -1 0.41813979E+00 0.15383088E+04</pdfrwt>
<totfact> 0.87608843E-02</totfact>
</mgrwt>
</event>
<event>
12    1  0.3127365E-008  0.7285590E+03  0.7818608E-02  0.9669602E-01
          2   -1    0    0  501    0  0.00000000000E+00  0.00000000000E+00  0.72361590787E+03  0.72361590787E+03  0.00000000000E+00 0. -1.
         -2   -1    0    0    0  501 -0.00000000000E+00 -0.00000000000E+00 -0.97175550750E+03  0.97175550750E+03  0.00000000000E+00 0.  1.
         23    2    1    2    0    0  0.65865854183E+03 -0.87451146361E+01  0.20399146829E+03  0.69615825744E+03  0.95479047533E+02 0.  0.
    5000000    2    1    2    0    0 -0.65865854183E+03  0.87451146361E+01 -0.45213106792E+03  0.99921315792E+03  0.60008072843E+03 0.  0.
         23    2    4    4    0    0 -0.26574862161E+02 -0.12287718325E+03  0.61745748090E+02  0.16892404286E+03  0.94433941928E+02 0.  0.
         23    2    4    4    0    0 -0.63208367967E+03  0.13162229788E+03 -0.51387681601E+03  0.83028911506E+03  0.91958823174E+02 0.  0.
          1    1    3    3  502    0  0.25709105874E+03  0.16758908566E+02  0.12393056686E+03  0.28589413933E+03  0.00000000000E+00 0. -1.
         -1    1    3    3    0  502  0.40156748309E+03 -0.25504023202E+02  0.80060901423E+02  0.41026411811E+03  0.00000000000E+00 0.  1.
         13    1    5    5    0    0 -0.51322350957E+02 -0.57238171929E+02  0.62017438696E+02  0.98774261506E+02  0.00000000000E+00 0. -1.
        -13    1    5    5    0    0  0.24747488797E+02 -0.65639011318E+02 -0.27169060633E+00  0.70149781356E+02  0.00000000000E+00 0.  1.
          5    1    6    6  503    0 -0.11001149977E+03 -0.55941212139E+01 -0.11316761773E+03  0.15799627836E+03  0.47000000000E+01 0. -1.
         -5    1    6    6    0  503 -0.52207217990E+03  0.13721641910E+03 -0.40070919827E+03  0.67229283670E+03  0.47000000000E+01 0.  1.
<mgrwt>
<rscale>  0 0.72855901E+03</rscale>
<asrwt>0</asrwt>
<pdfrwt beam="1">  1        2 0.11132552E+00 0.72855901E+03</pdfrwt>
<pdfrwt beam="2">  1       -2 0.14950085E+00 0.72855901E+03</pdfrwt>
<totfact> 0.12082904E+01</totfact>
</mgrwt>
</event>
<event>
12    1  0.3127365E-008  0.4855920E+03  0.7818608E-02  0.1017610E+00
          2   -1    0    0  501    0  0.00000000000E+00  0.00000000000E+00  0.95569932738E+03  0.95569932738E+03  0.00000000000E+00 0. -1.
         -2   -1    0    0    0  501 -0.00000000000E+00 -0.00000000000E+00 -0.48258735288E+03  0.48258735288E+03  0.00000000000E+00 0.  1.
         23    2    1    2    0    0 -0.21604756155E+03  0.20394459784E+03  0.67139814880E+03  0.73978931803E+03  0.90789938974E+02 0.  0.
    5000000    2    1    2    0    0  0.21604756155E+03 -0.20394459784E+03 -0.19828617429E+03  0.69849736224E+03  0.60025928589E+03 0.  0.
         23    2    4    4    0    0 -0.19442734732E+03 -0.62140255947E+02 -0.63391295103E+02  0.23416067491E+03  0.95652290020E+02 0.  0.
         23    2    4    4    0    0  0.41047490887E+03 -0.14180434189E+03 -0.13489487919E+03  0.46433668732E+03  0.93881886284E+02 0.  0.
          1    1    3    3  502    0 -0.36094343551E+02  0.81572048637E+02  0.14582427885E+03  0.17094303454E+03  0.00000000000E+00 0. -1.
         -1    1    3    3    0  502 -0.17995321800E+03  0.12237254920E+03  0.52557386995E+03  0.56884628349E+03  0.00000000000E+00 0.  1.
         13    1    5    5    0    0 -0.13951229422E+03 -0.26647357792E+01 -0.16241401637E+02  0.14047976432E+03  0.00000000000E+00 0. -1.
        -13    1    5    5    0    0 -0.54915053097E+02 -0.59475520168E+02 -0.47149893466E+02  0.93680910594E+02  0.00000000000E+00 0.  1.
          5    1    6    6  503    0  0.23370577838E+03 -0.32532899092E+02 -0.61461735638E+02  0.24387786968E+03  0.47000000000E+01 0. -1.
         -5    1    6    6    0  503  0.17676913049E+03 -0.10927144280E+03 -0.73433143553E+02  0.22045881764E+03  0.47000000000E+01 0.  1.
<mgrwt>
<rscale>  0 0.48559203E+03</rscale>
<asrwt>0</asrwt>
<pdfrwt beam="1">  1        2 0.14703067E+00 0.48559203E+03</pdfrwt>
<pdfrwt beam="2">  1       -2 0.74244208E-01 0.48559203E+03</pdfrwt>
<totfact> 0.45912894E+01</totfact>
</mgrwt>
</event>
<event>
12    1  0.3127365E-008  0.6957276E+03  0.7818608E-02  0.9724567E-01
          1   -1    0    0  501    0  0.00000000000E+00  0.00000000000E+00  0.12239396501E+04  0.12239396501E+04  0.00000000000E+00 0. -1.
         -1   -1    0    0    0  501 -0.00000000000E+00 -0.00000000000E+00 -0.46511236662E+03  0.46511236662E+03  0.00000000000E+00 0.  1.
         23    2    1    2    0    0 -0.17910705527E+03 -0.54598570948E+03  0.28059223641E+02  0.58262313951E+03  0.92101413976E+02 0.  0.
    5000000    2    1    2    0    0  0.17910705527E+03  0.54598570948E+03  0.73076805980E+03  0.11064288772E+04  0.59998597551E+03 0.  0.
         23    2    4    4    0    0  0.33098398418E+03  0.11085187204E+03  0.31149638245E+03  0.47664341631E+03  0.91216307307E+02 0.  0.
         23    2    4    4    0    0 -0.15187692891E+03  0.43513383744E+03  0.41927167735E+03  0.62978546086E+03  0.91830982001E+02 0.  0.
          2    1    3    3  502    0 -0.11839556862E+03 -0.43978849120E+03  0.50561427019E+02  0.45824435137E+03  0.00000000000E+00 0.  1.
         -2    1    3    3    0  502 -0.60711486656E+02 -0.10619721828E+03 -0.22502203377E+02  0.12437878814E+03  0.00000000000E+00 0. -1.
         13    1    5    5    0    0  0.31157247175E+03  0.10015840663E+03  0.31495990513E+03  0.45421234397E+03  0.00000000000E+00 0.  1.
        -13    1    5    5    0    0  0.19411512427E+02  0.10693465406E+02 -0.34635226848E+01  0.22431072344E+02  0.00000000000E+00 0. -1.
          5    1    6    6  503    0 -0.13093528186E+03  0.29923003065E+03  0.24822292654E+03  0.41026743782E+03  0.47000000000E+01 0. -1.
         -5    1    6    6    0  503 -0.20941647049E+02  0.13590380679E+03  0.17104875082E+03  0.21951802304E+03  0.47000000000E+01 0.  1.
<mgrwt>
<rscale>  0 0.69572756E+03</rscale>
<asrwt>0</asrwt>
<pdfrwt beam="1">  1        1 0.18829841E+00 0.69572756E+03</pdfrwt>
<pdfrwt beam="2">  1       -1 0.71555749E-01 0.69572756E+03</pdfrwt>
<totfact> 0.21016680E+01</totfact>
</mgrwt>
</event>
<event>
12    1  0.3127365E-008  0.1341772E+04  0.7818608E-02  0.8997080E-01
         -1   -1    0    0    0  501 -0.00000000000E+00  0.00000000000E+00  0.18805625006E+04  0.18805625006E+04  0.00000000000E+00 0.  1.
          1   -1    0    0  501    0  0.00000000000E+00 -0.00000000000E+00 -0.10134707173E+04  0.10134707173E+04  0.00000000000E+00 0. -1.
         23    2    1    2    0    0  0.10268017793E+04  0.81503571459E+03  0.32582906594E+03  0.13540218502E+04  0.92765729539E+02 0.  0.
    5000000    2    1    2    0    0 -0.10268017793E+04 -0.81503571459E+03  0.54126271732E+03  0.15400113678E+04  0.60005380902E+03 0.  0.
         23    2    4    4    0    0 -0.80885922995E+02  0.61965576267E+01  0.20776719583E+03  0.24052784878E+03  0.90030597632E+02 0.  0.
         23    2    4    4    0    0 -0.94591585627E+03 -0.82123227222E+03  0.33349552149E+03  0.12994835190E+04  0.90878496821E+02 0.  0.
          2    1    3    3  502    0  0.22296986520E+03  0.16529785982E+03  0.31485338435E+02  0.27933898722E+03  0.00000000000E+00 0.  1.
         -2    1    3    3    0  502  0.80383191406E+03  0.64973785478E+03  0.29434372750E+03  0.10746828629E+04  0.00000000000E+00 0. -1.
         13    1    5    5    0    0 -0.83020167727E+02  0.35190569971E+02  0.13688585441E+03  0.16391601997E+03  0.00000000000E+00 0. -1.
        -13    1    5    5    0    0  0.21342447319E+01 -0.28994012345E+02  0.70881341418E+02  0.76611828810E+02  0.00000000000E+00 0.  1.
          5    1    6    6  503    0 -0.47343200190E+03 -0.43324908320E+03  0.12736768862E+03  0.65428376613E+03  0.47000000000E+01 0. -1.
         -5    1    6    6    0  503 -0.47248385436E+03 -0.38798318902E+03  0.20612783287E+03  0.64519975285E+03  0.47000000000E+01 0.  1.
<mgrwt>
<rscale>  0 0.13417721E+04</rscale>
<asrwt>0</asrwt>
<pdfrwt beam="1">  1        1 0.15591857E+00 0.13417721E+04</pdfrwt>
<pdfrwt beam="2">  1       -1 0.28931731E+00 0.13417721E+04</pdfrwt>
<totfact> 0.55354853E-01</totfact>
</mgrwt>
</event>
<event>
12    1  0.3127365E-008  0.5068805E+03  0.7818608E-02  0.1011998E+00
          2   -1    0    0  501    0  0.00000000000E+00  0.00000000000E+00  0.14123961231E+04  0.14123961231E+04  0.00000000000E+00 0. -1.
         -2   -1    0    0    0  501 -0.00000000000E+00 -0.00000000000E+00 -0.28663595448E+03  0.28663595448E+03  0.00000000000E+00 0.  1.
         23    2    1    2    0    0 -0.22309015869E+03  0.36995258519E+03  0.13387483291E+03  0.46179562986E+03  0.93266278383E+02 0.  0.
    5000000    2    1    2    0    0  0.22309015869E+03 -0.36995258519E+03  0.99188533575E+03  0.12372364478E+04  0.60023609871E+03 0.  0.
         23    2    4    4    0    0  0.29115227550E+03 -0.14019653241E+03  0.17142922768E+03  0.37683539451E+03  0.90510879041E+02 0.  0.
         23    2    4    4    0    0 -0.68062116814E+02 -0.22975605278E+03  0.82045610807E+03  0.86040105325E+03  0.98597422013E+02 0.  0.
          2    1    3    3  502    0 -0.15410044566E+03  0.27330257853E+03  0.53188210174E+02  0.31822984223E+03  0.00000000000E+00 0. -1.
         -2    1    3    3    0  502 -0.68989713024E+02  0.96650006655E+02  0.80686622731E+02  0.14356578763E+03  0.00000000000E+00 0.  1.
         11    1    5    5    0    0  0.22176015803E+03 -0.11713650903E+03  0.17129616667E+03  0.30371188016E+03  0.00000000000E+00 0. -1.
        -11    1    5    5    0    0  0.69392117475E+02 -0.23060023380E+02  0.13306101353E+00  0.73123514353E+02  0.00000000000E+00 0.  1.
          5    1    6    6  503    0 -0.17884659413E+02 -0.19557284836E+03  0.66620623697E+03  0.69456564862E+03  0.47000000000E+01 0. -1.
         -5    1    6    6    0  503 -0.50177457400E+02 -0.34183204418E+02  0.15424987109E+03  0.16583540463E+03  0.47000000000E+01 0.  1.
<mgrwt>
<rscale>  0 0.50688045E+03</rscale>
<asrwt>0</asrwt>
<pdfrwt beam="1">  1        2 0.21729171E+00 0.50688045E+03</pdfrwt>
<pdfrwt beam="2">  1       -2 0.44097840E-01 0.50688045E+03</pdfrwt>
<totfact> 0.72744210E+01</totfact>
</mgrwt>
</event>
<event>
12    1  0.3127365E-008  0.3976762E+03  0.7818608E-02  0.1044587E+00
          1   -1    0    0  501    0  0.00000000000E+00  0.00000000000E+00  0.12203672137E+04  0.12203672137E+04  0.00000000000E+00 0. -1.
         -1   -1    0    0    0  501 -0.00000000000E+00 -0.00000000000E+00 -0.16141528007E+03  0.16141528007E+03  0.00000000000E+00 0.  1.
         23    2    1    2    0    0  0.17923348654E+03  0.12456518252E+03  0.39151071451E+03  0.45819773002E+03  0.94991540781E+02 0.  0.
    5000000    2    1    2    0    0 -0.17923348654E+03 -0.12456518252E+03  0.66744121909E+03  0.92358476372E+03  0.59990824918E+03 0.  0.
         23    2    4    4    0    0 -0.27639692776E+03 -0.25894345826E+03  0.61271974006E+03  0.72630391917E+03  0.92978099001E+02 0.  0.
         23    2    4    4    0    0  0.97163441214E+02  0.13437827574E+03  0.54721479030E+02  0.19728084455E+03  0.91798889205E+02 0.  0.
          4    1    3    3  502    0  0.10015116554E+03  0.27458935810E+02  0.11681213393E+03  0.15629882836E+03  0.00000000000E+00 0. -1.
         -4    1    3    3    0  502  0.79082321006E+02  0.97106246714E+02  0.27469858059E+03  0.30189890166E+03  0.00000000000E+00 0.  1.
         13    1    5    5    0    0 -0.21313836083E+03 -0.20512010351E+03  0.54089451517E+03  0.61649744060E+03  0.00000000000E+00 0. -1.
        -13    1    5    5    0    0 -0.63258566926E+02 -0.53823354753E+02  0.71825224891E+02  0.10980647857E+03  0.00000000000E+00 0.  1.
          5    1    6    6  503    0  0.86669696030E+02  0.45905984622E+02  0.13896698546E+02  0.99167554495E+02  0.47000000000E+01 0. -1.
         -5    1    6    6    0  503  0.10493745184E+02  0.88472291116E+02  0.40824780484E+02  0.98113290052E+02  0.47000000000E+01 0.  1.
<mgrwt>
<rscale>  0 0.39767624E+03</rscale>
<asrwt>0</asrwt>
<pdfrwt beam="1">  1        1 0.18774880E+00 0.39767624E+03</pdfrwt>
<pdfrwt beam="2">  1       -1 0.24833121E-01 0.39767624E+03</pdfrwt>
<totfact> 0.15421757E+02</totfact>
</mgrwt>
</event>
<event>
12    1  0.3127365E-008  0.1512913E+04  0.7818608E-02  0.8875911E-01
          2   -1    0    0  501    0  0.00000000000E+00  0.00000000000E+00  0.36014168614E+04  0.36014168614E+04  0.00000000000E+00 0. -1.
         -2   -1    0    0    0  501 -0.00000000000E+00 -0.00000000000E+00 -0.65429945493E+03  0.65429945493E+03  0.00000000000E+00 0.  1.
         23    2    1    2    0    0  0.10177463578E+04 -0.10545141577E+04  0.16490303632E+04  0.22080632314E+04  0.91838648721E+02 0.  0.
    5000000    2    1    2    0    0 -0.10177463578E+04  0.10545141577E+04  0.12980870432E+04  0.20476530849E+04  0.60003785445E+03 0.  0.
         23    2    4    4    0    0 -0.39836773004E+02  0.35541610929E+03  0.39714911673E+03  0.54243187533E+03  0.92721837965E+02 0.  0.
         23    2    4    4    0    0 -0.97790958476E+03  0.69909804846E+03  0.90093792652E+03  0.15052212096E+04  0.94638813759E+02 0.  0.
          2    1    3    3  502    0  0.76765860323E+03 -0.77654987477E+03  0.12839064805E+04  0.16854510642E+04  0.00000000000E+00 0.  1.
         -2    1    3    3    0  502  0.25008775454E+03 -0.27796428297E+03  0.36512388273E+03  0.52261216721E+03  0.00000000000E+00 0. -1.
         11    1    5    5    0    0 -0.10162516061E+02  0.13434401834E+03  0.86900618164E+02  0.16032251693E+03  0.00000000000E+00 0.  1.
        -11    1    5    5    0    0 -0.29674256943E+02  0.22107209095E+03  0.31024849856E+03  0.38210935841E+03  0.00000000000E+00 0. -1.
          5    1    6    6  503    0 -0.87250629995E+03  0.62313837773E+03  0.83777458041E+03  0.13606825562E+04  0.47000000000E+01 0. -1.
         -5    1    6    6    0  503 -0.10540328481E+03  0.75959670732E+02  0.63163346104E+02  0.14453865337E+03  0.47000000000E+01 0.  1.
<mgrwt>
<rscale>  0 0.15129134E+04</rscale>
<asrwt>0</asrwt>
<pdfrwt beam="1">  1        2 0.55406412E+00 0.15129134E+04</pdfrwt>
<pdfrwt beam="2">  1       -2 0.10066146E+00 0.15129134E+04</pdfrwt>
<totfact> 0.53865960E-01</totfact>
</mgrwt>
</event>
<event>
12    1  0.3127365E-008  0.1044355E+04  0.7818608E-02  0.9261192E-01
         -2   -1    0    0    0  501 -0.00000000000E+00  0.00000000000E+00  0.43632930961E+03  0.43632930961E+03  0.00000000000E+00 0.  1.
          2   -1    0    0  501    0  0.00000000000E+00 -0.00000000000E+00 -0.30282576873E+04  0.30282576873E+04  0.00000000000E+00 0. -1.
         23    2    1    2    0    0 -0.38358022345E+03  0.91127148282E+03 -0.18224406440E+04  0.20754619531E+04  0.93289415231E+02 0.  0.
    5000000    2    1    2    0    0  0.38358022345E+03 -0.91127148282E+03 -0.76948773370E+03  0.13891250437E+04  0.60000625961E+03 0.  0.
         23    2    4    4    0    0  0.16207948156E+03 -0.82633627873E+03 -0.75587027294E+03  0.11352578937E+04  0.91483396080E+02 0.  0.
         23    2    4    4    0    0  0.22150074188E+03 -0.84935204093E+02 -0.13617460769E+02  0.25386715005E+03  0.89367371499E+02 0.  0.
          1    1    3    3  502    0 -0.13238416382E+03  0.26460122366E+03 -0.62704125183E+03  0.69333981993E+03  0.00000000000E+00 0. -1.
         -1    1    3    3    0  502 -0.25119605962E+03  0.64667025915E+03 -0.11953993921E+04  0.13821221332E+04  0.00000000000E+00 0.  1.
         13    1    5    5    0    0  0.12984866380E+03 -0.42816966096E+03 -0.40968668916E+03  0.60665733106E+03  0.00000000000E+00 0.  1.
        -13    1    5    5    0    0  0.32230817762E+02 -0.39816661777E+03 -0.34618358378E+03  0.52860056262E+03  0.00000000000E+00 0. -1.
          5    1    6    6  503    0  0.73499468975E+02  0.12832775421E+02  0.76829998651E+01  0.75152980989E+02  0.47000000000E+01 0. -1.
         -5    1    6    6    0  503  0.14800127291E+03 -0.97767979514E+02 -0.21300460634E+02  0.17871416906E+03  0.47000000000E+01 0.  1.
<mgrwt>
<rscale>  0 0.10443549E+04</rscale>
<asrwt>0</asrwt>
<pdfrwt beam="1">  1        2 0.46588580E+00 0.10443549E+04</pdfrwt>
<pdfrwt beam="2">  1       -2 0.67127586E-01 0.10443549E+04</pdfrwt>
<totfact> 0.34593019E+00</totfact>
</mgrwt>
</event>
<event>
12    1  0.3127365E-008  0.6414070E+03  0.7818608E-02  0.9823038E-01
         -2   -1    0    0    0  501 -0.00000000000E+00  0.00000000000E+00  0.52449499073E+03  0.52449499073E+03  0.00000000000E+00 0.  1.
          2   -1    0    0  501    0  0.00000000000E+00 -0.00000000000E+00 -0.10401527854E+04  0.10401527854E+04  0.00000000000E+00 0. -1.
         23    2    1    2    0    0  0.12740260567E+03  0.57458513130E+03 -0.35281579712E+02  0.59648799144E+03  0.90408168978E+02 0.  0.
    5000000    2    1    2    0    0 -0.12740260567E+03 -0.57458513130E+03 -0.48037621494E+03  0.96815978467E+03  0.60016044833E+03 0.  0.
         23    2    4    4    0    0  0.76367632165E+02  0.39775801784E+01 -0.29747477772E+03  0.32116730515E+03  0.93858180935E+02 0.  0.
         23    2    4    4    0    0 -0.20377023784E+03 -0.57856271148E+03 -0.18290143722E+03  0.64699247953E+03  0.94282617094E+02 0.  0.
          4    1    3    3  502    0  0.26641166517E+02  0.20301250606E+03 -0.51582896433E+02  0.21115071531E+03  0.00000000000E+00 0.  1.
         -4    1    3    3    0  502  0.10076143916E+03  0.37157262524E+03  0.16301316721E+02  0.38533727613E+03  0.00000000000E+00 0. -1.
         11    1    5    5    0    0  0.99311033235E+01  0.72344292774E+01  0.36231100692E+01  0.12809789489E+02  0.00000000000E+00 0.  1.
        -11    1    5    5    0    0  0.66436528842E+02 -0.32568490990E+01 -0.30109788779E+03  0.30835751566E+03  0.00000000000E+00 0. -1.
          5    1    6    6  503    0 -0.12060517828E+03 -0.29543643383E+03 -0.14102697516E+03  0.34891115371E+03  0.47000000000E+01 0. -1.
         -5    1    6    6    0  503 -0.83165059557E+02 -0.28312627765E+03 -0.41874462055E+02  0.29808132581E+03  0.47000000000E+01 0.  1.
<mgrwt>
<rscale>  0 0.64140697E+03</rscale>
<asrwt>0</asrwt>
<pdfrwt beam="1">  1        2 0.16002350E+00 0.64140697E+03</pdfrwt>
<pdfrwt beam="2">  1       -2 0.80691538E-01 0.64140697E+03</pdfrwt>
<totfact> 0.33097797E+01</totfact>
</mgrwt>
</event>
<event>
12    1  0.3127365E-008  0.9691014E+03  0.7818608E-02  0.9343098E-01
         -1   -1    0    0    0  501 -0.00000000000E+00  0.00000000000E+00  0.89143382820E+03  0.89143382820E+03  0.00000000000E+00 0.  1.
          1   -1    0    0  501    0  0.00000000000E+00 -0.00000000000E+00 -0.11637580035E+04  0.11637580035E+04  0.00000000000E+00 0. -1.
         23    2    1    2    0    0 -0.90582946827E+03  0.93265413605E+02 -0.30463315567E+03  0.96420550654E+03  0.87552477679E+02 0.  0.
    5000000    2    1    2    0    0  0.90582946827E+03 -0.93265413605E+02  0.32308980319E+02  0.10909863252E+04  0.59998485697E+03 0.  0.
         23    2    4    4    0    0  0.93044923617E+03 -0.59738144234E+02  0.13594592390E+03  0.94688818110E+03  0.93869624048E+02 0.  0.
         23    2    4    4    0    0 -0.24619767896E+02 -0.33527269371E+02 -0.10363694358E+03  0.14409814410E+03  0.91068371534E+02 0.  0.
          4    1    3    3  502    0 -0.56141290225E+03  0.99333106488E+02 -0.19999760776E+03  0.60419413765E+03  0.00000000000E+00 0. -1.
         -4    1    3    3    0  502 -0.34441656602E+03 -0.60676928829E+01 -0.10463554791E+03  0.36001136889E+03  0.00000000000E+00 0.  1.
         13    1    5    5    0    0  0.26735006515E+03 -0.43093113116E+02  0.53933871450E+01  0.27085450404E+03  0.00000000000E+00 0.  1.
        -13    1    5    5    0    0  0.66309917102E+03 -0.16645031118E+02  0.13055253676E+03  0.67603367707E+03  0.00000000000E+00 0. -1.
          5    1    6    6  503    0 -0.52564414081E+02 -0.30598418688E+02 -0.36308347114E+02  0.70990611520E+02  0.47000000000E+01 0. -1.
         -5    1    6    6    0  503  0.27944646185E+02 -0.29288506832E+01 -0.67328596470E+02  0.73107532576E+02  0.47000000000E+01 0.  1.
<mgrwt>
<rscale>  0 0.96910144E+03</rscale>
<asrwt>0</asrwt>
<pdfrwt beam="1">  1        1 0.17903969E+00 0.96910144E+03</pdfrwt>
<pdfrwt beam="2">  1       -1 0.13714367E+00 0.96910144E+03</pdfrwt>
<totfact> 0.50599166E+00</totfact>
</mgrwt>
</event>
<event>
12    1  0.3127365E-008  0.5005740E+03  0.7818608E-02  0.1013629E+00
          2   -1    0    0  501    0  0.00000000000E+00  0.00000000000E+00  0.31560482167E+04  0.31560482167E+04  0.00000000000E+00 0. -1.
         -2   -1    0    0    0  501 -0.00000000000E+00 -0.00000000000E+00 -0.18764862088E+03  0.18764862088E+03  0.00000000000E+00 0.  1.
         23    2    1    2    0    0  0.10289174741E+02 -0.48460866447E+03  0.22016357601E+04  0.22561721280E+04  0.90339505654E+02 0.  0.
    5000000    2    1    2    0    0 -0.10289174741E+02  0.48460866447E+03  0.76676383574E+03  0.10875247096E+04  0.59985980808E+03 0.  0.
         23    2    4    4    0    0 -0.69212240350E+02  0.10809549999E+03  0.66423082979E+03  0.68256579781E+03  0.90655952720E+02 0.  0.
         23    2    4    4    0    0  0.58923065609E+02  0.37651316448E+03  0.10253300595E+03  0.40495891177E+03  0.90799847060E+02 0.  0.
          1    1    3    3  502    0 -0.14807548598E+02 -0.27216910132E+03  0.14123473572E+04  0.14384089615E+04  0.00000000000E+00 0. -1.
         -1    1    3    3    0  502  0.25096723339E+02 -0.21243956315E+03  0.78928840294E+03  0.81776316652E+03  0.00000000000E+00 0.  1.
         11    1    5    5    0    0 -0.65728437636E+02  0.80091754075E+02  0.30281125127E+03  0.32004620054E+03  0.00000000000E+00 0.  1.
        -11    1    5    5    0    0 -0.34838027140E+01  0.28003745918E+02  0.36141957852E+03  0.36251959727E+03  0.00000000000E+00 0. -1.
          5    1    6    6  503    0  0.16511308016E+02  0.38749620428E+02 -0.14749393366E+02  0.44875282510E+02  0.47000000000E+01 0. -1.
         -5    1    6    6    0  503  0.42411757593E+02  0.33776354405E+03  0.11728239931E+03  0.36008362926E+03  0.47000000000E+01 0.  1.
<mgrwt>
<rscale>  0 0.50057399E+03</rscale>
<asrwt>0</asrwt>
<pdfrwt beam="1">  1        2 0.48554584E+00 0.50057399E+03</pdfrwt>
<pdfrwt beam="2">  1       -2 0.28869021E-01 0.50057399E+03</pdfrwt>
<totfact> 0.17130472E+01</totfact>
</mgrwt>
</event>
<event>
12    1  0.3127365E-008  0.3570798E+03  0.7818608E-02  0.1059746E+00
          2   -1    0    0  501    0  0.00000000000E+00  0.00000000000E+00  0.22287771929E+04  0.22287771929E+04  0.00000000000E+00 0.  1.
         -2   -1    0    0    0  501 -0.00000000000E+00 -0.00000000000E+00 -0.15194615696E+03  0.15194615696E+03  0.00000000000E+00 0. -1.
         23    2    1    2    0    0 -0.25112378341E+03 -0.15594186177E+03  0.15568683351E+03  0.34648423722E+03  0.91825473965E+02 0.  0.
    5000000    2    1    2    0    0  0.25112378341E+03  0.15594186177E+03  0.19211442024E+04  0.20342391126E+04  0.59996058373E+03 0.  0.
         23    2    4    4    0    0  0.14678747337E+02  0.12603546437E+03  0.74640175588E+02  0.16992523155E+03  0.84870634530E+02 0.  0.
         23    2    4    4    0    0  0.23644503607E+03  0.29906397400E+02  0.18465040268E+04  0.18643138811E+04  0.96376752374E+02 0.  0.
          3    1    3    3  502    0 -0.14824240337E+03 -0.41230652163E+02  0.60312982901E+02  0.16526776074E+03  0.00000000000E+00 0. -1.
         -3    1    3    3    0  502 -0.10288138005E+03 -0.11471120960E+03  0.95373850609E+02  0.18121647648E+03  0.00000000000E+00 0.  1.
         11    1    5    5    0    0 -0.20058282836E+02  0.11413707669E+03  0.58529827132E+02  0.12982814660E+03  0.00000000000E+00 0. -1.
        -11    1    5    5    0    0  0.34737030173E+02  0.11898387679E+02  0.16110348456E+02  0.40097084956E+02  0.00000000000E+00 0.  1.
          5    1    6    6  503    0  0.92138894395E+02 -0.30382988619E+02  0.56431324380E+03  0.57261176113E+03  0.47000000000E+01 0. -1.
         -5    1    6    6    0  503  0.14430614168E+03  0.60289386019E+02  0.12821907830E+04  0.12917021199E+04  0.47000000000E+01 0.  1.
<mgrwt>
<rscale>  0 0.35707983E+03</rscale>
<asrwt>0</asrwt>
<pdfrwt beam="1">  1        2 0.34288877E+00 0.35707983E+03</pdfrwt>
<pdfrwt beam="2">  1       -2 0.23376333E-01 0.35707983E+03</pdfrwt>
<totfact> 0.88588861E+01</totfact>
</mgrwt>
</event>
<event>
12    1  0.3127365E-008  0.7284613E+03  0.7818608E-02  0.9669761E-01
          2   -1    0    0  501    0  0.00000000000E+00  0.00000000000E+00  0.36422554692E+03  0.36422554692E+03  0.00000000000E+00 0.  1.
         -2   -1    0    0    0  501 -0.00000000000E+00 -0.00000000000E+00 -0.18339729744E+04  0.18339729744E+04  0.00000000000E+00 0. -1.
         23    2    1    2    0    0  0.38433934059E+03  0.54034263593E+03 -0.32124859880E+03  0.74262142801E+03  0.92730955942E+02 0.  0.
    5000000    2    1    2    0    0 -0.38433934059E+03 -0.54034263593E+03 -0.11484988286E+04  0.14555770933E+04  0.59997351786E+03 0.  0.
         23    2    4    4    0    0 -0.92361046744E+02 -0.48623458683E+03 -0.39160550880E+03  0.63747031700E+03  0.89771343677E+02 0.  0.
         23    2    4    4    0    0 -0.29197829385E+03 -0.54108049101E+02 -0.75689331983E+03  0.81810677627E+03  0.90731442801E+02 0.  0.
          3    1    3    3  502    0  0.98422847814E+02  0.14867388753E+03 -0.13298994980E+03  0.22243495353E+03  0.00000000000E+00 0. -1.
         -3    1    3    3    0  502  0.28591649278E+03  0.39166874840E+03 -0.18825864901E+03  0.52018647449E+03  0.00000000000E+00 0.  1.
         11    1    5    5    0    0 -0.31129006854E+02 -0.12459638242E+03 -0.55240090082E+02  0.13980250760E+03  0.00000000000E+00 0.  1.
        -11    1    5    5    0    0 -0.61232039891E+02 -0.36163820440E+03 -0.33636541872E+03  0.49766780939E+03  0.00000000000E+00 0. -1.
          5    1    6    6  503    0 -0.17586806840E+03 -0.46806554242E+02 -0.56547613515E+03  0.59405873483E+03  0.47000000000E+01 0. -1.
         -5    1    6    6    0  503 -0.11611022545E+03 -0.73014948589E+01 -0.19141718468E+03  0.22404804143E+03  0.47000000000E+01 0.  1.
<mgrwt>
<rscale>  0 0.72846129E+03</rscale>
<asrwt>0</asrwt>
<pdfrwt beam="1">  1        2 0.56034701E-01 0.72846129E+03</pdfrwt>
<pdfrwt beam="2">  1       -2 0.28214968E+00 0.72846129E+03</pdfrwt>
<totfact> 0.37509200E+00</totfact>
</mgrwt>
</event>
<event>
12    1  0.3127365E-008  0.5478288E+03  0.7818608E-02  0.1001998E+00
          1   -1    0    0  501    0  0.00000000000E+00  0.00000000000E+00  0.72265716740E+03  0.72265716740E+03  0.00000000000E+00 0. -1.
         -1   -1    0    0    0  501 -0.00000000000E+00 -0.00000000000E+00 -0.61868920827E+03  0.61868920827E+03  0.00000000000E+00 0.  1.
         23    2    1    2    0    0  0.39820784336E+03  0.31186768375E+03  0.19641652707E+03  0.55113421130E+03  0.96636059958E+02 0.  0.
    5000000    2    1    2    0    0 -0.39820784336E+03 -0.31186768375E+03 -0.92448567942E+02  0.79021216437E+03  0.60004798835E+03 0.  0.
         23    2    4    4    0    0 -0.80814757182E+02 -0.21523713192E+03 -0.29959559788E+03  0.38823824821E+03  0.90074231416E+02 0.  0.
         23    2    4    4    0    0 -0.31739308617E+03 -0.96630551830E+02  0.20714702994E+03  0.40197391616E+03  0.92721640225E+02 0.  0.
          4    1    3    3  502    0  0.16394995356E+03  0.80783263694E+02  0.41438323534E+02  0.18741039892E+03  0.00000000000E+00 0. -1.
         -4    1    3    3    0  502  0.23425788980E+03  0.23108442006E+03  0.15497820353E+03  0.36372381239E+03  0.00000000000E+00 0.  1.
         11    1    5    5    0    0 -0.49288541976E+02 -0.19667581761E+03 -0.21220573851E+03  0.29349959636E+03  0.00000000000E+00 0. -1.
        -11    1    5    5    0    0 -0.31526215206E+02 -0.18561314309E+02 -0.87389859366E+02  0.94738651849E+02  0.00000000000E+00 0.  1.
          5    1    6    6  503    0 -0.11969345619E+03 -0.84054155456E+02  0.87678529841E+02  0.17059085292E+03  0.47000000000E+01 0. -1.
         -5    1    6    6    0  503 -0.19769962999E+03 -0.12576396374E+02  0.11946850010E+03  0.23138306325E+03  0.47000000000E+01 0.  1.
<mgrwt>
<rscale>  0 0.54782885E+03</rscale>
<asrwt>0</asrwt>
<pdfrwt beam="1">  1        1 0.11117803E+00 0.54782885E+03</pdfrwt>
<pdfrwt beam="2">  1       -1 0.95182955E-01 0.54782885E+03</pdfrwt>
<totfact> 0.29073215E+01</totfact>
</mgrwt>
</event>
<event>
12    1  0.3127365E-008  0.3063129E+03  0.7818608E-02  0.1082127E+00
         -2   -1    0    0    0  501 -0.00000000000E+00  0.00000000000E+00  0.46162841786E+03  0.46162841786E+03  0.00000000000E+00 0.  1.
          2   -1    0    0  501    0  0.00000000000E+00 -0.00000000000E+00 -0.27425599473E+04  0.27425599473E+04  0.00000000000E+00 0. -1.
         23    2    1    2    0    0 -0.10214524821E+03 -0.10060203610E+03 -0.25322916411E+04  0.25380772284E+04  0.93705070569E+02 0.  0.
    5000000    2    1    2    0    0  0.10214524821E+03  0.10060203610E+03  0.25136011168E+03  0.66611113677E+03  0.59997309888E+03 0.  0.
         23    2    4    4    0    0  0.25524206283E+03 -0.81783872668E+01  0.34371791580E+03  0.43749904582E+03  0.89710717259E+02 0.  0.
         23    2    4    4    0    0 -0.15309681462E+03  0.10878042336E+03 -0.92357804125E+02  0.22861209095E+03  0.91987548017E+02 0.  0.
          2    1    3    3  502    0 -0.29369691807E+02 -0.32807584511E+02 -0.15784503618E+04  0.15790644259E+04  0.00000000000E+00 0. -1.
         -2    1    3    3    0  502 -0.72775556407E+02 -0.67794451586E+02 -0.95384127928E+03  0.95901280249E+03  0.00000000000E+00 0.  1.
         11    1    5    5    0    0  0.21509698026E+03 -0.24870415386E+02  0.32415693870E+03  0.38982428014E+03  0.00000000000E+00 0. -1.
        -11    1    5    5    0    0  0.40145082573E+02  0.16692028120E+02  0.19560977106E+02  0.47674765683E+02  0.00000000000E+00 0.  1.
          5    1    6    6  503    0 -0.14853305027E+03  0.60578507079E+02 -0.71036096524E+02  0.17549940043E+03  0.47000000000E+01 0. -1.
         -5    1    6    6    0  503 -0.45637643483E+01  0.48201916285E+02 -0.21321707602E+02  0.53112690514E+02  0.47000000000E+01 0.  1.
<mgrwt>
<rscale>  0 0.30631294E+03</rscale>
<asrwt>0</asrwt>
<pdfrwt beam="1">  1        2 0.42193229E+00 0.30631294E+03</pdfrwt>
<pdfrwt beam="2">  1       -2 0.71019758E-01 0.30631294E+03</pdfrwt>
<totfact> 0.54285082E+00</totfact>
</mgrwt>
</event>
<event>
12    1  0.3127365E-008  0.6704864E+03  0.7818608E-02  0.9769080E-01
         -1   -1    0    0    0  501 -0.00000000000E+00  0.00000000000E+00  0.98246809977E+03  0.98246809977E+03  0.00000000000E+00 0.  1.
          1   -1    0    0  501    0  0.00000000000E+00 -0.00000000000E+00 -0.14477619737E+04  0.14477619737E+04  0.00000000000E+00 0. -1.
         23    2    1    2    0    0 -0.43926531379E+03 -0.46832665167E+03  0.71092483063E+03  0.96196723680E+03  0.87652617230E+02 0.  0.
    5000000    2    1    2    0    0  0.43926531379E+03  0.46832665167E+03 -0.11762187045E+04  0.14682628367E+04  0.60001787307E+03 0.  0.
         23    2    4    4    0    0  0.40697991391E+03  0.38893005033E+03 -0.43684294658E+03  0.71852739901E+03  0.92469609954E+02 0.  0.
         23    2    4    4    0    0  0.32285399876E+02  0.79396601335E+02 -0.73937575797E+03  0.74973543765E+03  0.89891866380E+02 0.  0.
          4    1    3    3  502    0 -0.25157924361E+03 -0.20932103112E+03  0.38509281532E+03  0.50537499571E+03  0.00000000000E+00 0. -1.
         -4    1    3    3    0  502 -0.18768607017E+03 -0.25900562055E+03  0.32583201531E+03  0.45659224108E+03  0.00000000000E+00 0.  1.
         11    1    5    5    0    0  0.25091968705E+03  0.29911030294E+03 -0.29874674417E+03  0.49160683460E+03  0.00000000000E+00 0. -1.
        -11    1    5    5    0    0  0.15606022686E+03  0.89819747395E+02 -0.13809620240E+03  0.22692056440E+03  0.00000000000E+00 0.  1.
          5    1    6    6  503    0 -0.28324108567E+02  0.45372169611E+02 -0.27916657516E+03  0.28428323128E+03  0.47000000000E+01 0. -1.
         -5    1    6    6    0  503  0.60609508442E+02  0.34024431724E+02 -0.46020918281E+03  0.46545220637E+03  0.47000000000E+01 0.  1.
<mgrwt>
<rscale>  0 0.67048638E+03</rscale>
<asrwt>0</asrwt>
<pdfrwt beam="1">  1        1 0.22273261E+00 0.67048638E+03</pdfrwt>
<pdfrwt beam="2">  1       -1 0.15114894E+00 0.67048638E+03</pdfrwt>
<totfact> 0.25801037E+00</totfact>
</mgrwt>
</event>
<event>
12    1  0.3127365E-008  0.8405547E+03  0.7818608E-02  0.9503103E-01
         -1   -1    0    0    0  501 -0.00000000000E+00  0.00000000000E+00  0.74947334850E+03  0.74947334850E+03  0.00000000000E+00 0.  1.
          1   -1    0    0  501    0  0.00000000000E+00 -0.00000000000E+00 -0.97122115234E+03  0.97122115234E+03  0.00000000000E+00 0. -1.
         23    2    1    2    0    0 -0.73190314819E+03  0.91057757764E+02 -0.18395754375E+02  0.74840033425E+03  0.12566193918E+03 0.  0.
    5000000    2    1    2    0    0  0.73190314819E+03 -0.91057757764E+02 -0.20335204946E+03  0.97229416659E+03  0.60002513013E+03 0.  0.
         23    2    4    4    0    0  0.40721164363E+03  0.23834061704E+03 -0.94713471379E+02  0.48922089050E+03  0.87970822462E+02 0.  0.
         23    2    4    4    0    0  0.32469150456E+03 -0.32939837481E+03 -0.10863857808E+03  0.48307327608E+03  0.87347506911E+02 0.  0.
          4    1    3    3  502    0 -0.28454176969E+03  0.60774626403E+02  0.48749993495E+02  0.29501548397E+03  0.00000000000E+00 0. -1.
         -4    1    3    3    0  502 -0.44736137849E+03  0.30283131361E+02 -0.67145747870E+02  0.45338485029E+03  0.00000000000E+00 0.  1.
         13    1    5    5    0    0  0.19635819186E+03  0.10097102197E+03 -0.87382935787E+02  0.23746044777E+03  0.00000000000E+00 0.  1.
        -13    1    5    5    0    0  0.21085345176E+03  0.13736959507E+03 -0.73305355916E+01  0.25176044273E+03  0.00000000000E+00 0. -1.
          5    1    6    6  503    0  0.81790696884E+02 -0.39128543288E+02 -0.35870817431E+02  0.97619498768E+02  0.47000000000E+01 0. -1.
         -5    1    6    6    0  503  0.24290080767E+03 -0.29026983152E+03 -0.72767760649E+02  0.38545377732E+03  0.47000000000E+01 0.  1.
<mgrwt>
<rscale>  0 0.84055468E+03</rscale>
<asrwt>0</asrwt>
<pdfrwt beam="1">  1        1 0.14941864E+00 0.84055468E+03</pdfrwt>
<pdfrwt beam="2">  1       -1 0.11530359E+00 0.84055468E+03</pdfrwt>
<totfact> 0.11090860E+01</totfact>
</mgrwt>
</event>
<event>
12    1  0.3127365E-008  0.8452202E+03  0.7818608E-02  0.9496775E-01
         -2   -1    0    0    0  501 -0.00000000000E+00  0.00000000000E+00  0.85680328456E+03  0.85680328456E+03  0.00000000000E+00 0.  1.
          2   -1    0    0  501    0  0.00000000000E+00 -0.00000000000E+00 -0.21528759618E+04  0.21528759618E+04  0.00000000000E+00 0. -1.
         23    2    1    2    0    0 -0.56206553432E+03 -0.50036045688E+03  0.54375456080E+03  0.93329493497E+03  0.95352826782E+02 0.  0.
    5000000    2    1    2    0    0  0.56206553432E+03  0.50036045688E+03 -0.18398272381E+04  0.20763843114E+04  0.60010773287E+03 0.  0.
         23    2    4    4    0    0  0.72759006234E+01  0.34099680315E+03 -0.93380503870E+03  0.99823874413E+03  0.90316009138E+02 0.  0.
         23    2    4    4    0    0  0.55478963369E+03  0.15936365373E+03 -0.90602219936E+03  0.10781455673E+04  0.91287056559E+02 0.  0.
          1    1    3    3  502    0 -0.18392521787E+03 -0.10773750497E+03  0.14181293809E+03  0.25602102483E+03  0.00000000000E+00 0. -1.
         -1    1    3    3    0  502 -0.37814031645E+03 -0.39262295191E+03  0.40194162271E+03  0.67727391014E+03  0.00000000000E+00 0.  1.
         11    1    5    5    0    0  0.48417041290E+02  0.17093095518E+03 -0.48735522522E+03  0.51872605185E+03  0.00000000000E+00 0.  1.
        -11    1    5    5    0    0 -0.41141140667E+02  0.17006584798E+03 -0.44644981348E+03  0.47951269228E+03  0.00000000000E+00 0. -1.
          5    1    6    6  503    0  0.20795587159E+02  0.15906327134E+02 -0.18269875903E+02  0.32269893921E+02  0.47000000000E+01 0. -1.
         -5    1    6    6    0  503  0.53399404653E+03  0.14345732659E+03 -0.88775232345E+03  0.10458756733E+04  0.47000000000E+01 0.  1.
<mgrwt>
<rscale>  0 0.84522022E+03</rscale>
<asrwt>0</asrwt>
<pdfrwt beam="1">  1        2 0.33121169E+00 0.84522022E+03</pdfrwt>
<pdfrwt beam="2">  1       -2 0.13181589E+00 0.84522022E+03</pdfrwt>
<totfact> 0.23561555E+00</totfact>
</mgrwt>
</event>
<event>
12    1  0.3127365E-008  0.3871041E+03  0.7818608E-02  0.1048339E+00
         -1   -1    0    0    0  501 -0.00000000000E+00  0.00000000000E+00  0.13512858846E+04  0.13512858846E+04  0.00000000000E+00 0.  1.
          1   -1    0    0  501    0  0.00000000000E+00 -0.00000000000E+00 -0.23162610216E+03  0.23162610216E+03  0.00000000000E+00 0. -1.
         23    2    1    2    0    0  0.80009812206E+02 -0.36852164827E+03  0.25007950288E+03  0.46134029519E+03  0.89918490398E+02 0.  0.
    5000000    2    1    2    0    0 -0.80009812206E+02  0.36852164827E+03  0.86958027955E+03  0.11215716916E+04  0.59961939715E+03 0.  0.
         23    2    4    4    0    0 -0.17554922565E+02  0.13128510440E+03 -0.45281642530E+02  0.17002147008E+03  0.96503467272E+02 0.  0.
         23    2    4    4    0    0 -0.62454889641E+02  0.23723654388E+03  0.91486192208E+03  0.95155022148E+03  0.91069734466E+02 0.  0.
          3    1    3    3  502    0  0.24407154605E+02 -0.24241204574E+03  0.11903533608E+03  0.27116179737E+03  0.00000000000E+00 0. -1.
         -3    1    3    3    0  502  0.55602657601E+02 -0.12610960253E+03  0.13104416680E+03  0.19017849783E+03  0.00000000000E+00 0.  1.
         13    1    5    5    0    0  0.11994562938E+02  0.10009787260E+01 -0.33866209247E+02  0.35941502852E+02  0.00000000000E+00 0.  1.
        -13    1    5    5    0    0 -0.29549485502E+02  0.13028412567E+03 -0.11415433283E+02  0.13407996723E+03  0.00000000000E+00 0. -1.
          5    1    6    6  503    0 -0.37082129890E+02  0.87130116814E+02  0.20984383325E+03  0.23026781357E+03  0.47000000000E+01 0. -1.
         -5    1    6    6    0  503 -0.25372759751E+02  0.15010642706E+03  0.70501808883E+03  0.72128240791E+03  0.47000000000E+01 0.  1.
<mgrwt>
<rscale>  0 0.38710408E+03</rscale>
<asrwt>0</asrwt>
<pdfrwt beam="1">  1        1 0.35634786E-01 0.38710408E+03</pdfrwt>
<pdfrwt beam="2">  1       -1 0.20789013E+00 0.38710408E+03</pdfrwt>
<totfact> 0.17679568E+01</totfact>
</mgrwt>
</event>
<event>
12    1  0.3127365E-008  0.1339893E+04  0.7818608E-02  0.8998514E-01
         -2   -1    0    0    0  501 -0.00000000000E+00  0.00000000000E+00  0.89144428572E+03  0.89144428572E+03  0.00000000000E+00 0.  1.
          2   -1    0    0  501    0  0.00000000000E+00 -0.00000000000E+00 -0.32243583766E+04  0.32243583766E+04  0.00000000000E+00 0. -1.
         23    2    1    2    0    0  0.72425550998E+03  0.10929023100E+04 -0.23286841667E+04  0.26739434736E+04  0.90676616024E+02 0.  0.
    5000000    2    1    2    0    0 -0.72425550998E+03 -0.10929023100E+04 -0.42299242416E+01  0.14418591888E+04  0.59996543650E+03 0.  0.
         23    2    4    4    0    0 -0.60167287516E+03 -0.10459579236E+04  0.15006520580E+03  0.12196075140E+04  0.94258663430E+02 0.  0.
         23    2    4    4    0    0 -0.12258263482E+03 -0.46944386454E+02 -0.15429513005E+03  0.22225167477E+03  0.91425062229E+02 0.  0.
          4    1    3    3  502    0  0.47732920248E+03  0.65410003604E+03 -0.14855669345E+04  0.16919217303E+04  0.00000000000E+00 0. -1.
         -4    1    3    3    0  502  0.24692630750E+03  0.43880227400E+03 -0.84311723222E+03  0.98202174327E+03  0.00000000000E+00 0.  1.
         11    1    5    5    0    0 -0.29161785248E+02 -0.50126795687E+02  0.28210135091E+02  0.64489666509E+02  0.00000000000E+00 0.  1.
        -11    1    5    5    0    0 -0.57251108991E+03 -0.99583112790E+03  0.12185507071E+03  0.11551178475E+04  0.00000000000E+00 0. -1.
          5    1    6    6  503    0 -0.13596366225E+03 -0.50718062601E+02 -0.13780747114E+03  0.20017849142E+03  0.47000000000E+01 0. -1.
         -5    1    6    6    0  503  0.13381027433E+02  0.37736761474E+01 -0.16487658906E+02  0.22073183346E+02  0.47000000000E+01 0.  1.
<mgrwt>
<rscale>  0 0.13398934E+04</rscale>
<asrwt>0</asrwt>
<pdfrwt beam="1">  1        2 0.49605514E+00 0.13398934E+04</pdfrwt>
<pdfrwt beam="2">  1       -2 0.13714527E+00 0.13398934E+04</pdfrwt>
<totfact> 0.45983098E-01</totfact>
</mgrwt>
</event>
<event>
12    1  0.3127365E-008  0.7972602E+03  0.7818608E-02  0.9563991E-01
         -1   -1    0    0    0  501 -0.00000000000E+00  0.00000000000E+00  0.10596536661E+04  0.10596536661E+04  0.00000000000E+00 0.  1.
          1   -1    0    0  501    0  0.00000000000E+00 -0.00000000000E+00 -0.72847331068E+03  0.72847331068E+03  0.00000000000E+00 0. -1.
         23    2    1    2    0    0 -0.75267413582E+03  0.83384346372E+02 -0.12314902417E+02  0.76271736793E+03  0.90082309940E+02 0.  0.
    5000000    2    1    2    0    0  0.75267413582E+03 -0.83384346372E+02  0.34349525788E+03  0.10254096089E+04  0.60000380821E+03 0.  0.
         23    2    4    4    0    0  0.54315250071E+03  0.98612340315E+02 -0.18633086274E+02  0.55978717666E+03  0.90969547433E+02 0.  0.
         23    2    4    4    0    0  0.20952163511E+03 -0.18199668669E+03  0.36212834416E+03  0.46562243223E+03  0.92979579542E+02 0.  0.
          1    1    3    3  502    0 -0.18847719289E+03  0.96583218109E+01  0.34305258827E+02  0.19181706442E+03  0.00000000000E+00 0. -1.
         -1    1    3    3    0  502 -0.56419694293E+03  0.73726024561E+02 -0.46620161244E+02  0.57090030350E+03  0.00000000000E+00 0.  1.
         11    1    5    5    0    0  0.41857904581E+03  0.45126164764E+02  0.10442514289E+02  0.42113398633E+03  0.00000000000E+00 0.  1.
        -11    1    5    5    0    0  0.12457345490E+03  0.53486175551E+02 -0.29075600563E+02  0.13865319033E+03  0.00000000000E+00 0. -1.
          5    1    6    6  503    0  0.47532789678E+02 -0.22323672576E+02  0.13145712412E+03  0.14163607568E+03  0.47000000000E+01 0. -1.
         -5    1    6    6    0  503  0.16198884543E+03 -0.15967301411E+03  0.23067122004E+03  0.32398635656E+03  0.47000000000E+01 0.  1.
<mgrwt>
<rscale>  0 0.79726025E+03</rscale>
<asrwt>0</asrwt>
<pdfrwt beam="1">  1        1 0.11207282E+00 0.79726025E+03</pdfrwt>
<pdfrwt beam="2">  1       -1 0.16302364E+00 0.79726025E+03</pdfrwt>
<totfact> 0.72931507E+00</totfact>
</mgrwt>
</event>
<event>
12    1  0.3127365E-008  0.3390264E+03  0.7818608E-02  0.1067211E+00
          1   -1    0    0  501    0  0.00000000000E+00  0.00000000000E+00  0.18155793833E+03  0.18155793833E+03  0.00000000000E+00 0. -1.
         -1   -1    0    0    0  501 -0.00000000000E+00 -0.00000000000E+00 -0.13885271467E+04  0.13885271467E+04  0.00000000000E+00 0.  1.
         23    2    1    2    0    0 -0.44152412894E+02  0.30553233053E+03 -0.30064131053E+03  0.44019353192E+03  0.89920561535E+02 0.  0.
    5000000    2    1    2    0    0  0.44152412894E+02 -0.30553233053E+03 -0.90632789779E+03  0.11298915531E+04  0.59993768244E+03 0.  0.
         23    2    4    4    0    0 -0.11845707141E+02 -0.25060104365E+03 -0.96202716143E+03  0.99835212280E+03  0.90936779748E+02 0.  0.
         23    2    4    4    0    0  0.55998120035E+02 -0.54931286878E+02  0.55699263640E+02  0.13153943027E+03  0.89704949804E+02 0.  0.
          3    1    3    3  502    0  0.21283455082E+02  0.16582535073E+03 -0.15151732684E+03  0.22562919300E+03  0.00000000000E+00 0. -1.
         -3    1    3    3    0  502 -0.65435867976E+02  0.13970697980E+03 -0.14912398369E+03  0.21456433891E+03  0.00000000000E+00 0.  1.
         11    1    5    5    0    0  0.29335041203E+02 -0.81297764897E+02 -0.42729992224E+03  0.43595308781E+03  0.00000000000E+00 0.  1.
        -11    1    5    5    0    0 -0.41180748345E+02 -0.16930327875E+03 -0.53472723919E+03  0.56239903500E+03  0.00000000000E+00 0. -1.
          5    1    6    6  503    0  0.66242698362E+02 -0.51818437388E+02  0.10539799101E+02  0.84890652635E+02  0.47000000000E+01 0. -1.
         -5    1    6    6    0  503 -0.10244578327E+02 -0.31128494896E+01  0.45159464540E+02  0.46648777632E+02  0.47000000000E+01 0.  1.
<mgrwt>
<rscale>  0 0.33902643E+03</rscale>
<asrwt>0</asrwt>
<pdfrwt beam="1">  1        1 0.27931992E-01 0.33902643E+03</pdfrwt>
<pdfrwt beam="2">  1       -1 0.21361955E+00 0.33902643E+03</pdfrwt>
<totfact> 0.22332416E+01</totfact>
</mgrwt>
</event>
<event>
12    1  0.3127365E-008  0.5535178E+03  0.7818608E-02  0.1000683E+00
          1   -1    0    0  501    0  0.00000000000E+00  0.00000000000E+00  0.15898172702E+04  0.15898172702E+04  0.00000000000E+00 0. -1.
         -1   -1    0    0    0  501 -0.00000000000E+00 -0.00000000000E+00 -0.30171364418E+03  0.30171364418E+03  0.00000000000E+00 0.  1.
         23    2    1    2    0    0 -0.11775009870E+02 -0.46705634731E+03  0.94319622515E+03  0.10564526474E+04  0.90514057952E+02 0.  0.
    5000000    2    1    2    0    0  0.11775009870E+02  0.46705634731E+03  0.34490740085E+03  0.83507826694E+03  0.60009525438E+03 0.  0.
         23    2    4    4    0    0 -0.80502467045E+02  0.49633062824E+03  0.53258321743E+02  0.51425868134E+03  0.93812593850E+02 0.  0.
         23    2    4    4    0    0  0.92277476915E+02 -0.29274280937E+02  0.29164907911E+03  0.32081958560E+03  0.92162383259E+02 0.  0.
          4    1    3    3  502    0 -0.99840712984E+01 -0.74347962858E+02  0.89633194367E+02  0.11688203794E+03  0.00000000000E+00 0. -1.
         -4    1    3    3    0  502 -0.17909385712E+01 -0.39270838445E+03  0.85356303079E+03  0.93957060948E+03  0.00000000000E+00 0.  1.
         13    1    5    5    0    0  0.50272714242E+01  0.25151397182E+03  0.38697156975E+02  0.25452312554E+03  0.00000000000E+00 0. -1.
        -13    1    5    5    0    0 -0.85529738470E+02  0.24481665643E+03  0.14561164768E+02  0.25973555580E+03  0.00000000000E+00 0.  1.
          5    1    6    6  503    0  0.11835797216E+02  0.27189308223E+02  0.11240623120E+03  0.11634687529E+03  0.47000000000E+01 0. -1.
         -5    1    6    6    0  503  0.80441679699E+02 -0.56463589160E+02  0.17924284790E+03  0.20447271030E+03  0.47000000000E+01 0.  1.
<mgrwt>
<rscale>  0 0.55351776E+03</rscale>
<asrwt>0</asrwt>
<pdfrwt beam="1">  1        1 0.24458727E+00 0.55351776E+03</pdfrwt>
<pdfrwt beam="2">  1       -1 0.46417484E-01 0.55351776E+03</pdfrwt>
<totfact> 0.27877664E+01</totfact>
</mgrwt>
</event>
<event>
12    1  0.3127365E-008  0.1049928E+04  0.7818608E-02  0.9255418E-01
         -2   -1    0    0    0  501 -0.00000000000E+00  0.00000000000E+00  0.14068193314E+04  0.14068193314E+04  0.00000000000E+00 0.  1.
          2   -1    0    0  501    0  0.00000000000E+00 -0.00000000000E+00 -0.22924517443E+04  0.22924517443E+04  0.00000000000E+00 0. -1.
         23    2    1    2    0    0  0.22808511077E+03  0.96430711040E+03  0.10481130843E+04  0.14451555761E+04  0.89568860970E+02 0.  0.
    5000000    2    1    2    0    0 -0.22808511077E+03 -0.96430711040E+03 -0.19337454973E+04  0.22541154995E+04  0.59979497848E+03 0.  0.
         23    2    4    4    0    0  0.11380636627E+03 -0.53509592507E+03 -0.12815809465E+04  0.13965597973E+04  0.93005413443E+02 0.  0.
         23    2    4    4    0    0 -0.34189147704E+03 -0.42921118533E+03 -0.65216455072E+03  0.85755570223E+03  0.94716194621E+02 0.  0.
          3    1    3    3  502    0  0.66022810845E+02  0.45407778815E+03  0.45577339294E+03  0.64674186114E+03  0.00000000000E+00 0. -1.
         -3    1    3    3    0  502  0.16206229992E+03  0.51022932225E+03  0.59233969135E+03  0.79841371499E+03  0.00000000000E+00 0.  1.
         13    1    5    5    0    0  0.12050063311E+03 -0.46135629122E+03 -0.11603671682E+04  0.12545206236E+04  0.00000000000E+00 0.  1.
        -13    1    5    5    0    0 -0.66942668351E+01 -0.73739633850E+02 -0.12121377833E+03  0.14203917370E+03  0.00000000000E+00 0. -1.
          5    1    6    6  503    0 -0.15720788743E+03 -0.26210372313E+03 -0.32232068989E+03  0.44421323560E+03  0.47000000000E+01 0. -1.
         -5    1    6    6    0  503 -0.18468358961E+03 -0.16710746220E+03 -0.32984386083E+03  0.41334246663E+03  0.47000000000E+01 0.  1.
<mgrwt>
<rscale>  0 0.10499284E+04</rscale>
<asrwt>0</asrwt>
<pdfrwt beam="1">  1        2 0.35268488E+00 0.10499284E+04</pdfrwt>
<pdfrwt beam="2">  1       -2 0.21643374E+00 0.10499284E+04</pdfrwt>
<totfact> 0.47479188E-01</totfact>
</mgrwt>
</event>
<event>
12    1  0.3127365E-008  0.1232283E+04  0.7818608E-02  0.9085059E-01
          2   -1    0    0  501    0  0.00000000000E+00  0.00000000000E+00  0.15389013079E+04  0.15389013079E+04  0.00000000000E+00 0. -1.
         -2   -1    0    0    0  501 -0.00000000000E+00 -0.00000000000E+00 -0.12927418126E+04  0.12927418126E+04  0.00000000000E+00 0.  1.
         23    2    1    2    0    0 -0.43043862130E+03  0.10848659657E+04 -0.55360547962E+03  0.12948940784E+04  0.89777931576E+02 0.  0.
    5000000    2    1    2    0    0  0.43043862130E+03 -0.10848659657E+04  0.79976497499E+03  0.15367490420E+04  0.59980166109E+03 0.  0.
         23    2    4    4    0    0  0.32703584940E+03 -0.18118573404E+03  0.14087221398E+03  0.40989892792E+03  0.91604767509E+02 0.  0.
         23    2    4    4    0    0  0.10340277190E+03 -0.90368023170E+03  0.65889276101E+03  0.11268501141E+04  0.91221788863E+02 0.  0.
          1    1    3    3  502    0 -0.88954185583E+02  0.19272164592E+03 -0.65417889739E+02  0.22211253958E+03  0.00000000000E+00 0. -1.
         -1    1    3    3    0  502 -0.34148443572E+03  0.89214431981E+03 -0.48818758988E+03  0.10727815389E+04  0.00000000000E+00 0.  1.
         13    1    5    5    0    0  0.21766628583E+03 -0.16460304514E+03  0.84101700937E+02  0.28556237595E+03  0.00000000000E+00 0. -1.
        -13    1    5    5    0    0  0.10936956357E+03 -0.16582688899E+02  0.56770513044E+02  0.12433655197E+03  0.00000000000E+00 0.  1.
          5    1    6    6  503    0 -0.92392078742E+00 -0.35272206371E+03  0.27468389525E+03  0.44708728474E+03  0.47000000000E+01 0. -1.
         -5    1    6    6    0  503  0.10432669269E+03 -0.55095816798E+03  0.38420886575E+03  0.67976282938E+03  0.47000000000E+01 0.  1.
<mgrwt>
<rscale>  0 0.12322829E+04</rscale>
<asrwt>0</asrwt>
<pdfrwt beam="1">  1        2 0.23675405E+00 0.12322829E+04</pdfrwt>
<pdfrwt beam="2">  1       -2 0.19888336E+00 0.12322829E+04</pdfrwt>
<totfact> 0.15780396E+00</totfact>
</mgrwt>
</event>
<event>
12    1  0.3127365E-008  0.6911810E+03  0.7818608E-02  0.9732434E-01
         -1   -1    0    0    0  501 -0.00000000000E+00  0.00000000000E+00  0.13938438468E+03  0.13938438468E+03  0.00000000000E+00 0.  1.
          1   -1    0    0  501    0  0.00000000000E+00 -0.00000000000E+00 -0.37232408250E+04  0.37232408250E+04  0.00000000000E+00 0. -1.
         23    2    1    2    0    0  0.53199814873E+03 -0.19972298862E+03 -0.10480402140E+04  0.11955039504E+04  0.89051124962E+02 0.  0.
    5000000    2    1    2    0    0 -0.53199814873E+03  0.19972298862E+03 -0.25358162263E+04  0.26671212593E+04  0.60021710701E+03 0.  0.
         23    2    4    4    0    0 -0.64011248507E+03  0.21346483593E+03 -0.21717290818E+04  0.22759542783E+04  0.90826441224E+02 0.  0.
         23    2    4    4    0    0  0.10811433634E+03 -0.13741847311E+02 -0.36408714449E+03  0.39116698095E+03  0.92599190671E+02 0.  0.
          3    1    3    3  502    0  0.35622327888E+03 -0.89377086394E+02 -0.69039447027E+03  0.78200243770E+03  0.00000000000E+00 0. -1.
         -3    1    3    3    0  502  0.17577486985E+03 -0.11034590222E+03 -0.35764574375E+03  0.41350151273E+03  0.00000000000E+00 0.  1.
         11    1    5    5    0    0 -0.10112790237E+03  0.11989447115E+02 -0.41862644446E+03  0.43083488657E+03  0.00000000000E+00 0. -1.
        -11    1    5    5    0    0 -0.53898458270E+03  0.20147538882E+03 -0.17531026374E+04  0.18451193918E+04  0.00000000000E+00 0.  1.
          5    1    6    6  503    0  0.10334113174E+02 -0.29085360166E+02 -0.32401257460E+02  0.44996483819E+02  0.47000000000E+01 0. -1.
         -5    1    6    6    0  503  0.97780223164E+02  0.15343512855E+02 -0.33168588703E+03  0.34617049713E+03  0.47000000000E+01 0.  1.
<mgrwt>
<rscale>  0 0.69118096E+03</rscale>
<asrwt>0</asrwt>
<pdfrwt beam="1">  1        1 0.57280634E+00 0.69118096E+03</pdfrwt>
<pdfrwt beam="2">  1       -1 0.21443749E-01 0.69118096E+03</pdfrwt>
<totfact> 0.33060604E+00</totfact>
</mgrwt>
</event>
<event>
12    1  0.3127365E-008  0.8374287E+03  0.7818608E-02  0.9507367E-01
         -1   -1    0    0    0  501 -0.00000000000E+00  0.00000000000E+00  0.17339690064E+04  0.17339690064E+04  0.00000000000E+00 0.  1.
          1   -1    0    0  501    0  0.00000000000E+00 -0.00000000000E+00 -0.55345727412E+03  0.55345727412E+03  0.00000000000E+00 0. -1.
         23    2    1    2    0    0 -0.72695853996E+03 -0.85798673321E+02 -0.44627992782E+02  0.73928257784E+03  0.93364559556E+02 0.  0.
    5000000    2    1    2    0    0  0.72695853996E+03  0.85798673321E+02  0.12251397250E+04  0.15481437027E+04  0.59995953785E+03 0.  0.
         23    2    4    4    0    0  0.79442176298E+03 -0.51769622543E+01  0.10892841582E+04  0.13511756450E+04  0.89458974473E+02 0.  0.
         23    2    4    4    0    0 -0.67463223015E+02  0.90975635575E+02  0.13585556687E+03  0.19696805761E+03  0.86670802124E+02 0.  0.
          4    1    3    3  502    0 -0.54395906073E+03 -0.23644801628E+02 -0.25454488694E+02  0.54506739711E+03  0.00000000000E+00 0. -1.
         -4    1    3    3    0  502 -0.18299947923E+03 -0.62153871693E+02 -0.19173504087E+02  0.19421518072E+03  0.00000000000E+00 0.  1.
         13    1    5    5    0    0  0.45660662957E+03  0.29189513980E+01  0.55091882042E+03  0.71554851766E+03  0.00000000000E+00 0.  1.
        -13    1    5    5    0    0  0.33781513341E+03 -0.80959136523E+01  0.53836533775E+03  0.63562712739E+03  0.00000000000E+00 0. -1.
          5    1    6    6  503    0  0.20787707069E+02  0.15221824874E+02  0.23481431673E+02  0.35175280398E+02  0.47000000000E+01 0.  1.
         -5    1    6    6    0  503 -0.88250930084E+02  0.75753810702E+02  0.11237413520E+03  0.16179277721E+03  0.47000000000E+01 0. -1.
<mgrwt>
<rscale>  0 0.83742867E+03</rscale>
<asrwt>0</asrwt>
<pdfrwt beam="1">  1        1 0.85147273E-01 0.83742867E+03</pdfrwt>
<pdfrwt beam="2">  1       -1 0.26676446E+00 0.83742867E+03</pdfrwt>
<totfact> 0.21531161E+00</totfact>
</mgrwt>
</event>
<event>
12    1  0.3127365E-008  0.7834059E+03  0.7818608E-02  0.9584352E-01
          1   -1    0    0  501    0  0.00000000000E+00  0.00000000000E+00  0.14623703734E+04  0.14623703734E+04  0.00000000000E+00 0.  1.
         -1   -1    0    0    0  501 -0.00000000000E+00 -0.00000000000E+00 -0.55640861621E+03  0.55640861621E+03  0.00000000000E+00 0. -1.
         23    2    1    2    0    0 -0.59243943215E+03 -0.40126606610E+03  0.55726113850E+01  0.72156512968E+03  0.92877584996E+02 0.  0.
    5000000    2    1    2    0    0  0.59243943215E+03  0.40126606610E+03  0.90038914582E+03  0.12972138599E+04  0.60005353758E+03 0.  0.
         23    2    4    4    0    0  0.55716333409E+03  0.15476318663E+03  0.33867881980E+03  0.67652316963E+03  0.92723412777E+02 0.  0.
         23    2    4    4    0    0  0.35276098063E+02  0.24650287947E+03  0.56171032602E+03  0.62069069032E+03  0.87922522754E+02 0.  0.
          2    1    3    3  502    0 -0.38097726157E+03 -0.20798948940E+03 -0.15294834949E+02  0.43432388089E+03  0.00000000000E+00 0. -1.
         -2    1    3    3    0  502 -0.21146217058E+03 -0.19327657670E+03  0.20867446334E+02  0.28724124879E+03  0.00000000000E+00 0.  1.
         11    1    5    5    0    0  0.14722587273E+03  0.84351319068E+02  0.10106409875E+03  0.19749570802E+03  0.00000000000E+00 0. -1.
        -11    1    5    5    0    0  0.40993746136E+03  0.70411867559E+02  0.23761472105E+03  0.47902746161E+03  0.00000000000E+00 0.  1.
          5    1    6    6  503    0  0.58021435164E+02  0.20491242778E+03  0.49329844320E+03  0.53732767848E+03  0.47000000000E+01 0. -1.
         -5    1    6    6    0  503 -0.22745337101E+02  0.41590451695E+02  0.68411882827E+02  0.83363011846E+02  0.47000000000E+01 0.  1.
<mgrwt>
<rscale>  0 0.78340591E+03</rscale>
<asrwt>0</asrwt>
<pdfrwt beam="1">  1        1 0.22498006E+00 0.78340591E+03</pdfrwt>
<pdfrwt beam="2">  1       -1 0.85601326E-01 0.78340591E+03</pdfrwt>
<totfact> 0.96773811E+00</totfact>
</mgrwt>
</event>
<event>
12    1  0.3127365E-008  0.6778713E+03  0.7818608E-02  0.9755842E-01
          1   -1    0    0  501    0  0.00000000000E+00  0.00000000000E+00  0.63444500245E+03  0.63444500245E+03  0.00000000000E+00 0. -1.
         -1   -1    0    0    0  501 -0.00000000000E+00 -0.00000000000E+00 -0.78643814235E+03  0.78643814235E+03  0.00000000000E+00 0.  1.
         23    2    1    2    0    0 -0.55062031999E+03 -0.12176871577E+03 -0.17685897639E+03  0.59701832305E+03  0.84506944112E+02 0.  0.
    5000000    2    1    2    0    0  0.55062031999E+03  0.12176871577E+03  0.24865836486E+02  0.82386482174E+03  0.60010380582E+03 0.  0.
         23    2    4    4    0    0  0.36693156904E+03 -0.18679541980E+03  0.12659879083E+03  0.44048624539E+03  0.92030284845E+02 0.  0.
         23    2    4    4    0    0  0.18368875096E+03  0.30856413557E+03 -0.10173295434E+03  0.38337857635E+03  0.87613673710E+02 0.  0.
          3    1    3    3  502    0 -0.11581488304E+03  0.10758510307E+00 -0.12560579777E+02  0.11649406368E+03  0.00000000000E+00 0. -1.
         -3    1    3    3    0  502 -0.43480543695E+03 -0.12187630087E+03 -0.16429839661E+03  0.48052425937E+03  0.00000000000E+00 0.  1.
         13    1    5    5    0    0  0.95687146621E+02 -0.88557198300E+02  0.64206337074E+02  0.14533017966E+03  0.00000000000E+00 0. -1.
        -13    1    5    5    0    0  0.27124442241E+03 -0.98238221498E+02  0.62392453754E+02  0.29515606573E+03  0.00000000000E+00 0.  1.
          5    1    6    6  503    0  0.47001143396E+02  0.22285333092E+02 -0.10805495735E+02  0.53334719364E+02  0.47000000000E+01 0. -1.
         -5    1    6    6    0  503  0.13668760756E+03  0.28627880248E+03 -0.90927458608E+02  0.33004385699E+03  0.47000000000E+01 0.  1.
<mgrwt>
<rscale>  0 0.67787132E+03</rscale>
<asrwt>0</asrwt>
<pdfrwt beam="1">  1        1 0.97606923E-01 0.67787132E+03</pdfrwt>
<pdfrwt beam="2">  1       -1 0.12099048E+00 0.67787132E+03</pdfrwt>
<totfact> 0.19828857E+01</totfact>
</mgrwt>
</event>
<event>
12    1  0.3127365E-008  0.2764515E+03  0.7818608E-02  0.1097643E+00
         -2   -1    0    0    0  501 -0.00000000000E+00  0.00000000000E+00  0.15739543640E+03  0.15739543640E+03  0.00000000000E+00 0.  1.
          2   -1    0    0  501    0  0.00000000000E+00 -0.00000000000E+00 -0.34588344240E+04  0.34588344240E+04  0.00000000000E+00 0. -1.
         23    2    1    2    0    0  0.16082602048E+03 -0.59122187302E+02 -0.28230348636E+04  0.28297066496E+04  0.91397155446E+02 0.  0.
    5000000    2    1    2    0    0 -0.16082602048E+03  0.59122187302E+02 -0.47840412403E+03  0.78652321079E+03  0.60032309079E+03 0.  0.
         23    2    4    4    0    0 -0.93794466208E+02  0.17193434028E+03  0.60972053322E+02  0.22412206871E+03  0.90301113716E+02 0.  0.
         23    2    4    4    0    0 -0.67031554275E+02 -0.11281215298E+03 -0.53937617735E+03  0.56240114208E+03  0.90269445538E+02 0.  0.
          4    1    3    3  502    0  0.34743414391E+02  0.13236326528E+02 -0.27148253244E+03  0.27401655169E+03  0.00000000000E+00 0. -1.
         -4    1    3    3    0  502  0.12608260609E+03 -0.72358513830E+02 -0.25515523311E+04  0.25556900979E+04  0.00000000000E+00 0.  1.
         13    1    5    5    0    0  0.10142981333E+02  0.50247125139E+02  0.34813087417E+02  0.61964543979E+02  0.00000000000E+00 0. -1.
        -13    1    5    5    0    0 -0.10393744754E+03  0.12168721514E+03  0.26158965905E+02  0.16215752473E+03  0.00000000000E+00 0.  1.
          5    1    6    6  503    0  0.22235285859E+02 -0.23850467267E+02 -0.10028046935E+03  0.10555337636E+03  0.47000000000E+01 0. -1.
         -5    1    6    6    0  503 -0.89266840134E+02 -0.88961685711E+02 -0.43909570799E+03  0.45684776573E+03  0.47000000000E+01 0.  1.
<mgrwt>
<rscale>  0 0.27645154E+03</rscale>
<asrwt>0</asrwt>
<pdfrwt beam="1">  1        2 0.53212834E+00 0.27645154E+03</pdfrwt>
<pdfrwt beam="2">  1       -2 0.24214684E-01 0.27645154E+03</pdfrwt>
<totfact> 0.16345403E+01</totfact>
</mgrwt>
</event>
<event>
12    1  0.3127365E-008  0.4717607E+03  0.7818608E-02  0.1021424E+00
          2   -1    0    0  501    0  0.00000000000E+00  0.00000000000E+00  0.22003608055E+03  0.22003608055E+03  0.00000000000E+00 0. -1.
         -2   -1    0    0    0  501 -0.00000000000E+00 -0.00000000000E+00 -0.13869320761E+04  0.13869320761E+04  0.00000000000E+00 0.  1.
         23    2    1    2    0    0 -0.51121846319E+02  0.32678721831E+03 -0.69471405598E+03  0.77519243939E+03  0.94299359952E+02 0.  0.
    5000000    2    1    2    0    0  0.51121846319E+02 -0.32678721831E+03 -0.47218193954E+03  0.83177571722E+03  0.59957629248E+03 0.  0.
         23    2    4    4    0    0  0.78133937281E+02  0.12221229343E+03  0.38672865164E+01  0.17038684782E+03  0.89308259324E+02 0.  0.
         23    2    4    4    0    0 -0.27012090962E+02 -0.44899951175E+03 -0.47604922605E+03  0.66138886940E+03  0.92098622862E+02 0.  0.
          1    1    3    3  502    0 -0.32553533834E+02  0.10609720905E+03 -0.33358915164E+03  0.35156517522E+03  0.00000000000E+00 0. -1.
         -1    1    3    3    0  502 -0.18568312484E+02  0.22069000926E+03 -0.36112490434E+03  0.42362726417E+03  0.00000000000E+00 0.  1.
         11    1    5    5    0    0  0.17598094680E+02  0.75203804838E+02  0.38478637212E+02  0.86289690695E+02  0.00000000000E+00 0.  1.
        -11    1    5    5    0    0  0.60535842601E+02  0.47008488597E+02 -0.34611350696E+02  0.84097157125E+02  0.00000000000E+00 0. -1.
          5    1    6    6  503    0  0.29144858144E+02 -0.17266251774E+03 -0.15325123602E+03  0.23274406357E+03  0.47000000000E+01 0. -1.
         -5    1    6    6    0  503 -0.56156949107E+02 -0.27633699401E+03 -0.32279799004E+03  0.42864480583E+03  0.47000000000E+01 0.  1.
<mgrwt>
<rscale>  0 0.47176068E+03</rscale>
<asrwt>0</asrwt>
<pdfrwt beam="1">  1        2 0.33851704E-01 0.47176068E+03</pdfrwt>
<pdfrwt beam="2">  1       -2 0.21337417E+00 0.47176068E+03</pdfrwt>
<totfact> 0.17752408E+01</totfact>
</mgrwt>
</event>
<event>
12    1  0.3127365E-008  0.8209758E+03  0.7818608E-02  0.9530142E-01
         -1   -1    0    0    0  501 -0.00000000000E+00  0.00000000000E+00  0.22659925881E+04  0.22659925881E+04  0.00000000000E+00 0.  1.
          1   -1    0    0  501    0  0.00000000000E+00 -0.00000000000E+00 -0.33904685544E+03  0.33904685544E+03  0.00000000000E+00 0. -1.
         23    2    1    2    0    0  0.65868864405E+03 -0.37366335843E+03  0.63838314657E+03  0.99445014742E+03  0.88898923726E+02 0.  0.
    5000000    2    1    2    0    0 -0.65868864405E+03  0.37366335843E+03  0.12885625861E+04  0.16105892961E+04  0.60009108252E+03 0.  0.
         23    2    4    4    0    0 -0.65533141250E+03  0.17912081995E+03  0.11889810330E+04  0.13723387782E+04  0.89968310604E+02 0.  0.
         23    2    4    4    0    0 -0.33572315469E+01  0.19454253848E+03  0.99581553083E+02  0.23825051795E+03  0.94809035997E+02 0.  0.
          4    1    3    3  502    0  0.86394778094E+02 -0.18573341945E+02  0.87306028212E+02  0.12422306257E+03  0.00000000000E+00 0. -1.
         -4    1    3    3    0  502  0.57229386596E+03 -0.35509001649E+03  0.55107711836E+03  0.87022708485E+03  0.00000000000E+00 0.  1.
         11    1    5    5    0    0 -0.41612264797E+03  0.70761763842E+02  0.70485700084E+03  0.82157694528E+03  0.00000000000E+00 0.  1.
        -11    1    5    5    0    0 -0.23920876453E+03  0.10835905611E+03  0.48412403217E+03  0.55076183291E+03  0.00000000000E+00 0. -1.
          5    1    6    6  503    0 -0.81156714956E+01  0.66607325686E+02 -0.12041092811E+02  0.68333577947E+02  0.47000000000E+01 0. -1.
         -5    1    6    6    0  503  0.47584399487E+01  0.12793521279E+03  0.11162264589E+03  0.16991694000E+03  0.47000000000E+01 0.  1.
<mgrwt>
<rscale>  0 0.82097578E+03</rscale>
<asrwt>0</asrwt>
<pdfrwt beam="1">  1        1 0.52161056E-01 0.82097578E+03</pdfrwt>
<pdfrwt beam="2">  1       -1 0.34861424E+00 0.82097578E+03</pdfrwt>
<totfact> 0.12418897E+00</totfact>
</mgrwt>
</event>
<event>
12    1  0.3127365E-008  0.7240049E+03  0.7818608E-02  0.9677039E-01
         -2   -1    0    0    0  501 -0.00000000000E+00  0.00000000000E+00  0.53362631453E+03  0.53362631453E+03  0.00000000000E+00 0.  1.
          2   -1    0    0  501    0  0.00000000000E+00 -0.00000000000E+00 -0.12844787082E+04  0.12844787082E+04  0.00000000000E+00 0. -1.
         23    2    1    2    0    0  0.23675502653E+03  0.67040079620E+03 -0.21921943095E+03  0.74665818976E+03  0.62857961270E+02 0.  0.
    5000000    2    1    2    0    0 -0.23675502653E+03 -0.67040079620E+03 -0.53163296275E+03  0.10714468330E+04  0.59989543981E+03 0.  0.
         23    2    4    4    0    0 -0.24442538980E+02 -0.24674656411E+03  0.93857146245E+02  0.28036248080E+03  0.91173746929E+02 0.  0.
         23    2    4    4    0    0 -0.21231248755E+03 -0.42365423210E+03 -0.62549010899E+03  0.79108435219E+03  0.10008533901E+03 0.  0.
          1    1    3    3  502    0  0.23934962501E+03  0.64133335859E+03 -0.21154190482E+03  0.71648216819E+03  0.00000000000E+00 0. -1.
         -1    1    3    3    0  502 -0.25945984816E+01  0.29067437610E+02 -0.76775261298E+01  0.30176021573E+02  0.00000000000E+00 0.  1.
         13    1    5    5    0    0  0.68069206022E+01 -0.21485558688E+03  0.56806680602E+02  0.22234265525E+03  0.00000000000E+00 0. -1.
        -13    1    5    5    0    0 -0.31249459583E+02 -0.31890977224E+02  0.37050465643E+02  0.58019825550E+02  0.00000000000E+00 0.  1.
          5    1    6    6  503    0 -0.11167526680E+03 -0.19408295159E+03 -0.21734672587E+03  0.31209172780E+03  0.47000000000E+01 0. -1.
         -5    1    6    6    0  503 -0.10063722075E+03 -0.22957128050E+03 -0.40814338312E+03  0.47899262439E+03  0.47000000000E+01 0.  1.
<mgrwt>
<rscale>  0 0.72400488E+03</rscale>
<asrwt>0</asrwt>
<pdfrwt beam="1">  1        2 0.19761211E+00 0.72400488E+03</pdfrwt>
<pdfrwt beam="2">  1       -2 0.82096357E-01 0.72400488E+03</pdfrwt>
<totfact> 0.22522725E+01</totfact>
</mgrwt>
</event>
<event>
12    1  0.3127365E-008  0.6438240E+03  0.7818608E-02  0.9818438E-01
          1   -1    0    0  501    0  0.00000000000E+00  0.00000000000E+00  0.90261135145E+03  0.90261135145E+03  0.00000000000E+00 0. -1.
         -1   -1    0    0    0  501 -0.00000000000E+00 -0.00000000000E+00 -0.48213205778E+03  0.48213205778E+03  0.00000000000E+00 0.  1.
         23    2    1    2    0    0  0.49280281295E+03 -0.16105396243E+03  0.16366295744E+03  0.55139886490E+03  0.91989963098E+02 0.  0.
    5000000    2    1    2    0    0 -0.49280281295E+03  0.16105396243E+03  0.25681633623E+03  0.83334454433E+03  0.59976287626E+03 0.  0.
         23    2    4    4    0    0  0.28335529387E+01  0.24003464927E+03  0.18702710999E+03  0.31657226343E+03  0.87259361851E+02 0.  0.
         23    2    4    4    0    0 -0.49563636589E+03 -0.78980686840E+02  0.69789226240E+02  0.51677228090E+03  0.10143814924E+03 0.  0.
          3    1    3    3  502    0  0.11500702319E+03 -0.79574517647E+00  0.20889146201E+02  0.11689142407E+03  0.00000000000E+00 0. -1.
         -3    1    3    3    0  502  0.37779578976E+03 -0.16025821725E+03  0.14277381124E+03  0.43450744083E+03  0.00000000000E+00 0.  1.
         11    1    5    5    0    0  0.41642962610E+02  0.74626327364E+02  0.65839335490E+02  0.10787976255E+03  0.00000000000E+00 0.  1.
        -11    1    5    5    0    0 -0.38809409671E+02  0.16540832190E+03  0.12118777450E+03  0.20869250088E+03  0.00000000000E+00 0. -1.
          5    1    6    6  503    0 -0.38508150858E+03 -0.90634279982E+02  0.84448281435E+02  0.40454411773E+03  0.47000000000E+01 0. -1.
         -5    1    6    6    0  503 -0.11055485731E+03  0.11653593142E+02 -0.14659055195E+02  0.11222816317E+03  0.47000000000E+01 0.  1.
<mgrwt>
<rscale>  0 0.64382400E+03</rscale>
<asrwt>0</asrwt>
<pdfrwt beam="1">  1        1 0.13886328E+00 0.64382400E+03</pdfrwt>
<pdfrwt beam="2">  1       -1 0.74174163E-01 0.64382400E+03</pdfrwt>
<totfact> 0.34393174E+01</totfact>
</mgrwt>
</event>
<event>
12    1  0.3127365E-008  0.1111369E+04  0.7818608E-02  0.9194182E-01
          1   -1    0    0  501    0  0.00000000000E+00  0.00000000000E+00  0.18033976929E+04  0.18033976929E+04  0.00000000000E+00 0. -1.
         -1   -1    0    0    0  501 -0.00000000000E+00 -0.00000000000E+00 -0.86597295858E+03  0.86597295858E+03  0.00000000000E+00 0.  1.
         23    2    1    2    0    0 -0.23318176172E+03 -0.10256229646E+04  0.10035255596E+04  0.14566277883E+04  0.91786520634E+02 0.  0.
    5000000    2    1    2    0    0  0.23318176172E+03  0.10256229646E+04 -0.66100825288E+02  0.12127428632E+04  0.60008310561E+03 0.  0.
         23    2    4    4    0    0  0.38525535033E+03  0.74933706370E+03  0.85401151883E+02  0.85178443313E+03  0.91190151843E+02 0.  0.
         23    2    4    4    0    0 -0.15207358861E+03  0.27628590088E+03 -0.15150197717E+03  0.36095843006E+03  0.88757330768E+02 0.  0.
          4    1    3    3  502    0 -0.19881202879E+03 -0.73008580564E+03  0.68361799025E+03  0.10197475487E+04  0.00000000000E+00 0. -1.
         -4    1    3    3    0  502 -0.34369732927E+02 -0.29553715894E+03  0.31990756938E+03  0.43688023966E+03  0.00000000000E+00 0.  1.
         13    1    5    5    0    0  0.18903331954E+03  0.27484522564E+03  0.47221842277E+02  0.33690265113E+03  0.00000000000E+00 0. -1.
        -13    1    5    5    0    0  0.19622203079E+03  0.47449183806E+03  0.38179309606E+02  0.51488178200E+03  0.00000000000E+00 0.  1.
          5    1    6    6  503    0 -0.18295034526E+02  0.59012408746E+01 -0.29490481354E+02  0.35514946468E+02  0.47000000000E+01 0. -1.
         -5    1    6    6    0  503 -0.13377855408E+03  0.27038466001E+03 -0.12201149582E+03  0.32544348359E+03  0.47000000000E+01 0.  1.
<mgrwt>
<rscale>  0 0.11113686E+04</rscale>
<asrwt>0</asrwt>
<pdfrwt beam="1">  1        1 0.27744580E+00 0.11113686E+04</pdfrwt>
<pdfrwt beam="2">  1       -1 0.13322661E+00 0.11113686E+04</pdfrwt>
<totfact> 0.19184029E+00</totfact>
</mgrwt>
</event>
<event>
12    1  0.3127365E-008  0.5195357E+03  0.7818608E-02  0.1008802E+00
         -2   -1    0    0    0  501 -0.00000000000E+00  0.00000000000E+00  0.52761020196E+03  0.52761020196E+03  0.00000000000E+00 0.  1.
          2   -1    0    0  501    0  0.00000000000E+00 -0.00000000000E+00 -0.10617555444E+04  0.10617555444E+04  0.00000000000E+00 0. -1.
         23    2    1    2    0    0 -0.13716042994E+03  0.44888514698E+03  0.21196065547E+03  0.52303141328E+03  0.91234210124E+02 0.  0.
    5000000    2    1    2    0    0  0.13716042994E+03 -0.44888514698E+03 -0.74610599786E+03  0.10663343330E+04  0.60006990513E+03 0.  0.
         23    2    4    4    0    0  0.20043234937E+02 -0.40421372365E+03 -0.13587506944E+03  0.43693052112E+03  0.93036445217E+02 0.  0.
         23    2    4    4    0    0  0.11711719500E+03 -0.44671423329E+02 -0.61023092842E+03  0.62940381192E+03  0.89751874752E+02 0.  0.
          3    1    3    3  502    0 -0.38944377526E+02  0.27789938950E+03  0.13439271339E+03  0.31113684551E+03  0.00000000000E+00 0. -1.
         -3    1    3    3    0  502 -0.98216052409E+02  0.17098575748E+03  0.77567942087E+02  0.21189456777E+03  0.00000000000E+00 0.  1.
         13    1    5    5    0    0  0.32101327960E+02 -0.17425812222E+03 -0.10122704717E+03  0.20406690936E+03  0.00000000000E+00 0.  1.
        -13    1    5    5    0    0 -0.12058093022E+02 -0.22995560142E+03 -0.34648022269E+02  0.23286361176E+03  0.00000000000E+00 0. -1.
          5    1    6    6  503    0  0.85262717206E+01  0.23547523954E+02 -0.86063082130E+02  0.89755931835E+02  0.47000000000E+01 0.  1.
         -5    1    6    6    0  503  0.10859092328E+03 -0.68218947283E+02 -0.52416784629E+03  0.53964788008E+03  0.47000000000E+01 0.  1.
<mgrwt>
<rscale>  0 0.51953570E+03</rscale>
<asrwt>0</asrwt>
<pdfrwt beam="1">  1        2 0.16334701E+00 0.51953570E+03</pdfrwt>
<pdfrwt beam="2">  1       -2 0.81170800E-01 0.51953570E+03</pdfrwt>
<totfact> 0.32163393E+01</totfact>
</mgrwt>
</event>
<event>
12    1  0.3127365E-008  0.3833686E+03  0.7818608E-02  0.1049696E+00
         -2   -1    0    0    0  501 -0.00000000000E+00  0.00000000000E+00  0.34020950887E+03  0.34020950887E+03  0.00000000000E+00 0.  1.
          2   -1    0    0  501    0  0.00000000000E+00 -0.00000000000E+00 -0.64787193041E+03  0.64787193041E+03  0.00000000000E+00 0. -1.
         23    2    1    2    0    0  0.21319990371E+03 -0.72421488141E+02  0.61106711520E+02  0.25027845872E+03  0.90588110809E+02 0.  0.
    5000000    2    1    2    0    0 -0.21319990371E+03  0.72421488141E+02 -0.36876913306E+03  0.73780298056E+03  0.59804974185E+03 0.  0.
         23    2    4    4    0    0 -0.53650516414E+02 -0.20182842303E+03 -0.33661573342E+03  0.40658956197E+03  0.91606930197E+02 0.  0.
         23    2    4    4    0    0 -0.15954938729E+03  0.27424991117E+03 -0.32153399641E+02  0.33121341859E+03  0.89439738255E+02 0.  0.
          2    1    3    3  502    0  0.17329546258E+03 -0.67663312086E+02  0.11437877974E+02  0.18638794544E+03  0.00000000000E+00 0. -1.
         -2    1    3    3    0  502  0.39904441132E+02 -0.47581760552E+01  0.49668833546E+02  0.63890513281E+02  0.00000000000E+00 0.  1.
         11    1    5    5    0    0 -0.56223956827E+02 -0.16788334776E+03 -0.20608548599E+03  0.27169317126E+03  0.00000000000E+00 0. -1.
        -11    1    5    5    0    0  0.25734404126E+01 -0.33945075276E+02 -0.13053024743E+03  0.13489639071E+03  0.00000000000E+00 0.  1.
          5    1    6    6  503    0 -0.53338367374E+01 -0.61357463405E+01 -0.29891350336E+01  0.98550558469E+01  0.47000000000E+01 0. -1.
         -5    1    6    6    0  503 -0.15421555056E+03  0.28038565751E+03 -0.29164264608E+02  0.32135836274E+03  0.47000000000E+01 0.  1.
<mgrwt>
<rscale>  0 0.38336860E+03</rscale>
<asrwt>0</asrwt>
<pdfrwt beam="1">  1        2 0.99672604E-01 0.38336860E+03</pdfrwt>
<pdfrwt beam="2">  1       -2 0.52339925E-01 0.38336860E+03</pdfrwt>
<totfact> 0.16109462E+02</totfact>
</mgrwt>
</event>
<event>
12    1  0.3127365E-008  0.3142314E+03  0.7818608E-02  0.1078335E+00
          1   -1    0    0  501    0  0.00000000000E+00  0.00000000000E+00  0.70852669939E+03  0.70852669939E+03  0.00000000000E+00 0. -1.
         -1   -1    0    0    0  501 -0.00000000000E+00 -0.00000000000E+00 -0.31911395871E+03  0.31911395871E+03  0.00000000000E+00 0.  1.
         23    2    1    2    0    0  0.16032297685E+03 -0.21239346956E+03  0.39550762376E+02  0.28384059156E+03  0.90480803445E+02 0.  0.
    5000000    2    1    2    0    0 -0.16032297685E+03  0.21239346956E+03  0.34986197830E+03  0.74380006654E+03  0.60001724335E+03 0.  0.
         23    2    4    4    0    0 -0.15805597861E+03  0.21447208929E+03  0.49593045232E+03  0.57056827527E+03  0.92850275951E+02 0.  0.
         23    2    4    4    0    0 -0.22669982395E+01 -0.20786197362E+01 -0.14606847402E+03  0.17323179127E+03  0.93079506147E+02 0.  0.
          1    1    3    3  502    0  0.79607545876E+02 -0.12401425903E+03  0.65664650180E+02  0.16133426198E+03  0.00000000000E+00 0. -1.
         -1    1    3    3    0  502  0.80715430978E+02 -0.88379210523E+02 -0.26113887804E+02  0.12250632958E+03  0.00000000000E+00 0.  1.
         11    1    5    5    0    0 -0.31014637050E+02  0.23298077037E+02  0.23567976527E+02  0.45388959258E+02  0.00000000000E+00 0. -1.
        -11    1    5    5    0    0 -0.12704134156E+03  0.19117401226E+03  0.47236247579E+03  0.52517931601E+03  0.00000000000E+00 0.  1.
          5    1    6    6  503    0  0.19072737515E+02  0.40616177804E+02 -0.73690955836E+02  0.86405382863E+02  0.47000000000E+01 0. -1.
         -5    1    6    6    0  503 -0.21339735755E+02 -0.42694797540E+02 -0.72377518183E+02  0.86826408410E+02  0.47000000000E+01 0.  1.
<mgrwt>
<rscale>  0 0.31423143E+03</rscale>
<asrwt>0</asrwt>
<pdfrwt beam="1">  1        1 0.10900411E+00 0.31423143E+03</pdfrwt>
<pdfrwt beam="2">  1       -1 0.49094455E-01 0.31423143E+03</pdfrwt>
<totfact> 0.11829149E+02</totfact>
</mgrwt>
</event>
<event>
12    1  0.3127365E-008  0.7318704E+03  0.7818608E-02  0.9664230E-01
         -2   -1    0    0    0  501 -0.00000000000E+00  0.00000000000E+00  0.36015846132E+03  0.36015846132E+03  0.00000000000E+00 0.  1.
          2   -1    0    0  501    0  0.00000000000E+00 -0.00000000000E+00 -0.15740100144E+04  0.15740100144E+04  0.00000000000E+00 0. -1.
         23    2    1    2    0    0 -0.59271274338E+03  0.16686775502E+03 -0.34242102300E+03  0.71000190741E+03  0.87734301794E+02 0.  0.
    5000000    2    1    2    0    0  0.59271274338E+03 -0.16686775502E+03 -0.87143053012E+03  0.12241665683E+04  0.60003281111E+03 0.  0.
         23    2    4    4    0    0  0.35973802663E+03 -0.37366754165E+03 -0.45168851559E+03  0.69371752399E+03  0.90457771801E+02 0.  0.
         23    2    4    4    0    0  0.23297471675E+03  0.20679978663E+03 -0.41974201452E+03  0.53044904436E+03  0.90274356881E+02 0.  0.
          3    1    3    3  502    0 -0.20646862281E+03  0.24346418712E+02 -0.86047491649E+02  0.22500269138E+03  0.00000000000E+00 0. -1.
         -3    1    3    3    0  502 -0.38624412056E+03  0.14252133631E+03 -0.25637353135E+03  0.48499921603E+03  0.00000000000E+00 0.  1.
         13    1    5    5    0    0  0.25408376305E+03 -0.31212716860E+03 -0.32151273989E+03  0.51512364529E+03  0.00000000000E+00 0.  1.
        -13    1    5    5    0    0  0.10565426359E+03 -0.61540373049E+02 -0.13017577570E+03  0.17859387870E+03  0.00000000000E+00 0. -1.
          5    1    6    6  503    0  0.21815267138E+03  0.16138829821E+03 -0.31882482940E+03  0.41869814028E+03  0.47000000000E+01 0. -1.
         -5    1    6    6    0  503  0.14822045363E+02  0.45411488421E+02 -0.10091718512E+03  0.11175090408E+03  0.47000000000E+01 0.  1.
<mgrwt>
<rscale>  0 0.73187036E+03</rscale>
<asrwt>0</asrwt>
<pdfrwt beam="1">  1        2 0.24215539E+00 0.73187036E+03</pdfrwt>
<pdfrwt beam="2">  1       -2 0.55408994E-01 0.73187036E+03</pdfrwt>
<totfact> 0.36226877E+01</totfact>
</mgrwt>
</event>
<event>
12    1  0.3127365E-008  0.9265812E+03  0.7818608E-02  0.9392950E-01
          2   -1    0    0  501    0  0.00000000000E+00  0.00000000000E+00  0.10977146111E+04  0.10977146111E+04  0.00000000000E+00 0.  1.
         -2   -1    0    0    0  501 -0.00000000000E+00 -0.00000000000E+00 -0.80599702781E+03  0.80599702781E+03  0.00000000000E+00 0. -1.
         23    2    1    2    0    0  0.66331543453E+03  0.51696127012E+03  0.79252245123E+02  0.84903412537E+03  0.85683762701E+02 0.  0.
    5000000    2    1    2    0    0 -0.66331543453E+03 -0.51696127012E+03  0.21246533815E+03  0.10546775135E+04  0.59997234697E+03 0.  0.
         23    2    4    4    0    0 -0.97779829981E+02 -0.41425739996E+03  0.10657482978E+01  0.43529512318E+03  0.91162601303E+02 0.  0.
         23    2    4    4    0    0 -0.56553560455E+03 -0.10270387017E+03  0.21139958986E+03  0.61938239035E+03  0.92553519220E+02 0.  0.
          4    1    3    3  502    0  0.24772755049E+03  0.21769479937E+03 -0.60973488941E+01  0.32984411865E+03  0.00000000000E+00 0. -1.
         -4    1    3    3    0  502  0.41558788404E+03  0.29926647076E+03  0.85349594018E+02  0.51919000672E+03  0.00000000000E+00 0.  1.
         13    1    5    5    0    0 -0.83824539214E+02 -0.21521195226E+03  0.32717221156E+02  0.23326627346E+03  0.00000000000E+00 0. -1.
        -13    1    5    5    0    0 -0.13955290768E+02 -0.19904544769E+03 -0.31651472858E+02  0.20202884973E+03  0.00000000000E+00 0.  1.
          5    1    6    6  503    0 -0.14261184225E+03 -0.62889873706E+02  0.76283936932E+02  0.17359321069E+03  0.47000000000E+01 0.  1.
         -5    1    6    6    0  503 -0.42292376230E+03 -0.39813996461E+02  0.13511565292E+03  0.44578917965E+03  0.47000000000E+01 0. -1.
<mgrwt>
<rscale>  0 0.92658123E+03</rscale>
<asrwt>0</asrwt>
<pdfrwt beam="1">  1        2 0.16887917E+00 0.92658123E+03</pdfrwt>
<pdfrwt beam="2">  1       -2 0.12399954E+00 0.92658123E+03</pdfrwt>
<totfact> 0.10684526E+01</totfact>
</mgrwt>
</event>
<event>
12    1  0.3127365E-008  0.8841249E+03  0.7818608E-02  0.9445647E-01
         -2   -1    0    0    0  501 -0.00000000000E+00  0.00000000000E+00  0.47428259358E+03  0.47428259358E+03  0.00000000000E+00 0.  1.
          2   -1    0    0  501    0  0.00000000000E+00 -0.00000000000E+00 -0.19500081697E+04  0.19500081697E+04  0.00000000000E+00 0. -1.
         23    2    1    2    0    0 -0.25806448635E+03  0.82581472180E+03 -0.63394586439E+03  0.10761507480E+04  0.87440491431E+02 0.  0.
    5000000    2    1    2    0    0  0.25806448635E+03 -0.82581472180E+03 -0.84177971173E+03  0.13481400153E+04  0.60026759357E+03 0.  0.
         23    2    4    4    0    0  0.37536485571E+01 -0.68372839575E+02  0.69331777105E+02  0.13282034193E+03  0.90251940949E+02 0.  0.
         23    2    4    4    0    0  0.25431083779E+03 -0.75744188223E+03 -0.91111148883E+03  0.12153196734E+04  0.92117078758E+02 0.  0.
          4    1    3    3  502    0 -0.15927773585E+02  0.14616502940E+03 -0.12797169196E+03  0.19492219919E+03  0.00000000000E+00 0. -1.
         -4    1    3    3    0  502 -0.24213671276E+03  0.67964969240E+03 -0.50597417243E+03  0.88122854880E+03  0.00000000000E+00 0.  1.
         11    1    5    5    0    0  0.38495868010E+01 -0.84453653665E+02  0.28960505785E+02  0.89364141753E+02  0.00000000000E+00 0. -1.
        -11    1    5    5    0    0 -0.95938243895E-01  0.16080814090E+02  0.40371271320E+02  0.43456200178E+02  0.00000000000E+00 0.  1.
          5    1    6    6  503    0  0.14153099393E+03 -0.40716621463E+03 -0.42238039621E+03  0.60352517568E+03  0.47000000000E+01 0. -1.
         -5    1    6    6    0  503  0.11277984386E+03 -0.35027566760E+03 -0.48873109262E+03  0.61179449768E+03  0.47000000000E+01 0.  1.
<mgrwt>
<rscale>  0 0.88412489E+03</rscale>
<asrwt>0</asrwt>
<pdfrwt beam="1">  1        2 0.30000125E+00 0.88412489E+03</pdfrwt>
<pdfrwt beam="2">  1       -2 0.72966554E-01 0.88412489E+03</pdfrwt>
<totfact> 0.12274805E+01</totfact>
</mgrwt>
</event>
<event>
12    1  0.3127365E-008  0.4205797E+03  0.7818608E-02  0.1036878E+00
         -2   -1    0    0    0  501 -0.00000000000E+00  0.00000000000E+00  0.14601604608E+03  0.14601604608E+03  0.00000000000E+00 0.  1.
          2   -1    0    0  501    0  0.00000000000E+00 -0.00000000000E+00 -0.22466246832E+04  0.22466246832E+04  0.00000000000E+00 0. -1.
         23    2    1    2    0    0  0.22029800113E+03 -0.26197835985E+03 -0.30014127146E+03  0.46425766655E+03  0.91030367346E+02 0.  0.
    5000000    2    1    2    0    0 -0.22029800113E+03  0.26197835985E+03 -0.18004673657E+04  0.19283830627E+04  0.59984550637E+03 0.  0.
         23    2    4    4    0    0 -0.28847796333E+03  0.21667689215E+03 -0.50559830019E+03  0.62776436813E+03  0.91049710681E+02 0.  0.
         23    2    4    4    0    0  0.68179962197E+02  0.45301467702E+02 -0.12948690655E+04  0.13006186946E+04  0.90677239919E+02 0.  0.
          4    1    3    3  502    0  0.21229260502E+03 -0.26476926518E+03 -0.27215781421E+03  0.43501814878E+03  0.00000000000E+00 0. -1.
         -4    1    3    3    0  502  0.80053961056E+01  0.27909053285E+01 -0.27983457255E+02  0.29239517768E+02  0.00000000000E+00 0.  1.
         11    1    5    5    0    0 -0.81352330618E+02  0.11379458253E+03 -0.16918165661E+03  0.21952184776E+03  0.00000000000E+00 0. -1.
        -11    1    5    5    0    0 -0.20712563271E+03  0.10288230962E+03 -0.33641664358E+03  0.40824252037E+03  0.00000000000E+00 0.  1.
          5    1    6    6  503    0 -0.23269271065E+01  0.50998002599E+02 -0.54533497759E+03  0.54773948063E+03  0.47000000000E+01 0. -1.
         -5    1    6    6    0  503  0.70506889303E+02 -0.56965348967E+01 -0.74953408789E+03  0.75287921399E+03  0.47000000000E+01 0.  1.
<mgrwt>
<rscale>  0 0.42057972E+03</rscale>
<asrwt>0</asrwt>
<pdfrwt beam="1">  1        2 0.34563455E+00 0.42057972E+03</pdfrwt>
<pdfrwt beam="2">  1       -2 0.22464008E-01 0.42057972E+03</pdfrwt>
<totfact> 0.91619195E+01</totfact>
</mgrwt>
</event>
<event>
12    1  0.3127365E-008  0.4312990E+03  0.7818608E-02  0.1033450E+00
         -1   -1    0    0    0  501 -0.00000000000E+00  0.00000000000E+00  0.23687129886E+03  0.23687129886E+03  0.00000000000E+00 0.  1.
          1   -1    0    0  501    0  0.00000000000E+00 -0.00000000000E+00 -0.99908510095E+03  0.99908510095E+03  0.00000000000E+00 0. -1.
         23    2    1    2    0    0 -0.25332264592E+03  0.21224593945E+02 -0.47185935747E+02  0.26851623110E+03  0.72467975759E+02 0.  0.
    5000000    2    1    2    0    0  0.25332264592E+03 -0.21224593945E+02 -0.71502786635E+03  0.96744016870E+03  0.60004398509E+03 0.  0.
         23    2    4    4    0    0  0.42407685544E+03 -0.23332394201E+02 -0.60993374944E+03  0.74819556696E+03  0.85975855824E+02 0.  0.
         23    2    4    4    0    0 -0.17075420952E+03  0.21078002562E+01 -0.10509411691E+03  0.21924460174E+03  0.88667801887E+02 0.  0.
          1    1    3    3  502    0 -0.17112663319E+03 -0.73137296483E+01 -0.38828879323E+01  0.17132685734E+03  0.00000000000E+00 0. -1.
         -1    1    3    3    0  502 -0.82196012728E+02  0.28538323594E+02 -0.43303047814E+02  0.97189373761E+02  0.00000000000E+00 0.  1.
         11    1    5    5    0    0  0.15174388396E+03 -0.42930664902E+02 -0.26369323567E+03  0.30725131545E+03  0.00000000000E+00 0. -1.
        -11    1    5    5    0    0  0.27233297148E+03  0.19598270701E+02 -0.34624051377E+03  0.44094425151E+03  0.00000000000E+00 0.  1.
          5    1    6    6  503    0 -0.19046418619E+02  0.91034713137E+01  0.14367154756E+02  0.25964290630E+02  0.47000000000E+01 0. -1.
         -5    1    6    6    0  503 -0.15170779090E+03 -0.69956710574E+01 -0.11946127167E+03  0.19328031111E+03  0.47000000000E+01 0.  1.
<mgrwt>
<rscale>  0 0.43129902E+03</rscale>
<asrwt>0</asrwt>
<pdfrwt beam="1">  1        1 0.15370540E+00 0.43129902E+03</pdfrwt>
<pdfrwt beam="2">  1       -1 0.36441739E-01 0.43129902E+03</pdfrwt>
<totfact> 0.11500449E+02</totfact>
</mgrwt>
</event>
<event>
12    1  0.3127365E-008  0.5863056E+03  0.7818608E-02  0.9934232E-01
         -4   -1    0    0    0  501 -0.00000000000E+00  0.00000000000E+00  0.12301148523E+04  0.12301148523E+04  0.00000000000E+00 0.  1.
          4   -1    0    0  501    0  0.00000000000E+00 -0.00000000000E+00 -0.40140309591E+03  0.40140309591E+03  0.00000000000E+00 0. -1.
         23    2    1    2    0    0  0.19224224557E+03  0.52727285228E+03  0.22530686997E+03  0.61206969307E+03  0.94299426210E+02 0.  0.
    5000000    2    1    2    0    0 -0.19224224557E+03 -0.52727285228E+03  0.60340488646E+03  0.10194482552E+04  0.60016959790E+03 0.  0.
         23    2    4    4    0    0 -0.42574006577E+02 -0.36374424769E+03  0.10540310813E+02  0.37843905649E+03  0.94776566496E+02 0.  0.
         23    2    4    4    0    0 -0.14966823899E+03 -0.16352860459E+03  0.59286457565E+03  0.64100919869E+03  0.10130252449E+03 0.  0.
          2    1    3    3  502    0  0.41286925920E+02  0.64783894847E+02  0.22082987674E+01  0.76853366009E+02  0.00000000000E+00 0.  1.
         -2    1    3    3    0  502  0.15095531965E+03  0.46248895744E+03  0.22309857120E+03  0.53521632706E+03  0.00000000000E+00 0. -1.
         11    1    5    5    0    0 -0.38515321625E+02 -0.30375340089E+03 -0.27291656154E+02  0.30739940314E+03  0.00000000000E+00 0. -1.
        -11    1    5    5    0    0 -0.40586849524E+01 -0.59990846801E+02  0.37831966967E+02  0.71039653350E+02  0.00000000000E+00 0.  1.
          5    1    6    6  503    0 -0.94773606153E+02 -0.31615784531E+02  0.26919227200E+03  0.28717270685E+03  0.47000000000E+01 0. -1.
         -5    1    6    6    0  503 -0.54894632835E+02 -0.13191282006E+03  0.32367230365E+03  0.35383649184E+03  0.47000000000E+01 0.  1.
<mgrwt>
<rscale>  0 0.58630558E+03</rscale>
<asrwt>0</asrwt>
<pdfrwt beam="1">  1        4 0.61754323E-01 0.58630558E+03</pdfrwt>
<pdfrwt beam="2">  1       -4 0.18924844E+00 0.58630558E+03</pdfrwt>
<totfact> 0.75572948E-01</totfact>
</mgrwt>
</event>
<event>
12    1  0.3127365E-008  0.5003314E+03  0.7818608E-02  0.1013692E+00
          2   -1    0    0  501    0  0.00000000000E+00  0.00000000000E+00  0.10165107065E+04  0.10165107065E+04  0.00000000000E+00 0.  1.
         -2   -1    0    0    0  501 -0.00000000000E+00 -0.00000000000E+00 -0.52885699494E+03  0.52885699494E+03  0.00000000000E+00 0. -1.
         23    2    1    2    0    0 -0.32500620409E+03  0.27392061277E+03  0.66027308059E+03  0.79012666407E+03  0.87624594372E+02 0.  0.
    5000000    2    1    2    0    0  0.32500620409E+03 -0.27392061277E+03 -0.17261936902E+03  0.75524103737E+03  0.59994169982E+03 0.  0.
         23    2    4    4    0    0  0.12001560952E+03  0.71030090160E+02  0.15562545358E+03  0.22814850271E+03  0.91561112101E+02 0.  0.
         23    2    4    4    0    0  0.20499059457E+03 -0.34495070293E+03 -0.32824482260E+03  0.52709253466E+03  0.95235210010E+02 0.  0.
          2    1    3    3  502    0 -0.70321227377E+02  0.10756358881E+03  0.22446994449E+03  0.25865373888E+03  0.00000000000E+00 0. -1.
         -2    1    3    3    0  502 -0.25468497671E+03  0.16635702396E+03  0.43580313610E+03  0.53147292520E+03  0.00000000000E+00 0.  1.
         11    1    5    5    0    0  0.67713609459E+02 -0.11679672054E+02  0.57995505724E+02  0.89916774461E+02  0.00000000000E+00 0.  1.
        -11    1    5    5    0    0  0.52302000063E+02  0.82709762214E+02  0.97629947857E+02  0.13823172825E+03  0.00000000000E+00 0. -1.
          5    1    6    6  503    0  0.12007855664E+03 -0.20257176456E+03 -0.25079554174E+03  0.34405620663E+03  0.47000000000E+01 0. -1.
         -5    1    6    6    0  503  0.84912037933E+02 -0.14237893836E+03 -0.77449280853E+02  0.18303632803E+03  0.47000000000E+01 0.  1.
<mgrwt>
<rscale>  0 0.50033137E+03</rscale>
<asrwt>0</asrwt>
<pdfrwt beam="1">  1        2 0.15638626E+00 0.50033137E+03</pdfrwt>
<pdfrwt beam="2">  1       -2 0.81362615E-01 0.50033137E+03</pdfrwt>
<totfact> 0.34216964E+01</totfact>
</mgrwt>
</event>
<event>
12    1  0.3127365E-008  0.1568635E+04  0.7818608E-02  0.8840052E-01
         -2   -1    0    0    0  501 -0.00000000000E+00  0.00000000000E+00  0.11808817641E+04  0.11808817641E+04  0.00000000000E+00 0.  1.
          2   -1    0    0  501    0  0.00000000000E+00 -0.00000000000E+00 -0.22406794375E+04  0.22406794375E+04  0.00000000000E+00 0. -1.
         23    2    1    2    0    0  0.45769283291E+03 -0.14611867557E+04 -0.87681510274E+03  0.17668562925E+04  0.91798527160E+02 0.  0.
    5000000    2    1    2    0    0 -0.45769283291E+03  0.14611867557E+04 -0.18298257066E+03  0.16547049090E+04  0.60001354185E+03 0.  0.
         23    2    4    4    0    0 -0.54136002290E+03  0.10416840526E+04  0.78724308993E+01  0.11775919149E+04  0.92110820198E+02 0.  0.
         23    2    4    4    0    0  0.83667189993E+02  0.41950270318E+03 -0.19085500156E+03  0.47711299410E+03  0.90710864118E+02 0.  0.
          3    1    3    3  502    0  0.30091800296E+03 -0.89061094654E+03 -0.58331286474E+03  0.11063423524E+04  0.00000000000E+00 0. -1.
         -3    1    3    3    0  502  0.15677482995E+03 -0.57057580920E+03 -0.29350223800E+03  0.66051394009E+03  0.00000000000E+00 0.  1.
         11    1    5    5    0    0 -0.14374142040E+03  0.30582045537E+03  0.41759548034E+02  0.34048730771E+03  0.00000000000E+00 0.  1.
        -11    1    5    5    0    0 -0.39761860251E+03  0.73586359719E+03 -0.33887117135E+02  0.83710460722E+03  0.00000000000E+00 0. -1.
          5    1    6    6  503    0  0.56895782450E+02  0.15387821250E+03 -0.11200299433E+03  0.19870177423E+03  0.47000000000E+01 0. -1.
         -5    1    6    6    0  503  0.26771407543E+02  0.26562449068E+03 -0.78852007234E+02  0.27841121988E+03  0.47000000000E+01 0.  1.
<mgrwt>
<rscale>  0 0.15686351E+04</rscale>
<asrwt>0</asrwt>
<pdfrwt beam="1">  1        2 0.34471991E+00 0.15686351E+04</pdfrwt>
<pdfrwt beam="2">  1       -2 0.18167412E+00 0.15686351E+04</pdfrwt>
<totfact> 0.80804069E-01</totfact>
</mgrwt>
</event>
<event>
12    1  0.3127365E-008  0.6828884E+03  0.7818608E-02  0.9746951E-01
          2   -1    0    0  501    0  0.00000000000E+00  0.00000000000E+00  0.10612388958E+04  0.10612388958E+04  0.00000000000E+00 0. -1.
         -2   -1    0    0    0  501 -0.00000000000E+00 -0.00000000000E+00 -0.65468282092E+03  0.65468282092E+03  0.00000000000E+00 0.  1.
         23    2    1    2    0    0 -0.57542765234E+03  0.25639612860E+03  0.54142449315E+03  0.83554298057E+03  0.90197742523E+02 0.  0.
    5000000    2    1    2    0    0  0.57542765234E+03 -0.25639612860E+03 -0.13486841830E+03  0.88037873611E+03  0.60001772549E+03 0.  0.
         23    2    4    4    0    0  0.60332991336E+03 -0.26687082974E+03  0.51273298362E+02  0.66793717218E+03  0.91016980498E+02 0.  0.
         23    2    4    4    0    0 -0.27902261016E+02  0.10474701144E+02 -0.18614171666E+03  0.21244156393E+03  0.97951130001E+02 0.  0.
          3    1    3    3  502    0 -0.12069679914E+03  0.41763928957E+02  0.15818737371E+03  0.20331057101E+03  0.00000000000E+00 0. -1.
         -3    1    3    3    0  502 -0.45473085320E+03  0.21463219964E+03  0.38323711944E+03  0.63223240955E+03  0.00000000000E+00 0.  1.
         13    1    5    5    0    0  0.40389641876E+02 -0.39099275903E+01  0.21434548520E+02  0.45891726649E+02  0.00000000000E+00 0. -1.
        -13    1    5    5    0    0  0.56294027148E+03 -0.26296090215E+03  0.29838749842E+02  0.62204544553E+03  0.00000000000E+00 0.  1.
          5    1    6    6  503    0  0.17071133327E+02  0.20404602836E+02 -0.76997039200E+01  0.28091757696E+02  0.47000000000E+01 0. -1.
         -5    1    6    6    0  503 -0.44973394344E+02 -0.99299016928E+01 -0.17844201274E+03  0.18434980623E+03  0.47000000000E+01 0.  1.
<mgrwt>
<rscale>  0 0.68288842E+03</rscale>
<asrwt>0</asrwt>
<pdfrwt beam="1">  1        2 0.16326752E+00 0.68288842E+03</pdfrwt>
<pdfrwt beam="2">  1       -2 0.10072043E+00 0.68288842E+03</pdfrwt>
<totfact> 0.19170028E+01</totfact>
</mgrwt>
</event>
<event>
12    1  0.3127365E-008  0.1096035E+04  0.7818608E-02  0.9209065E-01
          2   -1    0    0  501    0  0.00000000000E+00  0.00000000000E+00  0.97641061546E+03  0.97641061546E+03  0.00000000000E+00 0. -1.
         -2   -1    0    0    0  501 -0.00000000000E+00 -0.00000000000E+00 -0.13270416761E+04  0.13270416761E+04  0.00000000000E+00 0.  1.
         23    2    1    2    0    0  0.51619711828E+03  0.90539795731E+03  0.13584764503E+02  0.10469094818E+04  0.98132518628E+02 0.  0.
    5000000    2    1    2    0    0 -0.51619711828E+03 -0.90539795731E+03 -0.36421582513E+03  0.12565428098E+04  0.60003478187E+03 0.  0.
         23    2    4    4    0    0  0.57739612302E+02 -0.26300986508E+03  0.60758936729E+02  0.29141030368E+03  0.93382357773E+02 0.  0.
         23    2    4    4    0    0 -0.57393673058E+03 -0.64238809224E+03 -0.42497476186E+03  0.96513250607E+03  0.93868920890E+02 0.  0.
          2    1    3    3  502    0  0.28814234200E+03  0.53218163885E+03  0.54459411726E+02  0.60762581702E+03  0.00000000000E+00 0.  1.
         -2    1    3    3    0  502  0.22805477627E+03  0.37321631846E+03 -0.40874647222E+02  0.43928366477E+03  0.00000000000E+00 0. -1.
         11    1    5    5    0    0 -0.17913056551E+02 -0.12082583115E+03  0.42461545262E+02  0.12931644093E+03  0.00000000000E+00 0. -1.
        -11    1    5    5    0    0  0.75652668853E+02 -0.14218403393E+03  0.18297391467E+02  0.16209386275E+03  0.00000000000E+00 0.  1.
          5    1    6    6  503    0 -0.47992537207E+03 -0.48112137865E+03 -0.32427270300E+03  0.75298142053E+03  0.47000000000E+01 0. -1.
         -5    1    6    6    0  503 -0.94011358508E+02 -0.16126671358E+03 -0.10070205886E+03  0.21215108554E+03  0.47000000000E+01 0.  1.
<mgrwt>
<rscale>  0 0.10960348E+04</rscale>
<asrwt>0</asrwt>
<pdfrwt beam="1">  1        2 0.15021702E+00 0.10960348E+04</pdfrwt>
<pdfrwt beam="2">  1       -2 0.20416026E+00 0.10960348E+04</pdfrwt>
<totfact> 0.32022787E+00</totfact>
</mgrwt>
</event>
<event>
12    1  0.3127365E-008  0.6969901E+03  0.7818608E-02  0.9722393E-01
          2   -1    0    0  501    0  0.00000000000E+00  0.00000000000E+00  0.75568493395E+03  0.75568493395E+03  0.00000000000E+00 0. -1.
         -2   -1    0    0    0  501 -0.00000000000E+00 -0.00000000000E+00 -0.14054470853E+04  0.14054470853E+04  0.00000000000E+00 0.  1.
         23    2    1    2    0    0 -0.42350185444E+03 -0.43154011400E+03 -0.10540176713E+04  0.12182335959E+04  0.86943383268E+02 0.  0.
    5000000    2    1    2    0    0  0.42350185444E+03  0.43154011400E+03  0.40425551996E+03  0.94289842340E+03  0.60004518224E+03 0.  0.
         23    2    4    4    0    0  0.31345549781E+03  0.52720082113E+03  0.15320935885E+03  0.63876359523E+03  0.91382536859E+02 0.  0.
         23    2    4    4    0    0  0.11004635663E+03 -0.95660707124E+02  0.25104616111E+03  0.30413482818E+03  0.90623657011E+02 0.  0.
          1    1    3    3  502    0 -0.19359985885E+03 -0.22164890171E+03 -0.43276721191E+03  0.52335131669E+03  0.00000000000E+00 0. -1.
         -1    1    3    3    0  502 -0.22990199558E+03 -0.20989121229E+03 -0.62125045941E+03  0.69488227916E+03  0.00000000000E+00 0.  1.
         13    1    5    5    0    0  0.10693625334E+02  0.58850292705E+02  0.32826315428E+02  0.68229594450E+02  0.00000000000E+00 0. -1.
        -13    1    5    5    0    0  0.30276187247E+03  0.46835052842E+03  0.12038304343E+03  0.57053400078E+03  0.00000000000E+00 0.  1.
          5    1    6    6  503    0 -0.63307935224E+01 -0.41836547130E+02  0.75826499346E+02  0.86960471627E+02  0.47000000000E+01 0. -1.
         -5    1    6    6    0  503  0.11637715015E+03 -0.53824159994E+02  0.17521966176E+03  0.21717435655E+03  0.47000000000E+01 0.  1.
<mgrwt>
<rscale>  0 0.69699006E+03</rscale>
<asrwt>0</asrwt>
<pdfrwt beam="1">  1        2 0.11625922E+00 0.69699006E+03</pdfrwt>
<pdfrwt beam="2">  1       -2 0.21622263E+00 0.69699006E+03</pdfrwt>
<totfact> 0.40032582E+00</totfact>
</mgrwt>
</event>
<event>
12    1  0.4167055E-008  0.1756886E+04  0.7818608E-02  0.8729569E-01
         -3   -1    0    0    0  501 -0.00000000000E+00  0.00000000000E+00  0.16672645086E+04  0.16672645086E+04  0.00000000000E+00 0.  1.
          3   -1    0    0  501    0  0.00000000000E+00 -0.00000000000E+00 -0.25208701081E+04  0.25208701081E+04  0.00000000000E+00 0. -1.
         23    2    1    2    0    0 -0.10073580180E+04  0.14045683333E+04  0.62050070380E+03  0.18385621403E+04  0.87790894077E+02 0.  0.
    5000000    2    1    2    0    0  0.10073580180E+04 -0.14045683333E+04 -0.14741063034E+04  0.23495724764E+04  0.59993253698E+03 0.  0.
         23    2    4    4    0    0  0.82680059360E+03 -0.80641449830E+03 -0.11768088099E+04  0.16514373987E+04  0.91994249208E+02 0.  0.
         23    2    4    4    0    0  0.18055742437E+03 -0.59815383498E+03 -0.29729749345E+03  0.69813507775E+03  0.92832070778E+02 0.  0.
          3    1    3    3  502    0 -0.48656966670E+03  0.73187417605E+03  0.34813734725E+03  0.94529861032E+03  0.00000000000E+00 0. -1.
         -3    1    3    3    0  502 -0.52078835127E+03  0.67269415723E+03  0.27236335655E+03  0.89326352997E+03  0.00000000000E+00 0.  1.
         11    1    5    5    0    0  0.36999993582E+03 -0.29803018956E+03 -0.48938587768E+03  0.68207073216E+03  0.00000000000E+00 0. -1.
        -11    1    5    5    0    0  0.45680065778E+03 -0.50838430874E+03 -0.68742293226E+03  0.96936666650E+03  0.00000000000E+00 0.  1.
          5    1    6    6  503    0  0.74280939546E+02 -0.29871474881E+03 -0.98153758084E+02  0.32311671167E+03  0.47000000000E+01 0. -1.
         -5    1    6    6    0  503  0.10627648483E+03 -0.29943908617E+03 -0.19914373537E+03  0.37501836607E+03  0.47000000000E+01 0.  1.
<mgrwt>
<rscale>  0 0.17568860E+04</rscale>
<asrwt>0</asrwt>
<pdfrwt beam="1">  1        3 0.38782617E+00 0.17568860E+04</pdfrwt>
<pdfrwt beam="2">  1       -3 0.25650223E+00 0.17568860E+04</pdfrwt>
<totfact> 0.20063507E-03</totfact>
</mgrwt>
</event>
<event>
12    1  0.3127365E-008  0.5273370E+03  0.7818608E-02  0.1006880E+00
          2   -1    0    0  501    0  0.00000000000E+00  0.00000000000E+00  0.13551414369E+04  0.13551414369E+04  0.00000000000E+00 0. -1.
         -2   -1    0    0    0  501 -0.00000000000E+00 -0.00000000000E+00 -0.22942627832E+03  0.22942627832E+03  0.00000000000E+00 0.  1.
         23    2    1    2    0    0  0.27286839229E+03  0.26731327273E+03  0.29800232664E+03  0.49315314764E+03  0.92092861051E+02 0.  0.
    5000000    2    1    2    0    0 -0.27286839229E+03 -0.26731327273E+03  0.82771283197E+03  0.10914145676E+04  0.60013638525E+03 0.  0.
         23    2    4    4    0    0  0.41409931707E+02  0.13778128864E+03  0.32890618812E+03  0.37038038662E+03  0.91125650964E+02 0.  0.
         23    2    4    4    0    0 -0.31427832400E+03 -0.40509456137E+03  0.49880664385E+03  0.72103418099E+03  0.90607690774E+02 0.  0.
          1    1    3    3  502    0  0.85918141124E+02  0.54036471847E+02  0.12468346811E+03  0.16077261733E+03  0.00000000000E+00 0. -1.
         -1    1    3    3    0  502  0.18695025117E+03  0.21327680088E+03  0.17331885853E+03  0.33238053031E+03  0.00000000000E+00 0.  1.
         13    1    5    5    0    0  0.46942839825E+02  0.70177866867E+02  0.26134395027E+03  0.27464381215E+03  0.00000000000E+00 0.  1.
        -13    1    5    5    0    0 -0.55329081183E+01  0.67603421774E+02  0.67562237854E+02  0.95736574472E+02  0.00000000000E+00 0. -1.
          5    1    6    6  503    0 -0.18210281259E+03 -0.17916991975E+03  0.28727094568E+03  0.38446063612E+03  0.47000000000E+01 0. -1.
         -5    1    6    6    0  503 -0.13217551141E+03 -0.22592464162E+03  0.21153569817E+03  0.33657354488E+03  0.47000000000E+01 0.  1.
<mgrwt>
<rscale>  0 0.52733703E+03</rscale>
<asrwt>0</asrwt>
<pdfrwt beam="1">  1        2 0.20848329E+00 0.52733703E+03</pdfrwt>
<pdfrwt beam="2">  1       -2 0.35296351E-01 0.52733703E+03</pdfrwt>
<totfact> 0.12015021E+02</totfact>
</mgrwt>
</event>
<event>
12    1  0.3127365E-008  0.7408308E+03  0.7818608E-02  0.9649846E-01
          2   -1    0    0  501    0  0.00000000000E+00  0.00000000000E+00  0.26841363314E+04  0.26841363314E+04  0.00000000000E+00 0. -1.
         -2   -1    0    0    0  501 -0.00000000000E+00 -0.00000000000E+00 -0.38344873032E+03  0.38344873032E+03  0.00000000000E+00 0.  1.
         23    2    1    2    0    0 -0.90985653707E+02  0.66459420030E+03  0.92897714767E+02  0.68341460813E+03  0.91987504281E+02 0.  0.
    5000000    2    1    2    0    0  0.90985653707E+02 -0.66459420030E+03  0.22077898863E+04  0.23841704536E+04  0.59997394067E+03 0.  0.
         23    2    4    4    0    0  0.14799836077E+03 -0.42332850704E+02  0.15820666558E+03  0.23934136096E+03  0.92516771409E+02 0.  0.
         23    2    4    4    0    0 -0.57012707062E+02 -0.62226134959E+03  0.20495832207E+04  0.21448290927E+04  0.95083237160E+02 0.  0.
          4    1    3    3  502    0 -0.18648741007E+02  0.31482811347E+02 -0.99915538815E+01  0.37931175838E+02  0.00000000000E+00 0. -1.
         -4    1    3    3    0  502 -0.72336912700E+02  0.63311138895E+03  0.10288926865E+03  0.64548343229E+03  0.00000000000E+00 0.  1.
         11    1    5    5    0    0  0.70226642837E+02  0.23339072048E+02  0.42921916114E+02  0.85549894980E+02  0.00000000000E+00 0. -1.
        -11    1    5    5    0    0  0.77771717933E+02 -0.65671922752E+02  0.11528474946E+03  0.15379146598E+03  0.00000000000E+00 0.  1.
          5    1    6    6  503    0 -0.80260823066E+02 -0.55350835664E+03  0.18090870395E+04  0.18935763272E+04  0.47000000000E+01 0. -1.
         -5    1    6    6    0  503  0.23248116003E+02 -0.68752992947E+02  0.24049618124E+03  0.25125276541E+03  0.47000000000E+01 0.  1.
<mgrwt>
<rscale>  0 0.74083083E+03</rscale>
<asrwt>0</asrwt>
<pdfrwt beam="1">  1        2 0.41294404E+00 0.74083083E+03</pdfrwt>
<pdfrwt beam="2">  1       -2 0.58992114E-01 0.74083083E+03</pdfrwt>
<totfact> 0.76956054E+00</totfact>
</mgrwt>
</event>
<event>
12    1  0.3127365E-008  0.5579315E+03  0.7818608E-02  0.9996746E-01
          2   -1    0    0  501    0  0.00000000000E+00  0.00000000000E+00  0.12585854660E+04  0.12585854660E+04  0.00000000000E+00 0.  1.
         -2   -1    0    0    0  501 -0.00000000000E+00 -0.00000000000E+00 -0.30786758852E+03  0.30786758852E+03  0.00000000000E+00 0. -1.
         23    2    1    2    0    0 -0.45434096914E+03  0.63999128957E+02  0.22550583742E+03  0.51928688534E+03  0.91018579596E+02 0.  0.
    5000000    2    1    2    0    0  0.45434096914E+03 -0.63999128957E+02  0.72521204001E+03  0.10471661691E+04  0.60008572560E+03 0.  0.
         23    2    4    4    0    0 -0.41978013809E+02 -0.11997241854E+03 -0.69927391290E+01  0.15631047084E+03  0.90711245388E+02 0.  0.
         23    2    4    4    0    0  0.49631898295E+03  0.55973289579E+02  0.73220477914E+03  0.89085569830E+03  0.89635342489E+02 0.  0.
          2    1    3    3  502    0 -0.97450818441E+02  0.22836068500E+02  0.10579546317E+02  0.10064827291E+03  0.00000000000E+00 0.  1.
         -2    1    3    3    0  502 -0.35689015070E+03  0.41163060456E+02  0.21492629111E+03  0.41863861243E+03  0.00000000000E+00 0. -1.
         11    1    5    5    0    0 -0.68685363301E+02 -0.64147101830E+02 -0.88527044167E+01  0.94397564484E+02  0.00000000000E+00 0. -1.
        -11    1    5    5    0    0  0.26707349492E+02 -0.55825316705E+02  0.18599652876E+01  0.61912906352E+02  0.00000000000E+00 0.  1.
          5    1    6    6  503    0  0.35282988914E+03  0.54714661065E+02  0.58398301078E+03  0.68450045412E+03  0.47000000000E+01 0. -1.
         -5    1    6    6    0  503  0.14348909381E+03  0.12586285140E+01  0.14822176836E+03  0.20635524419E+03  0.47000000000E+01 0.  1.
<mgrwt>
<rscale>  0 0.55793147E+03</rscale>
<asrwt>0</asrwt>
<pdfrwt beam="1">  1        2 0.19362853E+00 0.55793147E+03</pdfrwt>
<pdfrwt beam="2">  1       -2 0.47364245E-01 0.55793147E+03</pdfrwt>
<totfact> 0.76598631E+01</totfact>
</mgrwt>
</event>
<event>
12    1  0.3127365E-008  0.1220377E+04  0.7818608E-02  0.9095205E-01
          2   -1    0    0  501    0  0.00000000000E+00  0.00000000000E+00  0.11468370672E+04  0.11468370672E+04  0.00000000000E+00 0. -1.
         -2   -1    0    0    0  501 -0.00000000000E+00 -0.00000000000E+00 -0.13323933673E+04  0.13323933673E+04  0.00000000000E+00 0.  1.
         23    2    1    2    0    0  0.26779377580E+03 -0.11207805934E+04 -0.23360737890E+03  0.11790857942E+04  0.88364345670E+02 0.  0.
    5000000    2    1    2    0    0 -0.26779377580E+03  0.11207805934E+04  0.48051078854E+02  0.13001446404E+04  0.60017042145E+03 0.  0.
         23    2    4    4    0    0 -0.34926314407E+03  0.29919871216E+03  0.28616042736E+02  0.46969315972E+03  0.91039404764E+02 0.  0.
         23    2    4    4    0    0  0.81469368273E+02  0.82158188125E+03  0.19435036117E+02  0.83045148065E+03  0.87395054354E+02 0.  0.
          1    1    3    3  502    0  0.20326973586E+03 -0.77118682449E+03 -0.19850276166E+03  0.82185829081E+03  0.00000000000E+00 0. -1.
         -1    1    3    3    0  502  0.64524039941E+02 -0.34959376892E+03 -0.35104617242E+02  0.35722750335E+03  0.00000000000E+00 0.  1.
         11    1    5    5    0    0 -0.16598689934E+03  0.12312249773E+03  0.55869432317E+02  0.21408454794E+03  0.00000000000E+00 0. -1.
        -11    1    5    5    0    0 -0.18327624473E+03  0.17607621443E+03 -0.27253389581E+02  0.25560861178E+03  0.00000000000E+00 0.  1.
          5    1    6    6  503    0  0.84176270003E+02  0.67716147814E+03  0.44214283474E+02  0.68382037464E+03  0.47000000000E+01 0. -1.
         -5    1    6    6    0  503 -0.27069017308E+01  0.14442040311E+03 -0.24779247356E+02  0.14663110601E+03  0.47000000000E+01 0.  1.
<mgrwt>
<rscale>  0 0.12203768E+04</rscale>
<asrwt>0</asrwt>
<pdfrwt beam="1">  1        2 0.17643647E+00 0.12203768E+04</pdfrwt>
<pdfrwt beam="2">  1       -2 0.20498360E+00 0.12203768E+04</pdfrwt>
<totfact> 0.24394967E+00</totfact>
</mgrwt>
</event>
<event>
12    1  0.3127365E-008  0.7066960E+03  0.7818608E-02  0.9705849E-01
         -2   -1    0    0    0  501 -0.00000000000E+00  0.00000000000E+00  0.23109533004E+03  0.23109533004E+03  0.00000000000E+00 0.  1.
          2   -1    0    0  501    0  0.00000000000E+00 -0.00000000000E+00 -0.33595627222E+04  0.33595627222E+04  0.00000000000E+00 0. -1.
         23    2    1    2    0    0 -0.44186816862E+03  0.38112795380E+03 -0.24292726558E+04  0.25000495734E+04  0.91521789641E+02 0.  0.
    5000000    2    1    2    0    0  0.44186816862E+03 -0.38112795380E+03 -0.69919473636E+03  0.10906084788E+04  0.60003964786E+03 0.  0.
         23    2    4    4    0    0  0.13047556321E+03 -0.47348683482E+03 -0.43546413162E+03  0.66297485493E+03  0.93236221474E+02 0.  0.
         23    2    4    4    0    0  0.31139260541E+03  0.92358881026E+02 -0.26373060474E+03  0.42763362384E+03  0.88437360618E+02 0.  0.
          4    1    3    3  502    0 -0.17651591842E+03  0.21001027482E+03 -0.10742915283E+04  0.11087670958E+04  0.00000000000E+00 0.  1.
         -4    1    3    3    0  502 -0.26535225020E+03  0.17111767898E+03 -0.13549811275E+04  0.13912824776E+04  0.00000000000E+00 0. -1.
         13    1    5    5    0    0  0.13210017290E+03 -0.41878882925E+03 -0.35024664811E+03  0.56170032375E+03  0.00000000000E+00 0.  1.
        -13    1    5    5    0    0 -0.16246096906E+01 -0.54698005570E+02 -0.85217483510E+02  0.10127453118E+03  0.00000000000E+00 0. -1.
          5    1    6    6  503    0  0.17841285465E+03  0.24678639198E+02 -0.18740654599E+03  0.25996823925E+03  0.47000000000E+01 0. -1.
         -5    1    6    6    0  503  0.13297975076E+03  0.67680241828E+02 -0.76324058742E+02  0.16766538459E+03  0.47000000000E+01 0.  1.
<mgrwt>
<rscale>  0 0.70669600E+03</rscale>
<asrwt>0</asrwt>
<pdfrwt beam="1">  1        2 0.51685572E+00 0.70669600E+03</pdfrwt>
<pdfrwt beam="2">  1       -2 0.35553134E-01 0.70669600E+03</pdfrwt>
<totfact> 0.81944459E+00</totfact>
</mgrwt>
</event>
<event>
12    1  0.3127365E-008  0.4833789E+03  0.7818608E-02  0.1018211E+00
         -2   -1    0    0    0  501 -0.00000000000E+00  0.00000000000E+00  0.70347978742E+03  0.70347978742E+03  0.00000000000E+00 0. -1.
          2   -1    0    0  501    0  0.00000000000E+00 -0.00000000000E+00 -0.66776826558E+03  0.66776826558E+03  0.00000000000E+00 0.  1.
         23    2    1    2    0    0  0.47399301559E+02 -0.36451463311E+03  0.42334231177E+03  0.56793667936E+03  0.90640759516E+02 0.  0.
    5000000    2    1    2    0    0 -0.47399301559E+02  0.36451463311E+03 -0.38763078993E+03  0.80331137363E+03  0.59994493261E+03 0.  0.
         23    2    4    4    0    0  0.38268662468E+02 -0.10338179201E+03 -0.26694279144E+03  0.30414457806E+03  0.95358193201E+02 0.  0.
         23    2    4    4    0    0 -0.85667964027E+02  0.46789642513E+03 -0.12068799848E+03  0.49916679558E+03  0.91300778313E+02 0.  0.
          4    1    3    3  502    0  0.74515585366E+02 -0.27943641940E+03  0.31792784943E+03  0.42978529802E+03  0.00000000000E+00 0. -1.
         -4    1    3    3    0  502 -0.27116283807E+02 -0.85078213713E+02  0.10541446234E+03  0.13815138134E+03  0.00000000000E+00 0.  1.
         13    1    5    5    0    0  0.13308293561E+02 -0.65112105128E+02 -0.51958389723E+02  0.84358586844E+02  0.00000000000E+00 0.  1.
        -13    1    5    5    0    0  0.24960368907E+02 -0.38269686884E+02 -0.21498440172E+03  0.21978599121E+03  0.00000000000E+00 0. -1.
          5    1    6    6  503    0 -0.78085111549E+02  0.39487344683E+03 -0.13428543765E+03  0.42435479545E+03  0.47000000000E+01 0. -1.
         -5    1    6    6    0  503 -0.75828524780E+01  0.73022978300E+02  0.13597439164E+02  0.74812000129E+02  0.47000000000E+01 0.  1.
<mgrwt>
<rscale>  0 0.48337890E+03</rscale>
<asrwt>0</asrwt>
<pdfrwt beam="1">  1        2 0.10273358E+00 0.48337890E+03</pdfrwt>
<pdfrwt beam="2">  1       -2 0.10822766E+00 0.48337890E+03</pdfrwt>
<totfact> 0.30945150E+01</totfact>
</mgrwt>
</event>
<event>
12    1  0.3127365E-008  0.6968731E+03  0.7818608E-02  0.9722595E-01
         -1   -1    0    0    0  501 -0.00000000000E+00  0.00000000000E+00  0.36472314818E+03  0.36472314818E+03  0.00000000000E+00 0.  1.
          1   -1    0    0  501    0  0.00000000000E+00 -0.00000000000E+00 -0.15000952472E+04  0.15000952472E+04  0.00000000000E+00 0. -1.
         23    2    1    2    0    0 -0.40564693362E+03  0.43039510762E+03 -0.26643826063E+03  0.65451279344E+03  0.87225378432E+02 0.  0.
    5000000    2    1    2    0    0  0.40564693362E+03 -0.43039510762E+03 -0.86893383842E+03  0.12103056020E+04  0.60000354263E+03 0.  0.
         23    2    4    4    0    0 -0.92605655638E+02  0.47137196487E+02 -0.11275318890E+03  0.18214145484E+03  0.98308215397E+02 0.  0.
         23    2    4    4    0    0  0.49825258926E+03 -0.47753230410E+03 -0.75618064951E+03  0.10281641471E+04  0.94971546008E+02 0.  0.
          3    1    3    3  502    0 -0.30617314965E+03  0.29528383880E+03 -0.15327507319E+03  0.45213691630E+03  0.00000000000E+00 0. -1.
         -3    1    3    3    0  502 -0.99473783969E+02  0.13511126882E+03 -0.11316318743E+03  0.20237587714E+03  0.00000000000E+00 0.  1.
         11    1    5    5    0    0 -0.38635819605E+02  0.21610211768E+02  0.10227707687E+02  0.45434940450E+02  0.00000000000E+00 0.  1.
        -11    1    5    5    0    0 -0.53969836034E+02  0.25526984719E+02 -0.12298089659E+03  0.13670651439E+03  0.00000000000E+00 0. -1.
          5    1    6    6  503    0  0.17799543512E+03 -0.11077126743E+03 -0.23046033730E+03  0.31158739654E+03  0.47000000000E+01 0. -1.
         -5    1    6    6    0  503  0.32025715413E+03 -0.36676103667E+03 -0.52572031221E+03  0.71657675058E+03  0.47000000000E+01 0.  1.
<mgrwt>
<rscale>  0 0.69687308E+03</rscale>
<asrwt>0</asrwt>
<pdfrwt beam="1">  1        1 0.23078388E+00 0.69687308E+03</pdfrwt>
<pdfrwt beam="2">  1       -1 0.56111254E-01 0.69687308E+03</pdfrwt>
<totfact> 0.21889985E+01</totfact>
</mgrwt>
</event>
<event>
12    1  0.3127365E-008  0.4832165E+03  0.7818608E-02  0.1018255E+00
          1   -1    0    0  501    0  0.00000000000E+00  0.00000000000E+00  0.15593905068E+04  0.15593905068E+04  0.00000000000E+00 0. -1.
         -1   -1    0    0    0  501 -0.00000000000E+00 -0.00000000000E+00 -0.22008069308E+03  0.22008069308E+03  0.00000000000E+00 0.  1.
         23    2    1    2    0    0 -0.35080647726E+02  0.32644673825E+03  0.82117677976E+02  0.34838024702E+03  0.82627832617E+02 0.  0.
    5000000    2    1    2    0    0  0.35080647726E+02 -0.32644673825E+03  0.12571921357E+04  0.14310909529E+04  0.59974254846E+03 0.  0.
         23    2    4    4    0    0 -0.16237160898E+03 -0.38904495654E+03  0.62203398392E+03  0.75694151652E+03  0.91179299574E+02 0.  0.
         23    2    4    4    0    0  0.19745225671E+03  0.62598218299E+02  0.63515815181E+03  0.67414943633E+03  0.90253277377E+02 0.  0.
          3    1    3    3  502    0  0.13631398528E+02  0.46436526901E+02 -0.10370492648E+02  0.49494577220E+02  0.00000000000E+00 0. -1.
         -3    1    3    3    0  502 -0.48712046254E+02  0.28001021134E+03  0.92488170624E+02  0.29888566980E+03  0.00000000000E+00 0.  1.
         13    1    5    5    0    0 -0.13152756697E+03 -0.36080663596E+03  0.51809662467E+03  0.64490700253E+03  0.00000000000E+00 0.  1.
        -13    1    5    5    0    0 -0.30844042011E+02 -0.28238320589E+02  0.10393735925E+03  0.11203451399E+03  0.00000000000E+00 0. -1.
          5    1    6    6  503    0  0.33865381568E+02  0.16405117605E+02  0.25352058307E+03  0.25634111647E+03  0.47000000000E+01 0. -1.
         -5    1    6    6    0  503  0.16358687514E+03  0.46193100694E+02  0.38163756874E+03  0.41780831986E+03  0.47000000000E+01 0.  1.
<mgrwt>
<rscale>  0 0.48321651E+03</rscale>
<asrwt>0</asrwt>
<pdfrwt beam="1">  1        1 0.23990623E+00 0.48321651E+03</pdfrwt>
<pdfrwt beam="2">  1       -1 0.33858569E-01 0.48321651E+03</pdfrwt>
<totfact> 0.52268615E+01</totfact>
</mgrwt>
</event>
<event>
12    1  0.3127365E-008  0.5656723E+03  0.7818608E-02  0.9979301E-01
         -2   -1    0    0    0  501 -0.00000000000E+00  0.00000000000E+00  0.17382846483E+03  0.17382846483E+03  0.00000000000E+00 0.  1.
          2   -1    0    0  501    0  0.00000000000E+00 -0.00000000000E+00 -0.25038458696E+04  0.25038458696E+04  0.00000000000E+00 0. -1.
         23    2    1    2    0    0 -0.34759770462E+03  0.25327204127E+03 -0.15189324023E+04  0.15810054557E+04  0.86323329483E+02 0.  0.
    5000000    2    1    2    0    0  0.34759770462E+03 -0.25327204127E+03 -0.81108500247E+03  0.10966688787E+04  0.59987736837E+03 0.  0.
         23    2    4    4    0    0  0.83547826242E+02  0.17178470901E+03 -0.35376672142E+03  0.41267592710E+03  0.93060744153E+02 0.  0.
         23    2    4    4    0    0  0.26404987838E+03 -0.42505675028E+03 -0.45731828104E+03  0.68399295158E+03  0.91163415897E+02 0.  0.
          3    1    3    3  502    0 -0.31061477916E+03  0.22685596235E+03 -0.12366018502E+04  0.12950402715E+04  0.00000000000E+00 0. -1.
         -3    1    3    3    0  502 -0.36982925465E+02  0.26416078924E+02 -0.28233055204E+03  0.28596518427E+03  0.00000000000E+00 0.  1.
         13    1    5    5    0    0  0.81590428882E+02  0.10123098394E+03 -0.15826218121E+03  0.20482096620E+03  0.00000000000E+00 0. -1.
        -13    1    5    5    0    0  0.19573973604E+01  0.70553725064E+02 -0.19550454021E+03  0.20785496090E+03  0.00000000000E+00 0.  1.
          5    1    6    6  503    0  0.30309947961E+02 -0.45151697081E+02 -0.16917478308E+02  0.57145951449E+02  0.47000000000E+01 0. -1.
         -5    1    6    6    0  503  0.23373993042E+03 -0.37990505320E+03 -0.44040080274E+03  0.62684700013E+03  0.47000000000E+01 0.  1.
<mgrwt>
<rscale>  0 0.56567233E+03</rscale>
<asrwt>0</asrwt>
<pdfrwt beam="1">  1        2 0.38520705E+00 0.56567233E+03</pdfrwt>
<pdfrwt beam="2">  1       -2 0.26742841E-01 0.56567233E+03</pdfrwt>
<totfact> 0.47054242E+01</totfact>
</mgrwt>
</event>
<event>
12    1  0.3127365E-008  0.8525119E+03  0.7818608E-02  0.9486972E-01
          1   -1    0    0  501    0  0.00000000000E+00  0.00000000000E+00  0.13695553619E+04  0.13695553619E+04  0.00000000000E+00 0. -1.
         -1   -1    0    0    0  501 -0.00000000000E+00 -0.00000000000E+00 -0.56091270060E+03  0.56091270060E+03  0.00000000000E+00 0.  1.
         23    2    1    2    0    0  0.48350901757E+03  0.59986142466E+03  0.32799385410E+03  0.84203204523E+03  0.88449409287E+02 0.  0.
    5000000    2    1    2    0    0 -0.48350901757E+03 -0.59986142466E+03  0.48064880722E+03  0.10884360173E+04  0.60004582239E+03 0.  0.
         23    2    4    4    0    0 -0.32929209624E+03 -0.18201819182E+02  0.30053370114E+03  0.45504089523E+03  0.89314724133E+02 0.  0.
         23    2    4    4    0    0 -0.15421692133E+03 -0.58165960548E+03  0.18011510608E+03  0.63339512205E+03  0.81468851288E+02 0.  0.
          2    1    3    3  502    0  0.94405216401E+02  0.11760308983E+03  0.10374541186E+03  0.18304628405E+03  0.00000000000E+00 0.  1.
         -2    1    3    3    0  502  0.38910380117E+03  0.48225833483E+03  0.22424844224E+03  0.65898576118E+03  0.00000000000E+00 0. -1.
         11    1    5    5    0    0 -0.16964532834E+03 -0.31146437084E+02  0.10362867561E+03  0.20121764430E+03  0.00000000000E+00 0. -1.
        -11    1    5    5    0    0 -0.15964676790E+03  0.12944617903E+02  0.19690502553E+03  0.25382325092E+03  0.00000000000E+00 0.  1.
          5    1    6    6  503    0 -0.48566061704E+02 -0.20016288474E+03  0.22347723899E+02  0.20723260733E+03  0.47000000000E+01 0. -1.
         -5    1    6    6    0  503 -0.10565085963E+03 -0.38149672074E+03  0.15776738218E+03  0.42616251472E+03  0.47000000000E+01 0.  1.
<mgrwt>
<rscale>  0 0.85251186E+03</rscale>
<asrwt>0</asrwt>
<pdfrwt beam="1">  1        1 0.21070082E+00 0.85251186E+03</pdfrwt>
<pdfrwt beam="2">  1       -1 0.86294262E-01 0.85251186E+03</pdfrwt>
<totfact> 0.10928759E+01</totfact>
</mgrwt>
</event>
<event>
12    1  0.3127365E-008  0.4130825E+03  0.7818608E-02  0.1039342E+00
          1   -1    0    0  501    0  0.00000000000E+00  0.00000000000E+00  0.44567138212E+03  0.44567138212E+03  0.00000000000E+00 0. -1.
         -1   -1    0    0    0  501 -0.00000000000E+00 -0.00000000000E+00 -0.78787410802E+03  0.78787410802E+03  0.00000000000E+00 0.  1.
         23    2    1    2    0    0 -0.25402356518E+03 -0.26708810218E+03  0.11159095703E+03  0.39573190876E+03  0.91033927354E+02 0.  0.
    5000000    2    1    2    0    0  0.25402356518E+03  0.26708810218E+03 -0.45379368292E+03  0.83781358138E+03  0.60011570926E+03 0.  0.
         23    2    4    4    0    0  0.89632316432E+02  0.26199689694E+03  0.53767197506E+02  0.29650132665E+03  0.91355344791E+02 0.  0.
         23    2    4    4    0    0  0.16439124875E+03  0.50912052419E+01 -0.50756088042E+03  0.54131225473E+03  0.91381107206E+02 0.  0.
          1    1    3    3  502    0 -0.20266158558E+03 -0.19166111129E+03  0.44488597165E+02  0.28246227205E+03  0.00000000000E+00 0. -1.
         -1    1    3    3    0  502 -0.51361979599E+02 -0.75426990886E+02  0.67102359861E+02  0.11326963671E+03  0.00000000000E+00 0.  1.
         11    1    5    5    0    0  0.19971734355E+02  0.88510231573E+01  0.23696404855E+02  0.32229340470E+02  0.00000000000E+00 0.  1.
        -11    1    5    5    0    0  0.69660582077E+02  0.25314587378E+03  0.30070792650E+02  0.26427198618E+03  0.00000000000E+00 0. -1.
          5    1    6    6  503    0  0.98951852979E+02  0.26525069989E+02 -0.18571707725E+03  0.21215082212E+03  0.47000000000E+01 0. -1.
         -5    1    6    6    0  503  0.65439395767E+02 -0.21433864747E+02 -0.32184380318E+03  0.32916143261E+03  0.47000000000E+01 0.  1.
<mgrwt>
<rscale>  0 0.41308246E+03</rscale>
<asrwt>0</asrwt>
<pdfrwt beam="1">  1        1 0.68564829E-01 0.41308246E+03</pdfrwt>
<pdfrwt beam="2">  1       -1 0.12121140E+00 0.41308246E+03</pdfrwt>
<totfact> 0.33436590E+01</totfact>
</mgrwt>
</event>
<event>
12    1  0.3127365E-008  0.1928149E+04  0.7818608E-02  0.8640970E-01
          2   -1    0    0  501    0  0.00000000000E+00  0.00000000000E+00  0.20869749592E+04  0.20869749592E+04  0.00000000000E+00 0.  1.
         -2   -1    0    0    0  501 -0.00000000000E+00 -0.00000000000E+00 -0.17980482957E+04  0.17980482957E+04  0.00000000000E+00 0. -1.
         23    2    1    2    0    0  0.89511453704E+03  0.16635492843E+04  0.17763545071E+03  0.18995951313E+04  0.91000296442E+02 0.  0.
    5000000    2    1    2    0    0 -0.89511453704E+03 -0.16635492843E+04  0.11129121284E+03  0.19854281236E+04  0.60076022184E+03 0.  0.
         23    2    4    4    0    0 -0.18914477943E+03 -0.55206753123E+02 -0.37070888959E+02  0.22023847980E+03  0.91143864293E+02 0.  0.
         23    2    4    4    0    0 -0.70596975761E+03 -0.16083425311E+04  0.14836210180E+03  0.17651896438E+04  0.93403260343E+02 0.  0.
          3    1    3    3  502    0  0.50081402731E+03  0.83498020042E+03  0.88415975914E+02  0.97766252349E+03  0.00000000000E+00 0. -1.
         -3    1    3    3    0  502  0.39430050973E+03  0.82856908385E+03  0.89219474800E+02  0.92193260782E+03  0.00000000000E+00 0.  1.
         11    1    5    5    0    0 -0.11401540222E+03 -0.15762804658E+01 -0.54367974585E+02  0.12632447611E+03  0.00000000000E+00 0.  1.
        -11    1    5    5    0    0 -0.75129377208E+02 -0.53630472657E+02  0.17297085626E+02  0.93914003686E+02  0.00000000000E+00 0. -1.
          5    1    6    6  503    0 -0.60653156442E+02 -0.87129053945E+02  0.20052491736E+01  0.10628446948E+03  0.47000000000E+01 0. -1.
         -5    1    6    6    0  503 -0.64531660117E+03 -0.15212134772E+04  0.14635685262E+03  0.16589051743E+04  0.47000000000E+01 0.  1.
<mgrwt>
<rscale>  0 0.19281487E+04</rscale>
<asrwt>0</asrwt>
<pdfrwt beam="1">  1        2 0.32107307E+00 0.19281487E+04</pdfrwt>
<pdfrwt beam="2">  1       -2 0.27662282E+00 0.19281487E+04</pdfrwt>
<totfact> 0.23671880E-01</totfact>
</mgrwt>
</event>
<event>
12    1  0.3127365E-008  0.4475583E+03  0.7818608E-02  0.1028453E+00
         -2   -1    0    0    0  501 -0.00000000000E+00  0.00000000000E+00  0.83268069109E+02  0.83268069109E+02  0.00000000000E+00 0. -1.
          2   -1    0    0  501    0  0.00000000000E+00 -0.00000000000E+00 -0.35009900216E+04  0.35009900216E+04  0.00000000000E+00 0.  1.
         23    2    1    2    0    0  0.34653801684E+03 -0.86671518284E+02 -0.91159197665E+03  0.98268833414E+03  0.84118255830E+02 0.  0.
    5000000    2    1    2    0    0 -0.34653801684E+03  0.86671518284E+02 -0.25061299758E+04  0.26015697565E+04  0.59989765234E+03 0.  0.
         23    2    4    4    0    0 -0.40824630371E+03  0.24291817925E+02 -0.23948672676E+04  0.24312916007E+04  0.92382254209E+02 0.  0.
         23    2    4    4    0    0  0.61708286870E+02  0.62379700359E+02 -0.11126270817E+03  0.17027815588E+03  0.94425210915E+02 0.  0.
          1    1    3    3  502    0  0.21503952338E+03 -0.83432157924E+02 -0.50113553162E+03  0.55166995808E+03  0.00000000000E+00 0. -1.
         -1    1    3    3    0  502  0.13149849346E+03 -0.32393603599E+01 -0.41045644502E+03  0.43101837606E+03  0.00000000000E+00 0.  1.
         13    1    5    5    0    0 -0.12120175993E+03  0.40325852745E+02 -0.90134669954E+03  0.91035263156E+03  0.00000000000E+00 0.  1.
        -13    1    5    5    0    0 -0.28704454378E+03 -0.16034034820E+02 -0.14935205681E+04  0.15209389691E+04  0.00000000000E+00 0. -1.
          5    1    6    6  503    0  0.71901025535E+02  0.21341163759E+02 -0.34886972934E+02  0.82851636219E+02  0.47000000000E+01 0. -1.
         -5    1    6    6    0  503 -0.10192738665E+02  0.41038536600E+02 -0.76375735236E+02  0.87426519665E+02  0.47000000000E+01 0.  1.
<mgrwt>
<rscale>  0 0.44755825E+03</rscale>
<asrwt>0</asrwt>
<pdfrwt beam="1">  1        2 0.53861383E+00 0.44755825E+03</pdfrwt>
<pdfrwt beam="2">  1       -2 0.12810473E-01 0.44755825E+03</pdfrwt>
<totfact> 0.42454072E+01</totfact>
</mgrwt>
</event>
<event>
12    1  0.3127365E-008  0.6719986E+03  0.7818608E-02  0.9766354E-01
         -1   -1    0    0    0  501 -0.00000000000E+00  0.00000000000E+00  0.62220154864E+03  0.62220154864E+03  0.00000000000E+00 0.  1.
          1   -1    0    0  501    0  0.00000000000E+00 -0.00000000000E+00 -0.87363198700E+03  0.87363198700E+03  0.00000000000E+00 0. -1.
         23    2    1    2    0    0  0.34261197513E+03 -0.49715445015E+03 -0.20200808621E+03  0.64319005973E+03  0.91327286369E+02 0.  0.
    5000000    2    1    2    0    0 -0.34261197513E+03  0.49715445015E+03 -0.49422352151E+02  0.85264347591E+03  0.60001067933E+03 0.  0.
         23    2    4    4    0    0 -0.36934889249E+03  0.16792020625E+03  0.16686267354E+03  0.44798277867E+03  0.90717242637E+02 0.  0.
         23    2    4    4    0    0  0.26736917359E+02  0.32923424390E+03 -0.21628502569E+03  0.40466069724E+03  0.88662378976E+02 0.  0.
          3    1    3    3  502    0  0.66541232673E+02 -0.73674835620E+02 -0.67603902024E+02  0.12010830370E+03  0.00000000000E+00 0. -1.
         -3    1    3    3    0  502  0.27607074246E+03 -0.42347961453E+03 -0.13440418418E+03  0.52308175603E+03  0.00000000000E+00 0.  1.
         11    1    5    5    0    0 -0.26636808846E+03  0.13260100063E+03  0.78399112904E+02  0.30770343648E+03  0.00000000000E+00 0. -1.
        -11    1    5    5    0    0 -0.10298080403E+03  0.35319205625E+02  0.88463560638E+02  0.14027934219E+03  0.00000000000E+00 0.  1.
          5    1    6    6  503    0 -0.79871076566E+01  0.14180866952E+03 -0.46995942283E+02  0.14968033014E+03  0.47000000000E+01 0. -1.
         -5    1    6    6    0  503  0.34724025016E+02  0.18742557438E+03 -0.16928908341E+03  0.25498036710E+03  0.47000000000E+01 0.  1.
<mgrwt>
<rscale>  0 0.67199857E+03</rscale>
<asrwt>0</asrwt>
<pdfrwt beam="1">  1        1 0.13440492E+00 0.67199857E+03</pdfrwt>
<pdfrwt beam="2">  1       -1 0.95723315E-01 0.67199857E+03</pdfrwt>
<totfact> 0.20903005E+01</totfact>
</mgrwt>
</event>
<event>
12    1  0.3127365E-008  0.1068230E+04  0.7818608E-02  0.9236722E-01
          2   -1    0    0  501    0  0.00000000000E+00  0.00000000000E+00  0.20382459922E+04  0.20382459922E+04  0.00000000000E+00 0. -1.
         -2   -1    0    0    0  501 -0.00000000000E+00 -0.00000000000E+00 -0.23910805962E+04  0.23910805962E+04  0.00000000000E+00 0.  1.
         23    2    1    2    0    0 -0.10199718884E+04 -0.28612301118E+03  0.17218860500E+04  0.20237299834E+04  0.91555697492E+02 0.  0.
    5000000    2    1    2    0    0  0.10199718884E+04  0.28612301118E+03 -0.20747206540E+04  0.24055966050E+04  0.60018347482E+03 0.  0.
         23    2    4    4    0    0  0.28060030849E+03  0.69932461933E+02 -0.16665805713E+03  0.34593049358E+03  0.90917083242E+02 0.  0.
         23    2    4    4    0    0  0.73937157991E+03  0.21619054925E+03 -0.19080625969E+04  0.20596661115E+04  0.90071806924E+02 0.  0.
          1    1    3    3  502    0 -0.42390936428E+03 -0.89787959768E+02  0.63702303518E+03  0.77042804609E+03  0.00000000000E+00 0. -1.
         -1    1    3    3    0  502 -0.59606252413E+03 -0.19633505142E+03  0.10848630148E+04  0.12533019373E+04  0.00000000000E+00 0.  1.
         11    1    5    5    0    0  0.26250308324E+03  0.36379444184E+02 -0.14630598127E+03  0.30271566333E+03  0.00000000000E+00 0. -1.
        -11    1    5    5    0    0  0.18097225251E+02  0.33553017748E+02 -0.20352075862E+02  0.43214830252E+02  0.00000000000E+00 0.  1.
          5    1    6    6  503    0  0.70954073400E+03  0.19602959440E+03 -0.17715593443E+04  0.19184160798E+04  0.47000000000E+01 0. -1.
         -5    1    6    6    0  503  0.29830845917E+02  0.20160954853E+02 -0.13650325258E+03  0.14125003162E+03  0.47000000000E+01 0.  1.
<mgrwt>
<rscale>  0 0.10682304E+04</rscale>
<asrwt>0</asrwt>
<pdfrwt beam="1">  1        2 0.31357631E+00 0.10682304E+04</pdfrwt>
<pdfrwt beam="2">  1       -2 0.36785855E+00 0.10682304E+04</pdfrwt>
<totfact> 0.76748740E-02</totfact>
</mgrwt>
</event>
<event>
12    1  0.3127365E-008  0.6617568E+03  0.7818608E-02  0.9784965E-01
          1   -1    0    0  501    0  0.00000000000E+00  0.00000000000E+00  0.26683109922E+03  0.26683109922E+03  0.00000000000E+00 0. -1.
         -1   -1    0    0    0  501 -0.00000000000E+00 -0.00000000000E+00 -0.21984535849E+04  0.21984535849E+04  0.00000000000E+00 0.  1.
         23    2    1    2    0    0  0.52373954022E+03  0.31670770872E+03 -0.49620362002E+03  0.79346530192E+03  0.93607019405E+02 0.  0.
    5000000    2    1    2    0    0 -0.52373954022E+03 -0.31670770872E+03 -0.14354188656E+04  0.16718193822E+04  0.59995487167E+03 0.  0.
         23    2    4    4    0    0 -0.55873713480E+03 -0.28841431116E+03 -0.14351961764E+04  0.15695597464E+04  0.91431570045E+02 0.  0.
         23    2    4    4    0    0  0.34997594587E+02 -0.28293397563E+02 -0.22268920205E+00  0.10225963577E+03  0.91823937750E+02 0.  0.
          4    1    3    3  502    0  0.68577959988E+01 -0.31721002982E+01 -0.19707500512E+02  0.21106329920E+02  0.00000000000E+00 0. -1.
         -4    1    3    3    0  502  0.51688174422E+03  0.31987980902E+03 -0.47649611951E+03  0.77235897200E+03  0.00000000000E+00 0.  1.
         11    1    5    5    0    0 -0.26306256460E+03 -0.17721968830E+03 -0.78601025287E+03  0.84759710266E+03  0.00000000000E+00 0. -1.
        -11    1    5    5    0    0 -0.29567457020E+03 -0.11119462286E+03 -0.64918592357E+03  0.72196264375E+03  0.00000000000E+00 0.  1.
          5    1    6    6  503    0  0.49012587228E+02 -0.79526624544E+01 -0.33845090837E+02  0.60274859773E+02  0.47000000000E+01 0. -1.
         -5    1    6    6    0  503 -0.14014992641E+02 -0.20340735109E+02  0.33622401635E+02  0.41984775993E+02  0.47000000000E+01 0.  1.
<mgrwt>
<rscale>  0 0.66175678E+03</rscale>
<asrwt>0</asrwt>
<pdfrwt beam="1">  1        1 0.41050938E-01 0.66175678E+03</pdfrwt>
<pdfrwt beam="2">  1       -1 0.33822363E+00 0.66175678E+03</pdfrwt>
<totfact> 0.20362159E+00</totfact>
</mgrwt>
</event>
<event>
12    1  0.3127365E-008  0.7246511E+03  0.7818608E-02  0.9675980E-01
         -2   -1    0    0    0  501 -0.00000000000E+00  0.00000000000E+00  0.50993192401E+03  0.50993192401E+03  0.00000000000E+00 0.  1.
          2   -1    0    0  501    0  0.00000000000E+00 -0.00000000000E+00 -0.17089402207E+04  0.17089402207E+04  0.00000000000E+00 0. -1.
         23    2    1    2    0    0  0.11764652873E+03  0.67442070961E+03 -0.11064271575E+04  0.13038394578E+04  0.84452812451E+02 0.  0.
    5000000    2    1    2    0    0 -0.11764652873E+03 -0.67442070961E+03 -0.92581139222E+02  0.91503268696E+03  0.60002462582E+03 0.  0.
         23    2    4    4    0    0  0.81969519585E+02 -0.37396065803E+03 -0.29457056947E+03  0.49110411545E+03  0.88576836208E+02 0.  0.
         23    2    4    4    0    0 -0.19961604832E+03 -0.30046005158E+03  0.20198943025E+03  0.42392857151E+03  0.93770434958E+02 0.  0.
          1    1    3    3  502    0  0.55085559666E+01  0.27055103374E+03 -0.42735906346E+03  0.50582998642E+03  0.00000000000E+00 0.  1.
         -1    1    3    3    0  502  0.11213797276E+03  0.40386967587E+03 -0.67906809406E+03  0.79800947137E+03  0.00000000000E+00 0. -1.
         13    1    5    5    0    0 -0.12693412415E+02 -0.12821462369E+03 -0.82599368095E+02  0.15304498703E+03  0.00000000000E+00 0. -1.
        -13    1    5    5    0    0  0.94662932000E+02 -0.24574603435E+03 -0.21197120138E+03  0.33805912841E+03  0.00000000000E+00 0.  1.
          5    1    6    6  503    0 -0.45839237399E+02 -0.26505711589E+02  0.57182036419E+01  0.53465655192E+02  0.47000000000E+01 0. -1.
         -5    1    6    6    0  503 -0.15377681092E+03 -0.27395433999E+03  0.19627122661E+03  0.37046291632E+03  0.47000000000E+01 0.  1.
<mgrwt>
<rscale>  0 0.72465113E+03</rscale>
<asrwt>0</asrwt>
<pdfrwt beam="1">  1        2 0.26291388E+00 0.72465113E+03</pdfrwt>
<pdfrwt beam="2">  1       -2 0.78451065E-01 0.72465113E+03</pdfrwt>
<totfact> 0.14451318E+01</totfact>
</mgrwt>
</event>
<event>
12    1  0.3127365E-008  0.9025517E+03  0.7818608E-02  0.9422397E-01
         -1   -1    0    0    0  501 -0.00000000000E+00  0.00000000000E+00  0.10961636524E+04  0.10961636524E+04  0.00000000000E+00 0.  1.
          1   -1    0    0  501    0  0.00000000000E+00 -0.00000000000E+00 -0.98112783303E+03  0.98112783303E+03  0.00000000000E+00 0. -1.
         23    2    1    2    0    0  0.52175001165E+03 -0.63206674099E+03  0.52947770556E+03  0.98023478789E+03  0.93713174000E+02 0.  0.
    5000000    2    1    2    0    0 -0.52175001165E+03  0.63206674099E+03 -0.41444188623E+03  0.10970566975E+04  0.60003323304E+03 0.  0.
         23    2    4    4    0    0  0.45756200185E+02  0.32710823110E+03 -0.30456471525E+02  0.34189031640E+03  0.82873198820E+02 0.  0.
         23    2    4    4    0    0 -0.56750621184E+03  0.30495850989E+03 -0.38398541471E+03  0.75516638110E+03  0.88138931283E+02 0.  0.
          2    1    3    3  502    0  0.44031395506E+03 -0.54233378374E+03  0.48805452635E+03  0.85217341704E+03  0.00000000000E+00 0. -1.
         -2    1    3    3    0  502  0.81436056593E+02 -0.89732957249E+02  0.41423179209E+02  0.12806137086E+03  0.00000000000E+00 0.  1.
         11    1    5    5    0    0  0.21443521696E+02  0.13077200856E+02  0.22960359593E+01  0.25221213018E+02  0.00000000000E+00 0. -1.
        -11    1    5    5    0    0  0.24312678489E+02  0.31403103024E+03 -0.32752507484E+02  0.31666910338E+03  0.00000000000E+00 0.  1.
          5    1    6    6  503    0 -0.12516818579E+02  0.10384750333E+02 -0.28744843521E+02  0.33359703474E+02  0.47000000000E+01 0. -1.
         -5    1    6    6    0  503 -0.55498939326E+03  0.29457375956E+03 -0.35524057119E+03  0.72180667763E+03  0.47000000000E+01 0.  1.
<mgrwt>
<rscale>  0 0.90255172E+03</rscale>
<asrwt>0</asrwt>
<pdfrwt beam="1">  1        1 0.15094274E+00 0.90255172E+03</pdfrwt>
<pdfrwt beam="2">  1       -1 0.16864056E+00 0.90255172E+03</pdfrwt>
<totfact> 0.40024297E+00</totfact>
</mgrwt>
</event>
<event>
12    1  0.3127365E-008  0.4649750E+03  0.7818608E-02  0.1023348E+00
          1   -1    0    0  501    0  0.00000000000E+00  0.00000000000E+00  0.14583357740E+04  0.14583357740E+04  0.00000000000E+00 0. -1.
         -1   -1    0    0    0  501 -0.00000000000E+00 -0.00000000000E+00 -0.20484416788E+03  0.20484416788E+03  0.00000000000E+00 0.  1.
         23    2    1    2    0    0 -0.87142084019E+02  0.32130333795E+03  0.70396678884E+03  0.78400133976E+03  0.90880598432E+02 0.  0.
    5000000    2    1    2    0    0  0.87142084019E+02 -0.32130333795E+03  0.54952481729E+03  0.87917860214E+03  0.60012324721E+03 0.  0.
         23    2    4    4    0    0  0.27540727952E+03 -0.18021770194E+03  0.52322798240E+03  0.62476229888E+03  0.90734882119E+02 0.  0.
         23    2    4    4    0    0 -0.18826519550E+03 -0.14108563601E+03  0.26296834893E+02  0.25441630325E+03  0.93205103459E+02 0.  0.
          3    1    3    3  502    0  0.13623890271E+02  0.10898678369E+03  0.23808352381E+03  0.26219743270E+03  0.00000000000E+00 0. -1.
         -3    1    3    3    0  502 -0.10076597429E+03  0.21231655426E+03  0.46588326503E+03  0.52180390706E+03  0.00000000000E+00 0.  1.
         11    1    5    5    0    0  0.16562726957E+03 -0.58479679912E+02  0.30287410694E+03  0.35012139329E+03  0.00000000000E+00 0.  1.
        -11    1    5    5    0    0  0.10978000995E+03 -0.12173802203E+03  0.22035387547E+03  0.27464090559E+03  0.00000000000E+00 0. -1.
          5    1    6    6  503    0 -0.43421804067E+02 -0.73782040112E+02 -0.20033609004E+02  0.88049293020E+02  0.47000000000E+01 0. -1.
         -5    1    6    6    0  503 -0.14484339143E+03 -0.67303595901E+02  0.46330443897E+02  0.16636701023E+03  0.47000000000E+01 0.  1.
<mgrwt>
<rscale>  0 0.46497503E+03</rscale>
<asrwt>0</asrwt>
<pdfrwt beam="1">  1        1 0.22435934E+00 0.46497503E+03</pdfrwt>
<pdfrwt beam="2">  1       -1 0.31514488E-01 0.46497503E+03</pdfrwt>
<totfact> 0.69546769E+01</totfact>
</mgrwt>
</event>
<event>
12    1  0.3127365E-008  0.1128807E+04  0.7818608E-02  0.9177560E-01
         -2   -1    0    0    0  501 -0.00000000000E+00  0.00000000000E+00  0.23657624388E+04  0.23657624388E+04  0.00000000000E+00 0. -1.
          2   -1    0    0  501    0  0.00000000000E+00 -0.00000000000E+00 -0.64468504558E+03  0.64468504558E+03  0.00000000000E+00 0.  1.
         23    2    1    2    0    0 -0.64378741665E+03  0.86627751671E+03  0.13275629302E+04  0.17143202992E+04  0.10757221253E+03 0.  0.
    5000000    2    1    2    0    0  0.64378741665E+03 -0.86627751671E+03  0.39351446309E+03  0.12961271852E+04  0.60016087328E+03 0.  0.
         23    2    4    4    0    0  0.12238289378E+02  0.16772424753E+02 -0.65175965599E+02  0.11398309902E+03  0.91176479486E+02 0.  0.
         23    2    4    4    0    0  0.63154912727E+03 -0.88304994146E+03  0.45869042869E+03  0.11821440862E+04  0.91848962410E+02 0.  0.
          3    1    3    3  502    0 -0.35458518104E+03  0.55231182214E+03  0.76070198165E+03  0.10047121500E+04  0.00000000000E+00 0. -1.
         -3    1    3    3    0  502 -0.28920223561E+03  0.31396569457E+03  0.56686094850E+03  0.70960814918E+03  0.00000000000E+00 0.  1.
         11    1    5    5    0    0 -0.34185819698E+02  0.23910667760E+02 -0.12814012682E+02  0.43641599675E+02  0.00000000000E+00 0.  1.
        -11    1    5    5    0    0  0.46424109077E+02 -0.71382430072E+01 -0.52361952917E+02  0.70341499345E+02  0.00000000000E+00 0. -1.
          5    1    6    6  503    0  0.40301762000E+03 -0.57058272467E+03  0.24740635641E+03  0.74109368025E+03  0.47000000000E+01 0. -1.
         -5    1    6    6    0  503  0.22853150727E+03 -0.31246721679E+03  0.21128407228E+03  0.44105040595E+03  0.47000000000E+01 0.  1.
<mgrwt>
<rscale>  0 0.11288075E+04</rscale>
<asrwt>0</asrwt>
<pdfrwt beam="1">  1        2 0.99182316E-01 0.11288075E+04</pdfrwt>
<pdfrwt beam="2">  1       -2 0.36396345E+00 0.11288075E+04</pdfrwt>
<totfact> 0.57493891E-01</totfact>
</mgrwt>
</event>
<event>
12    1  0.3127365E-008  0.9609268E+03  0.7818608E-02  0.9352469E-01
          1   -1    0    0  501    0  0.00000000000E+00  0.00000000000E+00  0.18291196505E+04  0.18291196505E+04  0.00000000000E+00 0. -1.
         -1   -1    0    0    0  501 -0.00000000000E+00 -0.00000000000E+00 -0.66628156860E+03  0.66628156860E+03  0.00000000000E+00 0.  1.
         23    2    1    2    0    0  0.91285047023E+03 -0.22197718170E+03  0.89889936143E+02  0.94825958045E+03  0.92445557470E+02 0.  0.
    5000000    2    1    2    0    0 -0.91285047023E+03  0.22197718170E+03  0.10729481457E+04  0.15471416386E+04  0.59988305222E+03 0.  0.
         23    2    4    4    0    0 -0.20311054479E+03 -0.60082389510E+02  0.37831682232E+00  0.22740210029E+03  0.82751345360E+02 0.  0.
         23    2    4    4    0    0 -0.70973992544E+03  0.28205957121E+03  0.10725698289E+04  0.13197395383E+04  0.89543551865E+02 0.  0.
          4    1    3    3  502    0  0.44314685501E+03 -0.11346039643E+03  0.89858931783E+02  0.46618346634E+03  0.00000000000E+00 0. -1.
         -4    1    3    3    0  502  0.46970361522E+03 -0.10851678527E+03  0.31004360070E-01  0.48207611411E+03  0.00000000000E+00 0.  1.
         11    1    5    5    0    0 -0.93700341210E+02 -0.44810268502E+02  0.38155281271E+02  0.11065052912E+03  0.00000000000E+00 0.  1.
        -11    1    5    5    0    0 -0.10941020358E+03 -0.15272121009E+02 -0.37776964448E+02  0.11675157117E+03  0.00000000000E+00 0. -1.
          5    1    6    6  503    0 -0.14868102447E+03  0.95268012608E+02  0.21962386283E+03  0.28184884670E+03  0.47000000000E+01 0. -1.
         -5    1    6    6    0  503 -0.56105890098E+03  0.18679155860E+03  0.85294596606E+03  0.10378906916E+04  0.47000000000E+01 0.  1.
<mgrwt>
<rscale>  0 0.96092682E+03</rscale>
<asrwt>0</asrwt>
<pdfrwt beam="1">  1        1 0.28140302E+00 0.96092682E+03</pdfrwt>
<pdfrwt beam="2">  1       -1 0.10250486E+00 0.96092682E+03</pdfrwt>
<totfact> 0.35547242E+00</totfact>
</mgrwt>
</event>
<event>
12    1  0.3127365E-008  0.4832858E+03  0.7818608E-02  0.1018236E+00
         -2   -1    0    0    0  501 -0.00000000000E+00  0.00000000000E+00  0.19082882236E+03  0.19082882236E+03  0.00000000000E+00 0.  1.
          2   -1    0    0  501    0  0.00000000000E+00 -0.00000000000E+00 -0.14657417000E+04  0.14657417000E+04  0.00000000000E+00 0. -1.
         23    2    1    2    0    0  0.39511408654E+01 -0.32354142059E+03 -0.64926076012E+03  0.73098460384E+03  0.90023852743E+02 0.  0.
    5000000    2    1    2    0    0 -0.39511408654E+01  0.32354142059E+03 -0.62565211752E+03  0.92558591852E+03  0.60047819115E+03 0.  0.
         23    2    4    4    0    0  0.24427050820E+03  0.58048661271E+02 -0.11222432460E+03  0.28998147656E+03  0.91963196262E+02 0.  0.
         23    2    4    4    0    0 -0.24822164906E+03  0.26549275932E+03 -0.51342779292E+03  0.63560444195E+03  0.91019315401E+02 0.  0.
          3    1    3    3  502    0  0.23927170480E+02 -0.23211289926E+02 -0.88116239019E+02  0.94211172618E+02  0.00000000000E+00 0. -1.
         -3    1    3    3    0  502 -0.19976029615E+02 -0.30033013066E+03 -0.56114452110E+03  0.63677343122E+03  0.00000000000E+00 0.  1.
         13    1    5    5    0    0  0.60875547191E+02  0.47994058227E+02 -0.62833041572E+02  0.99786036018E+02  0.00000000000E+00 0.  1.
        -13    1    5    5    0    0  0.18339496101E+03  0.10054603045E+02 -0.49391283032E+02  0.19019544055E+03  0.00000000000E+00 0. -1.
          5    1    6    6  503    0 -0.17914658395E+03  0.13879178033E+03 -0.35558453437E+03  0.42168603001E+03  0.47000000000E+01 0. -1.
         -5    1    6    6    0  503 -0.69075065113E+02  0.12670097898E+03 -0.15784325855E+03  0.21391841194E+03  0.47000000000E+01 0.  1.
<mgrwt>
<rscale>  0 0.48328580E+03</rscale>
<asrwt>0</asrwt>
<pdfrwt beam="1">  1        2 0.22549873E+00 0.48328580E+03</pdfrwt>
<pdfrwt beam="2">  1       -2 0.29358279E-01 0.48328580E+03</pdfrwt>
<totfact> 0.14781785E+02</totfact>
</mgrwt>
</event>
<event>
12    1  0.3127365E-008  0.6807002E+03  0.7818608E-02  0.9750819E-01
          1   -1    0    0  501    0  0.00000000000E+00  0.00000000000E+00  0.85068746079E+03  0.85068746079E+03  0.00000000000E+00 0. -1.
         -1   -1    0    0    0  501 -0.00000000000E+00 -0.00000000000E+00 -0.76738053192E+03  0.76738053192E+03  0.00000000000E+00 0.  1.
         23    2    1    2    0    0 -0.21459228372E+03 -0.59402149172E+03 -0.25000479655E+03  0.68530923756E+03  0.90746746147E+02 0.  0.
    5000000    2    1    2    0    0  0.21459228372E+03  0.59402149172E+03  0.33331172542E+03  0.93275875515E+03  0.60002567292E+03 0.  0.
         23    2    4    4    0    0  0.23141122811E+03  0.17168480931E+03 -0.10203018885E+03  0.31915585256E+03  0.91779456007E+02 0.  0.
         23    2    4    4    0    0 -0.16818944397E+02  0.42233668241E+03  0.43534191427E+03  0.61360290259E+03  0.91295068604E+02 0.  0.
          3    1    3    3  502    0 -0.17324263816E+03 -0.49279028594E+03 -0.16827660923E+03  0.54879166794E+03  0.00000000000E+00 0. -1.
         -3    1    3    3    0  502 -0.41349645559E+02 -0.10123120578E+03 -0.81728187326E+02  0.13651756962E+03  0.00000000000E+00 0.  1.
         13    1    5    5    0    0  0.51433036355E+02  0.92032035631E+02 -0.40587489292E+02  0.11297166502E+03  0.00000000000E+00 0.  1.
        -13    1    5    5    0    0  0.17997819176E+03  0.79652773680E+02 -0.61442699554E+02  0.20618418754E+03  0.00000000000E+00 0. -1.
          5    1    6    6  503    0 -0.39568885418E+02  0.20212157275E+03  0.25634669359E+03  0.32886858193E+03  0.47000000000E+01 0.  1.
         -5    1    6    6    0  503  0.22749941021E+02  0.22021510966E+03  0.17899522068E+03  0.28473432066E+03  0.47000000000E+01 0.  1.
<mgrwt>
<rscale>  0 0.68070019E+03</rscale>
<asrwt>0</asrwt>
<pdfrwt beam="1">  1        1 0.13087500E+00 0.68070019E+03</pdfrwt>
<pdfrwt beam="2">  1       -1 0.11805854E+00 0.68070019E+03</pdfrwt>
<totfact> 0.13395142E+01</totfact>
</mgrwt>
</event>
<event>
12    1  0.3127365E-008  0.7185486E+03  0.7818608E-02  0.9686027E-01
          2   -1    0    0  501    0  0.00000000000E+00  0.00000000000E+00  0.20103220241E+04  0.20103220241E+04  0.00000000000E+00 0. -1.
         -2   -1    0    0    0  501 -0.00000000000E+00 -0.00000000000E+00 -0.39061921312E+03  0.39061921312E+03  0.00000000000E+00 0.  1.
         23    2    1    2    0    0  0.34902061782E+03 -0.48845075033E+03  0.41161650422E+02  0.60869450848E+03  0.91734377546E+02 0.  0.
    5000000    2    1    2    0    0 -0.34902061782E+03  0.48845075033E+03  0.15785411605E+04  0.17922467287E+04  0.59996384390E+03 0.  0.
         23    2    4    4    0    0  0.12182256203E+03  0.28535894865E+03  0.51993775995E+03  0.61246349615E+03  0.92226859961E+02 0.  0.
         23    2    4    4    0    0 -0.47084317985E+03  0.20309180168E+03  0.10586034006E+04  0.11797832326E+04  0.91146784022E+02 0.  0.
          3    1    3    3  502    0  0.10355548706E+03 -0.86429966927E+02 -0.78731158496E+01  0.13511426289E+03  0.00000000000E+00 0. -1.
         -3    1    3    3    0  502  0.24546513076E+03 -0.40202078340E+03  0.49034766272E+02  0.47358024558E+03  0.00000000000E+00 0.  1.
         11    1    5    5    0    0  0.10600410206E+03  0.17856918744E+03  0.27338583905E+03  0.34331274568E+03  0.00000000000E+00 0.  1.
        -11    1    5    5    0    0  0.15818459962E+02  0.10678976121E+03  0.24655192090E+03  0.26915075046E+03  0.00000000000E+00 0. -1.
          5    1    6    6  503    0 -0.25441854557E+03  0.81079093609E+02  0.63151390537E+03  0.68566356067E+03  0.47000000000E+01 0. -1.
         -5    1    6    6    0  503 -0.21642463428E+03  0.12201270807E+03  0.42708949523E+03  0.49411967193E+03  0.47000000000E+01 0.  1.
<mgrwt>
<rscale>  0 0.71854861E+03</rscale>
<asrwt>0</asrwt>
<pdfrwt beam="1">  1        2 0.30928031E+00 0.71854861E+03</pdfrwt>
<pdfrwt beam="2">  1       -2 0.60095264E-01 0.71854861E+03</pdfrwt>
<totfact> 0.17687658E+01</totfact>
</mgrwt>
</event>
<event>
12    1  0.3127365E-008  0.4546430E+03  0.7818608E-02  0.1026346E+00
         -2   -1    0    0    0  501 -0.00000000000E+00  0.00000000000E+00  0.52379949449E+03  0.52379949449E+03  0.00000000000E+00 0.  1.
          2   -1    0    0  501    0  0.00000000000E+00 -0.00000000000E+00 -0.48581167583E+03  0.48581167583E+03  0.00000000000E+00 0. -1.
         23    2    1    2    0    0  0.20828563922E+03 -0.14465697400E+03 -0.17885220641E+03  0.32310983950E+03  0.90018381514E+02 0.  0.
    5000000    2    1    2    0    0 -0.20828563922E+03  0.14465697400E+03  0.21684002507E+03  0.68650133082E+03  0.59996327647E+03 0.  0.
         23    2    4    4    0    0 -0.34211202715E+03 -0.90644202433E+02  0.13322259479E+03  0.38843629726E+03  0.88755206668E+02 0.  0.
         23    2    4    4    0    0  0.13382638794E+03  0.23530117644E+03  0.83617430283E+02  0.29806503356E+03  0.92599912751E+02 0.  0.
          4    1    3    3  502    0  0.17185552961E+03 -0.89182131459E+02 -0.93557422197E+02  0.21503666403E+03  0.00000000000E+00 0. -1.
         -4    1    3    3    0  502  0.36430109603E+02 -0.55474842544E+02 -0.85294784211E+02  0.10807317546E+03  0.00000000000E+00 0.  1.
         11    1    5    5    0    0 -0.25523384030E+03 -0.26458382296E+02  0.87053256161E+02  0.27096610237E+03  0.00000000000E+00 0.  1.
        -11    1    5    5    0    0 -0.86878186856E+02 -0.64185820138E+02  0.46169338625E+02  0.11747019489E+03  0.00000000000E+00 0. -1.
          5    1    6    6  503    0  0.12098256517E+03  0.12678922051E+03  0.65794114240E+02  0.18725181703E+03  0.47000000000E+01 0. -1.
         -5    1    6    6    0  503  0.12843822770E+02  0.10851195593E+03  0.17823316043E+02  0.11081321653E+03  0.47000000000E+01 0.  1.
<mgrwt>
<rscale>  0 0.45464297E+03</rscale>
<asrwt>0</asrwt>
<pdfrwt beam="1">  1        2 0.74740257E-01 0.45464297E+03</pdfrwt>
<pdfrwt beam="2">  1       -2 0.80584538E-01 0.45464297E+03</pdfrwt>
<totfact> 0.89345151E+01</totfact>
</mgrwt>
</event>
<event>
12    1  0.3223454E-008  0.1439012E+04  0.7818608E-02  0.8926054E-01
          1   -1    0    0  501    0  0.00000000000E+00  0.00000000000E+00  0.16715471998E+04  0.16715471998E+04  0.00000000000E+00 0. -1.
         -1   -1    0    0    0  501 -0.00000000000E+00 -0.00000000000E+00 -0.15132547763E+04  0.15132547763E+04  0.00000000000E+00 0.  1.
         23    2    1    2    0    0 -0.19642575344E+03 -0.13913504552E+04  0.68885639829E+03  0.15674228727E+04  0.88612406047E+02 0.  0.
    5000000    2    1    2    0    0  0.19642575344E+03  0.13913504552E+04 -0.53056397480E+03  0.16173791035E+04  0.59998155593E+03 0.  0.
         23    2    4    4    0    0 -0.12964040600E+03  0.26639293302E+03 -0.27681997290E+03  0.41562502417E+03  0.91340208475E+02 0.  0.
         23    2    4    4    0    0  0.32606615944E+03  0.11249575222E+04 -0.25374400189E+03  0.12017540794E+04  0.89321228049E+02 0.  0.
          3    1    3    3  502    0 -0.12001523943E+03 -0.10962795703E+04  0.52616001804E+03  0.12219152665E+04  0.00000000000E+00 0. -1.
         -3    1    3    3    0  502 -0.76410514005E+02 -0.29507088490E+03  0.16269638025E+03  0.34550760615E+03  0.00000000000E+00 0.  1.
         11    1    5    5    0    0 -0.38677430202E+02  0.60945673631E+02 -0.12536648178E+03  0.14466192828E+03  0.00000000000E+00 0. -1.
        -11    1    5    5    0    0 -0.90962975802E+02  0.20544725939E+03 -0.15145349113E+03  0.27096309588E+03  0.00000000000E+00 0.  1.
          5    1    6    6  503    0  0.20055953406E+03  0.56214468610E+03 -0.15545683987E+03  0.61678172303E+03  0.47000000000E+01 0. -1.
         -5    1    6    6    0  503  0.12550662538E+03  0.56281283607E+03 -0.98287162025E+02  0.58497235634E+03  0.47000000000E+01 0.  1.
<mgrwt>
<rscale>  0 0.14390125E+04</rscale>
<asrwt>0</asrwt>
<pdfrwt beam="1">  1        1 0.25716111E+00 0.14390125E+04</pdfrwt>
<pdfrwt beam="2">  1       -1 0.23280843E+00 0.14390125E+04</pdfrwt>
<totfact> 0.42892718E-01</totfact>
</mgrwt>
</event>
<event>
12    1  0.3127365E-008  0.1154584E+04  0.7818608E-02  0.9153565E-01
          1   -1    0    0  501    0  0.00000000000E+00  0.00000000000E+00  0.19830162705E+04  0.19830162705E+04  0.00000000000E+00 0. -1.
         -1   -1    0    0    0  501 -0.00000000000E+00 -0.00000000000E+00 -0.10336556566E+04  0.10336556566E+04  0.00000000000E+00 0.  1.
         23    2    1    2    0    0  0.85529601433E+03 -0.76030117347E+03  0.12427894039E+04  0.16916319404E+04  0.86625474235E+02 0.  0.
    5000000    2    1    2    0    0 -0.85529601433E+03  0.76030117347E+03 -0.29342879005E+03  0.13250399867E+04  0.60003446985E+03 0.  0.
         23    2    4    4    0    0 -0.57740018425E+03  0.39777563807E+03  0.10145766056E+03  0.71414752047E+03  0.89981070746E+02 0.  0.
         23    2    4    4    0    0 -0.27789583009E+03  0.36252553540E+03 -0.39488645062E+03  0.61089246623E+03  0.92754731558E+02 0.  0.
          3    1    3    3  502    0  0.39440621245E+03 -0.30836718858E+03  0.58603455378E+03  0.77076785197E+03  0.00000000000E+00 0. -1.
         -3    1    3    3    0  502  0.46088980188E+03 -0.45193398489E+03  0.65675485012E+03  0.92086408842E+03  0.00000000000E+00 0.  1.
         13    1    5    5    0    0 -0.14340968313E+03  0.11398600343E+03 -0.11113927467E+02  0.18352837813E+03  0.00000000000E+00 0. -1.
        -13    1    5    5    0    0 -0.43399050111E+03  0.28378963464E+03  0.11257158803E+03  0.53061914234E+03  0.00000000000E+00 0.  1.
          5    1    6    6  503    0 -0.11159516959E+03  0.96893245800E+02 -0.87115749875E+02  0.17161884172E+03  0.47000000000E+01 0. -1.
         -5    1    6    6    0  503 -0.16630066050E+03  0.26563228960E+03 -0.30777070074E+03  0.43927362451E+03  0.47000000000E+01 0.  1.
<mgrwt>
<rscale>  0 0.11545839E+04</rscale>
<asrwt>0</asrwt>
<pdfrwt beam="1">  1        1 0.30507943E+00 0.11545839E+04</pdfrwt>
<pdfrwt beam="2">  1       -1 0.15902395E+00 0.11545839E+04</pdfrwt>
<totfact> 0.89911397E-01</totfact>
</mgrwt>
</event>
<event>
12    1  0.3127365E-008  0.1074976E+04  0.7818608E-02  0.9229932E-01
         -2   -1    0    0    0  501 -0.00000000000E+00  0.00000000000E+00  0.74383831915E+03  0.74383831915E+03  0.00000000000E+00 0.  1.
          2   -1    0    0  501    0  0.00000000000E+00 -0.00000000000E+00 -0.16570359064E+04  0.16570359064E+04  0.00000000000E+00 0. -1.
         23    2    1    2    0    0 -0.77927259763E+03 -0.60942619407E+03 -0.12641726965E+03  0.10017013668E+04  0.93585440940E+02 0.  0.
    5000000    2    1    2    0    0  0.77927259763E+03  0.60942619407E+03 -0.78678031756E+03  0.13991728587E+04  0.59999612749E+03 0.  0.
         23    2    4    4    0    0  0.37652233592E+03  0.63472647229E+03 -0.52320514488E+03  0.90897618195E+03  0.88585053189E+02 0.  0.
         23    2    4    4    0    0  0.40275026170E+03 -0.25300278221E+02 -0.26357517268E+03  0.49019667675E+03  0.89291840977E+02 0.  0.
          3    1    3    3  502    0 -0.28851777957E+03 -0.28399302261E+03 -0.50792957587E+02  0.40801283136E+03  0.00000000000E+00 0. -1.
         -3    1    3    3    0  502 -0.49075481806E+03 -0.32543317147E+03 -0.75624312063E+02  0.59368853544E+03  0.00000000000E+00 0.  1.
         13    1    5    5    0    0  0.87471627257E+01  0.61375821460E+02 -0.48530295067E+02  0.78731784274E+02  0.00000000000E+00 0. -1.
        -13    1    5    5    0    0  0.36777517320E+03  0.57335065083E+03 -0.47467484981E+03  0.83024439768E+03  0.00000000000E+00 0.  1.
          5    1    6    6  503    0  0.15043465458E+03 -0.52208794435E+02 -0.94091055188E+02  0.18501772937E+03  0.47000000000E+01 0. -1.
         -5    1    6    6    0  503  0.25231560713E+03  0.26908516214E+02 -0.16948411749E+03  0.30517894738E+03  0.47000000000E+01 0.  1.
<mgrwt>
<rscale>  0 0.10749755E+04</rscale>
<asrwt>0</asrwt>
<pdfrwt beam="1">  1        2 0.25492860E+00 0.10749755E+04</pdfrwt>
<pdfrwt beam="2">  1       -2 0.11443666E+00 0.10749755E+04</pdfrwt>
<totfact> 0.61077787E+00</totfact>
</mgrwt>
</event>
<event>
12    1  0.3127365E-008  0.4236039E+03  0.7818608E-02  0.1035900E+00
          2   -1    0    0  501    0  0.00000000000E+00  0.00000000000E+00  0.80905981921E+03  0.80905981921E+03  0.00000000000E+00 0.  1.
         -2   -1    0    0    0  501 -0.00000000000E+00 -0.00000000000E+00 -0.33448412491E+03  0.33448412491E+03  0.00000000000E+00 0. -1.
         23    2    1    2    0    0  0.55180365451E+02  0.31842705052E+03  0.27533431941E+03  0.43425567117E+03  0.91259746145E+02 0.  0.
    5000000    2    1    2    0    0 -0.55180365451E+02 -0.31842705052E+03  0.19924137489E+03  0.70928827296E+03  0.59912608811E+03 0.  0.
         23    2    4    4    0    0  0.41240125499E+01 -0.37938059889E+03  0.34286364220E+03  0.51917602045E+03  0.89675062158E+02 0.  0.
         23    2    4    4    0    0 -0.59304378001E+02  0.60953548375E+02 -0.14362226731E+03  0.19011225251E+03  0.91010815720E+02 0.  0.
          4    1    3    3  502    0  0.74561752001E+02  0.21411353303E+03  0.15970869463E+03  0.27732819372E+03  0.00000000000E+00 0. -1.
         -4    1    3    3    0  502 -0.19381386551E+02  0.10431351748E+03  0.11562562478E+03  0.15692747745E+03  0.00000000000E+00 0.  1.
         13    1    5    5    0    0 -0.42648041199E+02 -0.16773613946E+03  0.14888627205E+03  0.22830109484E+03  0.00000000000E+00 0.  1.
        -13    1    5    5    0    0  0.46772053749E+02 -0.21164445943E+03  0.19397737014E+03  0.29087492561E+03  0.00000000000E+00 0. -1.
          5    1    6    6  503    0  0.16543681487E+01  0.63183872388E+02 -0.72951413038E+02  0.96638177384E+02  0.47000000000E+01 0. -1.
         -5    1    6    6    0  503 -0.60958746149E+02 -0.22303240125E+01 -0.70670854268E+02  0.93474075124E+02  0.47000000000E+01 0.  1.
<mgrwt>
<rscale>  0 0.42360390E+03</rscale>
<asrwt>0</asrwt>
<pdfrwt beam="1">  1        2 0.12447074E+00 0.42360390E+03</pdfrwt>
<pdfrwt beam="2">  1       -2 0.51459096E-01 0.42360390E+03</pdfrwt>
<totfact> 0.12572960E+02</totfact>
</mgrwt>
</event>
<event>
12    1  0.3127365E-008  0.1116350E+04  0.7818608E-02  0.9189401E-01
          2   -1    0    0  501    0  0.00000000000E+00  0.00000000000E+00  0.11737757093E+04  0.11737757093E+04  0.00000000000E+00 0.  1.
         -2   -1    0    0    0  501 -0.00000000000E+00 -0.00000000000E+00 -0.13971400052E+04  0.13971400052E+04  0.00000000000E+00 0. -1.
         23    2    1    2    0    0 -0.99740853148E+03  0.42406085598E+03 -0.64232441769E+03  0.12631402172E+04  0.91055821038E+02 0.  0.
    5000000    2    1    2    0    0  0.99740853148E+03 -0.42406085598E+03  0.41896012177E+03  0.13077754973E+04  0.60008147741E+03 0.  0.
         23    2    4    4    0    0  0.55343419671E+03 -0.35858754440E+02  0.43297326131E+03  0.71033017426E+03  0.97610712004E+02 0.  0.
         23    2    4    4    0    0  0.44397433477E+03 -0.38820210154E+03 -0.14013139541E+02  0.59744532306E+03  0.94501134371E+02 0.  0.
          4    1    3    3  502    0 -0.17463255337E+03  0.10749260824E+03 -0.10046324894E+03  0.22835072566E+03  0.00000000000E+00 0. -1.
         -4    1    3    3    0  502 -0.82277597811E+03  0.31656824774E+03 -0.54186116875E+03  0.10347894916E+04  0.00000000000E+00 0.  1.
         13    1    5    5    0    0  0.53521966624E+03 -0.39860652079E+02  0.43594540117E+03  0.69144584424E+03  0.00000000000E+00 0. -1.
        -13    1    5    5    0    0  0.18214530471E+02  0.40018976392E+01 -0.29721398620E+01  0.18884330021E+02  0.00000000000E+00 0.  1.
          5    1    6    6  503    0  0.27268977777E+03 -0.21744093062E+03  0.35228109047E+02  0.35057578763E+03  0.47000000000E+01 0. -1.
         -5    1    6    6    0  503  0.17128455700E+03 -0.17076117092E+03 -0.49241248588E+02  0.24686953543E+03  0.47000000000E+01 0.  1.
<mgrwt>
<rscale>  0 0.11163503E+04</rscale>
<asrwt>0</asrwt>
<pdfrwt beam="1">  1        2 0.18058088E+00 0.11163503E+04</pdfrwt>
<pdfrwt beam="2">  1       -2 0.21494462E+00 0.11163503E+04</pdfrwt>
<totfact> 0.20486411E+00</totfact>
</mgrwt>
</event>
<event>
12    1  0.3127365E-008  0.1490644E+04  0.7818608E-02  0.8890698E-01
         -2   -1    0    0    0  501 -0.00000000000E+00  0.00000000000E+00  0.67861858680E+03  0.67861858680E+03  0.00000000000E+00 0.  1.
          2   -1    0    0  501    0  0.00000000000E+00 -0.00000000000E+00 -0.33588410692E+04  0.33588410692E+04  0.00000000000E+00 0. -1.
         23    2    1    2    0    0  0.90605396129E+03 -0.11094325123E+04 -0.99805330991E+03  0.17482532461E+04  0.92221054196E+02 0.  0.
    5000000    2    1    2    0    0 -0.90605396129E+03  0.11094325123E+04 -0.16821691725E+04  0.22892064099E+04  0.59916490403E+03 0.  0.
         23    2    4    4    0    0 -0.82655503496E+02  0.51928550765E+03 -0.52642577136E+03  0.74959275940E+03  0.90971652065E+02 0.  0.
         23    2    4    4    0    0 -0.82339845780E+03  0.59014700466E+03 -0.11557434011E+04  0.15396136505E+04  0.91699924832E+02 0.  0.
          3    1    3    3  502    0  0.35865788113E+03 -0.36960412882E+03 -0.35267655262E+03  0.62419823654E+03  0.00000000000E+00 0. -1.
         -3    1    3    3    0  502  0.54739608016E+03 -0.73982838349E+03 -0.64537675729E+03  0.11240550095E+04  0.00000000000E+00 0.  1.
         11    1    5    5    0    0  0.54385162863E+01  0.23791729809E+03 -0.21458620259E+03  0.32043947405E+03  0.00000000000E+00 0. -1.
        -11    1    5    5    0    0 -0.88094019782E+02  0.28136820956E+03 -0.31183956877E+03  0.42915328534E+03  0.00000000000E+00 0.  1.
          5    1    6    6  503    0 -0.57825292081E+03  0.41942827606E+03 -0.75039442515E+03  0.10360552121E+04  0.47000000000E+01 0. -1.
         -5    1    6    6    0  503 -0.24514553699E+03  0.17071872860E+03 -0.40534897598E+03  0.50355843845E+03  0.47000000000E+01 0.  1.
<mgrwt>
<rscale>  0 0.14906443E+04</rscale>
<asrwt>0</asrwt>
<pdfrwt beam="1">  1        2 0.51674476E+00 0.14906443E+04</pdfrwt>
<pdfrwt beam="2">  1       -2 0.10440286E+00 0.14906443E+04</pdfrwt>
<totfact> 0.72773319E-01</totfact>
</mgrwt>
</event>
<event>
12    1  0.3127365E-008  0.6453762E+03  0.7818608E-02  0.9815494E-01
          1   -1    0    0  501    0  0.00000000000E+00  0.00000000000E+00  0.94909011277E+03  0.94909011277E+03  0.00000000000E+00 0. -1.
         -1   -1    0    0    0  501 -0.00000000000E+00 -0.00000000000E+00 -0.47842102536E+03  0.47842102536E+03  0.00000000000E+00 0.  1.
         23    2    1    2    0    0  0.28185329354E+03 -0.43765665620E+03  0.31244839905E+03  0.61773672143E+03  0.11397380022E+03 0.  0.
    5000000    2    1    2    0    0 -0.28185329354E+03  0.43765665620E+03  0.15822068835E+03  0.80977441670E+03  0.59976344664E+03 0.  0.
         23    2    4    4    0    0 -0.10440843787E+03 -0.12914088445E+03  0.75506304477E+02  0.20276206776E+03  0.88502904864E+02 0.  0.
         23    2    4    4    0    0 -0.17744485567E+03  0.56679754066E+03  0.82714383876E+02  0.60701234895E+03  0.94213553035E+02 0.  0.
          4    1    3    3  502    0  0.18594661249E+03 -0.22379455456E+03  0.12107454190E+03  0.31514947254E+03  0.00000000000E+00 0. -1.
         -4    1    3    3    0  502  0.95906681051E+02 -0.21386210164E+03  0.19137385715E+03  0.30258724889E+03  0.00000000000E+00 0.  1.
         11    1    5    5    0    0 -0.80270597153E+02 -0.10039120008E+03  0.12137326148E+02  0.12910877781E+03  0.00000000000E+00 0.  1.
        -11    1    5    5    0    0 -0.24137840719E+02 -0.28749684376E+02  0.63368978329E+02  0.73653289952E+02  0.00000000000E+00 0. -1.
          5    1    6    6  503    0 -0.15279143070E+03  0.36132531174E+03  0.77709284248E+02  0.39995252851E+03  0.47000000000E+01 0. -1.
         -5    1    6    6    0  503 -0.24653424966E+02  0.20547222891E+03  0.50050996284E+01  0.20705982044E+03  0.47000000000E+01 0.  1.
<mgrwt>
<rscale>  0 0.64537624E+03</rscale>
<asrwt>0</asrwt>
<pdfrwt beam="1">  1        1 0.14601386E+00 0.64537624E+03</pdfrwt>
<pdfrwt beam="2">  1       -1 0.73603235E-01 0.64537624E+03</pdfrwt>
<totfact> 0.32075618E+01</totfact>
</mgrwt>
</event>
<event>
12    1  0.3127365E-008  0.4915122E+03  0.7818608E-02  0.1016018E+00
         -1   -1    0    0    0  501 -0.00000000000E+00  0.00000000000E+00  0.13173728012E+04  0.13173728012E+04  0.00000000000E+00 0.  1.
          1   -1    0    0  501    0  0.00000000000E+00 -0.00000000000E+00 -0.27540421763E+03  0.27540421763E+03  0.00000000000E+00 0. -1.
         23    2    1    2    0    0 -0.22886459760E+03 -0.27632544864E+03  0.42594845046E+02  0.37315058173E+03  0.93232388279E+02 0.  0.
    5000000    2    1    2    0    0  0.22886459760E+03  0.27632544864E+03  0.99937373848E+03  0.12196264371E+04  0.60000501597E+03 0.  0.
         23    2    4    4    0    0 -0.14674961451E+03  0.13669800218E+03  0.62871038367E+03  0.66630075737E+03  0.91968253040E+02 0.  0.
         23    2    4    4    0    0  0.37561421212E+03  0.13962744646E+03  0.37066335481E+03  0.55332567968E+03  0.90532453045E+02 0.  0.
          4    1    3    3  502    0 -0.49409341248E+02 -0.29765789169E+02  0.36259639088E+02  0.68132566619E+02  0.00000000000E+00 0. -1.
         -4    1    3    3    0  502 -0.17945525635E+03 -0.24655965947E+03  0.63352059583E+01  0.30501801511E+03  0.00000000000E+00 0.  1.
         13    1    5    5    0    0 -0.81571425978E+02  0.11865966025E+03  0.50714009437E+03  0.52718600876E+03  0.00000000000E+00 0. -1.
        -13    1    5    5    0    0 -0.65178188536E+02  0.18038341934E+02  0.12157028930E+03  0.13911474861E+03  0.00000000000E+00 0.  1.
          5    1    6    6  503    0  0.23739896780E+03  0.46270474971E+02  0.24621156978E+03  0.34516873245E+03  0.47000000000E+01 0. -1.
         -5    1    6    6    0  503  0.13821524432E+03  0.93356971485E+02  0.12445178502E+03  0.20815694724E+03  0.47000000000E+01 0.  1.
<mgrwt>
<rscale>  0 0.49151220E+03</rscale>
<asrwt>0</asrwt>
<pdfrwt beam="1">  1        1 0.42369880E-01 0.49151220E+03</pdfrwt>
<pdfrwt beam="2">  1       -1 0.20267273E+00 0.49151220E+03</pdfrwt>
<totfact> 0.15064425E+01</totfact>
</mgrwt>
</event>
<event>
12    1  0.3127365E-008  0.7618416E+03  0.7818608E-02  0.9616954E-01
         -1   -1    0    0    0  501 -0.00000000000E+00  0.00000000000E+00  0.11103185466E+04  0.11103185466E+04  0.00000000000E+00 0.  1.
          1   -1    0    0  501    0  0.00000000000E+00 -0.00000000000E+00 -0.67858749772E+03  0.67858749772E+03  0.00000000000E+00 0. -1.
         23    2    1    2    0    0  0.52440150617E+03 -0.40048686532E+03  0.58170585360E+03  0.88446767294E+03  0.92275107157E+02 0.  0.
    5000000    2    1    2    0    0 -0.52440150617E+03  0.40048686532E+03 -0.14997480472E+03  0.90443837138E+03  0.60010803744E+03 0.  0.
         23    2    4    4    0    0 -0.51160973632E+03  0.51860214383E+03 -0.89416938607E+02  0.73982136676E+03  0.92992257355E+02 0.  0.
         23    2    4    4    0    0 -0.12791769849E+02 -0.11811527850E+03 -0.60557866112E+02  0.16461700461E+03  0.96522819416E+02 0.  0.
          3    1    3    3  502    0  0.38644792586E+03 -0.24720401928E+03  0.37544047957E+03  0.59279623839E+03  0.00000000000E+00 0. -1.
         -3    1    3    3    0  502  0.13795358031E+03 -0.15328284605E+03  0.20626537402E+03  0.29167143455E+03  0.00000000000E+00 0.  1.
         13    1    5    5    0    0 -0.28860332169E+03  0.22661515139E+03 -0.40425637571E+02  0.36916193777E+03  0.00000000000E+00 0. -1.
        -13    1    5    5    0    0 -0.22300641464E+03  0.29198699244E+03 -0.48991301036E+02  0.37065942899E+03  0.00000000000E+00 0.  1.
          5    1    6    6  503    0 -0.16387405887E+02 -0.11713006116E+03 -0.80925543525E+02  0.14338421076E+03  0.47000000000E+01 0. -1.
         -5    1    6    6    0  503  0.35956360381E+01 -0.98521734058E+00  0.20367677413E+02  0.21232793856E+02  0.47000000000E+01 0.  1.
<mgrwt>
<rscale>  0 0.76184163E+03</rscale>
<asrwt>0</asrwt>
<pdfrwt beam="1">  1        1 0.10439808E+00 0.76184163E+03</pdfrwt>
<pdfrwt beam="2">  1       -1 0.17081824E+00 0.76184163E+03</pdfrwt>
<totfact> 0.71474904E+00</totfact>
</mgrwt>
</event>
<event>
12    1  0.3127365E-008  0.4217789E+03  0.7818608E-02  0.1036489E+00
          1   -1    0    0  501    0  0.00000000000E+00  0.00000000000E+00  0.27684740829E+03  0.27684740829E+03  0.00000000000E+00 0. -1.
         -1   -1    0    0    0  501 -0.00000000000E+00 -0.00000000000E+00 -0.12690735232E+04  0.12690735232E+04  0.00000000000E+00 0.  1.
         23    2    1    2    0    0 -0.20695919340E+03  0.35150026547E+03 -0.17512106525E+03  0.45322467123E+03  0.91436703558E+02 0.  0.
    5000000    2    1    2    0    0  0.20695919340E+03 -0.35150026547E+03 -0.81710504968E+03  0.10926962603E+04  0.59994992347E+03 0.  0.
         23    2    4    4    0    0  0.13520656815E+03 -0.12238609476E+03  0.30570846344E+02  0.20625158756E+03  0.91356272159E+02 0.  0.
         23    2    4    4    0    0  0.71752625249E+02 -0.22911417071E+03 -0.84767589603E+03  0.88644467273E+03  0.97918285606E+02 0.  0.
          1    1    3    3  502    0 -0.70288151053E+02  0.16172845073E+03 -0.32526308903E+02  0.17931669393E+03  0.00000000000E+00 0. -1.
         -1    1    3    3    0  502 -0.13667104235E+03  0.18977181474E+03 -0.14259475635E+03  0.27390797730E+03  0.00000000000E+00 0.  1.
         13    1    5    5    0    0  0.46175702780E+02 -0.38322131056E+02  0.54991563804E+02  0.81393202083E+02  0.00000000000E+00 0.  1.
        -13    1    5    5    0    0  0.89030865374E+02 -0.84063963700E+02 -0.24420717459E+02  0.12485838547E+03  0.00000000000E+00 0. -1.
          5    1    6    6  503    0  0.83665628034E+02 -0.16008182807E+03 -0.49741724382E+03  0.52921841752E+03  0.47000000000E+01 0. -1.
         -5    1    6    6    0  503 -0.11913002785E+02 -0.69032342642E+02 -0.35025865221E+03  0.35722625521E+03  0.47000000000E+01 0.  1.
<mgrwt>
<rscale>  0 0.42177887E+03</rscale>
<asrwt>0</asrwt>
<pdfrwt beam="1">  1        1 0.42591909E-01 0.42177887E+03</pdfrwt>
<pdfrwt beam="2">  1       -1 0.19524208E+00 0.42177887E+03</pdfrwt>
<totfact> 0.17017674E+01</totfact>
</mgrwt>
</event>
<event>
12    1  0.3127365E-008  0.1864632E+04  0.7818608E-02  0.8672664E-01
         -2   -1    0    0    0  501 -0.00000000000E+00  0.00000000000E+00  0.23519996098E+04  0.23519996098E+04  0.00000000000E+00 0.  1.
          2   -1    0    0  501    0  0.00000000000E+00 -0.00000000000E+00 -0.20234727470E+04  0.20234727470E+04  0.00000000000E+00 0. -1.
         23    2    1    2    0    0  0.65006223748E+03  0.17221399398E+04  0.12545376033E+04  0.22293793244E+04  0.88998254554E+02 0.  0.
    5000000    2    1    2    0    0 -0.65006223748E+03 -0.17221399398E+04 -0.92601074046E+03  0.21460930323E+04  0.59989376330E+03 0.  0.
         23    2    4    4    0    0 -0.38537661507E+03 -0.50236811136E+03 -0.53784368989E+03  0.83572230760E+03  0.90923516872E+02 0.  0.
         23    2    4    4    0    0 -0.26468562241E+03 -0.12197718284E+04 -0.38816705057E+03  0.13103707247E+04  0.92173667547E+02 0.  0.
          1    1    3    3  502    0  0.53269868674E+03  0.13046920593E+04  0.95579431746E+03  0.17028012326E+04  0.00000000000E+00 0. -1.
         -1    1    3    3    0  502  0.11736355073E+03  0.41744788047E+03  0.29874328580E+03  0.52657809180E+03  0.00000000000E+00 0.  1.
         13    1    5    5    0    0 -0.26355896142E+03 -0.38630147913E+03 -0.35413117179E+03  0.58660126641E+03  0.00000000000E+00 0. -1.
        -13    1    5    5    0    0 -0.12181765365E+03 -0.11606663223E+03 -0.18371251810E+03  0.24912104119E+03  0.00000000000E+00 0.  1.
          5    1    6    6  503    0 -0.14216614957E+03 -0.48070093098E+03 -0.18236523883E+03  0.53344518881E+03  0.47000000000E+01 0. -1.
         -5    1    6    6    0  503 -0.12251947284E+03 -0.73907089744E+03 -0.20580181175E+03  0.77692553593E+03  0.47000000000E+01 0.  1.
<mgrwt>
<rscale>  0 0.18646324E+04</rscale>
<asrwt>0</asrwt>
<pdfrwt beam="1">  1        2 0.31130350E+00 0.18646324E+04</pdfrwt>
<pdfrwt beam="2">  1       -2 0.36184610E+00 0.18646324E+04</pdfrwt>
<totfact> 0.76367253E-02</totfact>
</mgrwt>
</event>
<event>
12    1  0.3127365E-008  0.3797874E+03  0.7818608E-02  0.1051012E+00
          2   -1    0    0  501    0  0.00000000000E+00  0.00000000000E+00  0.13623229549E+04  0.13623229549E+04  0.00000000000E+00 0. -1.
         -2   -1    0    0    0  501 -0.00000000000E+00 -0.00000000000E+00 -0.14988276808E+03  0.14988276808E+03  0.00000000000E+00 0.  1.
         23    2    1    2    0    0  0.17349072053E+03  0.41878688570E+02  0.68400584514E+02  0.20814130592E+03  0.82409396324E+02 0.  0.
    5000000    2    1    2    0    0 -0.17349072053E+03 -0.41878688570E+02  0.11440396023E+04  0.13040644170E+04  0.59992044265E+03 0.  0.
         23    2    4    4    0    0  0.31286982621E+02 -0.24659731764E+03  0.27050195830E+03  0.37901656169E+03  0.93236968209E+02 0.  0.
         23    2    4    4    0    0 -0.20477770315E+03  0.20471862907E+03  0.87353764398E+03  0.92504785533E+03  0.93818411949E+02 0.  0.
          4    1    3    3  502    0  0.77706598837E+02 -0.19877450899E+02  0.44389814866E+02  0.91672701612E+02  0.00000000000E+00 0. -1.
         -4    1    3    3    0  502  0.95784121692E+02  0.61756139469E+02  0.24010769648E+02  0.11646860431E+03  0.00000000000E+00 0.  1.
         11    1    5    5    0    0 -0.28677890473E+02 -0.11047713715E+03  0.91546628389E+02  0.14631611123E+03  0.00000000000E+00 0.  1.
        -11    1    5    5    0    0  0.59964873094E+02 -0.13612018049E+03  0.17895532991E+03  0.23270045046E+03  0.00000000000E+00 0. -1.
          5    1    6    6  503    0 -0.12862890514E+02  0.61504325099E+02  0.22663985641E+03  0.23523594638E+03  0.47000000000E+01 0. -1.
         -5    1    6    6    0  503 -0.19191481264E+03  0.14321430397E+03  0.64689778757E+03  0.68981190895E+03  0.47000000000E+01 0.  1.
<mgrwt>
<rscale>  0 0.37978740E+03</rscale>
<asrwt>0</asrwt>
<pdfrwt beam="1">  1        2 0.20958814E+00 0.37978740E+03</pdfrwt>
<pdfrwt beam="2">  1       -2 0.23058888E-01 0.37978740E+03</pdfrwt>
<totfact> 0.26374480E+02</totfact>
</mgrwt>
</event>
<event>
12    1  0.3127365E-008  0.6424325E+03  0.7818608E-02  0.9821084E-01
          2   -1    0    0  501    0  0.00000000000E+00  0.00000000000E+00  0.13867010682E+04  0.13867010682E+04  0.00000000000E+00 0. -1.
         -2   -1    0    0    0  501 -0.00000000000E+00 -0.00000000000E+00 -0.52969003534E+03  0.52969003534E+03  0.00000000000E+00 0.  1.
         23    2    1    2    0    0 -0.49279519405E+03  0.16484888901E+03  0.98002251309E+03  0.11129269491E+04  0.90221994779E+02 0.  0.
    5000000    2    1    2    0    0  0.49279519405E+03 -0.16484888901E+03 -0.12301148020E+03  0.80346415450E+03  0.60033371037E+03 0.  0.
         23    2    4    4    0    0  0.42479460726E+03  0.12935229797E+03  0.30653537403E+02  0.45430025713E+03  0.90920893763E+02 0.  0.
         23    2    4    4    0    0  0.68000586792E+02 -0.29420118697E+03 -0.15366501760E+03  0.34916389737E+03  0.84404214170E+02 0.  0.
          1    1    3    3  502    0 -0.38576660715E+03  0.16343870880E+03  0.74622338710E+03  0.85579052938E+03  0.00000000000E+00 0. -1.
         -1    1    3    3    0  502 -0.10702858691E+03  0.14101802106E+01  0.23379912599E+03  0.25713641970E+03  0.00000000000E+00 0.  1.
         11    1    5    5    0    0  0.15552782359E+03  0.90703717422E+02  0.28358307524E+02  0.18226426383E+03  0.00000000000E+00 0.  1.
        -11    1    5    5    0    0  0.26926678368E+03  0.38648580543E+02  0.22952298790E+01  0.27203599330E+03  0.00000000000E+00 0. -1.
          5    1    6    6  503    0  0.43300915103E+02 -0.79691474782E+02 -0.13816931211E+02  0.91862386153E+02  0.47000000000E+01 0. -1.
         -5    1    6    6    0  503  0.24699671689E+02 -0.21450971219E+03 -0.13984808639E+03  0.25730151122E+03  0.47000000000E+01 0.  1.
<mgrwt>
<rscale>  0 0.64243254E+03</rscale>
<asrwt>0</asrwt>
<pdfrwt beam="1">  1        2 0.21333863E+00 0.64243254E+03</pdfrwt>
<pdfrwt beam="2">  1       -2 0.81490775E-01 0.64243254E+03</pdfrwt>
<totfact> 0.20233705E+01</totfact>
</mgrwt>
</event>
<event>
12    1  0.3127365E-008  0.9560793E+03  0.7818608E-02  0.9358073E-01
         -2   -1    0    0    0  501 -0.00000000000E+00  0.00000000000E+00  0.13596036332E+04  0.13596036332E+04  0.00000000000E+00 0.  1.
          2   -1    0    0  501    0  0.00000000000E+00 -0.00000000000E+00 -0.79003974554E+03  0.79003974554E+03  0.00000000000E+00 0. -1.
         23    2    1    2    0    0  0.37000165466E+03  0.79624087352E+03  0.63044189920E+03  0.10845288032E+04  0.88571912315E+02 0.  0.
    5000000    2    1    2    0    0 -0.37000165466E+03 -0.79624087352E+03 -0.60878011581E+02  0.10651145755E+04  0.59988513357E+03 0.  0.
         23    2    4    4    0    0 -0.18746726600E+03  0.22671895749E+02 -0.67177604287E+02  0.22059533406E+03  0.92149227952E+02 0.  0.
         23    2    4    4    0    0 -0.18253438866E+03 -0.81891276927E+03  0.62995927059E+01  0.84451924141E+03  0.96104825763E+02 0.  0.
          4    1    3    3  502    0  0.11250120186E+03  0.28271514777E+03  0.26645967971E+03  0.40445659361E+03  0.00000000000E+00 0. -1.
         -4    1    3    3    0  502  0.25750045280E+03  0.51352572574E+03  0.36398221949E+03  0.68007220962E+03  0.00000000000E+00 0.  1.
         13    1    5    5    0    0 -0.13744717661E+03  0.62307642945E+01 -0.88712936914E+02  0.16370868626E+03  0.00000000000E+00 0. -1.
        -13    1    5    5    0    0 -0.50020089390E+02  0.16441131455E+02  0.21535332627E+02  0.56886647796E+02  0.00000000000E+00 0.  1.
          5    1    6    6  503    0 -0.18427596716E+03 -0.69114162478E+03 -0.11647485836E+02  0.71539648553E+03  0.47000000000E+01 0. -1.
         -5    1    6    6    0  503  0.17415785045E+01 -0.12777114449E+03  0.17947078542E+02  0.12912275589E+03  0.47000000000E+01 0.  1.
<mgrwt>
<rscale>  0 0.95607925E+03</rscale>
<asrwt>0</asrwt>
<pdfrwt beam="1">  1        2 0.12154458E+00 0.95607925E+03</pdfrwt>
<pdfrwt beam="2">  1       -2 0.20916979E+00 0.95607925E+03</pdfrwt>
<totfact> 0.40526361E+00</totfact>
</mgrwt>
</event>
<event>
12    1  0.3127365E-008  0.6960134E+03  0.7818608E-02  0.9724074E-01
          1   -1    0    0  501    0  0.00000000000E+00  0.00000000000E+00  0.13691585401E+04  0.13691585401E+04  0.00000000000E+00 0. -1.
         -1   -1    0    0    0  501 -0.00000000000E+00 -0.00000000000E+00 -0.41670862499E+03  0.41670862499E+03  0.00000000000E+00 0.  1.
         23    2    1    2    0    0  0.60712006046E+03 -0.12808112346E+03  0.54297550637E+03  0.83002696786E+03  0.95513479986E+02 0.  0.
    5000000    2    1    2    0    0 -0.60712006046E+03  0.12808112346E+03  0.40947440869E+03  0.95584019718E+03  0.60080083986E+03 0.  0.
         23    2    4    4    0    0  0.88753683447E+01  0.14600177769E+03 -0.54074292521E+02  0.17937432081E+03  0.88633101048E+02 0.  0.
         23    2    4    4    0    0 -0.61599542880E+03 -0.17920654227E+02  0.46354870122E+03  0.77646587637E+03  0.90831385652E+02 0.  0.
          3    1    3    3  502    0  0.44410797963E+03 -0.60732015176E+02  0.42602584060E+03  0.61839978339E+03  0.00000000000E+00 0. -1.
         -3    1    3    3    0  502  0.16301208083E+03 -0.67349108288E+02  0.11694966577E+03  0.21162718447E+03  0.00000000000E+00 0.  1.
         11    1    5    5    0    0  0.11011483966E+02  0.10406636270E+02 -0.40312793436E+02  0.43065904985E+02  0.00000000000E+00 0. -1.
        -11    1    5    5    0    0 -0.21361156211E+01  0.13559514142E+03 -0.13761499085E+02  0.13630841582E+03  0.00000000000E+00 0.  1.
          5    1    6    6  503    0 -0.67093088962E+02 -0.69234546430E+01  0.19586436894E+02  0.70392722073E+02  0.47000000000E+01 0. -1.
         -5    1    6    6    0  503 -0.54890233984E+03 -0.10997199584E+02  0.44396226432E+03  0.70607315430E+03  0.47000000000E+01 0.  1.
<mgrwt>
<rscale>  0 0.69601336E+03</rscale>
<asrwt>0</asrwt>
<pdfrwt beam="1">  1        1 0.21063977E+00 0.69601336E+03</pdfrwt>
<pdfrwt beam="2">  1       -1 0.64109020E-01 0.69601336E+03</pdfrwt>
<totfact> 0.20733752E+01</totfact>
</mgrwt>
</event>
<event>
12    1  0.3127365E-008  0.5200352E+03  0.7818608E-02  0.1008678E+00
          2   -1    0    0  501    0  0.00000000000E+00  0.00000000000E+00  0.19902355267E+04  0.19902355267E+04  0.00000000000E+00 0. -1.
         -2   -1    0    0    0  501 -0.00000000000E+00 -0.00000000000E+00 -0.15322961539E+03  0.15322961539E+03  0.00000000000E+00 0.  1.
         23    2    1    2    0    0  0.23957858958E+03  0.29694791254E+03  0.70916447197E+03  0.81017619520E+03  0.88855250954E+02 0.  0.
    5000000    2    1    2    0    0 -0.23957858958E+03 -0.29694791254E+03  0.11278414393E+04  0.13332889469E+04  0.60004761498E+03 0.  0.
         23    2    4    4    0    0 -0.26619927043E+03  0.56047437770E+02  0.77682298128E+03  0.82804447146E+03  0.90555704486E+02 0.  0.
         23    2    4    4    0    0  0.26620680842E+02 -0.35299535031E+03  0.35101845804E+03  0.50524447541E+03  0.82119693462E+02 0.  0.
          3    1    3    3  502    0  0.19156734050E+03  0.17420514006E+03  0.44166494099E+03  0.51197011326E+03  0.00000000000E+00 0. -1.
         -3    1    3    3    0  502  0.48011249081E+02  0.12274277249E+03  0.26749953098E+03  0.29820608194E+03  0.00000000000E+00 0.  1.
         11    1    5    5    0    0 -0.17137875310E+03  0.79466679181E+02  0.49987906951E+03  0.53438255421E+03  0.00000000000E+00 0. -1.
        -11    1    5    5    0    0 -0.94820517329E+02 -0.23419241410E+02  0.27694391177E+03  0.29366191725E+03  0.00000000000E+00 0.  1.
          5    1    6    6  503    0  0.53182165155E+02 -0.18253013881E+03  0.19888523950E+03  0.27517816548E+03  0.47000000000E+01 0. -1.
         -5    1    6    6    0  503 -0.26561484313E+02 -0.17046521150E+03  0.15213321854E+03  0.23006630993E+03  0.47000000000E+01 0.  1.
<mgrwt>
<rscale>  0 0.52003522E+03</rscale>
<asrwt>0</asrwt>
<pdfrwt beam="1">  1        2 0.30619006E+00 0.52003522E+03</pdfrwt>
<pdfrwt beam="2">  1       -2 0.23573788E-01 0.52003522E+03</pdfrwt>
<totfact> 0.11373924E+02</totfact>
</mgrwt>
</event>
<event>
12    1  0.3127365E-008  0.7163935E+03  0.7818608E-02  0.9689601E-01
         -2   -1    0    0    0  501 -0.00000000000E+00  0.00000000000E+00  0.13525045035E+04  0.13525045035E+04  0.00000000000E+00 0. -1.
          2   -1    0    0  501    0  0.00000000000E+00 -0.00000000000E+00 -0.62147258287E+03  0.62147258287E+03  0.00000000000E+00 0.  1.
         23    2    1    2    0    0  0.54282381944E+03  0.30979965764E+03  0.89150704868E+03  0.10928674629E+04  0.94556579583E+02 0.  0.
    5000000    2    1    2    0    0 -0.54282381944E+03 -0.30979965764E+03 -0.16047512805E+03  0.88110962349E+03  0.59997364530E+03 0.  0.
         23    2    4    4    0    0 -0.77261351916E+02  0.12808090429E+03  0.80488880720E+02  0.19215841055E+03  0.89846314779E+02 0.  0.
         23    2    4    4    0    0 -0.46556246753E+03 -0.43788056193E+03 -0.24096400877E+03  0.68895121294E+03  0.90012902444E+02 0.  0.
          1    1    3    3  502    0  0.26575284077E+03  0.12525333725E+03  0.34711862597E+03  0.45475742036E+03  0.00000000000E+00 0. -1.
         -1    1    3    3    0  502  0.27707097867E+03  0.18454632038E+03  0.54438842271E+03  0.63811004252E+03  0.00000000000E+00 0.  1.
         13    1    5    5    0    0 -0.97617392224E+01 -0.53772660652E+01  0.33635925653E+02  0.35434193056E+02  0.00000000000E+00 0.  1.
        -13    1    5    5    0    0 -0.67499612693E+02  0.13345817036E+03  0.46852955067E+02  0.15672421749E+03  0.00000000000E+00 0. -1.
          5    1    6    6  503    0 -0.15421887544E+03 -0.90468970136E+02 -0.70560092775E+02  0.19227301629E+03  0.47000000000E+01 0.  1.
         -5    1    6    6    0  503 -0.31134359208E+03 -0.34741159179E+03 -0.17040391599E+03  0.49667819665E+03  0.47000000000E+01 0. -1.
<mgrwt>
<rscale>  0 0.71639347E+03</rscale>
<asrwt>0</asrwt>
<pdfrwt beam="1">  1        2 0.95611167E-01 0.71639347E+03</pdfrwt>
<pdfrwt beam="2">  1       -2 0.20807762E+00 0.71639347E+03</pdfrwt>
<totfact> 0.57443037E+00</totfact>
</mgrwt>
</event>
<event>
12    1  0.3127365E-008  0.9997539E+03  0.7818608E-02  0.9308815E-01
          2   -1    0    0  501    0  0.00000000000E+00  0.00000000000E+00  0.10705802983E+04  0.10705802983E+04  0.00000000000E+00 0. -1.
         -2   -1    0    0    0  501 -0.00000000000E+00 -0.00000000000E+00 -0.11524832731E+04  0.11524832731E+04  0.00000000000E+00 0.  1.
         23    2    1    2    0    0 -0.56492950396E+03 -0.79047151022E+03 -0.37297227312E+03  0.10447479094E+04  0.91647830366E+02 0.  0.
    5000000    2    1    2    0    0  0.56492950396E+03  0.79047151022E+03  0.29106929833E+03  0.11783156619E+04  0.59976321146E+03 0.  0.
         23    2    4    4    0    0  0.12490053048E+03  0.32614196523E+02 -0.12783828768E+03  0.20363710166E+03  0.91987026513E+02 0.  0.
         23    2    4    4    0    0  0.44002897348E+03  0.75785731370E+03  0.41890758601E+03  0.97467856028E+03  0.80879693534E+02 0.  0.
          2    1    3    3  502    0 -0.21646379392E+03 -0.23506385553E+03 -0.14065134364E+03  0.34913377196E+03  0.00000000000E+00 0. -1.
         -2    1    3    3    0  502 -0.34846571004E+03 -0.55540765470E+03 -0.23232092948E+03  0.69561413747E+03  0.00000000000E+00 0.  1.
         11    1    5    5    0    0  0.92920602900E+00 -0.13290942582E+02  0.67909861962E+01  0.14954266016E+02  0.00000000000E+00 0.  1.
        -11    1    5    5    0    0  0.12397132445E+03  0.45905139105E+02 -0.13462927387E+03  0.18868283564E+03  0.00000000000E+00 0. -1.
          5    1    6    6  503    0  0.26315501877E+03  0.51415927783E+03  0.25001819282E+03  0.62939773882E+03  0.47000000000E+01 0. -1.
         -5    1    6    6    0  503  0.17687395471E+03  0.24369803587E+03  0.16888939319E+03  0.34528082147E+03  0.47000000000E+01 0.  1.
<mgrwt>
<rscale>  0 0.99975389E+03</rscale>
<asrwt>0</asrwt>
<pdfrwt beam="1">  1        2 0.16470466E+00 0.99975389E+03</pdfrwt>
<pdfrwt beam="2">  1       -2 0.17730512E+00 0.99975389E+03</pdfrwt>
<totfact> 0.42641235E+00</totfact>
</mgrwt>
</event>
<event>
12    1  0.3127365E-008  0.6638013E+03  0.7818608E-02  0.9781221E-01
          2   -1    0    0  501    0  0.00000000000E+00  0.00000000000E+00  0.29425283382E+03  0.29425283382E+03  0.00000000000E+00 0.  1.
         -2   -1    0    0    0  501 -0.00000000000E+00 -0.00000000000E+00 -0.19473524886E+04  0.19473524886E+04  0.00000000000E+00 0. -1.
         23    2    1    2    0    0  0.40145915266E+03  0.47597500454E+03 -0.52430913355E+03  0.81964434209E+03  0.95891208103E+02 0.  0.
    5000000    2    1    2    0    0 -0.40145915266E+03 -0.47597500454E+03 -0.11287905213E+04  0.14219609804E+04  0.60006943978E+03 0.  0.
         23    2    4    4    0    0  0.41460343211E+02 -0.10295564098E+03 -0.64755169382E+03  0.66349028121E+03  0.92613892189E+02 0.  0.
         23    2    4    4    0    0 -0.44291949588E+03 -0.37301936356E+03 -0.48123882745E+03  0.75847069915E+03  0.91465113612E+02 0.  0.
          2    1    3    3  502    0  0.26221747740E+03  0.36513377177E+03 -0.40766452342E+03  0.60685339284E+03  0.00000000000E+00 0. -1.
         -2    1    3    3    0  502  0.13924167526E+03  0.11084123277E+03 -0.11664461013E+03  0.21279094925E+03  0.00000000000E+00 0.  1.
         13    1    5    5    0    0  0.34310368718E+02 -0.48359790088E+02 -0.12843675400E+03  0.14146331848E+03  0.00000000000E+00 0. -1.
        -13    1    5    5    0    0  0.71499744931E+01 -0.54595850893E+02 -0.51911493982E+03  0.52202696273E+03  0.00000000000E+00 0.  1.
          5    1    6    6  503    0 -0.19788962280E+03 -0.22394051317E+03 -0.22976664584E+03  0.37699397581E+03  0.47000000000E+01 0. -1.
         -5    1    6    6    0  503 -0.24502987307E+03 -0.14907885038E+03 -0.25147218161E+03  0.38147672334E+03  0.47000000000E+01 0.  1.
<mgrwt>
<rscale>  0 0.66380129E+03</rscale>
<asrwt>0</asrwt>
<pdfrwt beam="1">  1        2 0.45269666E-01 0.66380129E+03</pdfrwt>
<pdfrwt beam="2">  1       -2 0.29959270E+00 0.66380129E+03</pdfrwt>
<totfact> 0.37742050E+00</totfact>
</mgrwt>
</event>
<event>
12    1  0.3127365E-008  0.7045010E+03  0.7818608E-02  0.9709566E-01
          1   -1    0    0  501    0  0.00000000000E+00  0.00000000000E+00  0.74606783491E+03  0.74606783491E+03  0.00000000000E+00 0. -1.
         -1   -1    0    0    0  501 -0.00000000000E+00 -0.00000000000E+00 -0.85025382006E+03  0.85025382006E+03  0.00000000000E+00 0.  1.
         23    2    1    2    0    0 -0.27184295596E+03  0.61670719161E+03 -0.13556893541E+03  0.69341845865E+03  0.90685553753E+02 0.  0.
    5000000    2    1    2    0    0  0.27184295596E+03 -0.61670719161E+03  0.31382950270E+02  0.90290319632E+03  0.60001911593E+03 0.  0.
         23    2    4    4    0    0  0.24957958758E+03 -0.24403105566E+03 -0.23903807312E+03  0.43274022735E+03  0.91015258622E+02 0.  0.
         23    2    4    4    0    0  0.22263368380E+02 -0.37267613595E+03  0.27042102339E+03  0.47016296898E+03  0.92425795246E+02 0.  0.
          2    1    3    3  502    0 -0.16862377167E+02  0.12451514978E+03 -0.28852114513E+02  0.12892170803E+03  0.00000000000E+00 0. -1.
         -2    1    3    3    0  502 -0.25498057879E+03  0.49219204183E+03 -0.10671682090E+03  0.56449675062E+03  0.00000000000E+00 0.  1.
         11    1    5    5    0    0  0.29853808878E+02 -0.13303428528E+02  0.27075028436E+01  0.32795757146E+02  0.00000000000E+00 0.  1.
        -11    1    5    5    0    0  0.21972577870E+03 -0.23072762713E+03 -0.24174557596E+03  0.39994447020E+03  0.00000000000E+00 0. -1.
          5    1    6    6  503    0 -0.17772301443E+02 -0.69475823218E+02  0.19297525833E+02  0.74412560859E+02  0.47000000000E+01 0. -1.
         -5    1    6    6    0  503  0.40035669824E+02 -0.30320031273E+03  0.25112349756E+03  0.39575040812E+03  0.47000000000E+01 0. -1.
<mgrwt>
<rscale>  0 0.70450095E+03</rscale>
<asrwt>0</asrwt>
<pdfrwt beam="1">  1        1 0.11477967E+00 0.70450095E+03</pdfrwt>
<pdfrwt beam="2">  1       -1 0.13080828E+00 0.70450095E+03</pdfrwt>
<totfact> 0.12767663E+01</totfact>
</mgrwt>
</event>
<event>
12    1  0.3127365E-008  0.9733878E+03  0.7818608E-02  0.9338224E-01
         -2   -1    0    0    0  501 -0.00000000000E+00  0.00000000000E+00  0.39414196846E+03  0.39414196846E+03  0.00000000000E+00 0.  1.
          2   -1    0    0  501    0  0.00000000000E+00 -0.00000000000E+00 -0.28403089884E+04  0.28403089884E+04  0.00000000000E+00 0. -1.
         23    2    1    2    0    0  0.54202067790E+03 -0.70255783688E+03 -0.17287297127E+04  0.19452171506E+04  0.89383522624E+02 0.  0.
    5000000    2    1    2    0    0 -0.54202067790E+03  0.70255783688E+03 -0.71743730727E+03  0.12892338063E+04  0.60002798927E+03 0.  0.
         23    2    4    4    0    0 -0.60857233977E+03  0.71420958811E+03 -0.70018496092E+03  0.11745647208E+04  0.94274468012E+02 0.  0.
         23    2    4    4    0    0  0.66551661878E+02 -0.11651751226E+02 -0.17252346350E+02  0.11466908548E+03  0.91030042867E+02 0.  0.
          3    1    3    3  502    0  0.34922151457E+03 -0.38517008506E+03 -0.97431425514E+03  0.11043549830E+04  0.00000000000E+00 0. -1.
         -3    1    3    3    0  502  0.19279916332E+03 -0.31738775183E+03 -0.75441545753E+03  0.84086216763E+03  0.00000000000E+00 0.  1.
         11    1    5    5    0    0 -0.17697743615E+03  0.27034121680E+03 -0.26362528789E+03  0.41701760013E+03  0.00000000000E+00 0. -1.
        -11    1    5    5    0    0 -0.43159490362E+03  0.44386837131E+03 -0.43655967303E+03  0.75754712065E+03  0.00000000000E+00 0.  1.
          5    1    6    6  503    0  0.48746325284E+02  0.36921496030E+02 -0.11563911229E+02  0.62411658692E+02  0.47000000000E+01 0. -1.
         -5    1    6    6    0  503  0.17805336594E+02 -0.48573247256E+02 -0.56884351215E+01  0.52257426786E+02  0.47000000000E+01 0.  1.
<mgrwt>
<rscale>  0 0.97338783E+03</rscale>
<asrwt>0</asrwt>
<pdfrwt beam="1">  1        2 0.43697062E+00 0.97338783E+03</pdfrwt>
<pdfrwt beam="2">  1       -2 0.60637225E-01 0.97338783E+03</pdfrwt>
<totfact> 0.56608638E+00</totfact>
</mgrwt>
</event>
<event>
12    1  0.3127365E-008  0.7672101E+03  0.7818608E-02  0.9608731E-01
         -2   -1    0    0    0  501 -0.00000000000E+00  0.00000000000E+00  0.70241397562E+03  0.70241397562E+03  0.00000000000E+00 0.  1.
          2   -1    0    0  501    0  0.00000000000E+00 -0.00000000000E+00 -0.85511557560E+03  0.85511557560E+03  0.00000000000E+00 0. -1.
         23    2    1    2    0    0 -0.44205558386E+03 -0.48374348287E+03 -0.55904710878E+02  0.66387864607E+03  0.90491013714E+02 0.  0.
    5000000    2    1    2    0    0  0.44205558386E+03  0.48374348287E+03 -0.96796889105E+02  0.89365090515E+03  0.59985115328E+03 0.  0.
         23    2    4    4    0    0 -0.40897589382E+02  0.36509893533E+03 -0.90148531394E+02  0.38878571869E+03  0.89764870361E+02 0.  0.
         23    2    4    4    0    0  0.48295317324E+03  0.11864454755E+03 -0.66483577111E+01  0.50486518646E+03  0.86743066764E+02 0.  0.
          3    1    3    3  502    0 -0.29782158297E+03 -0.37134124758E+03 -0.66867964659E+02  0.48069048476E+03  0.00000000000E+00 0. -1.
         -3    1    3    3    0  502 -0.14423400089E+03 -0.11240223529E+03  0.10963253780E+02  0.18318816131E+03  0.00000000000E+00 0.  1.
         11    1    5    5    0    0 -0.56315355269E+02  0.17015676080E+03 -0.69150232391E+02  0.19211063772E+03  0.00000000000E+00 0. -1.
        -11    1    5    5    0    0  0.15417765887E+02  0.19494217452E+03 -0.20998299003E+02  0.19667508097E+03  0.00000000000E+00 0.  1.
          5    1    6    6  503    0  0.16426498048E+03  0.12421081789E+02  0.27861579052E+02  0.16713953654E+03  0.47000000000E+01 0. -1.
         -5    1    6    6    0  503  0.31868819276E+03  0.10622346576E+03 -0.34509936763E+02  0.33772564992E+03  0.47000000000E+01 0.  1.
<mgrwt>
<rscale>  0 0.76721006E+03</rscale>
<asrwt>0</asrwt>
<pdfrwt beam="1">  1        2 0.13155624E+00 0.76721006E+03</pdfrwt>
<pdfrwt beam="2">  1       -2 0.10806369E+00 0.76721006E+03</pdfrwt>
<totfact> 0.21877266E+01</totfact>
</mgrwt>
</event>
<event>
12    1  0.3127365E-008  0.1340371E+04  0.7818608E-02  0.8998150E-01
          1   -1    0    0  501    0  0.00000000000E+00  0.00000000000E+00  0.25337202874E+04  0.25337202874E+04  0.00000000000E+00 0. -1.
         -1   -1    0    0    0  501 -0.00000000000E+00 -0.00000000000E+00 -0.10327687642E+04  0.10327687642E+04  0.00000000000E+00 0.  1.
         23    2    1    2    0    0  0.97268795724E+03  0.91673661979E+03 -0.15968273850E+03  0.13519259420E+04  0.12520895891E+03 0.  0.
    5000000    2    1    2    0    0 -0.97268795724E+03 -0.91673661979E+03  0.16606342617E+04  0.22145631096E+04  0.60004643422E+03 0.  0.
         23    2    4    4    0    0 -0.77269947362E+03 -0.69655772564E+03  0.15801539172E+04  0.18940254426E+04  0.90492174096E+02 0.  0.
         23    2    4    4    0    0 -0.19998848362E+03 -0.22017889415E+03  0.80480344458E+02  0.32053766699E+03  0.88278939188E+02 0.  0.
          1    1    3    3  502    0  0.47661440360E+03  0.47099772977E+03 -0.14101659126E+03  0.68475238603E+03  0.00000000000E+00 0. -1.
         -1    1    3    3    0  502  0.49607355365E+03  0.44573889002E+03 -0.18666147243E+02  0.66717355595E+03  0.00000000000E+00 0.  1.
         13    1    5    5    0    0 -0.59846249094E+03 -0.53331365466E+03  0.11457306983E+04  0.13983131410E+04  0.00000000000E+00 0. -1.
        -13    1    5    5    0    0 -0.17423698268E+03 -0.16324407098E+03  0.43442321890E+03  0.49571230161E+03  0.00000000000E+00 0.  1.
          5    1    6    6  503    0 -0.68196792813E+02 -0.11871569353E+03  0.30783658813E+01  0.13702475972E+03  0.47000000000E+01 0. -1.
         -5    1    6    6    0  503 -0.13179169081E+03 -0.10146320062E+03  0.77401978577E+02  0.18351290727E+03  0.47000000000E+01 0.  1.
<mgrwt>
<rscale>  0 0.13403706E+04</rscale>
<asrwt>0</asrwt>
<pdfrwt beam="1">  1        1 0.38980312E+00 0.13403706E+04</pdfrwt>
<pdfrwt beam="2">  1       -1 0.15888750E+00 0.13403706E+04</pdfrwt>
<totfact> 0.37018447E-01</totfact>
</mgrwt>
</event>
<event>
12    1  0.3127365E-008  0.6668434E+03  0.7818608E-02  0.9775677E-01
         -2   -1    0    0    0  501 -0.00000000000E+00  0.00000000000E+00  0.41890509318E+03  0.41890509318E+03  0.00000000000E+00 0.  1.
          2   -1    0    0  501    0  0.00000000000E+00 -0.00000000000E+00 -0.12907842477E+04  0.12907842477E+04  0.00000000000E+00 0. -1.
         23    2    1    2    0    0  0.50447915699E+03 -0.29493420529E+03 -0.56349786733E+03  0.81724900503E+03  0.94237383459E+02 0.  0.
    5000000    2    1    2    0    0 -0.50447915699E+03  0.29493420529E+03 -0.30838128720E+03  0.89244033586E+03  0.59988776407E+03 0.  0.
         23    2    4    4    0    0  0.63479264504E+02  0.11217624502E+03  0.80748632236E+02  0.17519021846E+03  0.86937587190E+02 0.  0.
         23    2    4    4    0    0 -0.56795842150E+03  0.18275796027E+03 -0.38912991944E+03  0.71725011740E+03  0.83954726610E+02 0.  0.
          2    1    3    3  502    0  0.32534133611E+03 -0.14851849999E+03 -0.30196414678E+03  0.46806738378E+03  0.00000000000E+00 0. -1.
         -2    1    3    3    0  502  0.17913782088E+03 -0.14641570531E+03 -0.26153372055E+03  0.34918162124E+03  0.00000000000E+00 0.  1.
         13    1    5    5    0    0 -0.14114771788E+02  0.37569352999E+01  0.28438904543E+02  0.31970496353E+02  0.00000000000E+00 0.  1.
        -13    1    5    5    0    0  0.77594036292E+02  0.10841930972E+03  0.52309727693E+02  0.14321972211E+03  0.00000000000E+00 0. -1.
          5    1    6    6  503    0 -0.11936858909E+03  0.39665851995E+02 -0.12477425350E+03  0.17723697192E+03  0.47000000000E+01 0. -1.
         -5    1    6    6    0  503 -0.44858983240E+03  0.14309210828E+03 -0.26435566593E+03  0.54001314548E+03  0.47000000000E+01 0.  1.
<mgrwt>
<rscale>  0 0.66684337E+03</rscale>
<asrwt>0</asrwt>
<pdfrwt beam="1">  1        2 0.19858219E+00 0.66684337E+03</pdfrwt>
<pdfrwt beam="2">  1       -2 0.64446937E-01 0.66684337E+03</pdfrwt>
<totfact> 0.38291949E+01</totfact>
</mgrwt>
</event>
<event>
12    1  0.3127365E-008  0.1094838E+04  0.7818608E-02  0.9210238E-01
         -2   -1    0    0    0  501 -0.00000000000E+00  0.00000000000E+00  0.16998438054E+04  0.16998438054E+04  0.00000000000E+00 0.  1.
          2   -1    0    0  501    0  0.00000000000E+00 -0.00000000000E+00 -0.77129737830E+03  0.77129737830E+03  0.00000000000E+00 0. -1.
         23    2    1    2    0    0  0.56924182333E+03 -0.85739924314E+03  0.14036530339E+03  0.10427661522E+04  0.92136389023E+02 0.  0.
    5000000    2    1    2    0    0 -0.56924182333E+03  0.85739924314E+03  0.78818112369E+03  0.14283750315E+04  0.59988001409E+03 0.  0.
         23    2    4    4    0    0 -0.21609011884E+03  0.71102920775E+01  0.30444516885E+03  0.38441824265E+03  0.91351128809E+02 0.  0.
         23    2    4    4    0    0 -0.35315170450E+03  0.85028895106E+03  0.48373595484E+03  0.10439567889E+04  0.90210178444E+02 0.  0.
          2    1    3    3  502    0  0.37587963098E+03 -0.64067935056E+03  0.97248253649E+02  0.74914134185E+03  0.00000000000E+00 0. -1.
         -2    1    3    3    0  502  0.19336219235E+03 -0.21671989258E+03  0.43117049742E+02  0.29362481034E+03  0.00000000000E+00 0.  1.
         11    1    5    5    0    0  0.60678046789E+01  0.70154751191E+01  0.29574464340E+02  0.30994904190E+02  0.00000000000E+00 0. -1.
        -11    1    5    5    0    0 -0.22215792352E+03  0.94816958324E-01  0.27487070451E+03  0.35342333846E+03  0.00000000000E+00 0.  1.
          5    1    6    6  503    0 -0.27586468390E+02  0.23979881106E+02  0.16023750107E+02  0.40185799775E+02  0.47000000000E+01 0.  1.
         -5    1    6    6    0  503 -0.32556523611E+03  0.82630906996E+03  0.46771220474E+03  0.10037709891E+04  0.47000000000E+01 0.  1.
<mgrwt>
<rscale>  0 0.10948378E+04</rscale>
<asrwt>0</asrwt>
<pdfrwt beam="1">  1        2 0.11866114E+00 0.10948378E+04</pdfrwt>
<pdfrwt beam="2">  1       -2 0.26151443E+00 0.10948378E+04</pdfrwt>
<totfact> 0.19517218E+00</totfact>
</mgrwt>
</event>
<event>
12    1  0.3127365E-008  0.5554145E+03  0.7818608E-02  0.1000248E+00
          1   -1    0    0  501    0  0.00000000000E+00  0.00000000000E+00  0.18444305554E+04  0.18444305554E+04  0.00000000000E+00 0. -1.
         -1   -1    0    0    0  501 -0.00000000000E+00 -0.00000000000E+00 -0.24969216030E+03  0.24969216030E+03  0.00000000000E+00 0.  1.
         23    2    1    2    0    0 -0.47455697529E+03  0.39788615865E+02  0.24515652901E+03  0.54229463931E+03  0.84819192133E+02 0.  0.
    5000000    2    1    2    0    0  0.47455697529E+03 -0.39788615865E+02  0.13495818661E+04  0.15518280764E+04  0.60000975711E+03 0.  0.
         23    2    4    4    0    0  0.20643500190E+02  0.12489143052E+03  0.52156922811E+02  0.16436102340E+03  0.90940518460E+02 0.  0.
         23    2    4    4    0    0  0.45391347510E+03 -0.16468004639E+03  0.12974249432E+04  0.13874670530E+04  0.92716660489E+02 0.  0.
          3    1    3    3  502    0 -0.33523473528E+03  0.56929919090E+02  0.14398760446E+03  0.36926382664E+03  0.00000000000E+00 0. -1.
         -3    1    3    3    0  502 -0.13932224002E+03 -0.17141303225E+02  0.10116892455E+03  0.17303081267E+03  0.00000000000E+00 0.  1.
         13    1    5    5    0    0  0.34289195525E+02  0.12062569720E+03  0.68299513994E+02  0.14279751877E+03  0.00000000000E+00 0.  1.
        -13    1    5    5    0    0 -0.13645695335E+02  0.42657333267E+01 -0.16142591183E+02  0.21563504634E+02  0.00000000000E+00 0. -1.
          5    1    6    6  503    0  0.52612551275E+02 -0.51418762700E+02  0.22775753557E+03  0.23938996370E+03  0.47000000000E+01 0. -1.
         -5    1    6    6    0  503  0.40130092383E+03 -0.11326128369E+03  0.10696674077E+04  0.11480770893E+04  0.47000000000E+01 0.  1.
<mgrwt>
<rscale>  0 0.55541450E+03</rscale>
<asrwt>0</asrwt>
<pdfrwt beam="1">  1        1 0.28375854E+00 0.55541450E+03</pdfrwt>
<pdfrwt beam="2">  1       -1 0.38414180E-01 0.55541450E+03</pdfrwt>
<totfact> 0.26624359E+01</totfact>
</mgrwt>
</event>
<event>
12    1  0.3433112E-008  0.1487905E+04  0.7818608E-02  0.8892536E-01
          1   -1    0    0  501    0  0.00000000000E+00  0.00000000000E+00  0.26524146273E+04  0.26524146273E+04  0.00000000000E+00 0. -1.
         -1   -1    0    0    0  501 -0.00000000000E+00 -0.00000000000E+00 -0.11250468682E+04  0.11250468682E+04  0.00000000000E+00 0.  1.
         23    2    1    2    0    0  0.13931099641E+04  0.35537717961E+03  0.16789038794E+04  0.22123127716E+04  0.92527029676E+02 0.  0.
    5000000    2    1    2    0    0 -0.13931099641E+04 -0.35537717961E+03 -0.15153612032E+03  0.15651487238E+04  0.59973245706E+03 0.  0.
         23    2    4    4    0    0 -0.99091469230E+03 -0.49483508272E+03 -0.19063446619E+03  0.11277433918E+04  0.93220016764E+02 0.  0.
         23    2    4    4    0    0 -0.40219527179E+03  0.13945790312E+03  0.39098345870E+02  0.43740533201E+03  0.92656356682E+02 0.  0.
          1    1    3    3  502    0  0.66949862689E+03  0.12719595926E+03  0.76571747311E+03  0.10250514485E+04  0.00000000000E+00 0. -1.
         -1    1    3    3    0  502  0.72361133719E+03  0.22818122034E+03  0.91318640632E+03  0.11872613231E+04  0.00000000000E+00 0.  1.
         13    1    5    5    0    0 -0.68442370864E+03 -0.30688714419E+03 -0.15967040418E+03  0.76688341369E+03  0.00000000000E+00 0. -1.
        -13    1    5    5    0    0 -0.30649098366E+03 -0.18794793853E+03 -0.30964062018E+02  0.36085997810E+03  0.00000000000E+00 0.  1.
          5    1    6    6  503    0 -0.23271937903E+03  0.87510761499E+02 -0.22501601490E+02  0.24968951685E+03  0.47000000000E+01 0. -1.
         -5    1    6    6    0  503 -0.16947589276E+03  0.51947141619E+02  0.61599947360E+02  0.18771581517E+03  0.47000000000E+01 0.  1.
<mgrwt>
<rscale>  0 0.14879053E+04</rscale>
<asrwt>0</asrwt>
<pdfrwt beam="1">  1        1 0.40806379E+00 0.14879053E+04</pdfrwt>
<pdfrwt beam="2">  1       -1 0.17308413E+00 0.14879053E+04</pdfrwt>
<totfact> 0.23511605E-01</totfact>
</mgrwt>
</event>
<event>
12    1  0.3127365E-008  0.1093186E+04  0.7818608E-02  0.9211859E-01
          2   -1    0    0  501    0  0.00000000000E+00  0.00000000000E+00  0.22811496096E+04  0.22811496096E+04  0.00000000000E+00 0. -1.
         -2   -1    0    0    0  501 -0.00000000000E+00 -0.00000000000E+00 -0.59915182819E+03  0.59915182819E+03  0.00000000000E+00 0.  1.
         23    2    1    2    0    0  0.75578784835E+03  0.78536519602E+03  0.72585709352E+03  0.13111745391E+04  0.65546845572E+02 0.  0.
    5000000    2    1    2    0    0 -0.75578784835E+03 -0.78536519602E+03  0.95614068790E+03  0.15691268987E+04  0.59995036986E+03 0.  0.
         23    2    4    4    0    0 -0.36801074909E+03 -0.31287497735E+03  0.81802406603E+02  0.49830128994E+03  0.91048772257E+02 0.  0.
         23    2    4    4    0    0 -0.38777709926E+03 -0.47249021867E+03  0.87433828130E+03  0.10708256088E+04  0.92638916047E+02 0.  0.
          4    1    3    3  502    0  0.58521398204E+03  0.57596352305E+03  0.52504955500E+03  0.97462116736E+03  0.00000000000E+00 0. -1.
         -4    1    3    3    0  502  0.17057386631E+03  0.20940167296E+03  0.20080753852E+03  0.33655337174E+03  0.00000000000E+00 0.  1.
         11    1    5    5    0    0 -0.23119978578E+03 -0.21370164895E+03  0.10818161995E+02  0.31502185375E+03  0.00000000000E+00 0.  1.
        -11    1    5    5    0    0 -0.13681096331E+03 -0.99173328397E+02  0.70984244608E+02  0.18327943619E+03  0.00000000000E+00 0. -1.
          5    1    6    6  503    0 -0.23817610217E+03 -0.28379260112E+03  0.60555192159E+03  0.70991641468E+03  0.47000000000E+01 0. -1.
         -5    1    6    6    0  503 -0.14960099709E+03 -0.18869761754E+03  0.26878635972E+03  0.36090919407E+03  0.47000000000E+01 0.  1.
<mgrwt>
<rscale>  0 0.10931858E+04</rscale>
<asrwt>0</asrwt>
<pdfrwt beam="1">  1        2 0.35094609E+00 0.10931858E+04</pdfrwt>
<pdfrwt beam="2">  1       -2 0.92177205E-01 0.10931858E+04</pdfrwt>
<totfact> 0.46178606E+00</totfact>
</mgrwt>
</event>
<event>
12    1  0.3127365E-008  0.5245680E+03  0.7818608E-02  0.1007558E+00
          2   -1    0    0  501    0  0.00000000000E+00  0.00000000000E+00  0.14032499072E+04  0.14032499072E+04  0.00000000000E+00 0. -1.
         -2   -1    0    0    0  501 -0.00000000000E+00 -0.00000000000E+00 -0.21994004659E+03  0.21994004659E+03  0.00000000000E+00 0.  1.
         23    2    1    2    0    0  0.37765994570E+03 -0.11108473813E+02  0.54274723809E+03  0.66785540275E+03  0.93305100360E+02 0.  0.
    5000000    2    1    2    0    0 -0.37765994570E+03  0.11108473813E+02  0.64056262247E+03  0.95533455100E+03  0.59966090272E+03 0.  0.
         23    2    4    4    0    0  0.13915593749E+03 -0.45413297806E+02  0.22629020971E+03  0.28455107411E+03  0.91297931053E+02 0.  0.
         23    2    4    4    0    0 -0.51681588319E+03  0.56521771619E+02  0.41427241277E+03  0.67078347688E+03  0.89640800416E+02 0.  0.
          3    1    3    3  502    0  0.26842535069E+03 -0.71165468053E+01  0.45219770501E+03  0.52591404102E+03  0.00000000000E+00 0. -1.
         -3    1    3    3    0  502  0.10923459500E+03 -0.39919270081E+01  0.90549533084E+02  0.14194136172E+03  0.00000000000E+00 0.  1.
         13    1    5    5    0    0  0.11549579680E+03 -0.51338497175E+02  0.11586151674E+03  0.17146081602E+03  0.00000000000E+00 0. -1.
        -13    1    5    5    0    0  0.23660140694E+02  0.59251993692E+01  0.11042869296E+03  0.11309025809E+03  0.00000000000E+00 0.  1.
          5    1    6    6  503    0 -0.44877980045E+02 -0.54920734395E+00  0.88508636719E+01  0.45986547048E+02  0.47000000000E+01 0. -1.
         -5    1    6    6    0  503 -0.47193790314E+03  0.57070978963E+02  0.40542154909E+03  0.62479692984E+03  0.47000000000E+01 0.  1.
<mgrwt>
<rscale>  0 0.52456802E+03</rscale>
<asrwt>0</asrwt>
<pdfrwt beam="1">  1        2 0.21588460E+00 0.52456802E+03</pdfrwt>
<pdfrwt beam="2">  1       -2 0.33836931E-01 0.52456802E+03</pdfrwt>
<totfact> 0.12233615E+02</totfact>
</mgrwt>
</event>
<event>
12    1  0.3127365E-008  0.5358994E+03  0.7818608E-02  0.1004811E+00
          2   -1    0    0  501    0  0.00000000000E+00  0.00000000000E+00  0.15686166168E+04  0.15686166168E+04  0.00000000000E+00 0. -1.
         -2   -1    0    0    0  501 -0.00000000000E+00 -0.00000000000E+00 -0.28940637715E+03  0.28940637715E+03  0.00000000000E+00 0.  1.
         23    2    1    2    0    0  0.46754410105E+03  0.24046281500E+03  0.37384074637E+03  0.65132664591E+03  0.89719809472E+02 0.  0.
    5000000    2    1    2    0    0 -0.46754410105E+03 -0.24046281500E+03  0.90536949330E+03  0.12066963480E+04  0.60000192098E+03 0.  0.
         23    2    4    4    0    0 -0.35453905677E+03 -0.15314487945E+03  0.13843258357E+03  0.42017663572E+03  0.90738790683E+02 0.  0.
         23    2    4    4    0    0 -0.11300504428E+03 -0.87317935545E+02  0.76693690973E+03  0.78651971233E+03  0.10013227493E+03 0.  0.
          3    1    3    3  502    0  0.38465460260E+03  0.15621532968E+03  0.29200932837E+03  0.50757446781E+03  0.00000000000E+00 0. -1.
         -3    1    3    3    0  502  0.82889498452E+02  0.84247485318E+02  0.81831418000E+02  0.14375217810E+03  0.00000000000E+00 0.  1.
         13    1    5    5    0    0 -0.18642151484E+02 -0.16721982074E+02  0.35241363489E+02  0.43233183979E+02  0.00000000000E+00 0. -1.
        -13    1    5    5    0    0 -0.33589690528E+03 -0.13642289738E+03  0.10319122008E+03  0.37694345174E+03  0.00000000000E+00 0.  1.
          5    1    6    6  503    0 -0.23761720276E+02 -0.46882016156E+02  0.10669624087E+03  0.11903243510E+03  0.47000000000E+01 0. -1.
         -5    1    6    6    0  503 -0.89243324006E+02 -0.40435919389E+02  0.66024066886E+03  0.66748727723E+03  0.47000000000E+01 0.  1.
<mgrwt>
<rscale>  0 0.53589942E+03</rscale>
<asrwt>0</asrwt>
<pdfrwt beam="1">  1        2 0.24132563E+00 0.53589942E+03</pdfrwt>
<pdfrwt beam="2">  1       -2 0.44524059E-01 0.53589942E+03</pdfrwt>
<totfact> 0.58302436E+01</totfact>
</mgrwt>
</event>
<event>
12    1  0.3127365E-008  0.2232508E+04  0.7818608E-02  0.8505018E-01
          2   -1    0    0  501    0  0.00000000000E+00  0.00000000000E+00  0.28969654588E+04  0.28969654588E+04  0.00000000000E+00 0. -1.
         -2   -1    0    0    0  501 -0.00000000000E+00 -0.00000000000E+00 -0.18702860411E+04  0.18702860411E+04  0.00000000000E+00 0.  1.
         23    2    1    2    0    0  0.19208599326E+04 -0.11150392051E+04  0.10693130866E+04  0.24667701998E+04  0.92246581898E+02 0.  0.
    5000000    2    1    2    0    0 -0.19208599326E+04  0.11150392051E+04 -0.42633668915E+02  0.23004813000E+04  0.59781374394E+03 0.  0.
         23    2    4    4    0    0 -0.17371578896E+04  0.96429418156E+03 -0.20338137112E+03  0.19993206238E+04  0.91313594686E+02 0.  0.
         23    2    4    4    0    0 -0.18370204300E+03  0.15074502356E+03  0.16074770221E+03  0.30116067625E+03  0.91582893723E+02 0.  0.
          2    1    3    3  502    0  0.18911192963E+04 -0.10849047830E+04  0.10551466218E+04  0.24221240626E+04  0.00000000000E+00 0. -1.
         -2    1    3    3    0  502  0.29740636333E+02 -0.30134422148E+02  0.14166464736E+02  0.44646137244E+02  0.00000000000E+00 0.  1.
         11    1    5    5    0    0 -0.10266693109E+04  0.60782252046E+03 -0.15222509877E+03  0.12027761932E+04  0.00000000000E+00 0.  1.
        -11    1    5    5    0    0 -0.71048857874E+03  0.35647166110E+03 -0.51156272355E+02  0.79654443058E+03  0.00000000000E+00 0. -1.
          5    1    6    6  503    0 -0.19078148183E+03  0.12699881593E+03  0.14098462651E+03  0.26911898478E+03  0.47000000000E+01 0. -1.
         -5    1    6    6    0  503  0.70794388318E+01  0.23746207632E+02  0.19763075701E+02  0.32041691470E+02  0.47000000000E+01 0.  1.
<mgrwt>
<rscale>  0 0.22325083E+04</rscale>
<asrwt>0</asrwt>
<pdfrwt beam="1">  1        2 0.44568699E+00 0.22325083E+04</pdfrwt>
<pdfrwt beam="2">  1       -2 0.28773631E+00 0.22325083E+04</pdfrwt>
<totfact> 0.65980869E-02</totfact>
</mgrwt>
</event>
<event>
12    1  0.3127365E-008  0.9889367E+03  0.7818608E-02  0.9320763E-01
         -1   -1    0    0    0  501 -0.00000000000E+00  0.00000000000E+00  0.78742442714E+03  0.78742442714E+03  0.00000000000E+00 0.  1.
          1   -1    0    0  501    0  0.00000000000E+00 -0.00000000000E+00 -0.14706405691E+04  0.14706405691E+04  0.00000000000E+00 0. -1.
         23    2    1    2    0    0  0.92064462118E+03  0.34270235927E+03 -0.44887857978E+03  0.10834255561E+04  0.85367034452E+02 0.  0.
    5000000    2    1    2    0    0 -0.92064462118E+03 -0.34270235927E+03 -0.23433756220E+03  0.11746394402E+04  0.59986023029E+03 0.  0.
         23    2    4    4    0    0 -0.30233929803E+03 -0.69874739947E+02 -0.35713990137E+03  0.48200513274E+03  0.92133101612E+02 0.  0.
         23    2    4    4    0    0 -0.61830532315E+03 -0.27282761932E+03  0.12280233917E+03  0.69263430748E+03  0.89025203677E+02 0.  0.
          1    1    3    3  502    0  0.38113406428E+03  0.17104440175E+03 -0.15541792007E+03  0.44572872042E+03  0.00000000000E+00 0. -1.
         -1    1    3    3    0  502  0.53951055690E+03  0.17165795752E+03 -0.29346065971E+03  0.63769683563E+03  0.00000000000E+00 0.  1.
         13    1    5    5    0    0 -0.17371920124E+03 -0.14296178545E+02 -0.25385364419E+03  0.30793573075E+03  0.00000000000E+00 0. -1.
        -13    1    5    5    0    0 -0.12862009679E+03 -0.55578561402E+02 -0.10328625718E+03  0.17406940199E+03  0.00000000000E+00 0.  1.
          5    1    6    6  503    0 -0.19731743715E+03 -0.51929898427E+02  0.11970696903E+02  0.20444136797E+03  0.47000000000E+01 0. -1.
         -5    1    6    6    0  503 -0.42098788600E+03 -0.22089772090E+03  0.11083164227E+03  0.48819293950E+03  0.47000000000E+01 0.  1.
<mgrwt>
<rscale>  0 0.98893673E+03</rscale>
<asrwt>0</asrwt>
<pdfrwt beam="1">  1        1 0.22625239E+00 0.98893673E+03</pdfrwt>
<pdfrwt beam="2">  1       -1 0.12114222E+00 0.98893673E+03</pdfrwt>
<totfact> 0.41742984E+00</totfact>
</mgrwt>
</event>
<event>
12    1  0.3127365E-008  0.7030179E+03  0.7818608E-02  0.9712085E-01
         -1   -1    0    0    0  501 -0.00000000000E+00  0.00000000000E+00  0.50778006051E+03  0.50778006051E+03  0.00000000000E+00 0.  1.
          1   -1    0    0  501    0  0.00000000000E+00 -0.00000000000E+00 -0.12819645192E+04  0.12819645192E+04  0.00000000000E+00 0. -1.
         23    2    1    2    0    0  0.44245456911E+03 -0.53174513089E+03 -0.32295840689E+03  0.76888016383E+03  0.91409210679E+02 0.  0.
    5000000    2    1    2    0    0 -0.44245456911E+03  0.53174513089E+03 -0.45122605183E+03  0.10208644159E+04  0.60003356231E+03 0.  0.
         23    2    4    4    0    0 -0.21253346604E+03  0.19900602162E+03  0.10873953678E+03  0.32419297092E+03  0.92211304627E+02 0.  0.
         23    2    4    4    0    0 -0.22992110307E+03  0.33273910926E+03 -0.55996558861E+03  0.69667144501E+03  0.90612435069E+02 0.  0.
          3    1    3    3  502    0  0.76984429510E+02 -0.12136363117E+03 -0.10369122622E+03  0.17722190540E+03  0.00000000000E+00 0. -1.
         -3    1    3    3    0  502  0.36547013960E+03 -0.41038149971E+03 -0.21926718067E+03  0.59165825843E+03  0.00000000000E+00 0.  1.
         13    1    5    5    0    0 -0.19375849382E+03  0.14378975344E+03  0.61130606370E+02  0.24890720792E+03  0.00000000000E+00 0. -1.
        -13    1    5    5    0    0 -0.18774972222E+02  0.55216268185E+02  0.47608930412E+02  0.75285762992E+02  0.00000000000E+00 0.  1.
          5    1    6    6  503    0 -0.84914320617E+02  0.19669130334E+03 -0.31783122129E+03  0.38332321333E+03  0.47000000000E+01 0. -1.
         -5    1    6    6    0  503 -0.14500678245E+03  0.13604780593E+03 -0.24213436733E+03  0.31334823168E+03  0.47000000000E+01 0.  1.
<mgrwt>
<rscale>  0 0.70301785E+03</rscale>
<asrwt>0</asrwt>
<pdfrwt beam="1">  1        1 0.19722531E+00 0.70301785E+03</pdfrwt>
<pdfrwt beam="2">  1       -1 0.78120010E-01 0.70301785E+03</pdfrwt>
<totfact> 0.15902050E+01</totfact>
</mgrwt>
</event>
<event>
12    1  0.3127365E-008  0.1422071E+04  0.7818608E-02  0.8937996E-01
          2   -1    0    0  501    0  0.00000000000E+00  0.00000000000E+00  0.20083641016E+04  0.20083641016E+04  0.00000000000E+00 0. -1.
         -2   -1    0    0    0  501 -0.00000000000E+00 -0.00000000000E+00 -0.10493049680E+04  0.10493049680E+04  0.00000000000E+00 0.  1.
         23    2    1    2    0    0  0.11069952411E+04 -0.82727759287E+03  0.59605038240E+03  0.15079401125E+04  0.93705096304E+02 0.  0.
    5000000    2    1    2    0    0 -0.11069952411E+04  0.82727759287E+03  0.36300875129E+03  0.15497289571E+04  0.60004817080E+03 0.  0.
         23    2    4    4    0    0 -0.29905557873E+03 -0.45118302353E+01  0.21015285352E+03  0.37673253854E+03  0.91151456195E+02 0.  0.
         23    2    4    4    0    0 -0.80793966240E+03  0.83178942311E+03  0.15285589777E+03  0.11729964185E+04  0.88969263871E+02 0.  0.
          2    1    3    3  502    0  0.25747020984E+03 -0.24341346811E+03  0.15283907964E+03  0.38587667678E+03  0.00000000000E+00 0. -1.
         -2    1    3    3    0  502  0.84952503130E+03 -0.58386412476E+03  0.44321130276E+03  0.11220634358E+04  0.00000000000E+00 0.  1.
         11    1    5    5    0    0 -0.11174250060E+03  0.41015855584E+01  0.13354359102E+03  0.17417548664E+03  0.00000000000E+00 0. -1.
        -11    1    5    5    0    0 -0.18731307814E+03 -0.86134157937E+01  0.76609262501E+02  0.20255705190E+03  0.00000000000E+00 0.  1.
          5    1    6    6  503    0 -0.10128342085E+03  0.10322898524E+03  0.48769347179E+02  0.15269280912E+03  0.47000000000E+01 0. -1.
         -5    1    6    6    0  503 -0.70665624155E+03  0.72856043787E+03  0.10408655059E+03  0.10203036094E+04  0.47000000000E+01 0.  1.
<mgrwt>
<rscale>  0 0.14220710E+04</rscale>
<asrwt>0</asrwt>
<pdfrwt beam="1">  1        2 0.30897909E+00 0.14220710E+04</pdfrwt>
<pdfrwt beam="2">  1       -2 0.16143153E+00 0.14220710E+04</pdfrwt>
<totfact> 0.15438377E+00</totfact>
</mgrwt>
</event>
<event>
12    1  0.3127365E-008  0.1009252E+04  0.7818608E-02  0.9298456E-01
          1   -1    0    0  501    0  0.00000000000E+00  0.00000000000E+00  0.12480912043E+04  0.12480912043E+04  0.00000000000E+00 0. -1.
         -1   -1    0    0    0  501 -0.00000000000E+00 -0.00000000000E+00 -0.87780555645E+03  0.87780555645E+03  0.00000000000E+00 0.  1.
         23    2    1    2    0    0 -0.82934351973E+03 -0.46706826068E+03  0.28387287483E+03  0.99732924407E+03  0.90102043014E+02 0.  0.
    5000000    2    1    2    0    0  0.82934351973E+03  0.46706826068E+03  0.86412772978E+02  0.11285675166E+04  0.60019500033E+03 0.  0.
         23    2    4    4    0    0  0.78375994648E+03  0.54865669075E+03 -0.15626584754E+02  0.96125056716E+03  0.91949141920E+02 0.  0.
         23    2    4    4    0    0  0.45583573248E+02 -0.81588430069E+02  0.10203935773E+03  0.16731694948E+03  0.94065918292E+02 0.  0.
          3    1    3    3  502    0 -0.30369543726E+03 -0.19059798070E+03  0.65193636669E+02  0.36442930607E+03  0.00000000000E+00 0. -1.
         -3    1    3    3    0  502 -0.52564808246E+03 -0.27647027998E+03  0.21867923816E+03  0.63289993800E+03  0.00000000000E+00 0.  1.
         11    1    5    5    0    0  0.18717771239E+03  0.86075637559E+02  0.45180417213E+01  0.20607019216E+03  0.00000000000E+00 0.  1.
        -11    1    5    5    0    0  0.59658223409E+03  0.46258105319E+03 -0.20144626475E+02  0.75518037500E+03  0.00000000000E+00 0. -1.
          5    1    6    6  503    0  0.40176409736E+02 -0.23931962074E+02 -0.31962444357E+01  0.47108265586E+02  0.47000000000E+01 0. -1.
         -5    1    6    6    0  503  0.54071635118E+01 -0.57656467994E+02  0.10523560217E+03  0.12020868389E+03  0.47000000000E+01 0.  1.
<mgrwt>
<rscale>  0 0.10092515E+04</rscale>
<asrwt>0</asrwt>
<pdfrwt beam="1">  1        1 0.19201403E+00 0.10092515E+04</pdfrwt>
<pdfrwt beam="2">  1       -1 0.13504701E+00 0.10092515E+04</pdfrwt>
<totfact> 0.45481277E+00</totfact>
</mgrwt>
</event>
<event>
12    1  0.3127365E-008  0.4102605E+03  0.7818608E-02  0.1040284E+00
          2   -1    0    0  501    0  0.00000000000E+00  0.00000000000E+00  0.18344694680E+04  0.18344694680E+04  0.00000000000E+00 0. -1.
         -2   -1    0    0    0  501 -0.00000000000E+00 -0.00000000000E+00 -0.24489423253E+03  0.24489423253E+03  0.00000000000E+00 0.  1.
         23    2    1    2    0    0  0.18174296408E+03  0.30479324074E+02  0.14126417377E+04  0.14274392132E+04  0.89813885662E+02 0.  0.
    5000000    2    1    2    0    0 -0.18174296408E+03 -0.30479324074E+02  0.17693349779E+03  0.65192448736E+03  0.59978377804E+03 0.  0.
         23    2    4    4    0    0 -0.38754642755E+03 -0.45154067391E+02  0.88757629245E+02  0.41007777789E+03  0.89748224827E+02 0.  0.
         23    2    4    4    0    0  0.20580346347E+03  0.14674743317E+02  0.88175868545E+02  0.24184670947E+03  0.90246514722E+02 0.  0.
          3    1    3    3  502    0  0.15243923009E+03  0.51432210211E+02  0.96200303277E+03  0.97536292024E+03  0.00000000000E+00 0. -1.
         -3    1    3    3    0  502  0.29303733988E+02 -0.20952886137E+02  0.45063870493E+03  0.45207629294E+03  0.00000000000E+00 0.  1.
         13    1    5    5    0    0 -0.24338549150E+03 -0.71747070302E+02  0.54106233102E+02  0.25944483812E+03  0.00000000000E+00 0.  1.
        -13    1    5    5    0    0 -0.14416093606E+03  0.26593002912E+02  0.34651396143E+02  0.15063293977E+03  0.00000000000E+00 0. -1.
          5    1    6    6  503    0  0.28045625204E+01  0.19416303692E+02  0.17763574122E+02  0.26879229631E+02  0.47000000000E+01 0. -1.
         -5    1    6    6    0  503  0.20299890095E+03 -0.47415603747E+01  0.70412294423E+02  0.21496747984E+03  0.47000000000E+01 0.  1.
<mgrwt>
<rscale>  0 0.41026054E+03</rscale>
<asrwt>0</asrwt>
<pdfrwt beam="1">  1        2 0.28222606E+00 0.41026054E+03</pdfrwt>
<pdfrwt beam="2">  1       -2 0.37676037E-01 0.41026054E+03</pdfrwt>
<totfact> 0.59284058E+01</totfact>
</mgrwt>
</event>
<event>
12    1  0.3127365E-008  0.3941454E+03  0.7818608E-02  0.1045826E+00
         -2   -1    0    0    0  501 -0.00000000000E+00  0.00000000000E+00  0.75910557466E+03  0.75910557466E+03  0.00000000000E+00 0. -1.
          2   -1    0    0  501    0  0.00000000000E+00 -0.00000000000E+00 -0.13329102342E+04  0.13329102342E+04  0.00000000000E+00 0.  1.
         23    2    1    2    0    0  0.18337415727E+03  0.27623540781E+02  0.66820189445E+03  0.70000489324E+03  0.95519303062E+02 0.  0.
    5000000    2    1    2    0    0 -0.18337415727E+03 -0.27623540781E+02 -0.12420065540E+04  0.13920109157E+04  0.60060383574E+03 0.  0.
         23    2    4    4    0    0 -0.35704729610E+03 -0.12315324099E+03 -0.95109913576E+03  0.10273399907E+04  0.90489767734E+02 0.  0.
         23    2    4    4    0    0  0.17367313883E+03  0.95529700206E+02 -0.29090741827E+03  0.36467092495E+03  0.95233789823E+02 0.  0.
          4    1    3    3  502    0  0.69929545637E+02 -0.16683499703E+02  0.13369830023E+03  0.15180156784E+03  0.00000000000E+00 0.  1.
         -4    1    3    3    0  502  0.11344461163E+03  0.44307040485E+02  0.53450359422E+03  0.54820332540E+03  0.00000000000E+00 0. -1.
         11    1    5    5    0    0 -0.29568599996E+03 -0.93316039516E+02 -0.85497519442E+03  0.90946175119E+03  0.00000000000E+00 0. -1.
        -11    1    5    5    0    0 -0.61361296136E+02 -0.29837201472E+02 -0.96123941347E+02  0.11787823953E+03  0.00000000000E+00 0.  1.
          5    1    6    6  503    0  0.11505771755E+03  0.10608751462E+03 -0.17900443188E+03  0.23781824101E+03  0.47000000000E+01 0. -1.
         -5    1    6    6    0  503  0.58615421273E+02 -0.10557814418E+02 -0.11190298640E+03  0.12685268393E+03  0.47000000000E+01 0.  1.
<mgrwt>
<rscale>  0 0.39414540E+03</rscale>
<asrwt>0</asrwt>
<pdfrwt beam="1">  1        2 0.20506311E+00 0.39414540E+03</pdfrwt>
<pdfrwt beam="2">  1       -2 0.11678547E+00 0.39414540E+03</pdfrwt>
<totfact> 0.97899365E+00</totfact>
</mgrwt>
</event>
<event>
12    1  0.3127365E-008  0.1493923E+04  0.7818608E-02  0.8888504E-01
         -2   -1    0    0    0  501 -0.00000000000E+00  0.00000000000E+00  0.13426278514E+04  0.13426278514E+04  0.00000000000E+00 0.  1.
          2   -1    0    0  501    0  0.00000000000E+00 -0.00000000000E+00 -0.18696599432E+04  0.18696599432E+04  0.00000000000E+00 0. -1.
         23    2    1    2    0    0 -0.14348573607E+04  0.24157715140E+03 -0.72101503847E+03  0.16264968062E+04  0.91945686866E+02 0.  0.
    5000000    2    1    2    0    0  0.14348573607E+04 -0.24157715140E+03  0.19398294663E+03  0.15857909884E+04  0.59994042179E+03 0.  0.
         23    2    4    4    0    0 -0.18493604638E+00 -0.53251890761E+02  0.75702366128E+02  0.13058704743E+03  0.92121282274E+02 0.  0.
         23    2    4    4    0    0  0.14350422967E+04 -0.18832526064E+03  0.11828058051E+03  0.14552039409E+04  0.93890451483E+02 0.  0.
          4    1    3    3  502    0 -0.11328170630E+04  0.16250597647E+03 -0.53767559125E+03  0.12644278279E+04  0.00000000000E+00 0. -1.
         -4    1    3    3    0  502 -0.30204029769E+03  0.79071174931E+02 -0.18333944722E+03  0.36206897829E+03  0.00000000000E+00 0.  1.
         11    1    5    5    0    0 -0.29998836204E+02 -0.39104779205E+02  0.14224390783E+01  0.49306564098E+02  0.00000000000E+00 0.  1.
        -11    1    5    5    0    0  0.29813900157E+02 -0.14147111556E+02  0.74279927050E+02  0.81280483331E+02  0.00000000000E+00 0. -1.
          5    1    6    6  503    0  0.48636803881E+03 -0.31950429093E+02  0.70703609377E+02  0.49254013996E+03  0.47000000000E+01 0. -1.
         -5    1    6    6    0  503  0.94867425790E+03 -0.15637483155E+03  0.47576971130E+02  0.96266380098E+03  0.47000000000E+01 0.  1.
<mgrwt>
<rscale>  0 0.14939226E+04</rscale>
<asrwt>0</asrwt>
<pdfrwt beam="1">  1        2 0.28763999E+00 0.14939226E+04</pdfrwt>
<pdfrwt beam="2">  1       -2 0.20655813E+00 0.14939226E+04</pdfrwt>
<totfact> 0.89425257E-01</totfact>
</mgrwt>
</event>
<event>
12    1  0.3127365E-008  0.1470253E+04  0.7818608E-02  0.8904479E-01
         -1   -1    0    0    0  501 -0.00000000000E+00  0.00000000000E+00  0.14865545847E+04  0.14865545847E+04  0.00000000000E+00 0.  1.
          1   -1    0    0  501    0  0.00000000000E+00 -0.00000000000E+00 -0.18425711121E+04  0.18425711121E+04  0.00000000000E+00 0. -1.
         23    2    1    2    0    0  0.10910318437E+04  0.97446854524E+03  0.47782356008E+03  0.15415917467E+04  0.90831324399E+02 0.  0.
    5000000    2    1    2    0    0 -0.10910318437E+04 -0.97446854524E+03 -0.83384008753E+03  0.17875339501E+04  0.60004075000E+03 0.  0.
         23    2    4    4    0    0 -0.75589992647E+03 -0.56531903628E+03 -0.81534218813E+03  0.12507042183E+04  0.92237987158E+02 0.  0.
         23    2    4    4    0    0 -0.33513191719E+03 -0.40914950896E+03 -0.18497899401E+02  0.53682973182E+03  0.90151350961E+02 0.  0.
          1    1    3    3  502    0  0.72573076861E+03  0.59176256664E+03  0.29325490297E+03  0.98125762259E+03  0.00000000000E+00 0. -1.
         -1    1    3    3    0  502  0.36530107505E+03  0.38270597861E+03  0.18456865712E+03  0.56033412415E+03  0.00000000000E+00 0.  1.
         13    1    5    5    0    0 -0.49734577914E+03 -0.40695321635E+03 -0.59626636219E+03  0.87663978863E+03  0.00000000000E+00 0. -1.
        -13    1    5    5    0    0 -0.25855414733E+03 -0.15836581992E+03 -0.21907582594E+03  0.37406442965E+03  0.00000000000E+00 0.  1.
          5    1    6    6  503    0 -0.16772832586E+03 -0.19215397862E+03 -0.53034211229E+02  0.26055836267E+03  0.47000000000E+01 0. -1.
         -5    1    6    6    0  503 -0.16740359133E+03 -0.21699553034E+03  0.34536311828E+02  0.27627136916E+03  0.47000000000E+01 0.  1.
<mgrwt>
<rscale>  0 0.14702533E+04</rscale>
<asrwt>0</asrwt>
<pdfrwt beam="1">  1        1 0.28347248E+00 0.14702533E+04</pdfrwt>
<pdfrwt beam="2">  1       -1 0.22870071E+00 0.14702533E+04</pdfrwt>
<totfact> 0.34779971E-01</totfact>
</mgrwt>
</event>
<event>
12    1  0.3127365E-008  0.1095852E+04  0.7818608E-02  0.9209244E-01
          1   -1    0    0  501    0  0.00000000000E+00  0.00000000000E+00  0.43711633855E+04  0.43711633855E+04  0.00000000000E+00 0. -1.
         -1   -1    0    0    0  501 -0.00000000000E+00 -0.00000000000E+00 -0.28107127882E+03  0.28107127882E+03  0.00000000000E+00 0.  1.
         23    2    1    2    0    0  0.52275415750E+03 -0.87585968388E+03  0.21105354823E+04  0.23459448146E+04  0.93246750457E+02 0.  0.
    5000000    2    1    2    0    0 -0.52275415750E+03  0.87585968388E+03  0.19795566245E+04  0.23062898497E+04  0.59993861889E+03 0.  0.
         23    2    4    4    0    0 -0.59324020240E+03  0.87754866108E+03  0.18471595930E+04  0.21312101356E+04  0.89624157482E+02 0.  0.
         23    2    4    4    0    0  0.70486044892E+02 -0.16889772037E+01  0.13239703147E+03  0.17507971416E+03  0.90292841359E+02 0.  0.
          1    1    3    3  502    0  0.23980192189E+03 -0.39198330994E+03  0.10572601667E+04  0.11528030782E+04  0.00000000000E+00 0. -1.
         -1    1    3    3    0  502  0.28295223561E+03 -0.48387637394E+03  0.10532753156E+04  0.11931417365E+04  0.00000000000E+00 0.  1.
         11    1    5    5    0    0 -0.18684122349E+03  0.35378123359E+03  0.69993911729E+03  0.80621682689E+03  0.00000000000E+00 0. -1.
        -11    1    5    5    0    0 -0.40639897890E+03  0.52376742749E+03  0.11472204757E+04  0.13249933087E+04  0.00000000000E+00 0.  1.
          5    1    6    6  503    0  0.33125675251E+02 -0.41843533125E+02  0.93204232529E+02  0.10750493285E+03  0.47000000000E+01 0. -1.
         -5    1    6    6    0  503  0.37360369641E+02  0.40154555922E+02  0.39192798941E+02  0.67574781316E+02  0.47000000000E+01 0.  1.
<mgrwt>
<rscale>  0 0.10958523E+04</rscale>
<asrwt>0</asrwt>
<pdfrwt beam="1">  1        1 0.67248662E+00 0.10958523E+04</pdfrwt>
<pdfrwt beam="2">  1       -1 0.43241738E-01 0.10958523E+04</pdfrwt>
<totfact> 0.24000015E-01</totfact>
</mgrwt>
</event>
<event>
12    1  0.3127365E-008  0.7227060E+03  0.7818608E-02  0.9679171E-01
          1   -1    0    0  501    0  0.00000000000E+00  0.00000000000E+00  0.18872212136E+04  0.18872212136E+04  0.00000000000E+00 0. -1.
         -1   -1    0    0    0  501 -0.00000000000E+00 -0.00000000000E+00 -0.35611311284E+03  0.35611311284E+03  0.00000000000E+00 0.  1.
         23    2    1    2    0    0 -0.48618000314E+03 -0.50734317919E+03  0.76822034208E+03  0.10450828178E+04  0.90925821899E+02 0.  0.
    5000000    2    1    2    0    0  0.48618000314E+03  0.50734317919E+03  0.76288775864E+03  0.11982515086E+04  0.60003403967E+03 0.  0.
         23    2    4    4    0    0  0.19088542557E+03  0.10195979932E+03 -0.48390505996E+02  0.23986599664E+03  0.91438552581E+02 0.  0.
         23    2    4    4    0    0  0.29529457757E+03  0.40538337986E+03  0.81127826464E+03  0.95838551201E+03  0.93785898405E+02 0.  0.
          3    1    3    3  502    0 -0.94257177855E+02 -0.15241978036E+03  0.17627965676E+03  0.25137764899E+03  0.00000000000E+00 0. -1.
         -3    1    3    3    0  502 -0.39192282529E+03 -0.35492339882E+03  0.59194068532E+03  0.79370516878E+03  0.00000000000E+00 0.  1.
         13    1    5    5    0    0  0.15420341553E+03  0.35543749282E+02 -0.23303631427E+02  0.15995346421E+03  0.00000000000E+00 0.  1.
        -13    1    5    5    0    0  0.36682010041E+02  0.66416050039E+02 -0.25086874569E+02  0.79912532428E+02  0.00000000000E+00 0. -1.
          5    1    6    6  503    0  0.10653746074E+03  0.18099296738E+03  0.26295698816E+03  0.33656671315E+03  0.47000000000E+01 0. -1.
         -5    1    6    6    0  503  0.18875711683E+03  0.22439041249E+03  0.54832127648E+03  0.62181879886E+03  0.47000000000E+01 0.  1.
<mgrwt>
<rscale>  0 0.72270601E+03</rscale>
<asrwt>0</asrwt>
<pdfrwt beam="1">  1        1 0.29034172E+00 0.72270601E+03</pdfrwt>
<pdfrwt beam="2">  1       -1 0.54786634E-01 0.72270601E+03</pdfrwt>
<totfact> 0.12528952E+01</totfact>
</mgrwt>
</event>
<event>
12    1  0.3127365E-008  0.7172758E+03  0.7818608E-02  0.9688136E-01
          1   -1    0    0  501    0  0.00000000000E+00  0.00000000000E+00  0.16887586998E+04  0.16887586998E+04  0.00000000000E+00 0. -1.
         -1   -1    0    0    0  501 -0.00000000000E+00 -0.00000000000E+00 -0.42597808390E+03  0.42597808390E+03  0.00000000000E+00 0.  1.
         23    2    1    2    0    0 -0.60426258322E+03  0.26044991991E+02  0.10831083288E+04  0.12440542363E+04  0.93464859540E+02 0.  0.
    5000000    2    1    2    0    0  0.60426258322E+03 -0.26044991991E+02  0.17967228711E+03  0.87068254736E+03  0.59999529701E+03 0.  0.
         23    2    4    4    0    0  0.44572428100E+03  0.23683409412E+03  0.20183508929E+03  0.55099980057E+03  0.90015854971E+02 0.  0.
         23    2    4    4    0    0  0.15853830222E+03 -0.26287908611E+03 -0.22162802185E+02  0.31968274679E+03  0.86406374799E+02 0.  0.
          3    1    3    3  502    0 -0.23846451162E+03 -0.64542033806E+01  0.51526064001E+03  0.56780322929E+03  0.00000000000E+00 0. -1.
         -3    1    3    3    0  502 -0.36579807160E+03  0.32499195372E+02  0.56784768876E+03  0.67625100704E+03  0.00000000000E+00 0.  1.
         11    1    5    5    0    0  0.29271346455E+03  0.11310194414E+03  0.99497655522E+02  0.32920055521E+03  0.00000000000E+00 0. -1.
        -11    1    5    5    0    0  0.15301081645E+03  0.12373214999E+03  0.10233743377E+03  0.22179924536E+03  0.00000000000E+00 0.  1.
          5    1    6    6  503    0  0.44830597199E+01 -0.74493620394E+02  0.39764624790E+01  0.74881904074E+02  0.47000000000E+01 0. -1.
         -5    1    6    6    0  503  0.15405524250E+03 -0.18838546572E+03 -0.26139264664E+02  0.24480084271E+03  0.47000000000E+01 0.  1.
<mgrwt>
<rscale>  0 0.71727585E+03</rscale>
<asrwt>0</asrwt>
<pdfrwt beam="1">  1        1 0.25980903E+00 0.71727585E+03</pdfrwt>
<pdfrwt beam="2">  1       -1 0.65535091E-01 0.71727585E+03</pdfrwt>
<totfact> 0.11968346E+01</totfact>
</mgrwt>
</event>
<event>
12    1  0.3127365E-008  0.5390425E+03  0.7818608E-02  0.1004062E+00
         -1   -1    0    0    0  501 -0.00000000000E+00  0.00000000000E+00  0.73744402394E+03  0.73744402394E+03  0.00000000000E+00 0.  1.
          1   -1    0    0  501    0  0.00000000000E+00 -0.00000000000E+00 -0.41293620113E+03  0.41293620113E+03  0.00000000000E+00 0. -1.
         23    2    1    2    0    0  0.26295158198E+03 -0.26675234021E+03  0.38372521381E+02  0.38748247192E+03  0.91486994557E+02 0.  0.
    5000000    2    1    2    0    0 -0.26295158198E+03  0.26675234021E+03  0.28613530143E+03  0.76289775315E+03  0.59986600634E+03 0.  0.
         23    2    4    4    0    0  0.15446348432E+03 -0.34033527956E+02  0.71237834210E+02  0.19780301618E+03  0.95047120790E+02 0.  0.
         23    2    4    4    0    0 -0.41741506630E+03  0.30078586817E+03  0.21489746722E+03  0.56509473698E+03  0.91889413297E+02 0.  0.
          1    1    3    3  502    0  0.19549914843E+03 -0.17416601063E+03  0.65216695579E+02  0.26982759992E+03  0.00000000000E+00 0. -1.
         -1    1    3    3    0  502  0.67452433552E+02 -0.92586329580E+02 -0.26844174197E+02  0.11765487200E+03  0.00000000000E+00 0.  1.
         13    1    5    5    0    0  0.91442266021E+02  0.28139252525E+02  0.31104536735E+02  0.10060316970E+03  0.00000000000E+00 0.  1.
        -13    1    5    5    0    0  0.63021218304E+02 -0.62172780480E+02  0.40133297475E+02  0.97199846478E+02  0.00000000000E+00 0. -1.
          5    1    6    6  503    0 -0.23676554890E+03  0.20368572812E+03  0.16794103184E+03  0.35464359738E+03  0.47000000000E+01 0. -1.
         -5    1    6    6    0  503 -0.18064951740E+03  0.97100140049E+02  0.46956435380E+02  0.21045113960E+03  0.47000000000E+01 0.  1.
<mgrwt>
<rscale>  0 0.53904253E+03</rscale>
<asrwt>0</asrwt>
<pdfrwt beam="1">  1        1 0.63528647E-01 0.53904253E+03</pdfrwt>
<pdfrwt beam="2">  1       -1 0.11345293E+00 0.53904253E+03</pdfrwt>
<totfact> 0.42552906E+01</totfact>
</mgrwt>
</event>
<event>
12    1  0.3127365E-008  0.9685055E+03  0.7818608E-02  0.9343778E-01
         -1   -1    0    0    0  501 -0.00000000000E+00  0.00000000000E+00  0.11490824364E+04  0.11490824364E+04  0.00000000000E+00 0.  1.
          1   -1    0    0  501    0  0.00000000000E+00 -0.00000000000E+00 -0.10226550097E+04  0.10226550097E+04  0.00000000000E+00 0. -1.
         23    2    1    2    0    0 -0.75186789448E+01 -0.90839101073E+03 -0.35790841815E+03  0.98015367665E+03  0.85860556498E+02 0.  0.
    5000000    2    1    2    0    0  0.75186789448E+01  0.90839101073E+03  0.48433584493E+03  0.11915837695E+04  0.60004992296E+03 0.  0.
         23    2    4    4    0    0  0.22751765623E+03  0.60181270988E+03  0.12402663698E+03  0.66182366323E+03  0.93194060232E+02 0.  0.
         23    2    4    4    0    0 -0.21999897728E+03  0.30657830085E+03  0.36030920795E+03  0.52976010623E+03  0.91832675332E+02 0.  0.
          3    1    3    3  502    0  0.22684125820E+02 -0.74670990657E+03 -0.31019389028E+03  0.80889461841E+03  0.00000000000E+00 0. -1.
         -3    1    3    3    0  502 -0.30202804765E+02 -0.16168110416E+03 -0.47714527869E+02  0.17125905823E+03  0.00000000000E+00 0.  1.
         11    1    5    5    0    0  0.14094900375E+03  0.34008862429E+03  0.11619994753E+03  0.38604316059E+03  0.00000000000E+00 0. -1.
        -11    1    5    5    0    0  0.86568652473E+02  0.26172408559E+03  0.78266894433E+01  0.27578050264E+03  0.00000000000E+00 0.  1.
          5    1    6    6  503    0 -0.16854837591E+03  0.18924150096E+03  0.19092069658E+03  0.31732271128E+03  0.47000000000E+01 0. -1.
         -5    1    6    6    0  503 -0.51450601369E+02  0.11733679988E+03  0.16938851137E+03  0.21243739495E+03  0.47000000000E+01 0.  1.
<mgrwt>
<rscale>  0 0.96850554E+03</rscale>
<asrwt>0</asrwt>
<pdfrwt beam="1">  1        1 0.15733154E+00 0.96850554E+03</pdfrwt>
<pdfrwt beam="2">  1       -1 0.17678191E+00 0.96850554E+03</pdfrwt>
<totfact> 0.32128171E+00</totfact>
</mgrwt>
</event>
<event>
12    1  0.3127365E-008  0.4998378E+03  0.7818608E-02  0.1013821E+00
         -2   -1    0    0    0  501 -0.00000000000E+00  0.00000000000E+00  0.14070989170E+03  0.14070989170E+03  0.00000000000E+00 0.  1.
          2   -1    0    0  501    0  0.00000000000E+00 -0.00000000000E+00 -0.33109611293E+04  0.33109611293E+04  0.00000000000E+00 0. -1.
         23    2    1    2    0    0  0.34506763083E+03 -0.21899018204E+03 -0.37052174739E+03  0.55948559239E+03  0.93324129409E+02 0.  0.
    5000000    2    1    2    0    0 -0.34506763083E+03  0.21899018204E+03 -0.27997294902E+04  0.28921854286E+04  0.59935212139E+03 0.  0.
         23    2    4    4    0    0 -0.31843744081E+03 -0.24320729231E+02 -0.23412337680E+04  0.23646482413E+04  0.90508823349E+02 0.  0.
         23    2    4    4    0    0 -0.26630190020E+02  0.24331091127E+03 -0.45849572224E+03  0.52753718733E+03  0.90375827184E+02 0.  0.
          1    1    3    3  502    0  0.15369678409E+03 -0.15265833263E+03 -0.19549931703E+03  0.29180001871E+03  0.00000000000E+00 0. -1.
         -1    1    3    3    0  502  0.19137084674E+03 -0.66331849415E+02 -0.17502243036E+03  0.26768557369E+03  0.00000000000E+00 0.  1.
         11    1    5    5    0    0 -0.13619520236E+03 -0.40307184961E+01 -0.13265178563E+04  0.13334972827E+04  0.00000000000E+00 0.  1.
        -11    1    5    5    0    0 -0.18224223846E+03 -0.20290010735E+02 -0.10147159117E+04  0.10311509586E+04  0.00000000000E+00 0. -1.
          5    1    6    6  503    0 -0.51827794285E+02  0.22054692248E+03 -0.40096199954E+03  0.46056452355E+03  0.47000000000E+01 0.  1.
         -5    1    6    6    0  503  0.25197604266E+02  0.22763988799E+02 -0.57533722690E+02  0.66972663777E+02  0.47000000000E+01 0. -1.
<mgrwt>
<rscale>  0 0.49983780E+03</rscale>
<asrwt>0</asrwt>
<pdfrwt beam="1">  1        2 0.50937866E+00 0.49983780E+03</pdfrwt>
<pdfrwt beam="2">  1       -2 0.21647675E-01 0.49983780E+03</pdfrwt>
<totfact> 0.22897329E+01</totfact>
</mgrwt>
</event>
<event>
12    1  0.3127365E-008  0.5214400E+03  0.7818608E-02  0.1008329E+00
          1   -1    0    0  501    0  0.00000000000E+00  0.00000000000E+00  0.20398990489E+04  0.20398990489E+04  0.00000000000E+00 0. -1.
         -1   -1    0    0    0  501 -0.00000000000E+00 -0.00000000000E+00 -0.18337602021E+03  0.18337602021E+03  0.00000000000E+00 0.  1.
         23    2    1    2    0    0 -0.15266602159E+03 -0.36039905654E+03  0.27241317317E+03  0.48469144889E+03  0.86732171742E+02 0.  0.
    5000000    2    1    2    0    0  0.15266602159E+03  0.36039905654E+03  0.15841098555E+04  0.17385836202E+04  0.60006214346E+03 0.  0.
         23    2    4    4    0    0  0.32370482618E+03  0.12935336669E+03  0.11857907768E+04  0.12392282037E+04  0.89831322792E+02 0.  0.
         23    2    4    4    0    0 -0.17103880459E+03  0.23104568985E+03  0.39831907878E+03  0.49935541656E+03  0.89785077011E+02 0.  0.
          3    1    3    3  502    0 -0.20062214692E+02 -0.15443838765E+03  0.11342306119E+03  0.19266161748E+03  0.00000000000E+00 0. -1.
         -3    1    3    3    0  502 -0.13260380690E+03 -0.20596066889E+03  0.15899011198E+03  0.29202983142E+03  0.00000000000E+00 0.  1.
         13    1    5    5    0    0  0.29140245142E+03  0.11193682996E+03  0.11309553683E+04  0.11732456212E+04  0.00000000000E+00 0. -1.
        -13    1    5    5    0    0  0.32302374758E+02  0.17416536728E+02  0.54835408418E+02  0.65982582421E+02  0.00000000000E+00 0.  1.
          5    1    6    6  503    0 -0.15870721304E+03  0.17737996777E+03  0.36186300187E+03  0.43314957527E+03  0.47000000000E+01 0. -1.
         -5    1    6    6    0  503 -0.12331591554E+02  0.53665722083E+02  0.36456076904E+02  0.66205841284E+02  0.47000000000E+01 0.  1.
<mgrwt>
<rscale>  0 0.52143997E+03</rscale>
<asrwt>0</asrwt>
<pdfrwt beam="1">  1        1 0.31383061E+00 0.52143997E+03</pdfrwt>
<pdfrwt beam="2">  1       -1 0.28211697E-01 0.52143997E+03</pdfrwt>
<totfact> 0.34179047E+01</totfact>
</mgrwt>
</event>
<event>
12    1  0.3127365E-008  0.1672137E+04  0.7818608E-02  0.8777417E-01
          2   -1    0    0  501    0  0.00000000000E+00  0.00000000000E+00  0.18788720431E+04  0.18788720431E+04  0.00000000000E+00 0. -1.
         -2   -1    0    0    0  501 -0.00000000000E+00 -0.00000000000E+00 -0.15744631737E+04  0.15744631737E+04  0.00000000000E+00 0.  1.
         23    2    1    2    0    0 -0.33079670671E+03 -0.15850720581E+04 -0.24821976158E+03  0.16402720434E+04  0.83662629853E+02 0.  0.
    5000000    2    1    2    0    0  0.33079670671E+03  0.15850720581E+04  0.55262863095E+03  0.18130631734E+04  0.59993314333E+03 0.  0.
         23    2    4    4    0    0  0.29125321919E+03  0.26858762937E+03  0.13942430096E+03  0.42974901042E+03  0.90979799521E+02 0.  0.
         23    2    4    4    0    0  0.39543487519E+02  0.13164844288E+04  0.41320433000E+03  0.13833141630E+04  0.90140538446E+02 0.  0.
          4    1    3    3  502    0 -0.21194978728E+03 -0.84252876351E+03 -0.11063645744E+03  0.87579555570E+03  0.00000000000E+00 0. -1.
         -4    1    3    3    0  502 -0.11884691943E+03 -0.74254329464E+03 -0.13758330413E+03  0.76447648770E+03  0.00000000000E+00 0.  1.
         13    1    5    5    0    0  0.44098396932E+02  0.43551297967E+01  0.94882456712E+01  0.45317353999E+02  0.00000000000E+00 0. -1.
        -13    1    5    5    0    0  0.24715482226E+03  0.26423249957E+03  0.12993605528E+03  0.38443165642E+03  0.00000000000E+00 0.  1.
          5    1    6    6  503    0  0.68840581371E+01  0.75851895804E+02  0.35879581108E+01  0.76392825559E+02  0.47000000000E+01 0. -1.
         -5    1    6    6    0  503  0.32659429382E+02  0.12406325330E+04  0.40961637188E+03  0.13069213375E+04  0.47000000000E+01 0.  1.
<mgrwt>
<rscale>  0 0.16721365E+04</rscale>
<asrwt>0</asrwt>
<pdfrwt beam="1">  1        2 0.28905724E+00 0.16721365E+04</pdfrwt>
<pdfrwt beam="2">  1       -2 0.24222510E+00 0.16721365E+04</pdfrwt>
<totfact> 0.51630962E-01</totfact>
</mgrwt>
</event>
<event>
12    1  0.3127365E-008  0.6830247E+03  0.7818608E-02  0.9746711E-01
         -2   -1    0    0    0  501 -0.00000000000E+00  0.00000000000E+00  0.66173287406E+03  0.66173287406E+03  0.00000000000E+00 0.  1.
          2   -1    0    0  501    0  0.00000000000E+00 -0.00000000000E+00 -0.87211884945E+03  0.87211884945E+03  0.00000000000E+00 0. -1.
         23    2    1    2    0    0 -0.47763703555E+03 -0.27859943438E+03  0.23161146122E+03  0.60624884584E+03  0.90216470478E+02 0.  0.
    5000000    2    1    2    0    0  0.47763703555E+03  0.27859943438E+03 -0.44199743661E+03  0.92760287767E+03  0.59944189220E+03 0.  0.
         23    2    4    4    0    0 -0.12109752447E+03  0.88232478745E+01 -0.53009823184E+02  0.15903484373E+03  0.87974882959E+02 0.  0.
         23    2    4    4    0    0  0.59873456002E+03  0.26977618650E+03 -0.38898761343E+03  0.76856803394E+03  0.90128770227E+02 0.  0.
          3    1    3    3  502    0 -0.24437255375E+03 -0.19380394078E+03  0.13637458552E+03  0.34040555235E+03  0.00000000000E+00 0.  1.
         -3    1    3    3    0  502 -0.23326448180E+03 -0.84795493595E+02  0.95236875697E+02  0.26584329349E+03  0.00000000000E+00 0. -1.
         13    1    5    5    0    0 -0.79331190242E+02  0.43975188725E+02 -0.13628559871E+02  0.91722367026E+02  0.00000000000E+00 0. -1.
        -13    1    5    5    0    0 -0.41766334225E+02 -0.35151940851E+02 -0.39381263313E+02  0.67312476706E+02  0.00000000000E+00 0.  1.
          5    1    6    6  503    0  0.45271833628E+03  0.16933609569E+03 -0.25626284534E+03  0.54710267886E+03  0.47000000000E+01 0. -1.
         -5    1    6    6    0  503  0.14601622374E+03  0.10044009081E+03 -0.13272476808E+03  0.22146535508E+03  0.47000000000E+01 0.  1.
<mgrwt>
<rscale>  0 0.68302472E+03</rscale>
<asrwt>0</asrwt>
<pdfrwt beam="1">  1        2 0.13417213E+00 0.68302472E+03</pdfrwt>
<pdfrwt beam="2">  1       -2 0.10180506E+00 0.68302472E+03</pdfrwt>
<totfact> 0.24779951E+01</totfact>
</mgrwt>
</event>
<event>
12    1  0.3127365E-008  0.7545305E+03  0.7818608E-02  0.9628269E-01
          1   -1    0    0  501    0  0.00000000000E+00  0.00000000000E+00  0.26301901128E+04  0.26301901128E+04  0.00000000000E+00 0. -1.
         -1   -1    0    0    0  501 -0.00000000000E+00 -0.00000000000E+00 -0.25402855915E+03  0.25402855915E+03  0.00000000000E+00 0.  1.
         23    2    1    2    0    0 -0.74694742492E+01 -0.65291381668E+03  0.56810009688E+03  0.87036926415E+03  0.91938516717E+02 0.  0.
    5000000    2    1    2    0    0  0.74694742492E+01  0.65291381668E+03  0.18080614567E+04  0.20138494078E+04  0.60012578745E+03 0.  0.
         23    2    4    4    0    0  0.25948522482E+03  0.18926344807E+03  0.90982561980E+03  0.96882484416E+03  0.87668041718E+02 0.  0.
         23    2    4    4    0    0 -0.25201575057E+03  0.46365036860E+03  0.89823583692E+03  0.10450245636E+04  0.82250330944E+02 0.  0.
          1    1    3    3  502    0 -0.36432902397E+02 -0.15176539217E+03  0.15891315295E+03  0.22274083779E+03  0.00000000000E+00 0. -1.
         -1    1    3    3    0  502  0.28963428147E+02 -0.50114842450E+03  0.40918694392E+03  0.64762842636E+03  0.00000000000E+00 0.  1.
         13    1    5    5    0    0  0.26684385475E+02  0.94701632163E+01  0.30553544771E+02  0.41656446291E+02  0.00000000000E+00 0. -1.
        -13    1    5    5    0    0  0.23280083934E+03  0.17979328486E+03  0.87927207503E+03  0.92716839787E+03  0.00000000000E+00 0.  1.
          5    1    6    6  503    0 -0.20193708936E+03  0.34706646851E+03  0.74206076849E+03  0.84374759008E+03  0.47000000000E+01 0. -1.
         -5    1    6    6    0  503 -0.50078661204E+02  0.11658390009E+03  0.15617506843E+03  0.20127697352E+03  0.47000000000E+01 0.  1.
<mgrwt>
<rscale>  0 0.75453055E+03</rscale>
<asrwt>0</asrwt>
<pdfrwt beam="1">  1        1 0.40464461E+00 0.75453055E+03</pdfrwt>
<pdfrwt beam="2">  1       -1 0.39081319E-01 0.75453055E+03</pdfrwt>
<totfact> 0.73841199E+00</totfact>
</mgrwt>
</event>
<event>
12    1  0.3127365E-008  0.9894601E+03  0.7818608E-02  0.9320181E-01
         -1   -1    0    0    0  501 -0.00000000000E+00  0.00000000000E+00  0.93556053973E+03  0.93556053973E+03  0.00000000000E+00 0. -1.
          1   -1    0    0  501    0  0.00000000000E+00 -0.00000000000E+00 -0.22483529006E+04  0.22483529006E+04  0.00000000000E+00 0.  1.
         23    2    1    2    0    0  0.95997514840E+03  0.13756662329E+03  0.45926230099E+03  0.10766218760E+04  0.87840431872E+02 0.  0.
    5000000    2    1    2    0    0 -0.95997514840E+03 -0.13756662329E+03 -0.17720546619E+04  0.21072915643E+04  0.60001929215E+03 0.  0.
         23    2    4    4    0    0 -0.59977487725E+03  0.18892253510E+02 -0.15019287440E+04  0.16202452565E+04  0.96529366221E+02 0.  0.
         23    2    4    4    0    0 -0.36020027115E+03 -0.15645887680E+03 -0.27012591790E+03  0.48704630783E+03  0.10011233182E+03 0.  0.
          4    1    3    3  502    0  0.23114937103E+03  0.65081554247E+02  0.90690943466E+02  0.25669142498E+03  0.00000000000E+00 0. -1.
         -4    1    3    3    0  502  0.72882577737E+03  0.72485069041E+02  0.36857135752E+03  0.81993045106E+03  0.00000000000E+00 0.  1.
         11    1    5    5    0    0 -0.59462962443E+03  0.68261897510E+01 -0.14698571915E+04  0.15855948885E+04  0.00000000000E+00 0. -1.
        -11    1    5    5    0    0 -0.51452528238E+01  0.12066063759E+02 -0.32071552542E+02  0.34650368017E+02  0.00000000000E+00 0.  1.
          5    1    6    6  503    0 -0.34727553813E+03 -0.13404119527E+03 -0.27141927346E+03  0.46071450315E+03  0.47000000000E+01 0. -1.
         -5    1    6    6    0  503 -0.12924733022E+02 -0.22417681528E+02  0.12933555614E+01  0.26331804674E+02  0.47000000000E+01 0.  1.
<mgrwt>
<rscale>  0 0.98946012E+03</rscale>
<asrwt>0</asrwt>
<pdfrwt beam="1">  1        1 0.34590045E+00 0.98946012E+03</pdfrwt>
<pdfrwt beam="2">  1       -1 0.14393239E+00 0.98946012E+03</pdfrwt>
<totfact> 0.79950231E-01</totfact>
</mgrwt>
</event>
<event>
12    1  0.3127365E-008  0.7496869E+03  0.7818608E-02  0.9635842E-01
         -2   -1    0    0    0  501 -0.00000000000E+00  0.00000000000E+00  0.16096314690E+04  0.16096314690E+04  0.00000000000E+00 0.  1.
          2   -1    0    0  501    0  0.00000000000E+00 -0.00000000000E+00 -0.70215317537E+03  0.70215317537E+03  0.00000000000E+00 0. -1.
         23    2    1    2    0    0  0.68425710724E+03  0.96225438227E+02 -0.33110340897E+03  0.77180061754E+03  0.92626141123E+02 0.  0.
    5000000    2    1    2    0    0 -0.68425710724E+03 -0.96225438227E+02  0.12385817026E+04  0.15399840268E+04  0.59999920424E+03 0.  0.
         23    2    4    4    0    0 -0.60243107843E+03 -0.23058965985E+03  0.63445741946E+03  0.90950244759E+03  0.92540205183E+02 0.  0.
         23    2    4    4    0    0 -0.81826028811E+02  0.13436422162E+03  0.60412428316E+03  0.63048157925E+03  0.88270205783E+02 0.  0.
          1    1    3    3  502    0  0.22995079287E+03  0.13077129588E+02 -0.15446262719E+03  0.27732126074E+03  0.00000000000E+00 0. -1.
         -1    1    3    3    0  502  0.45430631437E+03  0.83148308639E+02 -0.17664078179E+03  0.49447935679E+03  0.00000000000E+00 0.  1.
         13    1    5    5    0    0 -0.29885776708E+03 -0.13500189754E+03  0.26317838710E+03  0.42048108248E+03  0.00000000000E+00 0. -1.
        -13    1    5    5    0    0 -0.30357331135E+03 -0.95587762309E+02  0.37127903236E+03  0.48902136511E+03  0.00000000000E+00 0.  1.
          5    1    6    6  503    0  0.20900561550E+00  0.17602015497E+02  0.21877346630E+03  0.21953085021E+03  0.47000000000E+01 0. -1.
         -5    1    6    6    0  503 -0.82035034426E+02  0.11676220613E+03  0.38535081686E+03  0.41095072905E+03  0.47000000000E+01 0.  1.
<mgrwt>
<rscale>  0 0.74968690E+03</rscale>
<asrwt>0</asrwt>
<pdfrwt beam="1">  1        2 0.10802357E+00 0.74968690E+03</pdfrwt>
<pdfrwt beam="2">  1       -2 0.24763561E+00 0.74968690E+03</pdfrwt>
<totfact> 0.27944298E+00</totfact>
</mgrwt>
</event>
<event>
12    1  0.3356095E-008  0.6903232E+03  0.7818608E-02  0.9733925E-01
          2   -1    0    0  501    0  0.00000000000E+00  0.00000000000E+00  0.14172269433E+04  0.14172269433E+04  0.00000000000E+00 0. -1.
         -2   -1    0    0    0  501 -0.00000000000E+00 -0.00000000000E+00 -0.44502726470E+03  0.44502726470E+03  0.00000000000E+00 0.  1.
         23    2    1    2    0    0  0.67340525632E+03  0.58113600193E+02  0.36504958766E+03  0.77357184233E+03  0.91106333591E+02 0.  0.
    5000000    2    1    2    0    0 -0.67340525632E+03 -0.58113600193E+02  0.60715009094E+03  0.10886823657E+04  0.59978848823E+03 0.  0.
         23    2    4    4    0    0 -0.40335478180E+03 -0.10007220656E+03  0.67047685455E+03  0.79407110417E+03  0.91105320703E+02 0.  0.
         23    2    4    4    0    0 -0.27005047453E+03  0.41958606367E+02 -0.63326763616E+02  0.29461126150E+03  0.89987404515E+02 0.  0.
          1    1    3    3  502    0  0.21278903852E+03  0.61083908727E+02  0.11635867921E+03  0.25009950230E+03  0.00000000000E+00 0. -1.
         -1    1    3    3    0  502  0.46061621780E+03 -0.29703085333E+01  0.24869090844E+03  0.52347234003E+03  0.00000000000E+00 0.  1.
         13    1    5    5    0    0 -0.82835882837E+02 -0.49214427119E+02  0.20636673353E+03  0.22775221630E+03  0.00000000000E+00 0.  1.
        -13    1    5    5    0    0 -0.32051889896E+03 -0.50857779441E+02  0.46411012102E+03  0.56631888787E+03  0.00000000000E+00 0. -1.
          5    1    6    6  503    0 -0.63874676965E+02 -0.10639477033E+02 -0.48921490527E+02  0.81293142787E+02  0.47000000000E+01 0. -1.
         -5    1    6    6    0  503 -0.20617579756E+03  0.52598083399E+02 -0.14405273089E+02  0.21331811871E+03  0.47000000000E+01 0.  1.
<mgrwt>
<rscale>  0 0.69032320E+03</rscale>
<asrwt>0</asrwt>
<pdfrwt beam="1">  1        2 0.21803491E+00 0.69032320E+03</pdfrwt>
<pdfrwt beam="2">  1       -2 0.68465733E-01 0.69032320E+03</pdfrwt>
<totfact> 0.28405409E+01</totfact>
</mgrwt>
</event>
<event>
12    1  0.3127365E-008  0.6779395E+03  0.7818608E-02  0.9755721E-01
          1   -1    0    0  501    0  0.00000000000E+00  0.00000000000E+00  0.13758159986E+04  0.13758159986E+04  0.00000000000E+00 0. -1.
         -1   -1    0    0    0  501 -0.00000000000E+00 -0.00000000000E+00 -0.49770127102E+03  0.49770127102E+03  0.00000000000E+00 0.  1.
         23    2    1    2    0    0  0.33418498284E+03  0.55800121449E+03  0.72021872300E+03  0.97458665964E+03  0.89772991805E+02 0.  0.
    5000000    2    1    2    0    0 -0.33418498284E+03 -0.55800121449E+03  0.15789600459E+03  0.89893060998E+03  0.60008344017E+03 0.  0.
         23    2    4    4    0    0 -0.48159496261E+01 -0.19410307378E+03  0.31142595616E+03  0.37827056885E+03  0.91669517642E+02 0.  0.
         23    2    4    4    0    0 -0.32936903322E+03 -0.36389814071E+03 -0.15352995157E+03  0.52066004114E+03  0.81299542139E+02 0.  0.
          2    1    3    3  502    0  0.23753373742E+03  0.37646163948E+03  0.43019564304E+03  0.61904275595E+03  0.00000000000E+00 0. -1.
         -2    1    3    3    0  502  0.96651245427E+02  0.18153957502E+03  0.29002307996E+03  0.35554390369E+03  0.00000000000E+00 0.  1.
         11    1    5    5    0    0  0.31128916466E+02 -0.13863884545E+03  0.16585355910E+03  0.21839675358E+03  0.00000000000E+00 0. -1.
        -11    1    5    5    0    0 -0.35944866092E+02 -0.55464228331E+02  0.14557239706E+03  0.15987381527E+03  0.00000000000E+00 0.  1.
          5    1    6    6  503    0 -0.62780073408E+02 -0.12012830397E+03 -0.53520326286E+02  0.14580350598E+03  0.47000000000E+01 0. -1.
         -5    1    6    6    0  503 -0.26658895981E+03 -0.24376983674E+03 -0.10000962528E+03  0.37485653515E+03  0.47000000000E+01 0.  1.
<mgrwt>
<rscale>  0 0.67793948E+03</rscale>
<asrwt>0</asrwt>
<pdfrwt beam="1">  1        1 0.21166400E+00 0.67793948E+03</pdfrwt>
<pdfrwt beam="2">  1       -1 0.76569427E-01 0.67793948E+03</pdfrwt>
<totfact> 0.14305676E+01</totfact>
</mgrwt>
</event>
<event>
12    1  0.3127365E-008  0.1101768E+04  0.7818608E-02  0.9203471E-01
          1   -1    0    0  501    0  0.00000000000E+00  0.00000000000E+00  0.13234110538E+04  0.13234110538E+04  0.00000000000E+00 0. -1.
         -1   -1    0    0    0  501 -0.00000000000E+00 -0.00000000000E+00 -0.17394796394E+04  0.17394796394E+04  0.00000000000E+00 0.  1.
         23    2    1    2    0    0 -0.86341466546E+02  0.10887592136E+04  0.77267545931E+03  0.13409438022E+04  0.90837443488E+02 0.  0.
    5000000    2    1    2    0    0  0.86341466546E+02 -0.10887592136E+04 -0.11887440449E+04  0.17219468910E+04  0.59928058300E+03 0.  0.
         23    2    4    4    0    0 -0.25143115251E+01 -0.81748872354E+03 -0.11592544474E+04  0.14214816004E+04  0.91896308446E+02 0.  0.
         23    2    4    4    0    0  0.88855778071E+02 -0.27127049009E+03 -0.29489597424E+02  0.30046529061E+03  0.89032165053E+02 0.  0.
          1    1    3    3  502    0 -0.60338293709E+02  0.72144251224E+03  0.56373141419E+03  0.91755823548E+03  0.00000000000E+00 0. -1.
         -1    1    3    3    0  502 -0.26003172836E+02  0.36731670139E+03  0.20894404512E+03  0.42338556672E+03  0.00000000000E+00 0.  1.
         13    1    5    5    0    0 -0.44645808010E+02 -0.52058657154E+03 -0.71898685818E+03  0.88878891131E+03  0.00000000000E+00 0.  1.
        -13    1    5    5    0    0  0.42131496485E+02 -0.29690215200E+03 -0.44026758926E+03  0.53269268909E+03  0.00000000000E+00 0. -1.
          5    1    6    6  503    0  0.48086372534E+02 -0.80978621527E+02  0.26420627680E+02  0.97928422507E+02  0.47000000000E+01 0. -1.
         -5    1    6    6    0  503  0.40769405537E+02 -0.19029186856E+03 -0.55910225103E+02  0.20253686810E+03  0.47000000000E+01 0.  1.
<mgrwt>
<rscale>  0 0.11017677E+04</rscale>
<asrwt>0</asrwt>
<pdfrwt beam="1">  1        1 0.20360170E+00 0.11017677E+04</pdfrwt>
<pdfrwt beam="2">  1       -1 0.26761225E+00 0.11017677E+04</pdfrwt>
<totfact> 0.46407751E-01</totfact>
</mgrwt>
</event>
<event>
12    1  0.3127365E-008  0.6893821E+03  0.7818608E-02  0.9735564E-01
          1   -1    0    0  501    0  0.00000000000E+00  0.00000000000E+00  0.21687292906E+04  0.21687292906E+04  0.00000000000E+00 0. -1.
         -1   -1    0    0    0  501 -0.00000000000E+00 -0.00000000000E+00 -0.24787178046E+03  0.24787178046E+03  0.00000000000E+00 0.  1.
         23    2    1    2    0    0  0.19371855247E+03  0.55370682621E+03  0.54821225121E+03  0.80769336697E+03  0.87828103209E+02 0.  0.
    5000000    2    1    2    0    0 -0.19371855247E+03 -0.55370682621E+03  0.13726452589E+04  0.16089077041E+04  0.60025899944E+03 0.  0.
         23    2    4    4    0    0 -0.66947868550E+02  0.90479408579E+02  0.44887576163E+03  0.47166808022E+03  0.91174492254E+02 0.  0.
         23    2    4    4    0    0 -0.12677068392E+03 -0.64418623479E+03  0.92376949731E+03  0.11372396239E+04  0.94430749935E+02 0.  0.
          3    1    3    3  502    0  0.17927939938E+02  0.10556122879E+03  0.63174652392E+02  0.12432063690E+03  0.00000000000E+00 0.  1.
         -3    1    3    3    0  502  0.17579061253E+03  0.44814559742E+03  0.48503759882E+03  0.68337273007E+03  0.00000000000E+00 0. -1.
         13    1    5    5    0    0  0.11213766328E+02  0.44162533264E+01  0.15741919256E+03  0.15787987217E+03  0.00000000000E+00 0.  1.
        -13    1    5    5    0    0 -0.78161634879E+02  0.86063155252E+02  0.29145656907E+03  0.31378820805E+03  0.00000000000E+00 0. -1.
          5    1    6    6  503    0 -0.50894953546E+02 -0.97894625710E+02  0.18196860560E+03  0.21285750507E+03  0.47000000000E+01 0. -1.
         -5    1    6    6    0  503 -0.75875730371E+02 -0.54629160908E+03  0.74180089171E+03  0.92438211880E+03  0.47000000000E+01 0.  1.
<mgrwt>
<rscale>  0 0.68938212E+03</rscale>
<asrwt>0</asrwt>
<pdfrwt beam="1">  1        1 0.33365065E+00 0.68938212E+03</pdfrwt>
<pdfrwt beam="2">  1       -1 0.38134121E-01 0.68938212E+03</pdfrwt>
<totfact> 0.16040113E+01</totfact>
</mgrwt>
</event>
<event>
12    1  0.3127365E-008  0.7924496E+03  0.7818608E-02  0.9571011E-01
         -2   -1    0    0    0  501 -0.00000000000E+00  0.00000000000E+00  0.27208488331E+03  0.27208488331E+03  0.00000000000E+00 0. -1.
          2   -1    0    0  501    0  0.00000000000E+00 -0.00000000000E+00 -0.29281778488E+04  0.29281778488E+04  0.00000000000E+00 0.  1.
         23    2    1    2    0    0  0.11431756238E+03 -0.77982185591E+03 -0.10698179622E+04  0.13299925723E+04  0.56383845558E+02 0.  0.
    5000000    2    1    2    0    0 -0.11431756238E+03  0.77982185591E+03 -0.15862750032E+04  0.18702701598E+04  0.60037609271E+03 0.  0.
         23    2    4    4    0    0 -0.91898990242E+02  0.59471626434E+03 -0.15431566528E+04  0.16586191177E+04  0.86902607533E+02 0.  0.
         23    2    4    4    0    0 -0.22418572138E+02  0.18510559157E+03 -0.43118350461E+02  0.21165104207E+03  0.90389706578E+02 0.  0.
          3    1    3    3  502    0  0.93095835146E+02 -0.48900687483E+03 -0.70310707340E+03  0.86148367066E+03  0.00000000000E+00 0. -1.
         -3    1    3    3    0  502  0.21221727234E+02 -0.29081498108E+03 -0.36671088883E+03  0.46850890163E+03  0.00000000000E+00 0.  1.
         13    1    5    5    0    0 -0.87541840205E+02  0.33600528274E+03 -0.95075317300E+03  0.10121732657E+04  0.00000000000E+00 0.  1.
        -13    1    5    5    0    0 -0.43571500374E+01  0.25871098160E+03 -0.59240347978E+03  0.64644585204E+03  0.00000000000E+00 0. -1.
          5    1    6    6  503    0  0.83162566893E+01  0.51212902032E+02 -0.52390232208E+02  0.73883339737E+02  0.47000000000E+01 0. -1.
         -5    1    6    6    0  503 -0.30734828828E+02  0.13389268954E+03  0.92718817472E+01  0.13776770233E+03  0.47000000000E+01 0.  1.
<mgrwt>
<rscale>  0 0.79244957E+03</rscale>
<asrwt>0</asrwt>
<pdfrwt beam="1">  1        2 0.45048891E+00 0.79244957E+03</pdfrwt>
<pdfrwt beam="2">  1       -2 0.41859212E-01 0.79244957E+03</pdfrwt>
<totfact> 0.10990896E+01</totfact>
</mgrwt>
</event>
<event>
12    1  0.3127365E-008  0.7025612E+03  0.7818608E-02  0.9712862E-01
         -2   -1    0    0    0  501 -0.00000000000E+00  0.00000000000E+00  0.45324536057E+03  0.45324536057E+03  0.00000000000E+00 0. -1.
          2   -1    0    0  501    0  0.00000000000E+00 -0.00000000000E+00 -0.15131616805E+04  0.15131616805E+04  0.00000000000E+00 0.  1.
         23    2    1    2    0    0  0.31413422384E+03  0.58167698568E+03 -0.78997971921E+03  0.10338497373E+04  0.88027815617E+02 0.  0.
    5000000    2    1    2    0    0 -0.31413422384E+03 -0.58167698568E+03 -0.26993660067E+03  0.93255730372E+03  0.59980741083E+03 0.  0.
         23    2    4    4    0    0 -0.35928178271E+01 -0.34660340546E+03  0.11610615462E+03  0.37668518822E+03  0.90907991215E+02 0.  0.
         23    2    4    4    0    0 -0.31054140601E+03 -0.23507358022E+03 -0.38604275529E+03  0.55587211550E+03  0.90935399687E+02 0.  0.
          1    1    3    3  502    0  0.18171958803E+03  0.37479241216E+03 -0.55508274372E+03  0.69397998045E+03  0.00000000000E+00 0. -1.
         -1    1    3    3    0  502  0.13241463581E+03  0.20688457352E+03 -0.23489697549E+03  0.33986975687E+03  0.00000000000E+00 0.  1.
         13    1    5    5    0    0  0.19470643896E+02 -0.16709270278E+03  0.13808687898E+02  0.16878909076E+03  0.00000000000E+00 0. -1.
        -13    1    5    5    0    0 -0.23063461723E+02 -0.17951070267E+03  0.10229746672E+03  0.20789609746E+03  0.00000000000E+00 0.  1.
          5    1    6    6  503    0 -0.80298527530E+02 -0.93895246315E+02 -0.16877589132E+03  0.20921654403E+03  0.47000000000E+01 0. -1.
         -5    1    6    6    0  503 -0.23024287848E+03 -0.14117833391E+03 -0.21726686397E+03  0.34665557148E+03  0.47000000000E+01 0.  1.
<mgrwt>
<rscale>  0 0.70256118E+03</rscale>
<asrwt>0</asrwt>
<pdfrwt beam="1">  1        2 0.23279410E+00 0.70256118E+03</pdfrwt>
<pdfrwt beam="2">  1       -2 0.69730055E-01 0.70256118E+03</pdfrwt>
<totfact> 0.24093298E+01</totfact>
</mgrwt>
</event>
<event>
12    1  0.3127365E-008  0.7494068E+03  0.7818608E-02  0.9636281E-01
          1   -1    0    0  501    0  0.00000000000E+00  0.00000000000E+00  0.85087723672E+03  0.85087723672E+03  0.00000000000E+00 0. -1.
         -1   -1    0    0    0  501 -0.00000000000E+00 -0.00000000000E+00 -0.92324544808E+03  0.92324544808E+03  0.00000000000E+00 0.  1.
         23    2    1    2    0    0  0.12102078102E+03 -0.62310776825E+03  0.42486352303E+03  0.76905784353E+03  0.89619379622E+02 0.  0.
    5000000    2    1    2    0    0 -0.12102078102E+03  0.62310776825E+03 -0.49723173438E+03  0.10050648413E+04  0.60000551431E+03 0.  0.
         23    2    4    4    0    0 -0.34522363234E+03  0.44312269697E+03 -0.34767204132E+03  0.66687672287E+03  0.91168164950E+02 0.  0.
         23    2    4    4    0    0  0.22420285133E+03  0.17998507128E+03 -0.14955969306E+03  0.33818811840E+03  0.96651731554E+02 0.  0.
          1    1    3    3  502    0  0.56347739185E+02 -0.14567564593E+03  0.72720305666E+02  0.17229249660E+03  0.00000000000E+00 0. -1.
         -1    1    3    3    0  502  0.64673041831E+02 -0.47743212232E+03  0.35214321736E+03  0.59676534693E+03  0.00000000000E+00 0.  1.
         11    1    5    5    0    0 -0.23117840320E+03  0.22842156477E+03 -0.17950709423E+03  0.37127168251E+03  0.00000000000E+00 0.  1.
        -11    1    5    5    0    0 -0.11404522914E+03  0.21470113219E+03 -0.16816494709E+03  0.29560504036E+03  0.00000000000E+00 0. -1.
          5    1    6    6  503    0  0.60399805994E+02  0.20236760315E+02 -0.72703458526E+02  0.96775750650E+02  0.47000000000E+01 0. -1.
         -5    1    6    6    0  503  0.16380304533E+03  0.15974831097E+03 -0.76856234536E+02  0.24141236775E+03  0.47000000000E+01 0.  1.
<mgrwt>
<rscale>  0 0.74940684E+03</rscale>
<asrwt>0</asrwt>
<pdfrwt beam="1">  1        1 0.13090419E+00 0.74940684E+03</pdfrwt>
<pdfrwt beam="2">  1       -1 0.14203776E+00 0.74940684E+03</pdfrwt>
<totfact> 0.83312806E+00</totfact>
</mgrwt>
</event>
<event>
12    1  0.3127365E-008  0.4653322E+03  0.7818608E-02  0.1023246E+00
         -2   -1    0    0    0  501 -0.00000000000E+00  0.00000000000E+00  0.10909071811E+03  0.10909071811E+03  0.00000000000E+00 0.  1.
          2   -1    0    0  501    0  0.00000000000E+00 -0.00000000000E+00 -0.37909045726E+04  0.37909045726E+04  0.00000000000E+00 0. -1.
         23    2    1    2    0    0  0.36612315804E+03 -0.12874469408E+03 -0.23931139436E+04  0.24262212276E+04  0.94518439075E+02 0.  0.
    5000000    2    1    2    0    0 -0.36612315804E+03  0.12874469408E+03 -0.12886999109E+04  0.14737740631E+04  0.60053406689E+03 0.  0.
         23    2    4    4    0    0 -0.27344185549E+03  0.24984263951E+03 -0.12280413887E+04  0.12859690854E+04  0.91864265832E+02 0.  0.
         23    2    4    4    0    0 -0.92681302556E+02 -0.12109794543E+03 -0.60658522211E+02  0.18780497770E+03  0.91305624689E+02 0.  0.
          3    1    3    3  502    0  0.23030234941E+03 -0.12821438205E+03 -0.15641120599E+04  0.15861666482E+04  0.00000000000E+00 0. -1.
         -3    1    3    3    0  502  0.13582080863E+03 -0.53031203411E+00 -0.82900188372E+03  0.84005457948E+03  0.00000000000E+00 0.  1.
         11    1    5    5    0    0 -0.25930451815E+03  0.22762298859E+03 -0.10316601910E+04  0.10878298616E+04  0.00000000000E+00 0.  1.
        -11    1    5    5    0    0 -0.14137337333E+02  0.22219650927E+02 -0.19638119769E+03  0.19813922378E+03  0.00000000000E+00 0. -1.
          5    1    6    6  503    0 -0.78757949410E+02 -0.12185481557E+03 -0.78215241108E+02  0.16489731536E+03  0.47000000000E+01 0. -1.
         -5    1    6    6    0  503 -0.13923353146E+02  0.75687013543E+00  0.17556718897E+02  0.22907662335E+02  0.47000000000E+01 0.  1.
<mgrwt>
<rscale>  0 0.46533215E+03</rscale>
<asrwt>0</asrwt>
<pdfrwt beam="1">  1        2 0.58321594E+00 0.46533215E+03</pdfrwt>
<pdfrwt beam="2">  1       -2 0.16783192E-01 0.46533215E+03</pdfrwt>
<totfact> 0.16848273E+01</totfact>
</mgrwt>
</event>
<event>
12    1  0.3127365E-008  0.1593602E+04  0.7818608E-02  0.8824488E-01
          2   -1    0    0  501    0  0.00000000000E+00  0.00000000000E+00  0.20957434039E+04  0.20957434039E+04  0.00000000000E+00 0. -1.
         -2   -1    0    0    0  501 -0.00000000000E+00 -0.00000000000E+00 -0.22844119772E+04  0.22844119772E+04  0.00000000000E+00 0.  1.
         23    2    1    2    0    0 -0.17769609134E+03  0.15593499563E+04 -0.15574971785E+04  0.22129561496E+04  0.90715335883E+02 0.  0.
    5000000    2    1    2    0    0  0.17769609134E+03 -0.15593499563E+04  0.13688286052E+04  0.21671992315E+04  0.59992713857E+03 0.  0.
         23    2    4    4    0    0  0.24890577634E+03 -0.58860140662E+03  0.82484292426E+03  0.10476786262E+04  0.94122009341E+02 0.  0.
         23    2    4    4    0    0 -0.71209685002E+02 -0.97074854969E+03  0.54398568089E+03  0.11195206053E+04  0.99911955179E+02 0.  0.
          2    1    3    3  502    0  0.31452569218E+01  0.19954476375E+03 -0.22056312014E+03  0.29744931560E+03  0.00000000000E+00 0.  1.
         -2    1    3    3    0  502 -0.18084134826E+03  0.13598051926E+04 -0.13369340583E+04  0.19155068340E+04  0.00000000000E+00 0. -1.
         11    1    5    5    0    0  0.43570701710E+02 -0.51629810719E+02  0.56509098145E+02  0.88075658246E+02  0.00000000000E+00 0.  1.
        -11    1    5    5    0    0  0.20533507463E+03 -0.53697159590E+03  0.76833382612E+03  0.95960296792E+03  0.00000000000E+00 0. -1.
          5    1    6    6  503    0 -0.42926960173E+02 -0.56802672486E+03  0.37393114748E+03  0.68142767564E+03  0.47000000000E+01 0. -1.
         -5    1    6    6    0  503 -0.28282724829E+02 -0.40272182483E+03  0.17005453341E+03  0.43809292969E+03  0.47000000000E+01 0.  1.
<mgrwt>
<rscale>  0 0.15936020E+04</rscale>
<asrwt>0</asrwt>
<pdfrwt beam="1">  1        2 0.32242206E+00 0.15936020E+04</pdfrwt>
<pdfrwt beam="2">  1       -2 0.35144799E+00 0.15936020E+04</pdfrwt>
<totfact> 0.83522660E-02</totfact>
</mgrwt>
</event>
<event>
12    1  0.3127365E-008  0.1008233E+04  0.7818608E-02  0.9299560E-01
         -2   -1    0    0    0  501 -0.00000000000E+00  0.00000000000E+00  0.97493580667E+03  0.97493580667E+03  0.00000000000E+00 0.  1.
          2   -1    0    0  501    0  0.00000000000E+00 -0.00000000000E+00 -0.12028398291E+04  0.12028398291E+04  0.00000000000E+00 0. -1.
         23    2    1    2    0    0 -0.11126577769E+03  0.98315001676E+03 -0.23288308131E+03  0.10205930803E+04  0.91715196548E+02 0.  0.
    5000000    2    1    2    0    0  0.11126577769E+03 -0.98315001676E+03  0.49790588781E+01  0.11571825555E+04  0.60006886846E+03 0.  0.
         23    2    4    4    0    0  0.16975324766E+03 -0.54431229568E+03 -0.25964570119E+03  0.63309366937E+03  0.91102490296E+02 0.  0.
         23    2    4    4    0    0 -0.58487469975E+02 -0.43883772109E+03  0.26462476007E+03  0.52408888609E+03  0.92970787300E+02 0.  0.
          3    1    3    3  502    0 -0.41235307784E+02  0.66993418162E+03 -0.13104933028E+03  0.68387578205E+03  0.00000000000E+00 0. -1.
         -3    1    3    3    0  502 -0.70030469903E+02  0.31321583515E+03 -0.10183375104E+03  0.33671729827E+03  0.00000000000E+00 0.  1.
         11    1    5    5    0    0  0.11239918476E+03 -0.21303738835E+03 -0.11891194914E+03  0.26862344875E+03  0.00000000000E+00 0.  1.
        -11    1    5    5    0    0  0.57354062899E+02 -0.33127490732E+03 -0.14073375205E+03  0.36447022062E+03  0.00000000000E+00 0. -1.
          5    1    6    6  503    0 -0.34630843223E+01 -0.26014034904E+03  0.11462663014E+03  0.28433492310E+03  0.47000000000E+01 0. -1.
         -5    1    6    6    0  503 -0.55024385653E+02 -0.17869737204E+03  0.14999812992E+03  0.23975396300E+03  0.47000000000E+01 0.  1.
<mgrwt>
<rscale>  0 0.10082334E+04</rscale>
<asrwt>0</asrwt>
<pdfrwt beam="1">  1        2 0.18505228E+00 0.10082334E+04</pdfrwt>
<pdfrwt beam="2">  1       -2 0.14999012E+00 0.10082334E+04</pdfrwt>
<totfact> 0.56004135E+00</totfact>
</mgrwt>
</event>
<event>
12    1  0.3127365E-008  0.3687942E+03  0.7818608E-02  0.1055155E+00
          2   -1    0    0  501    0  0.00000000000E+00  0.00000000000E+00  0.47113522607E+04  0.47113522607E+04  0.00000000000E+00 0. -1.
         -2   -1    0    0    0  501 -0.00000000000E+00 -0.00000000000E+00 -0.63987921620E+02  0.63987921620E+02  0.00000000000E+00 0.  1.
         23    2    1    2    0    0  0.14501918016E+03 -0.33271106739E+03  0.11829515805E+04  0.12406270845E+04  0.89743546320E+02 0.  0.
    5000000    2    1    2    0    0 -0.14501918016E+03  0.33271106739E+03  0.34644127586E+04  0.35347130978E+04  0.60026136375E+03 0.  0.
         23    2    4    4    0    0 -0.62570464989E+02  0.10893169009E+03  0.30038893652E+04  0.30079736453E+04  0.93664059562E+02 0.  0.
         23    2    4    4    0    0 -0.82448715172E+02  0.22377937730E+03  0.46052339335E+03  0.52673945249E+03  0.92182724204E+02 0.  0.
          2    1    3    3  502    0  0.33026736390E+02 -0.10346466048E+03  0.23402163710E+03  0.25799579050E+03  0.00000000000E+00 0.  1.
         -2    1    3    3    0  502  0.11199244377E+03 -0.22924640691E+03  0.94892994335E+03  0.98263129399E+03  0.00000000000E+00 0. -1.
         13    1    5    5    0    0 -0.62135380712E+02  0.61406231993E+02  0.25708738053E+04  0.25723576061E+04  0.00000000000E+00 0. -1.
        -13    1    5    5    0    0 -0.43508427700E+00  0.47525458096E+02  0.43301555989E+03  0.43561603916E+03  0.00000000000E+00 0.  1.
          5    1    6    6  503    0 -0.64931678449E+02  0.16276170026E+03  0.40851716771E+03  0.44454005472E+03  0.47000000000E+01 0. -1.
         -5    1    6    6    0  503 -0.17517036723E+02  0.61017677043E+02  0.52006225640E+02  0.82199397763E+02  0.47000000000E+01 0.  1.
<mgrwt>
<rscale>  0 0.36879416E+03</rscale>
<asrwt>0</asrwt>
<pdfrwt beam="1">  1        2 0.72482315E+00 0.36879416E+03</pdfrwt>
<pdfrwt beam="2">  1       -2 0.98442993E-02 0.36879416E+03</pdfrwt>
<totfact> 0.68242604E+00</totfact>
</mgrwt>
</event>
<event>
12    1  0.3127365E-008  0.3542048E+03  0.7818608E-02  0.1060902E+00
          4   -1    0    0  501    0  0.00000000000E+00  0.00000000000E+00  0.66728913425E+03  0.66728913425E+03  0.00000000000E+00 0. -1.
         -4   -1    0    0    0  501 -0.00000000000E+00 -0.00000000000E+00 -0.34619543716E+03  0.34619543716E+03  0.00000000000E+00 0.  1.
         23    2    1    2    0    0 -0.15471440859E+03 -0.18522726685E+03 -0.58044099898E+02  0.26381062807E+03  0.89337793463E+02 0.  0.
    5000000    2    1    2    0    0  0.15471440859E+03  0.18522726685E+03  0.37913779699E+03  0.74967394334E+03  0.60001655278E+03 0.  0.
         23    2    4    4    0    0  0.76802680740E+02 -0.10885841779E+03  0.40102977381E+03  0.43139268736E+03  0.86752315987E+02 0.  0.
         23    2    4    4    0    0  0.77911727848E+02  0.29408568465E+03 -0.21891976823E+02  0.31828125598E+03  0.90923440376E+02 0.  0.
          2    1    3    3  502    0 -0.45359548038E+02 -0.12029081740E+03 -0.14466619842E+02  0.12937021465E+03  0.00000000000E+00 0. -1.
         -2    1    3    3    0  502 -0.10935486055E+03 -0.64936449454E+02 -0.43577480056E+02  0.13444041342E+03  0.00000000000E+00 0.  1.
         13    1    5    5    0    0  0.44801225799E+02 -0.42169460815E+02  0.29962095129E+03  0.30587273123E+03  0.00000000000E+00 0.  1.
        -13    1    5    5    0    0  0.32001454940E+02 -0.66688956979E+02  0.10140882253E+03  0.12551995613E+03  0.00000000000E+00 0. -1.
          5    1    6    6  503    0  0.96814188321E+02  0.21697545787E+03 -0.22903807404E+02  0.23874256171E+03  0.47000000000E+01 0. -1.
         -5    1    6    6    0  503 -0.18902460472E+02  0.77110226772E+02  0.10118305816E+01  0.79538694268E+02  0.47000000000E+01 0.  1.
<mgrwt>
<rscale>  0 0.35420485E+03</rscale>
<asrwt>0</asrwt>
<pdfrwt beam="1">  1        4 0.10265987E+00 0.35420485E+03</pdfrwt>
<pdfrwt beam="2">  1       -4 0.53260837E-01 0.35420485E+03</pdfrwt>
<totfact> 0.50265657E+00</totfact>
</mgrwt>
</event>
<event>
12    1  0.3127365E-008  0.7300111E+03  0.7818608E-02  0.9667242E-01
          2   -1    0    0  501    0  0.00000000000E+00  0.00000000000E+00  0.15491288815E+04  0.15491288815E+04  0.00000000000E+00 0. -1.
         -2   -1    0    0    0  501 -0.00000000000E+00 -0.00000000000E+00 -0.62970763996E+03  0.62970763996E+03  0.00000000000E+00 0.  1.
         23    2    1    2    0    0  0.62343493441E+03  0.61248168482E+02  0.11216108826E+04  0.12881682412E+04  0.94572671204E+02 0.  0.
    5000000    2    1    2    0    0 -0.62343493441E+03 -0.61248168482E+02 -0.20218964110E+03  0.89066828020E+03  0.59998906556E+03 0.  0.
         23    2    4    4    0    0 -0.59845496306E+03 -0.23525870533E+03 -0.23459326978E+03  0.69061047631E+03  0.91726912695E+02 0.  0.
         23    2    4    4    0    0 -0.24979971348E+02  0.17401053684E+03  0.32403628685E+02  0.20005780389E+03  0.89830194498E+02 0.  0.
          3    1    3    3  502    0  0.29343822203E+02 -0.49293925832E+01  0.23562148228E+02  0.37954362619E+02  0.00000000000E+00 0. -1.
         -3    1    3    3    0  502  0.59409111221E+03  0.66177561066E+02  0.10980487344E+04  0.12502138786E+04  0.00000000000E+00 0.  1.
         11    1    5    5    0    0 -0.10795116251E+03 -0.49382570015E+02 -0.82160394729E+02  0.14436904852E+03  0.00000000000E+00 0. -1.
        -11    1    5    5    0    0 -0.49050380055E+03 -0.18587613531E+03 -0.15243287505E+03  0.54624142779E+03  0.00000000000E+00 0.  1.
          5    1    6    6  503    0  0.22443437443E+02  0.31355756540E+02  0.30915320611E+02  0.49646131783E+02  0.47000000000E+01 0. -1.
         -5    1    6    6    0  503 -0.47423408791E+02  0.14265478030E+03  0.14883080740E+01  0.15041167211E+03  0.47000000000E+01 0.  1.
<mgrwt>
<rscale>  0 0.73001112E+03</rscale>
<asrwt>0</asrwt>
<pdfrwt beam="1">  1        2 0.23832752E+00 0.73001112E+03</pdfrwt>
<pdfrwt beam="2">  1       -2 0.96878099E-01 0.73001112E+03</pdfrwt>
<totfact> 0.10902053E+01</totfact>
</mgrwt>
</event>
<event>
12    1  0.3127365E-008  0.3852595E+03  0.7818608E-02  0.1049007E+00
         -1   -1    0    0    0  501 -0.00000000000E+00  0.00000000000E+00  0.32131769205E+03  0.32131769205E+03  0.00000000000E+00 0.  1.
          1   -1    0    0  501    0  0.00000000000E+00 -0.00000000000E+00 -0.67442031606E+03  0.67442031606E+03  0.00000000000E+00 0. -1.
         23    2    1    2    0    0 -0.10125666689E+03  0.21913294516E+03 -0.21218750211E+03  0.33407688752E+03  0.91168363350E+02 0.  0.
    5000000    2    1    2    0    0  0.10125666689E+03 -0.21913294516E+03 -0.14091512190E+03  0.66166112059E+03  0.59972177439E+03 0.  0.
         23    2    4    4    0    0 -0.44781326635E+02  0.12357208204E+03 -0.21837225623E+03  0.27066420869E+03  0.91089213965E+02 0.  0.
         23    2    4    4    0    0  0.14603799353E+03 -0.34270502720E+03  0.77457134332E+02  0.39099691190E+03  0.90028585647E+02 0.  0.
          1    1    3    3  502    0 -0.60929157234E+02  0.52838851120E+02 -0.10409289044E+03  0.13168005251E+03  0.00000000000E+00 0. -1.
         -1    1    3    3    0  502 -0.40327509659E+02  0.16629409404E+03 -0.10809461167E+03  0.20239683500E+03  0.00000000000E+00 0.  1.
         11    1    5    5    0    0 -0.45583301079E+02  0.12632347447E+03 -0.14652085545E+03  0.19875567570E+03  0.00000000000E+00 0. -1.
        -11    1    5    5    0    0  0.80197444487E+00 -0.27513924328E+01 -0.71851400780E+02  0.71908532995E+02  0.00000000000E+00 0.  1.
          5    1    6    6  503    0  0.98137185816E+02 -0.12691201205E+03  0.50548267386E+02  0.16826997171E+03  0.47000000000E+01 0. -1.
         -5    1    6    6    0  503  0.47900807711E+02 -0.21579301515E+03  0.26908866946E+02  0.22272694019E+03  0.47000000000E+01 0.  1.
<mgrwt>
<rscale>  0 0.38525952E+03</rscale>
<asrwt>0</asrwt>
<pdfrwt beam="1">  1        1 0.10375697E+00 0.38525952E+03</pdfrwt>
<pdfrwt beam="2">  1       -1 0.49433492E-01 0.38525952E+03</pdfrwt>
<totfact> 0.12430363E+02</totfact>
</mgrwt>
</event>
<event>
12    1  0.3127365E-008  0.8071635E+03  0.7818608E-02  0.9549706E-01
          2   -1    0    0  501    0  0.00000000000E+00  0.00000000000E+00  0.10259781606E+04  0.10259781606E+04  0.00000000000E+00 0. -1.
         -2   -1    0    0    0  501 -0.00000000000E+00 -0.00000000000E+00 -0.76544954907E+03  0.76544954907E+03  0.00000000000E+00 0.  1.
         23    2    1    2    0    0 -0.20030314027E+03  0.73575595712E+03 -0.58423300933E+02  0.76991283729E+03  0.88849977464E+02 0.  0.
    5000000    2    1    2    0    0  0.20030314027E+03 -0.73575595712E+03  0.31895191244E+03  0.10215148724E+04  0.60025339279E+03 0.  0.
         23    2    4    4    0    0  0.12850819121E+03 -0.57883509899E+02 -0.11946867228E+03  0.20585313753E+03  0.90762848405E+02 0.  0.
         23    2    4    4    0    0  0.71794949064E+02 -0.67787244722E+03  0.43842058472E+03  0.81566173482E+03  0.91792631146E+02 0.  0.
          2    1    3    3  502    0 -0.11913185860E+03  0.32532466895E+03  0.65708846116E+01  0.34651365988E+03  0.00000000000E+00 0.  1.
         -2    1    3    3    0  502 -0.81171281679E+02  0.41043128817E+03 -0.64994185545E+02  0.42339917741E+03  0.00000000000E+00 0. -1.
         13    1    5    5    0    0  0.13961800661E+03 -0.51002516198E+02 -0.90376846496E+02  0.17396096922E+03  0.00000000000E+00 0.  1.
        -13    1    5    5    0    0 -0.11109815402E+02 -0.68809937008E+01 -0.29091825781E+02  0.31892168315E+02  0.00000000000E+00 0. -1.
          5    1    6    6  503    0 -0.19478636844E+02 -0.21795888925E+03  0.14318126754E+03  0.26155011006E+03  0.47000000000E+01 0. -1.
         -5    1    6    6    0  503  0.91273585907E+02 -0.45991355797E+03  0.29523931718E+03  0.55411162476E+03  0.47000000000E+01 0.  1.
<mgrwt>
<rscale>  0 0.80716355E+03</rscale>
<asrwt>0</asrwt>
<pdfrwt beam="1">  1        2 0.15784279E+00 0.80716355E+03</pdfrwt>
<pdfrwt beam="2">  1       -2 0.11776147E+00 0.80716355E+03</pdfrwt>
<totfact> 0.13634186E+01</totfact>
</mgrwt>
</event>
<event>
12    1  0.3127365E-008  0.2800835E+03  0.7818608E-02  0.1095643E+00
         -2   -1    0    0    0  501 -0.00000000000E+00  0.00000000000E+00  0.14427903586E+03  0.14427903586E+03  0.00000000000E+00 0.  1.
          2   -1    0    0  501    0  0.00000000000E+00 -0.00000000000E+00 -0.13174253313E+04  0.13174253313E+04  0.00000000000E+00 0. -1.
         23    2    1    2    0    0  0.15281390745E+03  0.15068249572E+03 -0.28179402042E+03  0.36564038678E+03  0.90706767504E+02 0.  0.
    5000000    2    1    2    0    0 -0.15281390745E+03 -0.15068249572E+03 -0.89135227506E+03  0.10960639804E+04  0.60065802757E+03 0.  0.
         23    2    4    4    0    0 -0.16722370843E+03 -0.14889787586E+03 -0.95052941928E+03  0.98059573867E+03  0.89036395272E+02 0.  0.
         23    2    4    4    0    0  0.14409800977E+02 -0.17846198638E+01  0.59177144226E+02  0.11546824174E+03  0.98082379761E+02 0.  0.
          3    1    3    3  502    0  0.31268237702E+02  0.68064830450E+02 -0.15247248166E+03  0.16987754853E+03  0.00000000000E+00 0. -1.
         -3    1    3    3    0  502  0.12154566975E+03  0.82617665274E+02 -0.12932153877E+03  0.19576283825E+03  0.00000000000E+00 0.  1.
         11    1    5    5    0    0 -0.37638499913E+02 -0.88990119478E+02 -0.32992516290E+03  0.34378265104E+03  0.00000000000E+00 0.  1.
        -11    1    5    5    0    0 -0.12958520851E+03 -0.59907756381E+02 -0.62060425638E+03  0.63681308763E+03  0.00000000000E+00 0. -1.
          5    1    6    6  503    0  0.66047620856E+01  0.47807499426E+02  0.33021491395E+02  0.58665908137E+02  0.47000000000E+01 0. -1.
         -5    1    6    6    0  503  0.78050388912E+01 -0.49592119290E+02  0.26155652831E+02  0.56802333603E+02  0.47000000000E+01 0.  1.
<mgrwt>
<rscale>  0 0.28008346E+03</rscale>
<asrwt>0</asrwt>
<pdfrwt beam="1">  1        2 0.20268082E+00 0.28008346E+03</pdfrwt>
<pdfrwt beam="2">  1       -2 0.22196775E-01 0.28008346E+03</pdfrwt>
<totfact> 0.30271332E+02</totfact>
</mgrwt>
</event>
<event>
12    1  0.3127365E-008  0.1542733E+04  0.7818608E-02  0.8856523E-01
          1   -1    0    0  501    0  0.00000000000E+00  0.00000000000E+00  0.29294449890E+04  0.29294449890E+04  0.00000000000E+00 0. -1.
         -1   -1    0    0    0  501 -0.00000000000E+00 -0.00000000000E+00 -0.10225983482E+04  0.10225983482E+04  0.00000000000E+00 0.  1.
         23    2    1    2    0    0 -0.56557947595E+03  0.14207923436E+04  0.13802231304E+03  0.15380738263E+04  0.89943921271E+02 0.  0.
    5000000    2    1    2    0    0  0.56557947595E+03 -0.14207923436E+04  0.17688243278E+04  0.24139695109E+04  0.59998189102E+03 0.  0.
         23    2    4    4    0    0  0.54907227227E+03 -0.12496445641E+04  0.12238870851E+04  0.18350377398E+04  0.79824886593E+02 0.  0.
         23    2    4    4    0    0  0.16507203675E+02 -0.17114777952E+03  0.54493724265E+03  0.57893177109E+03  0.92958845389E+02 0.  0.
          4    1    3    3  502    0 -0.11320449899E+03  0.39013603461E+03  0.29858319444E+02  0.40732407655E+03  0.00000000000E+00 0. -1.
         -4    1    3    3    0  502 -0.45237497696E+03  0.10306563090E+04  0.10816399360E+03  0.11307497498E+04  0.00000000000E+00 0.  1.
         11    1    5    5    0    0  0.25476346249E+03 -0.58584830091E+03  0.62630940557E+03  0.89464301540E+03  0.00000000000E+00 0.  1.
        -11    1    5    5    0    0  0.29430880979E+03 -0.66379626320E+03  0.59757767957E+03  0.94039472440E+03  0.00000000000E+00 0. -1.
          5    1    6    6  503    0 -0.15422664483E+02 -0.16908789942E+01  0.10740483081E+03  0.10862138524E+03  0.47000000000E+01 0. -1.
         -5    1    6    6    0  503  0.31929868158E+02 -0.16945690053E+03  0.43753241184E+03  0.47031038584E+03  0.47000000000E+01 0.  1.
<mgrwt>
<rscale>  0 0.15427335E+04</rscale>
<asrwt>0</asrwt>
<pdfrwt beam="1">  1        1 0.45068384E+00 0.15427335E+04</pdfrwt>
<pdfrwt beam="2">  1       -1 0.15732282E+00 0.15427335E+04</pdfrwt>
<totfact> 0.19487903E-01</totfact>
</mgrwt>
</event>
<event>
12    1  0.3127365E-008  0.4930050E+03  0.7818608E-02  0.1015621E+00
          2   -1    0    0  501    0  0.00000000000E+00  0.00000000000E+00  0.18865017027E+04  0.18865017027E+04  0.00000000000E+00 0.  1.
         -2   -1    0    0    0  501 -0.00000000000E+00 -0.00000000000E+00 -0.17259896455E+03  0.17259896455E+03  0.00000000000E+00 0. -1.
         23    2    1    2    0    0  0.13056707369E+03 -0.29257288298E+03  0.17553367086E+03  0.37711078955E+03  0.93561880074E+02 0.  0.
    5000000    2    1    2    0    0 -0.13056707369E+03  0.29257288298E+03  0.15383690673E+04  0.16819898777E+04  0.59988658000E+03 0.  0.
         23    2    4    4    0    0 -0.29443372224E+03  0.35127067678E+03  0.89121996048E+03  0.10063298472E+04  0.91347896377E+02 0.  0.
         23    2    4    4    0    0  0.16386664855E+03 -0.58697793795E+02  0.64714910680E+03  0.67566003052E+03  0.86120850590E+02 0.  0.
          4    1    3    3  502    0  0.86275168556E+02 -0.12833040230E+03  0.12730459247E+03  0.20029617103E+03  0.00000000000E+00 0. -1.
         -4    1    3    3    0  502  0.44291905135E+02 -0.16424248069E+03  0.48229078383E+02  0.17681461853E+03  0.00000000000E+00 0.  1.
         11    1    5    5    0    0 -0.17192939652E+03  0.13419187722E+03  0.41755041230E+03  0.47107910600E+03  0.00000000000E+00 0. -1.
        -11    1    5    5    0    0 -0.12250432572E+03  0.21707879956E+03  0.47366954818E+03  0.53525074116E+03  0.00000000000E+00 0.  1.
          5    1    6    6  503    0  0.31162232629E+01 -0.30025823857E+02  0.89024145043E+02  0.94120398141E+02  0.47000000000E+01 0. -1.
         -5    1    6    6    0  503  0.16075042529E+03 -0.28671969939E+02  0.55812496176E+03  0.58153963238E+03  0.47000000000E+01 0.  1.
<mgrwt>
<rscale>  0 0.49300501E+03</rscale>
<asrwt>0</asrwt>
<pdfrwt beam="1">  1        2 0.29023102E+00 0.49300501E+03</pdfrwt>
<pdfrwt beam="2">  1       -2 0.26553688E-01 0.49300501E+03</pdfrwt>
<totfact> 0.10491024E+02</totfact>
</mgrwt>
</event>
<event>
12    1  0.3127365E-008  0.8594485E+03  0.7818608E-02  0.9477742E-01
          2   -1    0    0  501    0  0.00000000000E+00  0.00000000000E+00  0.89851666157E+03  0.89851666157E+03  0.00000000000E+00 0.  1.
         -2   -1    0    0    0  501 -0.00000000000E+00 -0.00000000000E+00 -0.11306464251E+04  0.11306464251E+04  0.00000000000E+00 0. -1.
         23    2    1    2    0    0 -0.46193963295E+03 -0.66080662399E+03  0.33195476651E+03  0.87667034361E+03  0.91122475562E+02 0.  0.
    5000000    2    1    2    0    0  0.46193963295E+03  0.66080662399E+03 -0.56408453002E+03  0.11524927430E+04  0.59999545576E+03 0.  0.
         23    2    4    4    0    0  0.52364811162E+03  0.50566500447E+03 -0.23130585382E+03  0.76896165209E+03  0.88854841290E+02 0.  0.
         23    2    4    4    0    0 -0.61708478664E+02  0.15514161952E+03 -0.33277867619E+03  0.38353109095E+03  0.92073839643E+02 0.  0.
          1    1    3    3  502    0 -0.45890531695E+02 -0.49540264058E+02  0.54966444065E+02  0.87071744184E+02  0.00000000000E+00 0. -1.
         -1    1    3    3    0  502 -0.41604910126E+03 -0.61126635993E+03  0.27698832245E+03  0.78959859942E+03  0.00000000000E+00 0.  1.
         11    1    5    5    0    0  0.10488373198E+03  0.56045698519E+02 -0.36881370535E+02  0.12450683936E+03  0.00000000000E+00 0. -1.
        -11    1    5    5    0    0  0.41876437964E+03  0.44961930595E+03 -0.19442448329E+03  0.64445481272E+03  0.00000000000E+00 0.  1.
          5    1    6    6  503    0  0.86302073003E+01  0.56556009593E+02 -0.17751262277E+03  0.18656335102E+03  0.47000000000E+01 0. -1.
         -5    1    6    6    0  503 -0.70338685964E+02  0.98585609924E+02 -0.15526605342E+03  0.19696773993E+03  0.47000000000E+01 0.  1.
<mgrwt>
<rscale>  0 0.85944854E+03</rscale>
<asrwt>0</asrwt>
<pdfrwt beam="1">  1        2 0.13823333E+00 0.85944854E+03</pdfrwt>
<pdfrwt beam="2">  1       -2 0.17394560E+00 0.85944854E+03</pdfrwt>
<totfact> 0.59093986E+00</totfact>
</mgrwt>
</event>
<event>
12    1  0.3127365E-008  0.4058912E+03  0.7818608E-02  0.1041759E+00
         -2   -1    0    0    0  501 -0.00000000000E+00  0.00000000000E+00  0.22755753855E+03  0.22755753855E+03  0.00000000000E+00 0.  1.
          2   -1    0    0  501    0  0.00000000000E+00 -0.00000000000E+00 -0.11032180492E+04  0.11032180492E+04  0.00000000000E+00 0. -1.
         23    2    1    2    0    0  0.91534687865E+02  0.25717731193E+03 -0.82626826658E+02  0.29957036633E+03  0.91632107055E+02 0.  0.
    5000000    2    1    2    0    0 -0.91534687865E+02 -0.25717731193E+03 -0.79303368403E+03  0.10312052215E+04  0.59996917914E+03 0.  0.
         23    2    4    4    0    0 -0.27241061521E+03 -0.98581454669E+02 -0.15337451311E+03  0.34125324691E+03  0.94890414537E+02 0.  0.
         23    2    4    4    0    0  0.18087592734E+03 -0.15859585726E+03 -0.63965917092E+03  0.68995197455E+03  0.94874260030E+02 0.  0.
          4    1    3    3  502    0  0.55753381893E+02  0.12637536274E+03 -0.88135766622E+02  0.16385080182E+03  0.00000000000E+00 0. -1.
         -4    1    3    3    0  502  0.35781305972E+02  0.13080194920E+03  0.55089399644E+01  0.13571956451E+03  0.00000000000E+00 0.  1.
         11    1    5    5    0    0 -0.11980937301E+03 -0.78748073797E+02 -0.36299493578E+02  0.14789590333E+03  0.00000000000E+00 0. -1.
        -11    1    5    5    0    0 -0.15260124220E+03 -0.19833380872E+02 -0.11707501953E+03  0.19335734358E+03  0.00000000000E+00 0.  1.
          5    1    6    6  503    0  0.92583974558E+02 -0.77988496446E+02 -0.19577638081E+03  0.23022701668E+03  0.47000000000E+01 0. -1.
         -5    1    6    6    0  503  0.88291952787E+02 -0.80607360818E+02 -0.44388279010E+03  0.45972495788E+03  0.47000000000E+01 0.  1.
<mgrwt>
<rscale>  0 0.40589125E+03</rscale>
<asrwt>0</asrwt>
<pdfrwt beam="1">  1        2 0.16972586E+00 0.40589125E+03</pdfrwt>
<pdfrwt beam="2">  1       -2 0.35008852E-01 0.40589125E+03</pdfrwt>
<totfact> 0.17311889E+02</totfact>
</mgrwt>
</event>
<event>
12    1  0.3127365E-008  0.4750944E+03  0.7818608E-02  0.1020492E+00
         -3   -1    0    0    0  501 -0.00000000000E+00  0.00000000000E+00  0.38543713921E+03  0.38543713921E+03  0.00000000000E+00 0.  1.
          3   -1    0    0  501    0  0.00000000000E+00 -0.00000000000E+00 -0.87967492913E+03  0.87967492913E+03  0.00000000000E+00 0. -1.
         23    2    1    2    0    0 -0.41141625376E+03 -0.73937280791E+02 -0.12484145997E+03  0.44584038599E+03  0.91968496229E+02 0.  0.
    5000000    2    1    2    0    0  0.41141625376E+03  0.73937280791E+02 -0.36939632995E+03  0.81927168235E+03  0.60001865435E+03 0.  0.
         23    2    4    4    0    0  0.37572769591E+03  0.14670729026E+03  0.17819488552E+02  0.41352672162E+03  0.89400698170E+02 0.  0.
         23    2    4    4    0    0  0.35688557852E+02 -0.72770009470E+02 -0.38721581850E+03  0.40574496073E+03  0.90131768082E+02 0.  0.
          1    1    3    3  502    0 -0.23048072112E+03 -0.70035700815E+01 -0.35745581395E+02  0.23334129380E+03  0.00000000000E+00 0. -1.
         -1    1    3    3    0  502 -0.18093553264E+03 -0.66933710710E+02 -0.89095878576E+02  0.21249909219E+03  0.00000000000E+00 0.  1.
         13    1    5    5    0    0  0.14407593508E+03  0.79808835800E+02  0.45373502714E+02  0.17083933999E+03  0.00000000000E+00 0. -1.
        -13    1    5    5    0    0  0.23165176083E+03  0.66898454461E+02 -0.27554014162E+02  0.24268738163E+03  0.00000000000E+00 0.  1.
          5    1    6    6  503    0 -0.19657159604E+02  0.89066566161E+01 -0.83466031173E+02  0.86338871985E+02  0.47000000000E+01 0. -1.
         -5    1    6    6    0  503  0.55345717456E+02 -0.81676666086E+02 -0.30374978733E+03  0.31940608874E+03  0.47000000000E+01 0.  1.
<mgrwt>
<rscale>  0 0.47509443E+03</rscale>
<asrwt>0</asrwt>
<pdfrwt beam="1">  1        3 0.13533460E+00 0.47509443E+03</pdfrwt>
<pdfrwt beam="2">  1       -3 0.59298021E-01 0.47509443E+03</pdfrwt>
<totfact> 0.30705245E+00</totfact>
</mgrwt>
</event>
<event>
12    1  0.3127365E-008  0.5287091E+03  0.7818608E-02  0.1006546E+00
          2   -1    0    0  501    0  0.00000000000E+00  0.00000000000E+00  0.17659937637E+04  0.17659937637E+04  0.00000000000E+00 0. -1.
         -2   -1    0    0    0  501 -0.00000000000E+00 -0.00000000000E+00 -0.42790173707E+03  0.42790173707E+03  0.00000000000E+00 0.  1.
         23    2    1    2    0    0 -0.35012467572E+03  0.76935180750E+02  0.14404042529E+04  0.14871224249E+04  0.90897658881E+02 0.  0.
    5000000    2    1    2    0    0  0.35012467572E+03 -0.76935180750E+02 -0.10231222622E+03  0.70677307588E+03  0.60046155461E+03 0.  0.
         23    2    4    4    0    0  0.37901501968E+03 -0.27604584049E+03 -0.76093146415E+02  0.48395947639E+03  0.92590046235E+02 0.  0.
         23    2    4    4    0    0 -0.28890343962E+02  0.19911065974E+03 -0.26219079807E+02  0.22281359949E+03  0.92080145384E+02 0.  0.
          1    1    3    3  502    0 -0.17253391765E+03  0.78401463331E+02  0.65336761280E+03  0.68029697901E+03  0.00000000000E+00 0. -1.
         -1    1    3    3    0  502 -0.17759075807E+03 -0.14662825813E+01  0.78703664008E+03  0.80682544590E+03  0.00000000000E+00 0.  1.
         13    1    5    5    0    0  0.24183734539E+03 -0.21876103838E+03 -0.77957717635E+02  0.33528957526E+03  0.00000000000E+00 0. -1.
        -13    1    5    5    0    0  0.13717767429E+03 -0.57284802106E+02  0.18645712202E+01  0.14866990113E+03  0.00000000000E+00 0.  1.
          5    1    6    6  503    0 -0.28634011568E+02  0.17514359461E+02 -0.23306013700E+02  0.41132951272E+02  0.47000000000E+01 0. -1.
         -5    1    6    6    0  503 -0.25633239327E+00  0.18159630028E+03 -0.29130661078E+01  0.18168064821E+03  0.47000000000E+01 0.  1.
<mgrwt>
<rscale>  0 0.52870906E+03</rscale>
<asrwt>0</asrwt>
<pdfrwt beam="1">  1        2 0.27169134E+00 0.52870906E+03</pdfrwt>
<pdfrwt beam="2">  1       -2 0.65831038E-01 0.52870906E+03</pdfrwt>
<totfact> 0.20396053E+01</totfact>
</mgrwt>
</event>
<event>
12    1  0.3127365E-008  0.2752523E+03  0.7818608E-02  0.1098311E+00
          1   -1    0    0  501    0  0.00000000000E+00  0.00000000000E+00  0.21884102321E+04  0.21884102321E+04  0.00000000000E+00 0. -1.
         -1   -1    0    0    0  501 -0.00000000000E+00 -0.00000000000E+00 -0.75898538435E+02  0.75898538435E+02  0.00000000000E+00 0.  1.
         23    2    1    2    0    0 -0.72821312252E+02 -0.15058930759E+03  0.43421595726E+03  0.47415824986E+03  0.91117864852E+02 0.  0.
    5000000    2    1    2    0    0  0.72821312252E+02  0.15058930759E+03  0.16782957364E+04  0.17901505207E+04  0.59998518711E+03 0.  0.
         23    2    4    4    0    0 -0.52125233297E+02  0.20265066631E+03  0.15886612240E+04  0.16049349731E+04  0.90484532003E+02 0.  0.
         23    2    4    4    0    0  0.12494654555E+03 -0.52061358726E+02  0.89634512366E+02  0.18521554760E+03  0.89153962044E+02 0.  0.
          1    1    3    3  502    0 -0.21794863718E+02 -0.13355040397E+03  0.28373857005E+03  0.31435378576E+03  0.00000000000E+00 0. -1.
         -1    1    3    3    0  502 -0.51026448534E+02 -0.17038903614E+02  0.15047738720E+03  0.15980446410E+03  0.00000000000E+00 0.  1.
         11    1    5    5    0    0 -0.28627352161E+02  0.67306810989E+02  0.88322919449E+03  0.88625252727E+03  0.00000000000E+00 0.  1.
        -11    1    5    5    0    0 -0.23497881136E+02  0.13534385532E+03  0.70543202956E+03  0.71868244581E+03  0.00000000000E+00 0. -1.
          5    1    6    6  503    0  0.99066717045E+02 -0.67884064562E+02  0.96056887630E+02  0.15385537465E+03  0.47000000000E+01 0. -1.
         -5    1    6    6    0  503  0.25879828504E+02  0.15822705836E+02 -0.64223752632E+01  0.31360172949E+02  0.47000000000E+01 0.  1.
<mgrwt>
<rscale>  0 0.27525231E+03</rscale>
<asrwt>0</asrwt>
<pdfrwt beam="1">  1        1 0.33667845E+00 0.27525231E+03</pdfrwt>
<pdfrwt beam="2">  1       -1 0.11676700E-01 0.27525231E+03</pdfrwt>
<totfact> 0.12188628E+02</totfact>
</mgrwt>
</event>
<event>
12    1  0.3127365E-008  0.4911938E+03  0.7818608E-02  0.1016103E+00
          1   -1    0    0  501    0  0.00000000000E+00  0.00000000000E+00  0.41443462200E+03  0.41443462200E+03  0.00000000000E+00 0. -1.
         -1   -1    0    0    0  501 -0.00000000000E+00 -0.00000000000E+00 -0.87503549635E+03  0.87503549635E+03  0.00000000000E+00 0.  1.
         23    2    1    2    0    0 -0.80464613980E+02 -0.43752766681E+03 -0.22139551417E+03  0.50515616782E+03  0.90894261981E+02 0.  0.
    5000000    2    1    2    0    0  0.80464613980E+02  0.43752766681E+03 -0.23920536017E+03  0.78431395053E+03  0.60002012911E+03 0.  0.
         23    2    4    4    0    0  0.71157130140E+02  0.42699563487E+03 -0.40162115137E+03  0.59750990423E+03  0.91268434065E+02 0.  0.
         23    2    4    4    0    0  0.93074838393E+01  0.10532031945E+02  0.16241579120E+03  0.18680404630E+03  0.91210249050E+02 0.  0.
          2    1    3    3  502    0  0.23827112455E+01 -0.17543398800E+03 -0.55133446217E+02  0.18390883162E+03  0.00000000000E+00 0. -1.
         -2    1    3    3    0  502 -0.82847325225E+02 -0.26209367882E+03 -0.16626206796E+03  0.32124733620E+03  0.00000000000E+00 0.  1.
         13    1    5    5    0    0 -0.13728859923E+02  0.13658161136E+03 -0.96415874437E+02  0.16774694930E+03  0.00000000000E+00 0.  1.
        -13    1    5    5    0    0  0.84885990063E+02  0.29041402351E+03 -0.30520527693E+03  0.42976295493E+03  0.00000000000E+00 0. -1.
          5    1    6    6  503    0  0.35285528566E+02  0.39405214828E+02  0.96853233050E+02  0.11045577501E+03  0.47000000000E+01 0. -1.
         -5    1    6    6    0  503 -0.25978044727E+02 -0.28873182883E+02  0.65562558150E+02  0.76348271289E+02  0.47000000000E+01 0.  1.
<mgrwt>
<rscale>  0 0.49119379E+03</rscale>
<asrwt>0</asrwt>
<pdfrwt beam="1">  1        1 0.63759173E-01 0.49119379E+03</pdfrwt>
<pdfrwt beam="2">  1       -1 0.13462084E+00 0.49119379E+03</pdfrwt>
<totfact> 0.28034904E+01</totfact>
</mgrwt>
</event>
<event>
12    1  0.3127365E-008  0.3768537E+03  0.7818608E-02  0.1052103E+00
         -1   -1    0    0    0  501 -0.00000000000E+00  0.00000000000E+00  0.84163043524E+03  0.84163043524E+03  0.00000000000E+00 0.  1.
          1   -1    0    0  501    0  0.00000000000E+00 -0.00000000000E+00 -0.26676468544E+03  0.26676468544E+03  0.00000000000E+00 0. -1.
         23    2    1    2    0    0 -0.14782057044E+03 -0.17634558391E+03  0.34655739242E+03  0.42611741015E+03  0.92332740565E+02 0.  0.
    5000000    2    1    2    0    0  0.14782057044E+03  0.17634558391E+03  0.22830835738E+03  0.68227771052E+03  0.60035779517E+03 0.  0.
         23    2    4    4    0    0 -0.12715159581E+03 -0.28209441751E+02 -0.10985123924E+03  0.19161003813E+03  0.87657350128E+02 0.  0.
         23    2    4    4    0    0  0.27497216624E+03  0.20455502566E+03  0.33815959662E+03  0.49066767239E+03  0.94606560083E+02 0.  0.
          1    1    3    3  502    0 -0.12544812529E+03 -0.17968521811E+03  0.33601521795E+03  0.40116111032E+03  0.00000000000E+00 0. -1.
         -1    1    3    3    0  502 -0.22372445147E+02  0.33396341913E+01  0.10542174477E+02  0.24956299828E+02  0.00000000000E+00 0.  1.
         11    1    5    5    0    0 -0.10164880511E+03  0.18406050188E+02 -0.64777166002E+02  0.12193171654E+03  0.00000000000E+00 0.  1.
        -11    1    5    5    0    0 -0.25502790702E+02 -0.46615491939E+02 -0.45074073237E+02  0.69678321596E+02  0.00000000000E+00 0. -1.
          5    1    6    6  503    0  0.73995270334E+02  0.83789454805E+01  0.73408997975E+02  0.10467319496E+03  0.47000000000E+01 0. -1.
         -5    1    6    6    0  503  0.20097689591E+03  0.19617608018E+03  0.26475059864E+03  0.38599447743E+03  0.47000000000E+01 0.  1.
<mgrwt>
<rscale>  0 0.37685366E+03</rscale>
<asrwt>0</asrwt>
<pdfrwt beam="1">  1        1 0.41040721E-01 0.37685366E+03</pdfrwt>
<pdfrwt beam="2">  1       -1 0.12948160E+00 0.37685366E+03</pdfrwt>
<totfact> 0.55471569E+01</totfact>
</mgrwt>
</event>
<event>
12    1  0.4483335E-008  0.1073407E+04  0.7818608E-02  0.9231505E-01
          2   -1    0    0  501    0  0.00000000000E+00  0.00000000000E+00  0.29686232807E+04  0.29686232807E+04  0.00000000000E+00 0. -1.
         -2   -1    0    0    0  501 -0.00000000000E+00 -0.00000000000E+00 -0.42107955203E+03  0.42107955203E+03  0.00000000000E+00 0.  1.
         23    2    1    2    0    0 -0.93261412541E+03 -0.39093677189E+03  0.83927949372E+03  0.13158904239E+04  0.67652587388E+02 0.  0.
    5000000    2    1    2    0    0  0.93261412541E+03  0.39093677189E+03  0.17082642350E+04  0.20738124089E+04  0.59994211735E+03 0.  0.
         23    2    4    4    0    0  0.86612598428E+03  0.14329089691E+03  0.14562386913E+04  0.17028845913E+04  0.92077703410E+02 0.  0.
         23    2    4    4    0    0  0.66488141128E+02  0.24764587498E+03  0.25202554366E+03  0.37092781756E+03  0.91221811416E+02 0.  0.
          2    1    3    3  502    0 -0.59441761992E+03 -0.24296249558E+03  0.57406957758E+03  0.86134717799E+03  0.00000000000E+00 0.  1.
         -2    1    3    3    0  502 -0.33819650549E+03 -0.14797427631E+03  0.26520991614E+03  0.45454324590E+03  0.00000000000E+00 0. -1.
         13    1    5    5    0    0  0.46086293490E+03  0.97457484484E+02  0.70118033797E+03  0.84471680011E+03  0.00000000000E+00 0. -1.
        -13    1    5    5    0    0  0.40526304938E+03  0.45833412427E+02  0.75505835334E+03  0.85816779119E+03  0.00000000000E+00 0.  1.
          5    1    6    6  503    0  0.30167385354E+02  0.11817434767E+03  0.58824765423E+02  0.13549055544E+03  0.47000000000E+01 0. -1.
         -5    1    6    6    0  503  0.36320755774E+02  0.12947152731E+03  0.19320077824E+03  0.23543726212E+03  0.47000000000E+01 0.  1.
<mgrwt>
<rscale>  0 0.10734074E+04</rscale>
<asrwt>0</asrwt>
<pdfrwt beam="1">  1        2 0.45671126E+00 0.10734074E+04</pdfrwt>
<pdfrwt beam="2">  1       -2 0.64781471E-01 0.10734074E+04</pdfrwt>
<totfact> 0.40509760E+00</totfact>
</mgrwt>
</event>
<event>
12    1  0.3127365E-008  0.5846517E+03  0.7818608E-02  0.9937771E-01
          1   -1    0    0  501    0  0.00000000000E+00  0.00000000000E+00  0.13285726620E+04  0.13285726620E+04  0.00000000000E+00 0. -1.
         -1   -1    0    0    0  501 -0.00000000000E+00 -0.00000000000E+00 -0.32557342995E+03  0.32557342995E+03  0.00000000000E+00 0.  1.
         23    2    1    2    0    0 -0.73295541308E+02  0.50347279610E+03  0.50929444033E+03  0.72559818834E+03  0.90855991461E+02 0.  0.
    5000000    2    1    2    0    0  0.73295541308E+02 -0.50347279610E+03  0.49370479173E+03  0.92854790362E+03  0.59966631984E+03 0.  0.
         23    2    4    4    0    0  0.23425553345E+03 -0.38465448209E+03  0.53415745063E+03  0.70434298696E+03  0.89107438918E+02 0.  0.
         23    2    4    4    0    0 -0.16095999215E+03 -0.11881831401E+03 -0.40452658902E+02  0.22420491666E+03  0.92765921677E+02 0.  0.
          4    1    3    3  502    0 -0.28790294458E+02  0.26710979142E+03  0.33042678950E+03  0.42586193179E+03  0.00000000000E+00 0. -1.
         -4    1    3    3    0  502 -0.44505246850E+02  0.23636300468E+03  0.17886765083E+03  0.29973625655E+03  0.00000000000E+00 0.  1.
         11    1    5    5    0    0  0.23883651538E+03 -0.35518557205E+03  0.48510611511E+03  0.64693710250E+03  0.00000000000E+00 0.  1.
        -11    1    5    5    0    0 -0.45809819296E+01 -0.29468910037E+02  0.49051335522E+02  0.57405884461E+02  0.00000000000E+00 0. -1.
          5    1    6    6  503    0 -0.12797955748E+03 -0.10718824337E+03  0.44921404913E+01  0.16706392781E+03  0.47000000000E+01 0. -1.
         -5    1    6    6    0  503 -0.32980434666E+02 -0.11630070646E+02 -0.44944799394E+02  0.57140988848E+02  0.47000000000E+01 0.  1.
<mgrwt>
<rscale>  0 0.58465172E+03</rscale>
<asrwt>0</asrwt>
<pdfrwt beam="1">  1        1 0.20439579E+00 0.58465172E+03</pdfrwt>
<pdfrwt beam="2">  1       -1 0.50088221E-01 0.58465172E+03</pdfrwt>
<totfact> 0.36295169E+01</totfact>
</mgrwt>
</event>
<event>
12    1  0.3127365E-008  0.1271785E+04  0.7818608E-02  0.9052244E-01
          2   -1    0    0  501    0  0.00000000000E+00  0.00000000000E+00  0.16585669322E+04  0.16585669322E+04  0.00000000000E+00 0. -1.
         -2   -1    0    0    0  501 -0.00000000000E+00 -0.00000000000E+00 -0.12666134532E+04  0.12666134532E+04  0.00000000000E+00 0.  1.
         23    2    1    2    0    0 -0.11376434226E+04  0.41607708392E+03  0.86670421846E+03  0.14922490912E+04  0.90985994352E+02 0.  0.
    5000000    2    1    2    0    0  0.11376434226E+04 -0.41607708392E+03 -0.47475073951E+03  0.14329312942E+04  0.60045910143E+03 0.  0.
         23    2    4    4    0    0  0.45072933483E+03 -0.44939261818E+03 -0.33408143130E+03  0.72460985717E+03  0.91314751375E+02 0.  0.
         23    2    4    4    0    0  0.68691408777E+03  0.33315534262E+02 -0.14066930822E+03  0.70832143704E+03  0.94712803172E+02 0.  0.
          4    1    3    3  502    0 -0.28050516375E+03  0.10977786926E+03  0.16905194048E+03  0.34541697418E+03  0.00000000000E+00 0. -1.
         -4    1    3    3    0  502 -0.85713825886E+03  0.30629921466E+03  0.69765227798E+03  0.11468321170E+04  0.00000000000E+00 0.  1.
         13    1    5    5    0    0  0.23215003493E+03 -0.29494367928E+03 -0.19278678573E+03  0.42196227014E+03  0.00000000000E+00 0. -1.
        -13    1    5    5    0    0  0.21857929990E+03 -0.15444893890E+03 -0.14129464556E+03  0.30264758703E+03  0.00000000000E+00 0.  1.
          5    1    6    6  503    0  0.27444411610E+02  0.87779414916E+01  0.10958510405E+02  0.31183760770E+02  0.47000000000E+01 0. -1.
         -5    1    6    6    0  503  0.65946967617E+03  0.24537592770E+02 -0.15162781862E+03  0.67713767627E+03  0.47000000000E+01 0.  1.
<mgrwt>
<rscale>  0 0.12717845E+04</rscale>
<asrwt>0</asrwt>
<pdfrwt beam="1">  1        2 0.25516414E+00 0.12717845E+04</pdfrwt>
<pdfrwt beam="2">  1       -2 0.19486361E+00 0.12717845E+04</pdfrwt>
<totfact> 0.14316434E+00</totfact>
</mgrwt>
</event>
<event>
12    1  0.3127365E-008  0.4562786E+03  0.7818608E-02  0.1025866E+00
          2   -1    0    0  501    0  0.00000000000E+00  0.00000000000E+00  0.17521570679E+04  0.17521570679E+04  0.00000000000E+00 0. -1.
         -2   -1    0    0    0  501 -0.00000000000E+00 -0.00000000000E+00 -0.14491208090E+03  0.14491208090E+03  0.00000000000E+00 0.  1.
         23    2    1    2    0    0  0.22201957105E+03  0.13625526492E+03  0.86670422669E+03  0.90916997607E+03  0.86923194135E+02 0.  0.
    5000000    2    1    2    0    0 -0.22201957105E+03 -0.13625526492E+03  0.74054076032E+03  0.98789917275E+03  0.59973825180E+03 0.  0.
         23    2    4    4    0    0 -0.39179954063E+03  0.19847138174E+02  0.50593181433E+03  0.64668745898E+03  0.91306516274E+02 0.  0.
         23    2    4    4    0    0  0.16977996958E+03 -0.15610240309E+03  0.23460894599E+03  0.34121171377E+03  0.90503468175E+02 0.  0.
          3    1    3    3  502    0  0.49559657174E+02 -0.69491352919E+01  0.17810760238E+03  0.18500477865E+03  0.00000000000E+00 0. -1.
         -3    1    3    3    0  502  0.17245991387E+03  0.14320440021E+03  0.68859662431E+03  0.72416519742E+03  0.00000000000E+00 0.  1.
         13    1    5    5    0    0 -0.24798549037E+03  0.52738972917E+02  0.34812277798E+03  0.43065957699E+03  0.00000000000E+00 0.  1.
        -13    1    5    5    0    0 -0.14381405026E+03 -0.32891834743E+02  0.15780903635E+03  0.21602788200E+03  0.00000000000E+00 0. -1.
          5    1    6    6  503    0  0.14561985351E+03 -0.15489053987E+03  0.17059632663E+03  0.27261954760E+03  0.47000000000E+01 0. -1.
         -5    1    6    6    0  503  0.24160116079E+02 -0.12118632150E+01  0.64012619360E+02  0.68592166162E+02  0.47000000000E+01 0.  1.
<mgrwt>
<rscale>  0 0.45627859E+03</rscale>
<asrwt>0</asrwt>
<pdfrwt beam="1">  1        2 0.26956261E+00 0.45627859E+03</pdfrwt>
<pdfrwt beam="2">  1       -2 0.22294168E-01 0.45627859E+03</pdfrwt>
<totfact> 0.17010811E+02</totfact>
</mgrwt>
</event>
<event>
12    1  0.3127365E-008  0.1252332E+04  0.7818608E-02  0.9068244E-01
         -2   -1    0    0    0  501 -0.00000000000E+00  0.00000000000E+00  0.78736428756E+03  0.78736428756E+03  0.00000000000E+00 0.  1.
          2   -1    0    0  501    0  0.00000000000E+00 -0.00000000000E+00 -0.27240557920E+04  0.27240557920E+04  0.00000000000E+00 0. -1.
         23    2    1    2    0    0  0.11108831107E+04  0.55352002233E+03 -0.17091249233E+04  0.21142439801E+04  0.92053806454E+02 0.  0.
    5000000    2    1    2    0    0 -0.11108831107E+04 -0.55352002233E+03 -0.22756658116E+03  0.13971760995E+04  0.59989065960E+03 0.  0.
         23    2    4    4    0    0 -0.82030743419E+03 -0.30047311180E+03 -0.40059388526E+03  0.96513597770E+03  0.88451212782E+02 0.  0.
         23    2    4    4    0    0 -0.29057567646E+03 -0.25304691053E+03  0.17302730409E+03  0.43204012179E+03  0.90847433626E+02 0.  0.
          3    1    3    3  502    0  0.83355542561E+03  0.42980135820E+03 -0.12253689636E+04  0.15430725686E+04  0.00000000000E+00 0. -1.
         -3    1    3    3    0  502  0.27732768504E+03  0.12371866413E+03 -0.48375595969E+03  0.57117141147E+03  0.00000000000E+00 0.  1.
         11    1    5    5    0    0 -0.16522476421E+03 -0.25268148886E+02 -0.65182958705E+02  0.17940602042E+03  0.00000000000E+00 0. -1.
        -11    1    5    5    0    0 -0.65508266998E+03 -0.27520496291E+03 -0.33541092655E+03  0.78572995728E+03  0.00000000000E+00 0.  1.
          5    1    6    6  503    0 -0.11151573395E+03 -0.94155319637E+02  0.11447241381E+03  0.18554516070E+03  0.47000000000E+01 0. -1.
         -5    1    6    6    0  503 -0.17905994252E+03 -0.15889159089E+03  0.58554890279E+02  0.24649496109E+03  0.47000000000E+01 0.  1.
<mgrwt>
<rscale>  0 0.12523322E+04</rscale>
<asrwt>0</asrwt>
<pdfrwt beam="1">  1        2 0.41908551E+00 0.12523322E+04</pdfrwt>
<pdfrwt beam="2">  1       -2 0.12113297E+00 0.12523322E+04</pdfrwt>
<totfact> 0.13020041E+00</totfact>
</mgrwt>
</event>
<event>
12    1  0.3127365E-008  0.7985152E+03  0.7818608E-02  0.9562169E-01
          1   -1    0    0  501    0  0.00000000000E+00  0.00000000000E+00  0.67083042259E+03  0.67083042259E+03  0.00000000000E+00 0. -1.
         -1   -1    0    0    0  501 -0.00000000000E+00 -0.00000000000E+00 -0.11996695998E+04  0.11996695998E+04  0.00000000000E+00 0.  1.
         23    2    1    2    0    0  0.55786070176E+03  0.56174857503E+03 -0.17115100539E+03  0.81475238483E+03  0.88083811369E+02 0.  0.
    5000000    2    1    2    0    0 -0.55786070176E+03 -0.56174857503E+03 -0.35768817187E+03  0.10557476376E+04  0.59991017818E+03 0.  0.
         23    2    4    4    0    0 -0.36398185024E+03 -0.26801855141E+03 -0.48861237027E+03  0.67178567471E+03  0.90759094122E+02 0.  0.
         23    2    4    4    0    0 -0.19387885153E+03 -0.29373002361E+03  0.13092419839E+03  0.38396196289E+03  0.80120580252E+02 0.  0.
          4    1    3    3  502    0  0.18450406773E+03  0.18120032403E+03 -0.98422243100E+02  0.27669883696E+03  0.00000000000E+00 0. -1.
         -4    1    3    3    0  502  0.37335663403E+03  0.38054825100E+03 -0.72728762286E+02  0.53805354787E+03  0.00000000000E+00 0.  1.
         11    1    5    5    0    0 -0.31837286572E+03 -0.22524828267E+03 -0.36940735334E+03  0.53717768306E+03  0.00000000000E+00 0. -1.
        -11    1    5    5    0    0 -0.45608984520E+02 -0.42770268739E+02 -0.11920501692E+03  0.13460799165E+03  0.00000000000E+00 0.  1.
          5    1    6    6  503    0 -0.17842099275E+03 -0.27707011902E+03  0.98306042561E+02  0.34393032654E+03  0.47000000000E+01 0. -1.
         -5    1    6    6    0  503 -0.15457858777E+02 -0.16659904590E+02  0.32618155834E+02  0.40031636351E+02  0.47000000000E+01 0.  1.
<mgrwt>
<rscale>  0 0.79851524E+03</rscale>
<asrwt>0</asrwt>
<pdfrwt beam="1">  1        1 0.10320468E+00 0.79851524E+03</pdfrwt>
<pdfrwt beam="2">  1       -1 0.18456455E+00 0.79851524E+03</pdfrwt>
<totfact> 0.57647186E+00</totfact>
</mgrwt>
</event>
<event>
12    1  0.3127365E-008  0.4835810E+03  0.7818608E-02  0.1018156E+00
          1   -1    0    0  501    0  0.00000000000E+00  0.00000000000E+00  0.13453958723E+03  0.13453958723E+03  0.00000000000E+00 0. -1.
         -1   -1    0    0    0  501 -0.00000000000E+00 -0.00000000000E+00 -0.31162866866E+04  0.31162866866E+04  0.00000000000E+00 0.  1.
         23    2    1    2    0    0  0.35930628325E+03  0.25669989267E+03 -0.17860450484E+04  0.18420005422E+04  0.89516716800E+02 0.  0.
    5000000    2    1    2    0    0 -0.35930628325E+03 -0.25669989267E+03 -0.11957020510E+04  0.14088257316E+04  0.60007558462E+03 0.  0.
         23    2    4    4    0    0 -0.36737241474E+03 -0.24869590435E+03 -0.12310219824E+04  0.13117091102E+04  0.91397617950E+02 0.  0.
         23    2    4    4    0    0  0.80661314920E+01 -0.80039883210E+01  0.35319931448E+02  0.97116621430E+02  0.89749731444E+02 0.  0.
          1    1    3    3  502    0  0.24492505774E+03  0.18712888831E+03 -0.13958823705E+04  0.14295079912E+04  0.00000000000E+00 0. -1.
         -1    1    3    3    0  502  0.11438122551E+03  0.69571004357E+02 -0.39016267789E+03  0.41249255098E+03  0.00000000000E+00 0.  1.
         11    1    5    5    0    0 -0.15709822506E+03 -0.11485065508E+03 -0.67251164483E+03  0.70010173383E+03  0.00000000000E+00 0. -1.
        -11    1    5    5    0    0 -0.21027418969E+03 -0.13384524927E+03 -0.55851033758E+03  0.61160737634E+03  0.00000000000E+00 0.  1.
          5    1    6    6  503    0  0.42797190023E+02 -0.14732389092E+02 -0.19089620025E+01  0.45545327951E+02  0.47000000000E+01 0. -1.
         -5    1    6    6    0  503 -0.34731058531E+02  0.67284007712E+01  0.37228893450E+02  0.51571293479E+02  0.47000000000E+01 0.  1.
<mgrwt>
<rscale>  0 0.48358104E+03</rscale>
<asrwt>0</asrwt>
<pdfrwt beam="1">  1        1 0.20698399E-01 0.48358104E+03</pdfrwt>
<pdfrwt beam="2">  1       -1 0.47942870E+00 0.48358104E+03</pdfrwt>
<totfact> 0.57426394E-01</totfact>
</mgrwt>
</event>
<event>
12    1  0.3127365E-008  0.7889531E+03  0.7818608E-02  0.9576146E-01
         -1   -1    0    0    0  501 -0.00000000000E+00  0.00000000000E+00  0.46660800824E+03  0.46660800824E+03  0.00000000000E+00 0.  1.
          1   -1    0    0  501    0  0.00000000000E+00 -0.00000000000E+00 -0.18046848272E+04  0.18046848272E+04  0.00000000000E+00 0. -1.
         23    2    1    2    0    0  0.79639152503E+02  0.68824985412E+03 -0.63274315186E+02  0.70118195722E+03  0.87305451519E+02 0.  0.
    5000000    2    1    2    0    0 -0.79639152503E+02 -0.68824985412E+03 -0.12748025037E+04  0.15701108782E+04  0.60008040288E+03 0.  0.
         23    2    4    4    0    0  0.22351928628E+03 -0.40534106787E+03 -0.50742552995E+03  0.69317137509E+03  0.93507401665E+02 0.  0.
         23    2    4    4    0    0 -0.30315843878E+03 -0.28290878625E+03 -0.76737697378E+03  0.87693950308E+03  0.90625889368E+02 0.  0.
          4    1    3    3  502    0  0.67655283841E+02  0.38437768835E+03 -0.72361601025E+02  0.39693783649E+03  0.00000000000E+00 0. -1.
         -4    1    3    3    0  502  0.11983868662E+02  0.30387216576E+03  0.90872858389E+01  0.30424412073E+03  0.00000000000E+00 0.  1.
         13    1    5    5    0    0  0.17172685242E+03 -0.36355331868E+03 -0.46271813184E+03  0.61300016060E+03  0.00000000000E+00 0.  1.
        -13    1    5    5    0    0  0.51792433860E+02 -0.41787749185E+02 -0.44707398111E+02  0.80171214491E+02  0.00000000000E+00 0. -1.
          5    1    6    6  503    0 -0.10543921445E+03 -0.92113949834E+02 -0.35237842547E+03  0.37920318094E+03  0.47000000000E+01 0. -1.
         -5    1    6    6    0  503 -0.19771922433E+03 -0.19079483641E+03 -0.41499854831E+03  0.49773632214E+03  0.47000000000E+01 0.  1.
<mgrwt>
<rscale>  0 0.78895314E+03</rscale>
<asrwt>0</asrwt>
<pdfrwt beam="1">  1        1 0.27764383E+00 0.78895314E+03</pdfrwt>
<pdfrwt beam="2">  1       -1 0.71785846E-01 0.78895314E+03</pdfrwt>
<totfact> 0.82200476E+00</totfact>
</mgrwt>
</event>
<event>
12    1  0.3127365E-008  0.1051975E+04  0.7818608E-02  0.9253308E-01
          1   -1    0    0  501    0  0.00000000000E+00  0.00000000000E+00  0.11198569778E+04  0.11198569778E+04  0.00000000000E+00 0. -1.
         -1   -1    0    0    0  501 -0.00000000000E+00 -0.00000000000E+00 -0.10533674693E+04  0.10533674693E+04  0.00000000000E+00 0.  1.
         23    2    1    2    0    0  0.14261663049E+03  0.98536791352E+03  0.13473197490E+03  0.10088104919E+04  0.90865148648E+02 0.  0.
    5000000    2    1    2    0    0 -0.14261663049E+03 -0.98536791352E+03 -0.68242466372E+02  0.11644139552E+04  0.59992782613E+03 0.  0.
         23    2    4    4    0    0  0.16555290562E+03 -0.47555544100E+03  0.13359683370E+03  0.52904712202E+03  0.92097781317E+02 0.  0.
         23    2    4    4    0    0 -0.30816953610E+03 -0.50981247252E+03 -0.20183930007E+03  0.63536683318E+03  0.89859276292E+02 0.  0.
          1    1    3    3  502    0  0.11389413698E+03  0.69079711046E+03  0.54940166418E+02  0.70227554716E+03  0.00000000000E+00 0. -1.
         -1    1    3    3    0  502  0.28722493503E+02  0.29457080306E+03  0.79791808483E+02  0.30653494474E+03  0.00000000000E+00 0.  1.
         11    1    5    5    0    0  0.23374926226E+02 -0.10604967866E+02  0.54598026925E+01  0.26242369652E+02  0.00000000000E+00 0. -1.
        -11    1    5    5    0    0  0.14217797939E+03 -0.46495047313E+03  0.12813703101E+03  0.50280475237E+03  0.00000000000E+00 0.  1.
          5    1    6    6  503    0 -0.27145731796E+03 -0.44172890276E+03 -0.20562988388E+03  0.55778063623E+03  0.47000000000E+01 0. -1.
         -5    1    6    6    0  503 -0.36712218143E+02 -0.68083569754E+02  0.37905838066E+01  0.77586196949E+02  0.47000000000E+01 0.  1.
<mgrwt>
<rscale>  0 0.10519747E+04</rscale>
<asrwt>0</asrwt>
<pdfrwt beam="1">  1        1 0.17228569E+00 0.10519747E+04</pdfrwt>
<pdfrwt beam="2">  1       -1 0.16205653E+00 0.10519747E+04</pdfrwt>
<totfact> 0.34437348E+00</totfact>
</mgrwt>
</event>
<event>
12    1  0.3127365E-008  0.5286280E+03  0.7818608E-02  0.1006565E+00
          2   -1    0    0  501    0  0.00000000000E+00  0.00000000000E+00  0.12705760249E+04  0.12705760249E+04  0.00000000000E+00 0. -1.
         -2   -1    0    0    0  501 -0.00000000000E+00 -0.00000000000E+00 -0.31792636156E+03  0.31792636156E+03  0.00000000000E+00 0.  1.
         23    2    1    2    0    0  0.87526259053E+02  0.43487322562E+03  0.11552590421E+03  0.46711853915E+03  0.89877286826E+02 0.  0.
    5000000    2    1    2    0    0 -0.87526259053E+02 -0.43487322562E+03  0.83712375917E+03  0.11213838474E+04  0.59995831236E+03 0.  0.
         23    2    4    4    0    0 -0.18108444352E+02  0.79897434328E+02 -0.11734863775E+02  0.12226496141E+03  0.89997211019E+02 0.  0.
         23    2    4    4    0    0 -0.69417814701E+02 -0.51477065995E+03  0.84885862295E+03  0.99911888595E+03  0.88712576200E+02 0.  0.
          1    1    3    3  502    0  0.92276134298E+02  0.31594905531E+03  0.55412944655E+02  0.33378029443E+03  0.00000000000E+00 0. -1.
         -1    1    3    3    0  502 -0.47498752453E+01  0.11892417030E+03  0.60112959555E+02  0.13333824472E+03  0.00000000000E+00 0.  1.
         11    1    5    5    0    0  0.48912897538E+00  0.32383811169E+01 -0.38747245719E+02  0.38885413849E+02  0.00000000000E+00 0.  1.
        -11    1    5    5    0    0 -0.18597573327E+02  0.76659053211E+02  0.27012381944E+02  0.83379547559E+02  0.00000000000E+00 0. -1.
          5    1    6    6  503    0  0.21102573160E+02 -0.11479049500E+03  0.19184402390E+03  0.22460720345E+03  0.47000000000E+01 0. -1.
         -5    1    6    6    0  503 -0.90520387861E+02 -0.39998016495E+03  0.65701459904E+03  0.77451168250E+03  0.47000000000E+01 0.  1.
<mgrwt>
<rscale>  0 0.52862802E+03</rscale>
<asrwt>0</asrwt>
<pdfrwt beam="1">  1        2 0.19547323E+00 0.52862802E+03</pdfrwt>
<pdfrwt beam="2">  1       -2 0.48911749E-01 0.52862802E+03</pdfrwt>
<totfact> 0.70929449E+01</totfact>
</mgrwt>
</event>
<event>
12    1  0.3127365E-008  0.8306049E+03  0.7818608E-02  0.9516745E-01
         -2   -1    0    0    0  501 -0.00000000000E+00  0.00000000000E+00  0.29662044258E+03  0.29662044258E+03  0.00000000000E+00 0.  1.
          2   -1    0    0  501    0  0.00000000000E+00 -0.00000000000E+00 -0.29054150717E+04  0.29054150717E+04  0.00000000000E+00 0. -1.
         23    2    1    2    0    0  0.67690398899E+03  0.26125736735E+03 -0.18613863335E+04  0.19999358388E+04  0.92357211422E+02 0.  0.
    5000000    2    1    2    0    0 -0.67690398899E+03 -0.26125736735E+03 -0.74740829565E+03  0.12020996755E+04  0.59997503875E+03 0.  0.
         23    2    4    4    0    0 -0.57136397740E+03 -0.42670125039E+03 -0.63188001809E+03  0.95704174223E+03  0.90143149233E+02 0.  0.
         23    2    4    4    0    0 -0.10554001159E+03  0.16544388304E+03 -0.11552827756E+03  0.24505793327E+03  0.90533061692E+02 0.  0.
          4    1    3    3  502    0  0.19965443568E+03  0.11697746369E+03 -0.53290610789E+03  0.58097722892E+03  0.00000000000E+00 0. -1.
         -4    1    3    3    0  502  0.47724955331E+03  0.14427990366E+03 -0.13284802256E+04  0.14189586099E+04  0.00000000000E+00 0.  1.
         11    1    5    5    0    0 -0.39079665018E+03 -0.33888978014E+03 -0.43553271527E+03  0.67620784597E+03  0.00000000000E+00 0. -1.
        -11    1    5    5    0    0 -0.18056732722E+03 -0.87811470259E+02 -0.19634730282E+03  0.28083389627E+03  0.00000000000E+00 0.  1.
          5    1    6    6  503    0  0.59102544435E+01  0.57337348386E+02 -0.14065702534E+02  0.59518372083E+02  0.47000000000E+01 0. -1.
         -5    1    6    6    0  503 -0.11145026603E+03  0.10810653466E+03 -0.10146257503E+03  0.18553956119E+03  0.47000000000E+01 0.  1.
<mgrwt>
<rscale>  0 0.83060490E+03</rscale>
<asrwt>0</asrwt>
<pdfrwt beam="1">  1        2 0.44698694E+00 0.83060490E+03</pdfrwt>
<pdfrwt beam="2">  1       -2 0.45633914E-01 0.83060490E+03</pdfrwt>
<totfact> 0.94979827E+00</totfact>
</mgrwt>
</event>
<event>
12    1  0.3127365E-008  0.8327219E+03  0.7818608E-02  0.9513825E-01
          1   -1    0    0  501    0  0.00000000000E+00  0.00000000000E+00  0.11371841011E+04  0.11371841011E+04  0.00000000000E+00 0. -1.
         -1   -1    0    0    0  501 -0.00000000000E+00 -0.00000000000E+00 -0.78888143330E+03  0.78888143330E+03  0.00000000000E+00 0.  1.
         23    2    1    2    0    0  0.33073712981E+03 -0.68101272458E+03 -0.23395212573E+03  0.79775413664E+03  0.92264214738E+02 0.  0.
    5000000    2    1    2    0    0 -0.33073712981E+03  0.68101272458E+03  0.58225479351E+03  0.11283113977E+04  0.60075001923E+03 0.  0.
         23    2    4    4    0    0  0.91990749958E+02 -0.38538629189E+00  0.19458610155E+03  0.23299198997E+03  0.89213619321E+02 0.  0.
         23    2    4    4    0    0 -0.42272787977E+03  0.68139811087E+03  0.38766869196E+03  0.89531940776E+03  0.91145934388E+02 0.  0.
          3    1    3    3  502    0  0.21030720493E+03 -0.42442907793E+03 -0.99378267547E+02  0.48398884563E+03  0.00000000000E+00 0. -1.
         -3    1    3    3    0  502  0.12042992488E+03 -0.25658364666E+03 -0.13457385819E+03  0.31376529101E+03  0.00000000000E+00 0.  1.
         11    1    5    5    0    0  0.64177937536E+02 -0.24853376515E+02  0.18081770754E+03  0.19347232709E+03  0.00000000000E+00 0. -1.
        -11    1    5    5    0    0  0.27812812422E+02  0.24467990224E+02  0.13768394016E+02  0.39519662881E+02  0.00000000000E+00 0.  1.
          5    1    6    6  503    0 -0.12659344728E+03  0.17967854777E+03  0.14972424864E+03  0.26598819909E+03  0.47000000000E+01 0. -1.
         -5    1    6    6    0  503 -0.29613443248E+03  0.50171956310E+03  0.23794444332E+03  0.62933120867E+03  0.47000000000E+01 0.  1.
<mgrwt>
<rscale>  0 0.83272194E+03</rscale>
<asrwt>0</asrwt>
<pdfrwt beam="1">  1        1 0.17495140E+00 0.83272194E+03</pdfrwt>
<pdfrwt beam="2">  1       -1 0.12136637E+00 0.83272194E+03</pdfrwt>
<totfact> 0.73271073E+00</totfact>
</mgrwt>
</event>
<event>
12    1  0.3127365E-008  0.1097547E+04  0.7818608E-02  0.9207586E-01
          2   -1    0    0  501    0  0.00000000000E+00  0.00000000000E+00  0.21271871276E+04  0.21271871276E+04  0.00000000000E+00 0. -1.
         -2   -1    0    0    0  501 -0.00000000000E+00 -0.00000000000E+00 -0.64022560565E+03  0.64022560565E+03  0.00000000000E+00 0.  1.
         23    2    1    2    0    0 -0.10878642278E+04 -0.24454763266E+02  0.69538276366E+03  0.12944922960E+04  0.90036118832E+02 0.  0.
    5000000    2    1    2    0    0  0.10878642278E+04  0.24454763266E+02  0.79157875824E+03  0.14729204372E+04  0.59904179347E+03 0.  0.
         23    2    4    4    0    0  0.52343602635E+03  0.68012246780E+02  0.54910990392E+02  0.53907985891E+03  0.94767811092E+02 0.  0.
         23    2    4    4    0    0  0.56442820147E+03 -0.43557483514E+02  0.73666776785E+03  0.93384057834E+03  0.94352406272E+02 0.  0.
          4    1    3    3  502    0 -0.10750259563E+03 -0.14445586386E+02  0.42042778305E+02  0.11633175939E+03  0.00000000000E+00 0. -1.
         -4    1    3    3    0  502 -0.98036163219E+03 -0.10009176881E+02  0.65333998536E+03  0.11781605366E+04  0.00000000000E+00 0.  1.
         11    1    5    5    0    0  0.39273223575E+03  0.15043054761E+02  0.61961899073E+02  0.39787457751E+03  0.00000000000E+00 0. -1.
        -11    1    5    5    0    0  0.13070379061E+03  0.52969192020E+02 -0.70509086809E+01  0.14120528140E+03  0.00000000000E+00 0.  1.
          5    1    6    6  503    0  0.30729246002E+03 -0.64882537035E+02  0.44046624627E+03  0.54099076120E+03  0.47000000000E+01 0. -1.
         -5    1    6    6    0  503  0.25713574145E+03  0.21325053521E+02  0.29620152159E+03  0.39284981714E+03  0.47000000000E+01 0.  1.
<mgrwt>
<rscale>  0 0.10975474E+04</rscale>
<asrwt>0</asrwt>
<pdfrwt beam="1">  1        2 0.32725955E+00 0.10975474E+04</pdfrwt>
<pdfrwt beam="2">  1       -2 0.98496248E-01 0.10975474E+04</pdfrwt>
<totfact> 0.48129957E+00</totfact>
</mgrwt>
</event>
<event>
12    1  0.3127365E-008  0.8676897E+03  0.7818608E-02  0.9466897E-01
          2   -1    0    0  501    0  0.00000000000E+00  0.00000000000E+00  0.20284179128E+04  0.20284179128E+04  0.00000000000E+00 0. -1.
         -2   -1    0    0    0  501 -0.00000000000E+00 -0.00000000000E+00 -0.39803600576E+03  0.39803600576E+03  0.00000000000E+00 0.  1.
         23    2    1    2    0    0  0.59632062373E+03 -0.51094029554E+03  0.57117565601E+03  0.97781894492E+03  0.11502168114E+03 0.  0.
    5000000    2    1    2    0    0 -0.59632062373E+03  0.51094029554E+03  0.10592062510E+04  0.14486349736E+04  0.59997260999E+03 0.  0.
         23    2    4    4    0    0 -0.66139985991E+02 -0.10654244769E+03  0.88835019072E+02  0.17869461286E+03  0.91182855544E+02 0.  0.
         23    2    4    4    0    0 -0.53018063774E+03  0.61748274324E+03  0.97037123196E+03  0.12699403608E+04  0.93550763191E+02 0.  0.
          2    1    3    3  502    0  0.53758746508E+02 -0.93178051027E+02  0.58897681571E+02  0.12264211721E+03  0.00000000000E+00 0. -1.
         -2    1    3    3    0  502  0.54256187722E+03 -0.41776224452E+03  0.51227797444E+03  0.85517682771E+03  0.00000000000E+00 0.  1.
         13    1    5    5    0    0 -0.66133504845E+02 -0.10323233355E+03  0.10547614864E+03  0.16172746546E+03  0.00000000000E+00 0.  1.
        -13    1    5    5    0    0 -0.64811456329E-02 -0.33101141434E+01 -0.16641129567E+02  0.16967147400E+02  0.00000000000E+00 0. -1.
          5    1    6    6  503    0 -0.34404957580E+03  0.45176858930E+03  0.63165362374E+03  0.84939587901E+03  0.47000000000E+01 0. -1.
         -5    1    6    6    0  503 -0.18613106193E+03  0.16571415394E+03  0.33871760822E+03  0.42054448177E+03  0.47000000000E+01 0.  1.
<mgrwt>
<rscale>  0 0.86768971E+03</rscale>
<asrwt>0</asrwt>
<pdfrwt beam="1">  1        2 0.31206429E+00 0.86768971E+03</pdfrwt>
<pdfrwt beam="2">  1       -2 0.61236310E-01 0.86768971E+03</pdfrwt>
<totfact> 0.16284003E+01</totfact>
</mgrwt>
</event>
<event>
12    1  0.3127365E-008  0.5473698E+03  0.7818608E-02  0.1002105E+00
          1   -1    0    0  501    0  0.00000000000E+00  0.00000000000E+00  0.14086753310E+04  0.14086753310E+04  0.00000000000E+00 0. -1.
         -1   -1    0    0    0  501 -0.00000000000E+00 -0.00000000000E+00 -0.23058383984E+03  0.23058383984E+03  0.00000000000E+00 0.  1.
         23    2    1    2    0    0  0.25631032255E+03  0.30243410367E+03  0.54880581832E+03  0.68362420572E+03  0.94830690780E+02 0.  0.
    5000000    2    1    2    0    0 -0.25631032255E+03 -0.30243410367E+03  0.62928567281E+03  0.95563496509E+03  0.60006362995E+03 0.  0.
         23    2    4    4    0    0  0.40095846290E+02  0.14069836574E+03  0.10549145825E+03  0.20217414102E+03  0.91335800878E+02 0.  0.
         23    2    4    4    0    0 -0.29640616884E+03 -0.44313246941E+03  0.52379421457E+03  0.75346082407E+03  0.95497810562E+02 0.  0.
          1    1    3    3  502    0  0.12752702288E+03  0.12677381840E+03  0.32433896440E+03  0.37085105693E+03  0.00000000000E+00 0. -1.
         -1    1    3    3    0  502  0.12878329967E+03  0.17566028527E+03  0.22446685392E+03  0.31277314879E+03  0.00000000000E+00 0.  1.
         13    1    5    5    0    0 -0.13151496714E+02  0.79751422079E+02  0.87784496950E+02  0.11932882759E+03  0.00000000000E+00 0. -1.
        -13    1    5    5    0    0  0.53247343004E+02  0.60946943662E+02  0.17706961297E+02  0.82845313429E+02  0.00000000000E+00 0.  1.
          5    1    6    6  503    0 -0.35644984048E+02 -0.85241029366E+02  0.50895750342E+02  0.10558913475E+03  0.47000000000E+01 0. -1.
         -5    1    6    6    0  503 -0.26076118479E+03 -0.35789144005E+03  0.47289846422E+03  0.64787168932E+03  0.47000000000E+01 0.  1.
<mgrwt>
<rscale>  0 0.54736976E+03</rscale>
<asrwt>0</asrwt>
<pdfrwt beam="1">  1        1 0.21671928E+00 0.54736976E+03</pdfrwt>
<pdfrwt beam="2">  1       -1 0.35474438E-01 0.54736976E+03</pdfrwt>
<totfact> 0.60320812E+01</totfact>
</mgrwt>
</event>
<event>
12    1  0.3127365E-008  0.4314251E+03  0.7818608E-02  0.1033411E+00
          2   -1    0    0  501    0  0.00000000000E+00  0.00000000000E+00  0.21497479890E+04  0.21497479890E+04  0.00000000000E+00 0. -1.
         -2   -1    0    0    0  501 -0.00000000000E+00 -0.00000000000E+00 -0.17191325920E+03  0.17191325920E+03  0.00000000000E+00 0.  1.
         23    2    1    2    0    0  0.38948728930E+03  0.32119509625E+02  0.31144555380E+03  0.50791907834E+03  0.90837468802E+02 0.  0.
    5000000    2    1    2    0    0 -0.38948728930E+03 -0.32119509625E+02  0.16663891760E+04  0.18137421698E+04  0.60006313116E+03 0.  0.
         23    2    4    4    0    0 -0.23080061428E+03  0.81969588703E+02  0.19568944345E+03  0.32674407953E+03  0.92083647891E+02 0.  0.
         23    2    4    4    0    0 -0.15868667502E+03 -0.11408909833E+03  0.14706997325E+04  0.14869980903E+04  0.10003916284E+03 0.  0.
          3    1    3    3  502    0  0.32136346652E+03 -0.81698330047E+01  0.26082270795E+03  0.41396824609E+03  0.00000000000E+00 0. -1.
         -3    1    3    3    0  502  0.68123822777E+02  0.40289342630E+02  0.50622845842E+02  0.93950832250E+02  0.00000000000E+00 0.  1.
         11    1    5    5    0    0 -0.22375723947E+03  0.73935012721E+02  0.20517318148E+03  0.31245755347E+03  0.00000000000E+00 0.  1.
        -11    1    5    5    0    0 -0.70433748075E+01  0.80345759829E+01 -0.94837380311E+01  0.14286526063E+02  0.00000000000E+00 0. -1.
          5    1    6    6  503    0 -0.40752042076E+01 -0.46799618682E+02  0.22265511156E+03  0.22760536088E+03  0.47000000000E+01 0. -1.
         -5    1    6    6    0  503 -0.15461147081E+03 -0.67289479647E+02  0.12480446210E+04  0.12593927294E+04  0.47000000000E+01 0.  1.
<mgrwt>
<rscale>  0 0.43142513E+03</rscale>
<asrwt>0</asrwt>
<pdfrwt beam="1">  1        2 0.33073044E+00 0.43142513E+03</pdfrwt>
<pdfrwt beam="2">  1       -2 0.26448195E-01 0.43142513E+03</pdfrwt>
<totfact> 0.77124424E+01</totfact>
</mgrwt>
</event>
<event>
12    1  0.3127365E-008  0.9622311E+03  0.7818608E-02  0.9350967E-01
          2   -1    0    0  501    0  0.00000000000E+00  0.00000000000E+00  0.13170429417E+04  0.13170429417E+04  0.00000000000E+00 0. -1.
         -2   -1    0    0    0  501 -0.00000000000E+00 -0.00000000000E+00 -0.11278352307E+04  0.11278352307E+04  0.00000000000E+00 0.  1.
         23    2    1    2    0    0 -0.21951831503E+03  0.90609464471E+03 -0.57412102273E+03  0.10987947610E+04  0.92407696115E+02 0.  0.
    5000000    2    1    2    0    0  0.21951831503E+03 -0.90609464471E+03  0.76332873366E+03  0.13460834114E+04  0.60006166269E+03 0.  0.
         23    2    4    4    0    0  0.25368087722E+03 -0.35468163079E+03  0.67067119912E+02  0.45242595772E+03  0.10019082772E+03 0.  0.
         23    2    4    4    0    0 -0.34162562194E+02 -0.55141301391E+03  0.69626161375E+03  0.89365745368E+03  0.92844047580E+02 0.  0.
          2    1    3    3  502    0 -0.12214793858E+03  0.65345019420E+03 -0.38088377387E+03  0.76615254643E+03  0.00000000000E+00 0. -1.
         -2    1    3    3    0  502 -0.97370376447E+02  0.25264445051E+03 -0.19323724885E+03  0.33264221459E+03  0.00000000000E+00 0.  1.
         11    1    5    5    0    0  0.68425382660E+02 -0.10697884790E+03  0.65980777941E+02  0.14310824556E+03  0.00000000000E+00 0. -1.
        -11    1    5    5    0    0  0.18525549456E+03 -0.24770278289E+03  0.10863419712E+01  0.30931771216E+03  0.00000000000E+00 0.  1.
          5    1    6    6  503    0 -0.49584936001E+01 -0.81420942543E+02  0.56823812419E+02  0.99523827303E+02  0.47000000000E+01 0. -1.
         -5    1    6    6    0  503 -0.29204068593E+02 -0.46999207137E+03  0.63943780133E+03  0.79413362638E+03  0.47000000000E+01 0.  1.
<mgrwt>
<rscale>  0 0.96223111E+03</rscale>
<asrwt>0</asrwt>
<pdfrwt beam="1">  1        2 0.20262199E+00 0.96223111E+03</pdfrwt>
<pdfrwt beam="2">  1       -2 0.17351311E+00 0.96223111E+03</pdfrwt>
<totfact> 0.32393988E+00</totfact>
</mgrwt>
</event>
<event>
12    1  0.3127365E-008  0.2157784E+04  0.7818608E-02  0.8536207E-01
         -1   -1    0    0    0  501 -0.00000000000E+00  0.00000000000E+00  0.29765382836E+04  0.29765382836E+04  0.00000000000E+00 0.  1.
          1   -1    0    0  501    0  0.00000000000E+00 -0.00000000000E+00 -0.16168018894E+04  0.16168018894E+04  0.00000000000E+00 0. -1.
         23    2    1    2    0    0  0.44999741343E+03 -0.20997908653E+04  0.52477735875E+03  0.22124697266E+04  0.89507903388E+02 0.  0.
    5000000    2    1    2    0    0 -0.44999741343E+03  0.20997908653E+04  0.83495903541E+03  0.23808704465E+04  0.59980675400E+03 0.  0.
         23    2    4    4    0    0 -0.28334460310E+03  0.17182867288E+04  0.43658514643E+03  0.17976183222E+04  0.89619171761E+02 0.  0.
         23    2    4    4    0    0 -0.16665281033E+03  0.38150413649E+03  0.39837388898E+03  0.58325212425E+03  0.90347770684E+02 0.  0.
          3    1    3    3  502    0  0.15622277305E+03 -0.92129538059E+03  0.24730851093E+03  0.96661896976E+03  0.00000000000E+00 0. -1.
         -3    1    3    3    0  502  0.29377464038E+03 -0.11784954847E+04  0.27746884782E+03  0.12458507568E+04  0.00000000000E+00 0.  1.
         11    1    5    5    0    0 -0.20502249257E+03  0.12975393983E+04  0.29028592744E+03  0.13453284477E+04  0.00000000000E+00 0. -1.
        -11    1    5    5    0    0 -0.78322110531E+02  0.42074733047E+03  0.14629921899E+03  0.45228987450E+03  0.00000000000E+00 0.  1.
          5    1    6    6  503    0 -0.60044232893E+00 -0.33311229661E+01  0.11350700485E+02  0.12743049584E+02  0.47000000000E+01 0. -1.
         -5    1    6    6    0  503 -0.16605236800E+03  0.38483525946E+03  0.38702318850E+03  0.57050907467E+03  0.47000000000E+01 0.  1.
<mgrwt>
<rscale>  0 0.21577845E+04</rscale>
<asrwt>0</asrwt>
<pdfrwt beam="1">  1        1 0.24873875E+00 0.21577845E+04</pdfrwt>
<pdfrwt beam="2">  1       -1 0.45792897E+00 0.21577845E+04</pdfrwt>
<totfact> 0.13561606E-02</totfact>
</mgrwt>
</event>
<event>
12    1  0.3127365E-008  0.7041736E+03  0.7818608E-02  0.9710121E-01
          1   -1    0    0  501    0  0.00000000000E+00  0.00000000000E+00  0.26993949692E+04  0.26993949692E+04  0.00000000000E+00 0. -1.
         -1   -1    0    0    0  501 -0.00000000000E+00 -0.00000000000E+00 -0.28087304642E+03  0.28087304642E+03  0.00000000000E+00 0.  1.
         23    2    1    2    0    0 -0.40992474079E+03  0.43006145926E+03  0.24634294692E+03  0.64968845364E+03  0.91755585376E+02 0.  0.
    5000000    2    1    2    0    0  0.40992474079E+03 -0.43006145926E+03  0.21721789759E+04  0.23305795620E+04  0.60020699740E+03 0.  0.
         23    2    4    4    0    0  0.46505322355E+03 -0.10271326220E+03  0.14855054567E+04  0.15626787970E+04  0.91728108437E+02 0.  0.
         23    2    4    4    0    0 -0.55128482760E+02 -0.32734819706E+03  0.68667351918E+03  0.76790076496E+03  0.89191205602E+02 0.  0.
          1    1    3    3  502    0 -0.10477050224E+03  0.86902945651E+02  0.19528173162E+02  0.13751483429E+03  0.00000000000E+00 0. -1.
         -1    1    3    3    0  502 -0.30515423855E+03  0.34315851360E+03  0.22681477375E+03  0.51217361935E+03  0.00000000000E+00 0.  1.
         13    1    5    5    0    0  0.61847897949E+02  0.11785361073E+01  0.29628020552E+03  0.30266898026E+03  0.00000000000E+00 0. -1.
        -13    1    5    5    0    0  0.40320532560E+03 -0.10389179831E+03  0.11892252512E+04  0.12600098168E+04  0.00000000000E+00 0.  1.
          5    1    6    6  503    0  0.66582472227E+01 -0.35173944287E+02  0.14408532447E+03  0.14854026169E+03  0.47000000000E+01 0. -1.
         -5    1    6    6    0  503 -0.61786729982E+02 -0.29217425277E+03  0.54258819471E+03  0.61936050328E+03  0.47000000000E+01 0.  1.
<mgrwt>
<rscale>  0 0.70417360E+03</rscale>
<asrwt>0</asrwt>
<pdfrwt beam="1">  1        1 0.41529152E+00 0.70417360E+03</pdfrwt>
<pdfrwt beam="2">  1       -1 0.43211240E-01 0.70417360E+03</pdfrwt>
<totfact> 0.55551438E+00</totfact>
</mgrwt>
</event>
<event>
12    1  0.3127365E-008  0.6584325E+03  0.7818608E-02  0.9791084E-01
         -2   -1    0    0    0  501 -0.00000000000E+00  0.00000000000E+00  0.13498197656E+03  0.13498197656E+03  0.00000000000E+00 0.  1.
          2   -1    0    0  501    0  0.00000000000E+00 -0.00000000000E+00 -0.35651502067E+04  0.35651502067E+04  0.00000000000E+00 0. -1.
         23    2    1    2    0    0 -0.36311994324E+03  0.40915666046E+03 -0.17155390533E+04  0.18029394572E+04  0.90835989965E+02 0.  0.
    5000000    2    1    2    0    0  0.36311994324E+03 -0.40915666046E+03 -0.17146291768E+04  0.18971927260E+04  0.60010145777E+03 0.  0.
         23    2    4    4    0    0  0.41463850222E+03 -0.93454897039E+02 -0.65055545416E+03  0.78241851248E+03  0.91090199442E+02 0.  0.
         23    2    4    4    0    0 -0.51518558982E+02 -0.31570176342E+03 -0.10640737227E+04  0.11147742135E+04  0.90260149147E+02 0.  0.
          2    1    3    3  502    0 -0.84880452663E+02  0.15518727507E+03 -0.59808706740E+03  0.62369537579E+03  0.00000000000E+00 0. -1.
         -2    1    3    3    0  502 -0.27823949058E+03  0.25396938539E+03 -0.11174519859E+04  0.11792440815E+04  0.00000000000E+00 0.  1.
         11    1    5    5    0    0  0.22512113224E+03 -0.12957852235E+02 -0.29181204403E+03  0.36878408203E+03  0.00000000000E+00 0. -1.
        -11    1    5    5    0    0  0.18951736998E+03 -0.80497044804E+02 -0.35874341013E+03  0.41363443046E+03  0.00000000000E+00 0.  1.
          5    1    6    6  503    0  0.24740047609E+02 -0.62394921953E+02 -0.19199236111E+03  0.20344127646E+03  0.47000000000E+01 0. -1.
         -5    1    6    6    0  503 -0.76258606591E+02 -0.25330684146E+03 -0.87208136154E+03  0.91133293705E+03  0.47000000000E+01 0.  1.
<mgrwt>
<rscale>  0 0.65843247E+03</rscale>
<asrwt>0</asrwt>
<pdfrwt beam="1">  1        2 0.54848458E+00 0.65843247E+03</pdfrwt>
<pdfrwt beam="2">  1       -2 0.20766460E-01 0.65843247E+03</pdfrwt>
<totfact> 0.16063148E+01</totfact>
</mgrwt>
</event>
<event>
12    1  0.3127365E-008  0.2155509E+04  0.7818608E-02  0.8537178E-01
         -1   -1    0    0    0  501 -0.00000000000E+00  0.00000000000E+00  0.35490453879E+04  0.35490453879E+04  0.00000000000E+00 0.  1.
          1   -1    0    0  501    0  0.00000000000E+00 -0.00000000000E+00 -0.24576343313E+04  0.24576343313E+04  0.00000000000E+00 0. -1.
         23    2    1    2    0    0 -0.20697267898E+04  0.50670721478E+03  0.25736975279E+04  0.33425505528E+04  0.90576195058E+02 0.  0.
    5000000    2    1    2    0    0  0.20697267898E+04 -0.50670721478E+03 -0.14822864714E+04  0.26641291664E+04  0.59990819801E+03 0.  0.
         23    2    4    4    0    0  0.14937604554E+04 -0.16260130358E+03 -0.80662246405E+03  0.17076972736E+04  0.88491222762E+02 0.  0.
         23    2    4    4    0    0  0.57596633435E+03 -0.34410591120E+03 -0.67566400730E+03  0.95643189279E+03  0.89966762512E+02 0.  0.
          3    1    3    3  502    0 -0.53314915408E+03  0.16736929768E+03  0.70203845753E+03  0.89728395625E+03  0.00000000000E+00 0. -1.
         -3    1    3    3    0  502 -0.15365776357E+04  0.33933791710E+03  0.18716590704E+04  0.24452665966E+04  0.00000000000E+00 0.  1.
         13    1    5    5    0    0  0.87066789895E+03 -0.82875885126E+02 -0.42156843093E+03  0.97090212924E+03  0.00000000000E+00 0. -1.
        -13    1    5    5    0    0  0.62309255649E+03 -0.79725418452E+02 -0.38505403312E+03  0.73679514434E+03  0.00000000000E+00 0.  1.
          5    1    6    6  503    0  0.12007417397E+03 -0.11187982604E+03 -0.14136477090E+03  0.21665869745E+03  0.47000000000E+01 0. -1.
         -5    1    6    6    0  503  0.45589216038E+03 -0.23222608516E+03 -0.53429923640E+03  0.73977319534E+03  0.47000000000E+01 0.  1.
<mgrwt>
<rscale>  0 0.21555092E+04</rscale>
<asrwt>0</asrwt>
<pdfrwt beam="1">  1        1 0.37809759E+00 0.21555092E+04</pdfrwt>
<pdfrwt beam="2">  1       -1 0.54600699E+00 0.21555092E+04</pdfrwt>
<totfact> 0.97271214E-04</totfact>
</mgrwt>
</event>
<event>
12    1  0.3127365E-008  0.9553603E+03  0.7818608E-02  0.9358907E-01
         -2   -1    0    0    0  501 -0.00000000000E+00  0.00000000000E+00  0.13926097568E+04  0.13926097568E+04  0.00000000000E+00 0.  1.
          2   -1    0    0  501    0  0.00000000000E+00 -0.00000000000E+00 -0.18872896781E+04  0.18872896781E+04  0.00000000000E+00 0. -1.
         23    2    1    2    0    0 -0.49920558196E+02  0.89691609446E+03 -0.15349304353E+04  0.17807722661E+04  0.90486906207E+02 0.  0.
    5000000    2    1    2    0    0  0.49920558196E+02 -0.89691609446E+03  0.10402505139E+04  0.14991271687E+04  0.59859050589E+03 0.  0.
         23    2    4    4    0    0  0.12584634650E+03 -0.88766328840E+03  0.10443486366E+04  0.13792488417E+04  0.88768665480E+02 0.  0.
         23    2    4    4    0    0 -0.75925788299E+02 -0.92528060565E+01 -0.40981227164E+01  0.11987832706E+03  0.92215394263E+02 0.  0.
          1    1    3    3  502    0 -0.46517313050E+02  0.54207259573E+03 -0.10086967646E+04  0.11460696848E+04  0.00000000000E+00 0. -1.
         -1    1    3    3    0  502 -0.34032451465E+01  0.35484349873E+03 -0.52623367061E+03  0.63470258133E+03  0.00000000000E+00 0.  1.
         11    1    5    5    0    0  0.32095373477E+02 -0.52249638284E+03  0.62812061369E+03  0.81766013014E+03  0.00000000000E+00 0.  1.
        -11    1    5    5    0    0  0.93750973018E+02 -0.36516690556E+03  0.41622802294E+03  0.56158871155E+03  0.00000000000E+00 0. -1.
          5    1    6    6  503    0  0.12111700903E+02  0.15022842616E+02 -0.18695979035E+02  0.27276523442E+02  0.47000000000E+01 0. -1.
         -5    1    6    6    0  503 -0.88037489201E+02 -0.24275648673E+02  0.14597856318E+02  0.92601803613E+02  0.47000000000E+01 0.  1.
<mgrwt>
<rscale>  0 0.95536026E+03</rscale>
<asrwt>0</asrwt>
<pdfrwt beam="1">  1        2 0.29035226E+00 0.95536026E+03</pdfrwt>
<pdfrwt beam="2">  1       -2 0.21424766E+00 0.95536026E+03</pdfrwt>
<totfact> 0.83427821E-01</totfact>
</mgrwt>
</event>
<event>
12    1  0.3127365E-008  0.4505412E+03  0.7818608E-02  0.1027561E+00
          1   -1    0    0  501    0  0.00000000000E+00  0.00000000000E+00  0.36679400225E+03  0.36679400225E+03  0.00000000000E+00 0. -1.
         -1   -1    0    0    0  501 -0.00000000000E+00 -0.00000000000E+00 -0.57822333487E+03  0.57822333487E+03  0.00000000000E+00 0.  1.
         23    2    1    2    0    0 -0.18716433748E+03 -0.15938846802E+03 -0.11818735393E+02  0.26658329330E+03  0.10242947230E+03 0.  0.
    5000000    2    1    2    0    0  0.18716433748E+03  0.15938846802E+03 -0.19961059722E+03  0.67843404382E+03  0.59999432358E+03 0.  0.
         23    2    4    4    0    0 -0.49550881234E+02 -0.18937555160E+03 -0.64946904646E+02  0.22669740970E+03  0.94102209159E+02 0.  0.
         23    2    4    4    0    0  0.23671521872E+03  0.34876401962E+03 -0.13466369257E+03  0.45173663412E+03  0.90891365675E+02 0.  0.
          2    1    3    3  502    0 -0.56534298814E+02  0.18890661099E+01  0.11532352046E+02  0.57729460910E+02  0.00000000000E+00 0. -1.
         -2    1    3    3    0  502 -0.13063003867E+03 -0.16127753413E+03 -0.23351087439E+02  0.20885383239E+03  0.00000000000E+00 0.  1.
         13    1    5    5    0    0  0.22348977948E+02 -0.60594303189E+02  0.22383140156E+01  0.64623188129E+02  0.00000000000E+00 0.  1.
        -13    1    5    5    0    0 -0.71899859182E+02 -0.12878124841E+03 -0.67185218662E+02  0.16207422157E+03  0.00000000000E+00 0. -1.
          5    1    6    6  503    0  0.74626738400E+02  0.70159388495E+02 -0.66611136621E+02  0.12227274185E+03  0.47000000000E+01 0. -1.
         -5    1    6    6    0  503  0.16208848031E+03  0.27860463113E+03 -0.68052555951E+02  0.32946389227E+03  0.47000000000E+01 0.  1.
<mgrwt>
<rscale>  0 0.45054118E+03</rscale>
<asrwt>0</asrwt>
<pdfrwt beam="1">  1        1 0.56429846E-01 0.45054118E+03</pdfrwt>
<pdfrwt beam="2">  1       -1 0.88957437E-01 0.45054118E+03</pdfrwt>
<totfact> 0.87112431E+01</totfact>
</mgrwt>
</event>
<event>
12    1  0.3127365E-008  0.4846606E+03  0.7818608E-02  0.1017862E+00
          2   -1    0    0  501    0  0.00000000000E+00  0.00000000000E+00  0.75670863868E+03  0.75670863868E+03  0.00000000000E+00 0. -1.
         -2   -1    0    0    0  501 -0.00000000000E+00 -0.00000000000E+00 -0.51428013785E+03  0.51428013785E+03  0.00000000000E+00 0.  1.
         23    2    1    2    0    0 -0.14054417225E+03  0.44866660905E+03  0.15541283782E+03  0.50381222936E+03  0.92839764453E+02 0.  0.
    5000000    2    1    2    0    0  0.14054417225E+03 -0.44866660905E+03  0.87015663008E+02  0.76717654717E+03  0.59994477954E+03 0.  0.
         23    2    4    4    0    0  0.15916786709E+03 -0.24889565105E+03  0.32115192712E+03  0.44556204625E+03  0.90019563120E+02 0.  0.
         23    2    4    4    0    0 -0.18623694838E+02 -0.19977095800E+03 -0.23413626411E+03  0.32161450092E+03  0.91437516174E+02 0.  0.
          1    1    3    3  502    0 -0.35657702196E+02  0.10773001271E+03 -0.29893262096E+01  0.11351723850E+03  0.00000000000E+00 0. -1.
         -1    1    3    3    0  502 -0.10488647005E+03  0.34093659633E+03  0.15840216403E+03  0.39029499086E+03  0.00000000000E+00 0.  1.
         13    1    5    5    0    0  0.94325413900E+02 -0.12561137074E+03  0.23200401709E+03  0.28018094888E+03  0.00000000000E+00 0. -1.
        -13    1    5    5    0    0  0.64842453187E+02 -0.12328428031E+03  0.89147910024E+02  0.16538109738E+03  0.00000000000E+00 0.  1.
          5    1    6    6  503    0 -0.11860013331E+01 -0.43807747742E+01 -0.56664446746E+02  0.57039874753E+02  0.47000000000E+01 0. -1.
         -5    1    6    6    0  503 -0.17437693505E+02 -0.19539018322E+03 -0.17747181736E+03  0.26457462617E+03  0.47000000000E+01 0.  1.
<mgrwt>
<rscale>  0 0.48466060E+03</rscale>
<asrwt>0</asrwt>
<pdfrwt beam="1">  1        2 0.11641671E+00 0.48466060E+03</pdfrwt>
<pdfrwt beam="2">  1       -2 0.79120021E-01 0.48466060E+03</pdfrwt>
<totfact> 0.54563270E+01</totfact>
</mgrwt>
</event>
<event>
12    1  0.3127365E-008  0.5049855E+03  0.7818608E-02  0.1012486E+00
         -2   -1    0    0    0  501 -0.00000000000E+00  0.00000000000E+00  0.22466966112E+03  0.22466966112E+03  0.00000000000E+00 0.  1.
          2   -1    0    0  501    0  0.00000000000E+00 -0.00000000000E+00 -0.22516908138E+04  0.22516908138E+04  0.00000000000E+00 0. -1.
         23    2    1    2    0    0  0.33159046736E+03 -0.25415902372E+03 -0.13589242873E+03  0.44879551600E+03  0.91660327351E+02 0.  0.
    5000000    2    1    2    0    0 -0.33159046736E+03  0.25415902372E+03 -0.18911287239E+04  0.20275649589E+04  0.60008563110E+03 0.  0.
         23    2    4    4    0    0  0.42486687362E+02  0.19785885105E+03 -0.22256646046E+03  0.31432554555E+03  0.91167295231E+02 0.  0.
         23    2    4    4    0    0 -0.37407715472E+03  0.56300172673E+02 -0.16685622635E+04  0.17132394133E+04  0.89363489331E+02 0.  0.
          1    1    3    3  502    0  0.27777041339E+02 -0.44010019842E+02  0.73993604523E+01  0.52566114629E+02  0.00000000000E+00 0. -1.
         -1    1    3    3    0  502  0.30381342602E+03 -0.21014900388E+03 -0.14329178918E+03  0.39622940137E+03  0.00000000000E+00 0.  1.
         13    1    5    5    0    0  0.29226909413E+02  0.18389336696E+03 -0.14958011977E+03  0.23884135922E+03  0.00000000000E+00 0. -1.
        -13    1    5    5    0    0  0.13259777950E+02  0.13965484089E+02 -0.72986340694E+02  0.75484186324E+02  0.00000000000E+00 0.  1.
          5    1    6    6  503    0 -0.83025501393E+02 -0.12113660663E+02 -0.25836940207E+03  0.27169249637E+03  0.47000000000E+01 0. -1.
         -5    1    6    6    0  503 -0.29105165333E+03  0.68413833336E+02 -0.14101928614E+04  0.14415469170E+04  0.47000000000E+01 0.  1.
<mgrwt>
<rscale>  0 0.50498548E+03</rscale>
<asrwt>0</asrwt>
<pdfrwt beam="1">  1        2 0.34641395E+00 0.50498548E+03</pdfrwt>
<pdfrwt beam="2">  1       -2 0.34564565E-01 0.50498548E+03</pdfrwt>
<totfact> 0.40836534E+01</totfact>
</mgrwt>
</event>
<event>
12    1  0.3127365E-008  0.6437474E+03  0.7818608E-02  0.9818583E-01
         -1   -1    0    0    0  501 -0.00000000000E+00  0.00000000000E+00  0.60751615201E+03  0.60751615201E+03  0.00000000000E+00 0.  1.
          1   -1    0    0  501    0  0.00000000000E+00 -0.00000000000E+00 -0.13048444959E+04  0.13048444959E+04  0.00000000000E+00 0. -1.
         23    2    1    2    0    0 -0.42490778754E+03  0.41194245484E+03 -0.86600531891E+03  0.10529152288E+04  0.91771742404E+02 0.  0.
    5000000    2    1    2    0    0  0.42490778754E+03 -0.41194245484E+03  0.16867697502E+03  0.85944541908E+03  0.59995940902E+03 0.  0.
         23    2    4    4    0    0  0.76743450458E+02  0.42798820916E+02  0.24511158808E+03  0.27448855863E+03  0.86850342263E+02 0.  0.
         23    2    4    4    0    0  0.34816433708E+03 -0.45474127576E+03 -0.76434613062E+02  0.58495686045E+03  0.91237300609E+02 0.  0.
          3    1    3    3  502    0 -0.23705107526E+03  0.18846508617E+03 -0.37933432938E+03  0.48539348413E+03  0.00000000000E+00 0. -1.
         -3    1    3    3    0  502 -0.18785671227E+03  0.22347736867E+03 -0.48667098952E+03  0.56752174469E+03  0.00000000000E+00 0.  1.
         13    1    5    5    0    0  0.40679416281E+02  0.60753109807E+02  0.20495945535E+03  0.21761004940E+03  0.00000000000E+00 0. -1.
        -13    1    5    5    0    0  0.36064034177E+02 -0.17954288891E+02  0.40152132726E+02  0.56878509238E+02  0.00000000000E+00 0.  1.
          5    1    6    6  503    0  0.21030542899E+02 -0.75162210291E+02 -0.19729906542E+02  0.80641185524E+02  0.47000000000E+01 0. -1.
         -5    1    6    6    0  503  0.32713379418E+03 -0.37957906546E+03 -0.56704706520E+02  0.50431567493E+03  0.47000000000E+01 0.  1.
<mgrwt>
<rscale>  0 0.64374742E+03</rscale>
<asrwt>0</asrwt>
<pdfrwt beam="1">  1        1 0.20074531E+00 0.64374742E+03</pdfrwt>
<pdfrwt beam="2">  1       -1 0.93464024E-01 0.64374742E+03</pdfrwt>
<totfact> 0.10495628E+01</totfact>
</mgrwt>
</event>
<event>
12    1  0.3127365E-008  0.1005545E+04  0.7818608E-02  0.9302484E-01
         -2   -1    0    0    0  501 -0.00000000000E+00  0.00000000000E+00  0.50401250285E+03  0.50401250285E+03  0.00000000000E+00 0.  1.
          2   -1    0    0  501    0  0.00000000000E+00 -0.00000000000E+00 -0.24651059897E+04  0.24651059897E+04  0.00000000000E+00 0. -1.
         23    2    1    2    0    0  0.59501409212E+03  0.70586436883E+03 -0.15241385381E+04  0.17845571387E+04  0.96745133635E+02 0.  0.
    5000000    2    1    2    0    0 -0.59501409212E+03 -0.70586436883E+03 -0.43695494875E+03  0.11845613539E+04  0.59997474685E+03 0.  0.
         23    2    4    4    0    0 -0.37777954264E+03 -0.76682535815E+03 -0.34628831340E+03  0.92682214507E+03  0.91351955970E+02 0.  0.
         23    2    4    4    0    0 -0.21723454948E+03  0.60960989321E+02 -0.90666635349E+02  0.25773920881E+03  0.85451561028E+02 0.  0.
          2    1    3    3  502    0  0.64998717134E+02  0.11674183930E+03 -0.26549332294E+03  0.29722078460E+03  0.00000000000E+00 0. -1.
         -2    1    3    3    0  502  0.53001537499E+03  0.58912252953E+03 -0.12586452152E+04  0.14873363541E+04  0.00000000000E+00 0.  1.
         13    1    5    5    0    0 -0.36282457802E+03 -0.76096278306E+03 -0.33483749795E+03  0.90709546446E+03  0.00000000000E+00 0.  1.
        -13    1    5    5    0    0 -0.14954964619E+02 -0.58625750935E+01 -0.11450815445E+02  0.19726680609E+02  0.00000000000E+00 0. -1.
          5    1    6    6  503    0 -0.10313015065E+03  0.25429789266E+02  0.21550676982E+01  0.10634489396E+03  0.47000000000E+01 0. -1.
         -5    1    6    6    0  503 -0.11410439884E+03  0.35531200055E+02 -0.92821703047E+02  0.15139431485E+03  0.47000000000E+01 0.  1.
<mgrwt>
<rscale>  0 0.10055453E+04</rscale>
<asrwt>0</asrwt>
<pdfrwt beam="1">  1        2 0.37924707E+00 0.10055453E+04</pdfrwt>
<pdfrwt beam="2">  1       -2 0.77540386E-01 0.10055453E+04</pdfrwt>
<totfact> 0.54559954E+00</totfact>
</mgrwt>
</event>
<event>
12    1  0.3127365E-008  0.5647013E+03  0.7818608E-02  0.9981473E-01
          2   -1    0    0  501    0  0.00000000000E+00  0.00000000000E+00  0.13465400519E+04  0.13465400519E+04  0.00000000000E+00 0. -1.
         -2   -1    0    0    0  501 -0.00000000000E+00 -0.00000000000E+00 -0.29736730856E+03  0.29736730856E+03  0.00000000000E+00 0.  1.
         23    2    1    2    0    0  0.39670898620E+03  0.26905514792E+03  0.51020773532E+03  0.70572878050E+03  0.89288779162E+02 0.  0.
    5000000    2    1    2    0    0 -0.39670898620E+03 -0.26905514792E+03  0.53896500807E+03  0.93817858001E+03  0.59993922667E+03 0.  0.
         23    2    4    4    0    0 -0.42182113553E+03 -0.56670492661E+02  0.55520659905E+03  0.70556936904E+03  0.91810412183E+02 0.  0.
         23    2    4    4    0    0  0.25112149323E+02 -0.21238465526E+03 -0.16241590979E+02  0.23260921096E+03  0.90029961194E+02 0.  0.
          3    1    3    3  502    0  0.24646819481E+03  0.14162691620E+03  0.35589012654E+03  0.45548055570E+03  0.00000000000E+00 0. -1.
         -3    1    3    3    0  502  0.15024079139E+03  0.12742823172E+03  0.15431760877E+03  0.25024822480E+03  0.00000000000E+00 0.  1.
         11    1    5    5    0    0 -0.16307175638E+03 -0.59010309626E+02  0.18159727066E+03  0.25110193764E+03  0.00000000000E+00 0. -1.
        -11    1    5    5    0    0 -0.25874937914E+03  0.23398169644E+01  0.37360932839E+03  0.45446743141E+03  0.00000000000E+00 0.  1.
          5    1    6    6  503    0 -0.25922571666E+01 -0.98900720622E+02  0.34881641271E+02  0.10500900549E+03  0.47000000000E+01 0. -1.
         -5    1    6    6    0  503  0.27704406490E+02 -0.11348393464E+03 -0.51123232250E+02  0.12760020547E+03  0.47000000000E+01 0.  1.
<mgrwt>
<rscale>  0 0.56470135E+03</rscale>
<asrwt>0</asrwt>
<pdfrwt beam="1">  1        2 0.20716000E+00 0.56470135E+03</pdfrwt>
<pdfrwt beam="2">  1       -2 0.45748817E-01 0.56470135E+03</pdfrwt>
<totfact> 0.73077979E+01</totfact>
</mgrwt>
</event>
<event>
12    1  0.3127365E-008  0.7085023E+03  0.7818608E-02  0.9702802E-01
         -2   -1    0    0    0  501 -0.00000000000E+00  0.00000000000E+00  0.46581440858E+03  0.46581440858E+03  0.00000000000E+00 0.  1.
          2   -1    0    0  501    0  0.00000000000E+00 -0.00000000000E+00 -0.11353000387E+04  0.11353000387E+04  0.00000000000E+00 0. -1.
         23    2    1    2    0    0  0.18852875164E+03  0.55540246494E+03 -0.14713647763E+03  0.61234630098E+03  0.96456523926E+02 0.  0.
    5000000    2    1    2    0    0 -0.18852875164E+03 -0.55540246494E+03 -0.52234915247E+03  0.98876814628E+03  0.60066531592E+03 0.  0.
         23    2    4    4    0    0  0.20251645791E+03 -0.22661828579E+03 -0.15120615750E+03  0.35028936844E+03  0.86432496230E+02 0.  0.
         23    2    4    4    0    0 -0.39104520955E+03 -0.32878417916E+03 -0.37114299497E+03  0.63847877783E+03  0.94300766973E+02 0.  0.
          1    1    3    3  502    0  0.79235083023E+02  0.12905758302E+03 -0.64119220098E+02  0.16445465181E+03  0.00000000000E+00 0. -1.
         -1    1    3    3    0  502  0.10929366862E+03  0.42634488192E+03 -0.83017257535E+02  0.44789164916E+03  0.00000000000E+00 0.  1.
         11    1    5    5    0    0  0.10942700259E+03 -0.80670583938E+02 -0.10310033399E+03  0.17062148422E+03  0.00000000000E+00 0. -1.
        -11    1    5    5    0    0  0.93089455314E+02 -0.14594770185E+03 -0.48105823505E+02  0.17966788422E+03  0.00000000000E+00 0.  1.
          5    1    6    6  503    0 -0.12132687286E+03 -0.59489076963E+02 -0.67333063412E+02  0.15104632331E+03  0.47000000000E+01 0. -1.
         -5    1    6    6    0  503 -0.26971833669E+03 -0.26929510220E+03 -0.30380993156E+03  0.48743245453E+03  0.47000000000E+01 0.  1.
<mgrwt>
<rscale>  0 0.70850229E+03</rscale>
<asrwt>0</asrwt>
<pdfrwt beam="1">  1        2 0.17466154E+00 0.70850229E+03</pdfrwt>
<pdfrwt beam="2">  1       -2 0.71663756E-01 0.70850229E+03</pdfrwt>
<totfact> 0.37388807E+01</totfact>
</mgrwt>
</event>
<event>
12    1  0.3127365E-008  0.5294023E+03  0.7818608E-02  0.1006377E+00
          2   -1    0    0  501    0  0.00000000000E+00  0.00000000000E+00  0.17184288199E+04  0.17184288199E+04  0.00000000000E+00 0. -1.
         -2   -1    0    0    0  501 -0.00000000000E+00 -0.00000000000E+00 -0.21226927460E+03  0.21226927460E+03  0.00000000000E+00 0.  1.
         23    2    1    2    0    0 -0.36957823780E+03  0.24057704215E+03  0.43431861074E+03  0.62554375961E+03  0.90592231923E+02 0.  0.
    5000000    2    1    2    0    0  0.36957823780E+03 -0.24057704215E+03  0.10718409345E+04  0.13051543349E+04  0.60009954326E+03 0.  0.
         23    2    4    4    0    0  0.45916013181E+03 -0.18896179782E+03  0.10517371847E+04  0.11669031178E+04  0.94748049940E+02 0.  0.
         23    2    4    4    0    0 -0.89581894012E+02 -0.51615244330E+02  0.20103749888E+02  0.13825121712E+03  0.89555508449E+02 0.  0.
          1    1    3    3  502    0 -0.16706556633E+03  0.14641547351E+03  0.26173160651E+03  0.34329554059E+03  0.00000000000E+00 0. -1.
         -1    1    3    3    0  502 -0.20251267147E+03  0.94161568631E+02  0.17258700422E+03  0.28224821902E+03  0.00000000000E+00 0.  1.
         13    1    5    5    0    0  0.32739763328E+03 -0.10157864803E+03  0.78923502992E+03  0.86046462127E+03  0.00000000000E+00 0.  1.
        -13    1    5    5    0    0  0.13176249853E+03 -0.87383149787E+02  0.26250215473E+03  0.30643849648E+03  0.00000000000E+00 0. -1.
          5    1    6    6  503    0 -0.13090296545E+02 -0.29580103246E+02 -0.29758617561E+02  0.44204113958E+02  0.47000000000E+01 0. -1.
         -5    1    6    6    0  503 -0.76491597466E+02 -0.22035141084E+02  0.49862367448E+02  0.94047103162E+02  0.47000000000E+01 0.  1.
<mgrwt>
<rscale>  0 0.52940225E+03</rscale>
<asrwt>0</asrwt>
<pdfrwt beam="1">  1        2 0.26437366E+00 0.52940225E+03</pdfrwt>
<pdfrwt beam="2">  1       -2 0.32656813E-01 0.52940225E+03</pdfrwt>
<totfact> 0.87846881E+01</totfact>
</mgrwt>
</event>
<event>
12    1  0.3127365E-008  0.8890151E+03  0.7818608E-02  0.9439418E-01
         -1   -1    0    0    0  501 -0.00000000000E+00  0.00000000000E+00  0.82508674574E+03  0.82508674574E+03  0.00000000000E+00 0.  1.
          1   -1    0    0  501    0  0.00000000000E+00 -0.00000000000E+00 -0.10646568623E+04  0.10646568623E+04  0.00000000000E+00 0. -1.
         23    2    1    2    0    0  0.18414736190E+03 -0.81793180294E+03 -0.10314493333E+03  0.84979865296E+03  0.92715630514E+02 0.  0.
    5000000    2    1    2    0    0 -0.18414736190E+03  0.81793180294E+03 -0.13642518320E+03  0.10399449551E+04  0.59995916009E+03 0.  0.
         23    2    4    4    0    0  0.11961044452E+03  0.12160216801E+03 -0.19212782623E+03  0.27283764301E+03  0.91834264447E+02 0.  0.
         23    2    4    4    0    0 -0.30375780642E+03  0.69632963493E+03  0.55702643026E+02  0.76710731205E+03  0.90592926443E+02 0.  0.
          2    1    3    3  502    0  0.93760275470E+02 -0.47742957372E+03 -0.15646268735E+02  0.48680056784E+03  0.00000000000E+00 0. -1.
         -2    1    3    3    0  502  0.90387086429E+02 -0.34050222922E+03 -0.87498664594E+02  0.36299808512E+03  0.00000000000E+00 0.  1.
         11    1    5    5    0    0  0.91249343183E+02  0.53803547105E+02 -0.60252927728E+02  0.12186746741E+03  0.00000000000E+00 0.  1.
        -11    1    5    5    0    0  0.28361101336E+02  0.67798620908E+02 -0.13187489850E+03  0.15097017560E+03  0.00000000000E+00 0. -1.
          5    1    6    6  503    0 -0.19573789393E+03  0.44696686915E+03 -0.76380918234E+01  0.48802985122E+03  0.47000000000E+01 0. -1.
         -5    1    6    6    0  503 -0.10801991249E+03  0.24936276578E+03  0.63340734850E+02  0.27907746082E+03  0.47000000000E+01 0.  1.
<mgrwt>
<rscale>  0 0.88901513E+03</rscale>
<asrwt>0</asrwt>
<pdfrwt beam="1">  1        1 0.16379336E+00 0.88901513E+03</pdfrwt>
<pdfrwt beam="2">  1       -1 0.12693642E+00 0.88901513E+03</pdfrwt>
<totfact> 0.73759718E+00</totfact>
</mgrwt>
</event>
<event>
12    1  0.3127365E-008  0.1574939E+04  0.7818608E-02  0.8836094E-01
          2   -1    0    0  501    0  0.00000000000E+00  0.00000000000E+00  0.19463955164E+04  0.19463955164E+04  0.00000000000E+00 0. -1.
         -2   -1    0    0    0  501 -0.00000000000E+00 -0.00000000000E+00 -0.18290317636E+04  0.18290317636E+04  0.00000000000E+00 0.  1.
         23    2    1    2    0    0  0.15512613351E+04  0.22069141503E+03 -0.90398645898E+03  0.18111461576E+04  0.89120455502E+02 0.  0.
    5000000    2    1    2    0    0 -0.15512613351E+04 -0.22069141503E+03  0.10213502117E+04  0.19642811224E+04  0.60010635926E+03 0.  0.
         23    2    4    4    0    0 -0.82095640270E+03 -0.19298332652E+03  0.22068714919E+03  0.87649061508E+03  0.91219521220E+02 0.  0.
         23    2    4    4    0    0 -0.73030493242E+03 -0.27708088512E+02  0.80066306251E+03  0.10877905073E+04  0.90076721174E+02 0.  0.
          2    1    3    3  502    0  0.69629588074E+03  0.63514430403E+02 -0.43408063786E+03  0.82297511297E+03  0.00000000000E+00 0. -1.
         -2    1    3    3    0  502  0.85496545438E+03  0.15717698463E+03 -0.46990582112E+03  0.98817104461E+03  0.00000000000E+00 0.  1.
         13    1    5    5    0    0 -0.52396081929E+03 -0.93940087337E+02  0.10401606907E+03  0.54238272722E+03  0.00000000000E+00 0.  1.
        -13    1    5    5    0    0 -0.29699558341E+03 -0.99043239183E+02  0.11667108012E+03  0.33410788786E+03  0.00000000000E+00 0. -1.
          5    1    6    6  503    0 -0.45371128278E+03  0.24889447434E+02  0.51062230730E+03  0.68354271515E+03  0.47000000000E+01 0. -1.
         -5    1    6    6    0  503 -0.27659364964E+03 -0.52597535946E+02  0.29004075521E+03  0.40424779220E+03  0.47000000000E+01 0.  1.
<mgrwt>
<rscale>  0 0.15749387E+04</rscale>
<asrwt>0</asrwt>
<pdfrwt beam="1">  1        2 0.29944547E+00 0.15749387E+04</pdfrwt>
<pdfrwt beam="2">  1       -2 0.28138950E+00 0.15749387E+04</pdfrwt>
<totfact> 0.27483471E-01</totfact>
</mgrwt>
</event>
<event>
12    1  0.3127365E-008  0.1251962E+04  0.7818608E-02  0.9068552E-01
         -1   -1    0    0    0  501 -0.00000000000E+00  0.00000000000E+00  0.86690607663E+03  0.86690607663E+03  0.00000000000E+00 0.  1.
          1   -1    0    0  501    0  0.00000000000E+00 -0.00000000000E+00 -0.21987642580E+04  0.21987642580E+04  0.00000000000E+00 0. -1.
         23    2    1    2    0    0  0.47532899599E+03  0.11478851667E+04 -0.11090711966E+04  0.16680380247E+04  0.93455457188E+02 0.  0.
    5000000    2    1    2    0    0 -0.47532899599E+03 -0.11478851667E+04 -0.22278698473E+03  0.13976323099E+04  0.60013667001E+03 0.  0.
         23    2    4    4    0    0 -0.35931030598E+03 -0.95373284058E+03 -0.39795216854E+03  0.10981099925E+04  0.93645074038E+02 0.  0.
         23    2    4    4    0    0 -0.11601869001E+03 -0.19415232610E+03  0.17516518382E+03  0.29952231741E+03  0.88742970675E+02 0.  0.
          4    1    3    3  502    0  0.22617443183E+03  0.61736706123E+03 -0.53553382007E+03  0.84799377023E+03  0.00000000000E+00 0. -1.
         -4    1    3    3    0  502  0.24915456416E+03  0.53051810546E+03 -0.57353737656E+03  0.82004425452E+03  0.00000000000E+00 0.  1.
         13    1    5    5    0    0 -0.21505088745E+03 -0.53451040488E+03 -0.17681265398E+03  0.60266986960E+03  0.00000000000E+00 0.  1.
        -13    1    5    5    0    0 -0.14425941853E+03 -0.41922243570E+03 -0.22113951456E+03  0.49544012285E+03  0.00000000000E+00 0. -1.
          5    1    6    6  503    0 -0.51185516128E+01  0.77555267933E+01  0.55806562869E+00  0.10428288628E+02  0.47000000000E+01 0. -1.
         -5    1    6    6    0  503 -0.11090013840E+03 -0.20190785289E+03  0.17460711819E+03  0.28909402878E+03  0.47000000000E+01 0.  1.
<mgrwt>
<rscale>  0 0.12519623E+04</rscale>
<asrwt>0</asrwt>
<pdfrwt beam="1">  1        1 0.33827142E+00 0.12519623E+04</pdfrwt>
<pdfrwt beam="2">  1       -1 0.13337017E+00 0.12519623E+04</pdfrwt>
<totfact> 0.10150170E+00</totfact>
</mgrwt>
</event>
<event>
12    1  0.3127365E-008  0.3611559E+03  0.7818608E-02  0.1058127E+00
         -1   -1    0    0    0  501 -0.00000000000E+00  0.00000000000E+00  0.20538910421E+04  0.20538910421E+04  0.00000000000E+00 0.  1.
          1   -1    0    0  501    0  0.00000000000E+00 -0.00000000000E+00 -0.10248821108E+04  0.10248821108E+04  0.00000000000E+00 0. -1.
         23    2    1    2    0    0  0.20756972054E+03  0.77206460118E+02  0.19460556008E+04  0.19607657367E+04  0.91781513683E+02 0.  0.
    5000000    2    1    2    0    0 -0.20756972054E+03 -0.77206460118E+02 -0.91704666955E+03  0.11180074162E+04  0.59993329813E+03 0.  0.
         23    2    4    4    0    0 -0.31574949425E+03 -0.13109950560E+03 -0.90203388358E+03  0.96880525583E+03  0.89630759880E+02 0.  0.
         23    2    4    4    0    0  0.10817977370E+03  0.53893045478E+02 -0.15012785973E+02  0.14920216039E+03  0.86189193820E+02 0.  0.
          2    1    3    3  502    0  0.30056666321E+02 -0.10527091856E+02  0.52706528824E+03  0.52802655324E+03  0.00000000000E+00 0. -1.
         -2    1    3    3    0  502  0.17751305422E+03  0.87733551974E+02  0.14189903126E+04  0.14327391834E+04  0.00000000000E+00 0.  1.
         13    1    5    5    0    0 -0.21402015630E+03 -0.62296837670E+02 -0.47935616725E+03  0.52864719650E+03  0.00000000000E+00 0.  1.
        -13    1    5    5    0    0 -0.10172933794E+03 -0.68802667926E+02 -0.42267771633E+03  0.44015805933E+03  0.00000000000E+00 0. -1.
          5    1    6    6  503    0  0.75890134600E+02 -0.83205963696E+01 -0.19079842165E+02  0.78833211469E+02  0.47000000000E+01 0. -1.
         -5    1    6    6    0  503  0.32289639104E+02  0.62213641848E+02  0.40670561925E+01  0.70368948916E+02  0.47000000000E+01 0.  1.
<mgrwt>
<rscale>  0 0.36115594E+03</rscale>
<asrwt>0</asrwt>
<pdfrwt beam="1">  1        1 0.15767417E+00 0.36115594E+03</pdfrwt>
<pdfrwt beam="2">  1       -1 0.31598324E+00 0.36115594E+03</pdfrwt>
<totfact> 0.45527404E-01</totfact>
</mgrwt>
</event>
<event>
12    1  0.3127365E-008  0.1512631E+04  0.7818608E-02  0.8876097E-01
          2   -1    0    0  501    0  0.00000000000E+00  0.00000000000E+00  0.85847734658E+03  0.85847734658E+03  0.00000000000E+00 0. -1.
         -2   -1    0    0    0  501 -0.00000000000E+00 -0.00000000000E+00 -0.27822995722E+04  0.27822995722E+04  0.00000000000E+00 0.  1.
         23    2    1    2    0    0 -0.13409811139E+04 -0.57532756859E+03 -0.12564218244E+04  0.19276926527E+04  0.90393602260E+02 0.  0.
    5000000    2    1    2    0    0  0.13409811139E+04  0.57532756859E+03 -0.66740040130E+03  0.17130842662E+04  0.60000187352E+03 0.  0.
         23    2    4    4    0    0  0.31549572865E+03  0.42103997474E+03 -0.17727176045E+03  0.56254011969E+03  0.90630536122E+02 0.  0.
         23    2    4    4    0    0  0.10254853853E+04  0.15428759385E+03 -0.49012864085E+03  0.11505441465E+04  0.90004507531E+02 0.  0.
          4    1    3    3  502    0 -0.39136359809E+03 -0.16650155253E+03 -0.31305041970E+03  0.52809923137E+03  0.00000000000E+00 0. -1.
         -4    1    3    3    0  502 -0.94961751583E+03 -0.40882601606E+03 -0.94337140466E+03  0.13995934213E+04  0.00000000000E+00 0.  1.
         13    1    5    5    0    0  0.23814374222E+03  0.34630214967E+03 -0.17415061297E+03  0.45493522266E+03  0.00000000000E+00 0.  1.
        -13    1    5    5    0    0  0.77351986434E+02  0.74737825071E+02 -0.31211474804E+01  0.10760489702E+03  0.00000000000E+00 0. -1.
          5    1    6    6  503    0  0.16738926377E+03  0.43369320616E+02 -0.51598812760E+02  0.18051202473E+03  0.47000000000E+01 0. -1.
         -5    1    6    6    0  503  0.85809612150E+03  0.11091827324E+03 -0.43852982809E+03  0.97003212174E+03  0.47000000000E+01 0.  1.
<mgrwt>
<rscale>  0 0.15126311E+04</rscale>
<asrwt>0</asrwt>
<pdfrwt beam="1">  1        2 0.13207343E+00 0.15126311E+04</pdfrwt>
<pdfrwt beam="2">  1       -2 0.42804610E+00 0.15126311E+04</pdfrwt>
<totfact> 0.14439742E-01</totfact>
</mgrwt>
</event>
<event>
12    1  0.3127365E-008  0.1257743E+04  0.7818608E-02  0.9063763E-01
         -2   -1    0    0    0  501 -0.00000000000E+00  0.00000000000E+00  0.65805023404E+03  0.65805023404E+03  0.00000000000E+00 0.  1.
          2   -1    0    0  501    0  0.00000000000E+00 -0.00000000000E+00 -0.27457754370E+04  0.27457754370E+04  0.00000000000E+00 0. -1.
         23    2    1    2    0    0 -0.12001925869E+04 -0.17233535650E+02 -0.44680367906E+03  0.12841147003E+04  0.92508353366E+02 0.  0.
    5000000    2    1    2    0    0  0.12001925869E+04  0.17233535650E+02 -0.16409215239E+04  0.21197109708E+04  0.59982656808E+03 0.  0.
         23    2    4    4    0    0  0.26035470297E+03  0.22164240608E+03 -0.62468894574E+03  0.71745207154E+03  0.87127885837E+02 0.  0.
         23    2    4    4    0    0  0.93983788390E+03 -0.20440887043E+03 -0.10162325782E+04  0.14022588993E+04  0.92320817311E+02 0.  0.
          4    1    3    3  502    0 -0.31568212885E+02  0.71905029504E+01 -0.26924092516E+02  0.42108932012E+02  0.00000000000E+00 0. -1.
         -4    1    3    3    0  502 -0.11686243740E+04 -0.24424038601E+02 -0.41987958655E+03  0.12420057682E+04  0.00000000000E+00 0.  1.
         11    1    5    5    0    0  0.58744274819E+02  0.94697443042E+02 -0.15638436989E+03  0.19202751545E+03  0.00000000000E+00 0.  1.
        -11    1    5    5    0    0  0.20161042815E+03  0.12694496304E+03 -0.46830457585E+03  0.52542455609E+03  0.00000000000E+00 0. -1.
          5    1    6    6  503    0  0.74847249858E+03 -0.19199043307E+03 -0.84615100956E+03  0.11458904959E+04  0.47000000000E+01 0. -1.
         -5    1    6    6    0  503  0.19136538532E+03 -0.12418437367E+02 -0.17008156864E+03  0.25636840343E+03  0.47000000000E+01 0.  1.
<mgrwt>
<rscale>  0 0.12577429E+04</rscale>
<asrwt>0</asrwt>
<pdfrwt beam="1">  1        2 0.42242698E+00 0.12577429E+04</pdfrwt>
<pdfrwt beam="2">  1       -2 0.10123850E+00 0.12577429E+04</pdfrwt>
<totfact> 0.19589754E+00</totfact>
</mgrwt>
</event>
<event>
12    1  0.3127365E-008  0.1225278E+04  0.7818608E-02  0.9091014E-01
         -1   -1    0    0    0  501 -0.00000000000E+00  0.00000000000E+00  0.11385523948E+04  0.11385523948E+04  0.00000000000E+00 0.  1.
          1   -1    0    0  501    0  0.00000000000E+00 -0.00000000000E+00 -0.18360505720E+04  0.18360505720E+04  0.00000000000E+00 0. -1.
         23    2    1    2    0    0  0.10706418323E+03 -0.12087827990E+04  0.34613177145E+03  0.12652726057E+04  0.92135601096E+02 0.  0.
    5000000    2    1    2    0    0 -0.10706418323E+03  0.12087827990E+04 -0.10436299487E+04  0.17093303611E+04  0.60002351549E+03 0.  0.
         23    2    4    4    0    0 -0.10075805086E+03  0.20518078399E+03 -0.51659413022E+03  0.57201800909E+03  0.89909779309E+02 0.  0.
         23    2    4    4    0    0 -0.63061323744E+01  0.10036020150E+04 -0.52703581844E+03  0.11373123520E+04  0.91955751769E+02 0.  0.
          2    1    3    3  502    0  0.36012716031E+02 -0.46490086794E+03  0.86930016372E+02  0.47432748231E+03  0.00000000000E+00 0. -1.
         -2    1    3    3    0  502  0.71051467200E+02 -0.74388193103E+03  0.25920175508E+03  0.79094512334E+03  0.00000000000E+00 0.  1.
         13    1    5    5    0    0 -0.54508894047E+02  0.13093791764E+03 -0.21165605508E+03  0.25478273776E+03  0.00000000000E+00 0. -1.
        -13    1    5    5    0    0 -0.46249156810E+02  0.74242866351E+02 -0.30493807514E+03  0.31723527133E+03  0.00000000000E+00 0.  1.
          5    1    6    6  503    0 -0.43754840299E+02  0.75102921608E+03 -0.38545734650E+03  0.84531581402E+03  0.47000000000E+01 0. -1.
         -5    1    6    6    0  503  0.37448707924E+02  0.25257279890E+03 -0.14157847194E+03  0.29199653797E+03  0.47000000000E+01 0.  1.
<mgrwt>
<rscale>  0 0.12252782E+04</rscale>
<asrwt>0</asrwt>
<pdfrwt beam="1">  1        1 0.28246931E+00 0.12252782E+04</pdfrwt>
<pdfrwt beam="2">  1       -1 0.17516191E+00 0.12252782E+04</pdfrwt>
<totfact> 0.84939447E-01</totfact>
</mgrwt>
</event>
<event>
12    1  0.3127365E-008  0.4339415E+03  0.7818608E-02  0.1032622E+00
          1   -1    0    0  501    0  0.00000000000E+00  0.00000000000E+00  0.16719751819E+04  0.16719751819E+04  0.00000000000E+00 0. -1.
         -1   -1    0    0    0  501 -0.00000000000E+00 -0.00000000000E+00 -0.14617815801E+03  0.14617815801E+03  0.00000000000E+00 0.  1.
         23    2    1    2    0    0 -0.94299997769E+02  0.27850277102E+03  0.62247372155E+03  0.69452153728E+03  0.91816930307E+02 0.  0.
    5000000    2    1    2    0    0  0.94299997769E+02 -0.27850277102E+03  0.90332330233E+03  0.11236318026E+04  0.60008262453E+03 0.  0.
         23    2    4    4    0    0  0.28871395733E+02 -0.40648322569E+03  0.35045841995E+03  0.54522206166E+03  0.91563213924E+02 0.  0.
         23    2    4    4    0    0  0.65428602035E+02  0.12798045468E+03  0.55286488238E+03  0.57840974095E+03  0.90765365169E+02 0.  0.
          2    1    3    3  502    0 -0.25588495623E+02  0.17002752105E+03  0.27780052920E+03  0.32670669269E+03  0.00000000000E+00 0.  1.
         -2    1    3    3    0  502 -0.68711502145E+02  0.10847524997E+03  0.34467319235E+03  0.36781484460E+03  0.00000000000E+00 0. -1.
         11    1    5    5    0    0 -0.71499825635E+01 -0.13721289381E+03  0.17216919804E+03  0.22027422281E+03  0.00000000000E+00 0. -1.
        -11    1    5    5    0    0  0.36021378297E+02 -0.26927033188E+03  0.17828922191E+03  0.32494783886E+03  0.00000000000E+00 0.  1.
          5    1    6    6  503    0  0.28868791661E+01  0.78198728410E+02  0.37856714377E+03  0.38659869056E+03  0.47000000000E+01 0. -1.
         -5    1    6    6    0  503  0.62541722869E+02  0.49781726265E+02  0.17429773861E+03  0.19181105039E+03  0.47000000000E+01 0.  1.
<mgrwt>
<rscale>  0 0.43394154E+03</rscale>
<asrwt>0</asrwt>
<pdfrwt beam="1">  1        1 0.25722694E+00 0.43394154E+03</pdfrwt>
<pdfrwt beam="2">  1       -1 0.22488948E-01 0.43394154E+03</pdfrwt>
<totfact> 0.89255849E+01</totfact>
</mgrwt>
</event>
<event>
12    1  0.3127365E-008  0.1778327E+04  0.7818608E-02  0.8717911E-01
         -1   -1    0    0    0  501 -0.00000000000E+00  0.00000000000E+00  0.16340882441E+04  0.16340882441E+04  0.00000000000E+00 0.  1.
          1   -1    0    0  501    0  0.00000000000E+00 -0.00000000000E+00 -0.21366609231E+04  0.21366609231E+04  0.00000000000E+00 0. -1.
         23    2    1    2    0    0 -0.55957394384E+03 -0.16440521222E+04 -0.79153972321E+03  0.19107192512E+04  0.91008486584E+02 0.  0.
    5000000    2    1    2    0    0  0.55957394384E+03  0.16440521222E+04  0.28896704417E+03  0.18600299159E+04  0.60014911189E+03 0.  0.
         23    2    4    4    0    0 -0.83782397040E+02  0.34847932179E+03 -0.45508937616E+02  0.37260908718E+03  0.91154487959E+02 0.  0.
         23    2    4    4    0    0  0.64335634088E+03  0.12955728004E+04  0.33447598178E+03  0.14874208287E+04  0.90168048530E+02 0.  0.
          4    1    3    3  502    0 -0.15542957967E+03 -0.55918604904E+03 -0.29456384232E+03  0.65085731837E+03  0.00000000000E+00 0. -1.
         -4    1    3    3    0  502 -0.40414436418E+03 -0.10848660731E+04 -0.49697588090E+03  0.12598619329E+04  0.00000000000E+00 0.  1.
         13    1    5    5    0    0  0.19166860501E+02  0.63731561124E+02 -0.92688928853E+00  0.66557791043E+02  0.00000000000E+00 0. -1.
        -13    1    5    5    0    0 -0.10294925754E+03  0.28474776067E+03 -0.44582048327E+02  0.30605129614E+03  0.00000000000E+00 0.  1.
          5    1    6    6  503    0  0.51211584651E+01  0.28145967772E+01  0.29809980829E+01  0.80699794679E+01  0.47000000000E+01 0. -1.
         -5    1    6    6    0  503  0.63823518242E+03  0.12927582036E+04  0.33149498370E+03  0.14793508493E+04  0.47000000000E+01 0.  1.
<mgrwt>
<rscale>  0 0.17783268E+04</rscale>
<asrwt>0</asrwt>
<pdfrwt beam="1">  1        1 0.32871707E+00 0.17783268E+04</pdfrwt>
<pdfrwt beam="2">  1       -1 0.25139819E+00 0.17783268E+04</pdfrwt>
<totfact> 0.15012433E-01</totfact>
</mgrwt>
</event>
<event>
12    1  0.3127365E-008  0.6707135E+03  0.7818608E-02  0.9768670E-01
         -2   -1    0    0    0  501 -0.00000000000E+00  0.00000000000E+00  0.11695227036E+03  0.11695227036E+03  0.00000000000E+00 0.  1.
          2   -1    0    0  501    0  0.00000000000E+00 -0.00000000000E+00 -0.39904610246E+04  0.39904610246E+04  0.00000000000E+00 0. -1.
         23    2    1    2    0    0 -0.53802266472E+03  0.93031331586E+02 -0.16690100747E+04  0.17583983480E+04  0.90812467045E+02 0.  0.
    5000000    2    1    2    0    0  0.53802266472E+03 -0.93031331586E+02 -0.22044986796E+04  0.23490149470E+04  0.59994464481E+03 0.  0.
         23    2    4    4    0    0  0.11546608690E+03 -0.29664264251E+03 -0.98197737338E+03  0.10364048089E+04  0.92336837114E+02 0.  0.
         23    2    4    4    0    0  0.42255657782E+03  0.20361131093E+03 -0.12225213062E+04  0.13126101381E+04  0.91517229546E+02 0.  0.
          2    1    3    3  502    0 -0.42201116250E+03  0.45337443442E+02 -0.11976949426E+04  0.12706778036E+04  0.00000000000E+00 0.  1.
         -2    1    3    3    0  502 -0.11601150221E+03  0.47693888144E+02 -0.47131513213E+03  0.48772054436E+03  0.00000000000E+00 0. -1.
         11    1    5    5    0    0  0.32546877938E+02 -0.93486753749E+02 -0.45361677645E+03  0.46429220569E+03  0.00000000000E+00 0. -1.
        -11    1    5    5    0    0  0.82919208957E+02 -0.20315588876E+03 -0.52836059693E+03  0.57211260320E+03  0.00000000000E+00 0.  1.
          5    1    6    6  503    0  0.33677035509E+03  0.18830855990E+03 -0.10615342394E+04  0.11294916632E+04  0.47000000000E+01 0. -1.
         -5    1    6    6    0  503  0.85786222733E+02  0.15302751024E+02 -0.16098706678E+03  0.18311847495E+03  0.47000000000E+01 0.  1.
<mgrwt>
<rscale>  0 0.67071349E+03</rscale>
<asrwt>0</asrwt>
<pdfrwt beam="1">  1        2 0.61391699E+00 0.67071349E+03</pdfrwt>
<pdfrwt beam="2">  1       -2 0.17992660E-01 0.67071349E+03</pdfrwt>
<totfact> 0.10010408E+01</totfact>
</mgrwt>
</event>
<event>
12    1  0.3127365E-008  0.5210572E+03  0.7818608E-02  0.1008424E+00
          1   -1    0    0  501    0  0.00000000000E+00  0.00000000000E+00  0.47821046787E+03  0.47821046787E+03  0.00000000000E+00 0. -1.
         -1   -1    0    0    0  501 -0.00000000000E+00 -0.00000000000E+00 -0.58101596696E+03  0.58101596696E+03  0.00000000000E+00 0.  1.
         23    2    1    2    0    0  0.17557475808E+03  0.30085247971E+03 -0.38691273366E+02  0.36227899519E+03  0.91707935854E+02 0.  0.
    5000000    2    1    2    0    0 -0.17557475808E+03 -0.30085247971E+03 -0.64114225717E+02  0.69694743964E+03  0.60023861044E+03 0.  0.
         23    2    4    4    0    0  0.42202319535E+01 -0.43982498932E+03 -0.51922114705E+02  0.45223930789E+03  0.91436612055E+02 0.  0.
         23    2    4    4    0    0 -0.17979499004E+03  0.13897250961E+03 -0.12192111012E+02  0.24470813175E+03  0.89965689581E+02 0.  0.
          3    1    3    3  502    0  0.13636324450E+03  0.19037458048E+03  0.12172336610E+02  0.23449004482E+03  0.00000000000E+00 0. -1.
         -3    1    3    3    0  502  0.39211513580E+02  0.11047789923E+03 -0.50863609976E+02  0.12778895036E+03  0.00000000000E+00 0.  1.
         13    1    5    5    0    0 -0.17228249356E+02 -0.18178516211E+02 -0.13105419562E+02  0.28266995762E+02  0.00000000000E+00 0. -1.
        -13    1    5    5    0    0  0.21448481310E+02 -0.42164647311E+03 -0.38816695143E+02  0.42397231213E+03  0.00000000000E+00 0.  1.
          5    1    6    6  503    0 -0.15913746850E+03  0.74816723999E+02 -0.18351381842E+02  0.17686474857E+03  0.47000000000E+01 0. -1.
         -5    1    6    6    0  503 -0.20657521532E+02  0.64155785611E+02  0.61592708306E+01  0.67843383173E+02  0.47000000000E+01 0.  1.
<mgrwt>
<rscale>  0 0.52105720E+03</rscale>
<asrwt>0</asrwt>
<pdfrwt beam="1">  1        1 0.73570842E-01 0.52105720E+03</pdfrwt>
<pdfrwt beam="2">  1       -1 0.89387071E-01 0.52105720E+03</pdfrwt>
<totfact> 0.60262472E+01</totfact>
</mgrwt>
</event>
<event>
12    1  0.3127365E-008  0.5281461E+03  0.7818608E-02  0.1006683E+00
          1   -1    0    0  501    0  0.00000000000E+00  0.00000000000E+00  0.75308085360E+03  0.75308085360E+03  0.00000000000E+00 0. -1.
         -1   -1    0    0    0  501 -0.00000000000E+00 -0.00000000000E+00 -0.68729229788E+03  0.68729229788E+03  0.00000000000E+00 0.  1.
         23    2    1    2    0    0 -0.44276197262E+01  0.45271188672E+03 -0.35205299928E+03  0.58033783435E+03  0.88786437506E+02 0.  0.
    5000000    2    1    2    0    0  0.44276197262E+01 -0.45271188672E+03  0.41784155500E+03  0.86003531713E+03  0.60008459856E+03 0.  0.
         23    2    4    4    0    0 -0.82481759934E+02 -0.47755824112E+03  0.50554817000E+03  0.70613416446E+03  0.90451045568E+02 0.  0.
         23    2    4    4    0    0  0.86909379660E+02  0.24846354400E+02 -0.87706614995E+02  0.15390115267E+03  0.88445083977E+02 0.  0.
          3    1    3    3  502    0  0.64061837267E+01  0.21429597746E+03 -0.22166250982E+03  0.30837975518E+03  0.00000000000E+00 0. -1.
         -3    1    3    3    0  502 -0.10833803453E+02  0.23841590926E+03 -0.13039048946E+03  0.27195807917E+03  0.00000000000E+00 0.  1.
         11    1    5    5    0    0 -0.67617698892E+02 -0.28123887783E+03  0.24180956775E+03  0.37701369558E+03  0.00000000000E+00 0.  1.
        -11    1    5    5    0    0 -0.14864061043E+02 -0.19631936329E+03  0.26373860225E+03  0.32912046887E+03  0.00000000000E+00 0. -1.
          5    1    6    6  503    0  0.30448149954E+02  0.47060431686E+02 -0.13340155397E+02  0.57808509859E+02  0.47000000000E+01 0. -1.
         -5    1    6    6    0  503  0.56461229706E+02 -0.22214077286E+02 -0.74366459598E+02  0.96092642813E+02  0.47000000000E+01 0.  1.
<mgrwt>
<rscale>  0 0.52814610E+03</rscale>
<asrwt>0</asrwt>
<pdfrwt beam="1">  1        1 0.11585859E+00 0.52814610E+03</pdfrwt>
<pdfrwt beam="2">  1       -1 0.10573728E+00 0.52814610E+03</pdfrwt>
<totfact> 0.21569128E+01</totfact>
</mgrwt>
</event>
<event>
12    1  0.3127365E-008  0.8399522E+03  0.7818608E-02  0.9503923E-01
         -1   -1    0    0    0  501 -0.00000000000E+00  0.00000000000E+00  0.38605694635E+03  0.38605694635E+03  0.00000000000E+00 0.  1.
          1   -1    0    0  501    0  0.00000000000E+00 -0.00000000000E+00 -0.25055471006E+04  0.25055471006E+04  0.00000000000E+00 0. -1.
         23    2    1    2    0    0 -0.26183518080E+03 -0.71184162545E+03 -0.16461234169E+04  0.18147938182E+04  0.92076801242E+02 0.  0.
    5000000    2    1    2    0    0  0.26183518080E+03  0.71184162545E+03 -0.47336673731E+03  0.10768102287E+04  0.60014001616E+03 0.  0.
         23    2    4    4    0    0  0.40548506870E+03  0.48930562831E+03 -0.47121835217E+03  0.79637399408E+03  0.91250557261E+02 0.  0.
         23    2    4    4    0    0 -0.14364988790E+03  0.22253599715E+03 -0.21483851365E+01  0.28043623461E+03  0.92099434313E+02 0.  0.
          3    1    3    3  502    0 -0.86674902983E+02 -0.23437836560E+03 -0.64931081037E+03  0.69573722449E+03  0.00000000000E+00 0. -1.
         -3    1    3    3    0  502 -0.17516027781E+03 -0.47746325985E+03 -0.99681260653E+03  0.11190565937E+04  0.00000000000E+00 0.  1.
         13    1    5    5    0    0  0.25823018893E+03  0.37475391153E+03 -0.34568393814E+03  0.57150740133E+03  0.00000000000E+00 0. -1.
        -13    1    5    5    0    0  0.14725487977E+03  0.11455171677E+03 -0.12553441403E+03  0.22486659276E+03  0.00000000000E+00 0.  1.
          5    1    6    6  503    0 -0.44792521393E+02  0.15119528375E+03 -0.10787796093E+02  0.15812922041E+03  0.47000000000E+01 0. -1.
         -5    1    6    6    0  503 -0.98857366510E+02  0.71340713394E+02  0.86394109569E+01  0.12230701420E+03  0.47000000000E+01 0.  1.
<mgrwt>
<rscale>  0 0.83995223E+03</rscale>
<asrwt>0</asrwt>
<pdfrwt beam="1">  1        1 0.38546878E+00 0.83995223E+03</pdfrwt>
<pdfrwt beam="2">  1       -1 0.59393378E-01 0.83995223E+03</pdfrwt>
<totfact> 0.40269765E+00</totfact>
</mgrwt>
</event>
<event>
12    1  0.3127365E-008  0.1143083E+04  0.7818608E-02  0.9164188E-01
         -2   -1    0    0    0  501 -0.00000000000E+00  0.00000000000E+00  0.16993876299E+04  0.16993876299E+04  0.00000000000E+00 0.  1.
          2   -1    0    0  501    0  0.00000000000E+00 -0.00000000000E+00 -0.10758613861E+04  0.10758613861E+04  0.00000000000E+00 0. -1.
         23    2    1    2    0    0 -0.59888949302E+03  0.93961277579E+03 -0.35803474998E+03  0.11737485963E+04  0.89196926774E+02 0.  0.
    5000000    2    1    2    0    0  0.59888949302E+03 -0.93961277579E+03  0.98156099376E+03  0.16015004197E+04  0.59983399080E+03 0.  0.
         23    2    4    4    0    0  0.39716116033E+02 -0.29827209778E+02 -0.48866404976E+02  0.11491816035E+03  0.91385041053E+02 0.  0.
         23    2    4    4    0    0  0.55917337699E+03 -0.90978556602E+03  0.10304273987E+04  0.14865822593E+04  0.88099648424E+02 0.  0.
          3    1    3    3  502    0 -0.17354804714E+03  0.26194427217E+03 -0.14321655959E+03  0.34531827251E+03  0.00000000000E+00 0. -1.
         -3    1    3    3    0  502 -0.42534144588E+03  0.67766850362E+03 -0.21481819039E+03  0.82843032375E+03  0.00000000000E+00 0.  1.
         11    1    5    5    0    0 -0.29726519080E+02 -0.12181613209E+02 -0.11593414086E+02  0.34153548676E+02  0.00000000000E+00 0.  1.
        -11    1    5    5    0    0  0.69442635113E+02 -0.17645596569E+02 -0.37272990889E+02  0.80764611678E+02  0.00000000000E+00 0. -1.
          5    1    6    6  503    0  0.34249487789E+03 -0.54062650364E+03  0.55847285704E+03  0.84940789958E+03  0.47000000000E+01 0. -1.
         -5    1    6    6    0  503  0.21667849909E+03 -0.36915906237E+03  0.47195454170E+03  0.63717435975E+03  0.47000000000E+01 0.  1.
<mgrwt>
<rscale>  0 0.11430833E+04</rscale>
<asrwt>0</asrwt>
<pdfrwt beam="1">  1        2 0.16551714E+00 0.11430833E+04</pdfrwt>
<pdfrwt beam="2">  1       -2 0.26144425E+00 0.11430833E+04</pdfrwt>
<totfact> 0.12089459E+00</totfact>
</mgrwt>
</event>
<event>
12    1  0.3127365E-008  0.5997743E+03  0.7818608E-02  0.9905875E-01
          2   -1    0    0  501    0  0.00000000000E+00  0.00000000000E+00  0.49701533853E+03  0.49701533853E+03  0.00000000000E+00 0. -1.
         -2   -1    0    0    0  501 -0.00000000000E+00 -0.00000000000E+00 -0.18036020073E+04  0.18036020073E+04  0.00000000000E+00 0.  1.
         23    2    1    2    0    0 -0.50721544174E+03 -0.29430188585E+02  0.23725728688E+03  0.56807960759E+03  0.91048229227E+02 0.  0.
    5000000    2    1    2    0    0  0.50721544174E+03  0.29430188585E+02 -0.15438439556E+04  0.17325377382E+04  0.60008267325E+03 0.  0.
         23    2    4    4    0    0  0.38838412322E+03 -0.19514707108E+03 -0.57306497383E+03  0.72501469481E+03  0.91204369050E+02 0.  0.
         23    2    4    4    0    0  0.11883131852E+03  0.22457725967E+03 -0.97077898179E+03  0.10075230434E+04  0.90194366310E+02 0.  0.
          3    1    3    3  502    0 -0.15658035990E+03  0.10781310436E+02  0.33276416811E+02  0.16043991298E+03  0.00000000000E+00 0. -1.
         -3    1    3    3    0  502 -0.35063508184E+03 -0.40211499021E+02  0.20398087006E+03  0.40763969461E+03  0.00000000000E+00 0.  1.
         11    1    5    5    0    0  0.19348204940E+03 -0.92763626590E+02 -0.35715871201E+03  0.41665662052E+03  0.00000000000E+00 0. -1.
        -11    1    5    5    0    0  0.19490207382E+03 -0.10238344450E+03 -0.21590626182E+03  0.30835807429E+03  0.00000000000E+00 0.  1.
          5    1    6    6  503    0  0.37341902930E+02  0.89815284691E+02 -0.54275924702E+03  0.55142623560E+03  0.47000000000E+01 0. -1.
         -5    1    6    6    0  503  0.81489415591E+02  0.13476197498E+03 -0.42801973477E+03  0.45609680782E+03  0.47000000000E+01 0.  1.
<mgrwt>
<rscale>  0 0.59977425E+03</rscale>
<asrwt>0</asrwt>
<pdfrwt beam="1">  1        2 0.76463899E-01 0.59977425E+03</pdfrwt>
<pdfrwt beam="2">  1       -2 0.27747723E+00 0.59977425E+03</pdfrwt>
<totfact> 0.28721329E+00</totfact>
</mgrwt>
</event>
<event>
12    1  0.3127365E-008  0.5627326E+03  0.7818608E-02  0.9985890E-01
          2   -1    0    0  501    0  0.00000000000E+00  0.00000000000E+00  0.21890882896E+04  0.21890882896E+04  0.00000000000E+00 0.  1.
         -2   -1    0    0    0  501 -0.00000000000E+00 -0.00000000000E+00 -0.27658677719E+03  0.27658677719E+03  0.00000000000E+00 0. -1.
         23    2    1    2    0    0  0.87484553846E+02  0.39995323515E+03  0.16351618355E+04  0.16881164870E+04  0.91470802028E+02 0.  0.
    5000000    2    1    2    0    0 -0.87484553846E+02 -0.39995323515E+03  0.27733967689E+03  0.77755857986E+03  0.60005325702E+03 0.  0.
         23    2    4    4    0    0  0.60487213992E+02 -0.50265723944E+03  0.13441279952E+03  0.53155864629E+03  0.90359229483E+02 0.  0.
         23    2    4    4    0    0 -0.14797176784E+03  0.10270400429E+03  0.14292687737E+03  0.24599993356E+03  0.87430649462E+02 0.  0.
          3    1    3    3  502    0  0.94891655445E+02  0.23812785818E+03  0.93954768102E+03  0.97388867332E+03  0.00000000000E+00 0. -1.
         -3    1    3    3    0  502 -0.74071015990E+01  0.16182537697E+03  0.69561415453E+03  0.71422781364E+03  0.00000000000E+00 0.  1.
         13    1    5    5    0    0 -0.49344724857E+00 -0.71623660917E+02 -0.11262461071E+02  0.72505415816E+02  0.00000000000E+00 0.  1.
        -13    1    5    5    0    0  0.60980661241E+02 -0.43103357853E+03  0.14567526060E+03  0.45905323048E+03  0.00000000000E+00 0. -1.
          5    1    6    6  503    0 -0.14761457208E+03  0.63612656931E+02  0.11671737394E+03  0.19869994311E+03  0.47000000000E+01 0. -1.
         -5    1    6    6    0  503 -0.35719575746E+00  0.39091347358E+02  0.26209503430E+02  0.47299990456E+02  0.47000000000E+01 0.  1.
<mgrwt>
<rscale>  0 0.56273262E+03</rscale>
<asrwt>0</asrwt>
<pdfrwt beam="1">  1        2 0.33678280E+00 0.56273262E+03</pdfrwt>
<pdfrwt beam="2">  1       -2 0.42551813E-01 0.56273262E+03</pdfrwt>
<totfact> 0.29282742E+01</totfact>
</mgrwt>
</event>
<event>
12    1  0.3127365E-008  0.1582763E+04  0.7818608E-02  0.8831208E-01
         -1   -1    0    0    0  501 -0.00000000000E+00  0.00000000000E+00  0.14533787714E+04  0.14533787714E+04  0.00000000000E+00 0.  1.
          1   -1    0    0  501    0  0.00000000000E+00 -0.00000000000E+00 -0.19559699650E+04  0.19559699650E+04  0.00000000000E+00 0. -1.
         23    2    1    2    0    0 -0.60247190694E+03  0.14049198743E+04 -0.81935886067E+03  0.17368490231E+04  0.92321906713E+02 0.  0.
    5000000    2    1    2    0    0  0.60247190694E+03 -0.14049198743E+04  0.31676766712E+03  0.16724997134E+04  0.60011772550E+03 0.  0.
         23    2    4    4    0    0 -0.35371142944E+02 -0.60927224924E+03  0.15224863982E+03  0.63554359625E+03  0.90951761728E+02 0.  0.
         23    2    4    4    0    0  0.63784304988E+03 -0.79564762507E+03  0.16451902730E+03  0.10369561171E+04  0.91173345620E+02 0.  0.
          1    1    3    3  502    0 -0.10184962803E+03  0.22904879587E+03 -0.17398982557E+03  0.30513793114E+03  0.00000000000E+00 0. -1.
         -1    1    3    3    0  502 -0.50062227891E+03  0.11758710784E+04 -0.64536903510E+03  0.14317110919E+04  0.00000000000E+00 0.  1.
         11    1    5    5    0    0 -0.50029307626E+02 -0.20307802539E+03  0.72323222334E+02  0.22130129802E+03  0.00000000000E+00 0.  1.
        -11    1    5    5    0    0  0.14658164682E+02 -0.40619422385E+03  0.79925417491E+02  0.41424229823E+03  0.00000000000E+00 0. -1.
          5    1    6    6  503    0  0.35248352996E+03 -0.48242118562E+03  0.13244295373E+03  0.61199515130E+03  0.47000000000E+01 0. -1.
         -5    1    6    6    0  503  0.28535951992E+03 -0.31322643945E+03  0.32076073565E+02  0.42496096582E+03  0.47000000000E+01 0.  1.
<mgrwt>
<rscale>  0 0.15827631E+04</rscale>
<asrwt>0</asrwt>
<pdfrwt beam="1">  1        1 0.30091846E+00 0.15827631E+04</pdfrwt>
<pdfrwt beam="2">  1       -1 0.22359673E+00 0.15827631E+04</pdfrwt>
<totfact> 0.31099675E-01</totfact>
</mgrwt>
</event>
<event>
12    1  0.3127365E-008  0.8388066E+03  0.7818608E-02  0.9505485E-01
          2   -1    0    0  501    0  0.00000000000E+00  0.00000000000E+00  0.10269303492E+04  0.10269303492E+04  0.00000000000E+00 0. -1.
         -2   -1    0    0    0  501 -0.00000000000E+00 -0.00000000000E+00 -0.79686280851E+03  0.79686280851E+03  0.00000000000E+00 0.  1.
         23    2    1    2    0    0  0.27639255950E+03 -0.73931265233E+03 -0.41659669436E+02  0.79571769532E+03  0.91951496689E+02 0.  0.
    5000000    2    1    2    0    0 -0.27639255950E+03  0.73931265233E+03  0.27172721013E+03  0.10280754624E+04  0.60010618627E+03 0.  0.
         23    2    4    4    0    0 -0.30046896802E+02  0.56994888258E+03 -0.48971731655E+02  0.58004818988E+03  0.91176352872E+02 0.  0.
         23    2    4    4    0    0 -0.24634566269E+03  0.16936376976E+03  0.32069894178E+03  0.44802727251E+03  0.92251577872E+02 0.  0.
          4    1    3    3  502    0  0.15404416721E+03 -0.30389709042E+03 -0.43193157837E+02  0.34343659663E+03  0.00000000000E+00 0. -1.
         -4    1    3    3    0  502  0.12234839229E+03 -0.43541556191E+03  0.15334884010E+01  0.45228109869E+03  0.00000000000E+00 0.  1.
         13    1    5    5    0    0 -0.48128457397E+02  0.53532118228E+03 -0.35216241189E+02  0.53863280651E+03  0.00000000000E+00 0. -1.
        -13    1    5    5    0    0  0.18081560595E+02  0.34627700298E+02 -0.13755490465E+02  0.41415383367E+02  0.00000000000E+00 0.  1.
          5    1    6    6  503    0 -0.16063538893E+03  0.15054323468E+03  0.26247581257E+03  0.34261149407E+03  0.47000000000E+01 0. -1.
         -5    1    6    6    0  503 -0.85710273761E+02  0.18820535075E+02  0.58223129209E+02  0.10541577844E+03  0.47000000000E+01 0.  1.
<mgrwt>
<rscale>  0 0.83880660E+03</rscale>
<asrwt>0</asrwt>
<pdfrwt beam="1">  1        2 0.15798928E+00 0.83880660E+03</pdfrwt>
<pdfrwt beam="2">  1       -2 0.12259428E+00 0.83880660E+03</pdfrwt>
<totfact> 0.12279303E+01</totfact>
</mgrwt>
</event>
<event>
12    1  0.3127365E-008  0.1204967E+04  0.7818608E-02  0.9108520E-01
         -2   -1    0    0    0  501 -0.00000000000E+00  0.00000000000E+00  0.58167969684E+03  0.58167969684E+03  0.00000000000E+00 0. -1.
          2   -1    0    0  501    0  0.00000000000E+00 -0.00000000000E+00 -0.27698893930E+04  0.27698893930E+04  0.00000000000E+00 0.  1.
         23    2    1    2    0    0  0.41944114021E+02 -0.11778624486E+04 -0.13067262623E+04  0.17620827168E+04  0.91009448854E+02 0.  0.
    5000000    2    1    2    0    0 -0.41944114021E+02  0.11778624486E+04 -0.88148343385E+03  0.15894863730E+04  0.60027879311E+03 0.  0.
         23    2    4    4    0    0  0.10161247683E+03  0.88790465124E+03 -0.35723613937E+03  0.96684184481E+03  0.92009393289E+02 0.  0.
         23    2    4    4    0    0 -0.14355659085E+03  0.28995779733E+03 -0.52424729449E+03  0.62264452823E+03  0.90371255113E+02 0.  0.
          4    1    3    3  502    0 -0.24377786358E+02 -0.28277188593E+03 -0.34123535467E+03  0.44384207013E+03  0.00000000000E+00 0. -1.
         -4    1    3    3    0  502  0.66321900379E+02 -0.89509056265E+03 -0.96549090766E+03  0.13182406467E+04  0.00000000000E+00 0.  1.
         13    1    5    5    0    0  0.60097505552E+02  0.39921111659E+03 -0.11464840667E+03  0.41967306672E+03  0.00000000000E+00 0.  1.
        -13    1    5    5    0    0  0.41514971277E+02  0.48869353466E+03 -0.24258773270E+03  0.54716877808E+03  0.00000000000E+00 0. -1.
          5    1    6    6  503    0 -0.75435068976E+02  0.23468646772E+03 -0.35926917780E+03  0.43573457504E+03  0.47000000000E+01 0. -1.
         -5    1    6    6    0  503 -0.68121521874E+02  0.55271329613E+02 -0.16497811668E+03  0.18690995320E+03  0.47000000000E+01 0.  1.
<mgrwt>
<rscale>  0 0.12049673E+04</rscale>
<asrwt>0</asrwt>
<pdfrwt beam="1">  1        2 0.42613684E+00 0.12049673E+04</pdfrwt>
<pdfrwt beam="2">  1       -2 0.89489182E-01 0.12049673E+04</pdfrwt>
<totfact> 0.25506242E+00</totfact>
</mgrwt>
</event>
<event>
12    1  0.3127365E-008  0.1047867E+04  0.7818608E-02  0.9257549E-01
         -2   -1    0    0    0  501 -0.00000000000E+00  0.00000000000E+00  0.39891886434E+03  0.39891886434E+03  0.00000000000E+00 0.  1.
          2   -1    0    0  501    0  0.00000000000E+00 -0.00000000000E+00 -0.38819574567E+04  0.38819574567E+04  0.00000000000E+00 0. -1.
         23    2    1    2    0    0  0.63950882779E+03 -0.78473089931E+03 -0.63324439055E+03  0.11976677728E+04  0.92927448415E+02 0.  0.
    5000000    2    1    2    0    0 -0.63950882779E+03  0.78473089931E+03 -0.28497942018E+04  0.30832085483E+04  0.60006152530E+03 0.  0.
         23    2    4    4    0    0 -0.82173725144E+02  0.36485863969E+03 -0.50063307447E+03  0.63078890877E+03  0.85946635264E+02 0.  0.
         23    2    4    4    0    0 -0.55733510265E+03  0.41987225962E+03 -0.23491611274E+04  0.24524196395E+04  0.94281253855E+02 0.  0.
          2    1    3    3  502    0  0.98248198627E+02 -0.82260260746E+02 -0.58199732836E+02  0.14073616427E+03  0.00000000000E+00 0. -1.
         -2    1    3    3    0  502  0.54126062916E+03 -0.70247063856E+03 -0.57504465771E+03  0.10569316085E+04  0.00000000000E+00 0.  1.
         13    1    5    5    0    0 -0.96804360393E+02  0.33660384729E+03 -0.44066150227E+03  0.56289945264E+03  0.00000000000E+00 0. -1.
        -13    1    5    5    0    0  0.14630635248E+02  0.28254792401E+02 -0.59971572196E+02  0.67889456126E+02  0.00000000000E+00 0.  1.
          5    1    6    6  503    0 -0.35738291914E+03  0.24818104347E+03 -0.13113754733E+04  0.13816816215E+04  0.47000000000E+01 0. -1.
         -5    1    6    6    0  503 -0.19995218350E+03  0.17169121615E+03 -0.10377856540E+04  0.10707380180E+04  0.47000000000E+01 0.  1.
<mgrwt>
<rscale>  0 0.10478671E+04</rscale>
<asrwt>0</asrwt>
<pdfrwt beam="1">  1        2 0.59722421E+00 0.10478671E+04</pdfrwt>
<pdfrwt beam="2">  1       -2 0.61372135E-01 0.10478671E+04</pdfrwt>
<totfact> 0.10911407E+00</totfact>
</mgrwt>
</event>
<event>
12    1  0.3127365E-008  0.9481682E+03  0.7818608E-02  0.9367294E-01
          2   -1    0    0  501    0  0.00000000000E+00  0.00000000000E+00  0.26558447942E+04  0.26558447942E+04  0.00000000000E+00 0. -1.
         -2   -1    0    0    0  501 -0.00000000000E+00 -0.00000000000E+00 -0.86626753877E+03  0.86626753877E+03  0.00000000000E+00 0.  1.
         23    2    1    2    0    0 -0.86042006014E+03  0.32041528506E+02 -0.50269693282E+03  0.10010339312E+04  0.89528686069E+02 0.  0.
    5000000    2    1    2    0    0  0.86042006014E+03 -0.32041528506E+02  0.22922741883E+04  0.25210784019E+04  0.59997167809E+03 0.  0.
         23    2    4    4    0    0  0.12437768223E+03 -0.22367919687E+03  0.44156000565E+03  0.51793600330E+03  0.88205861337E+02 0.  0.
         23    2    4    4    0    0  0.73604237792E+03  0.19163766836E+03  0.18507141826E+04  0.20031423986E+04  0.94620848750E+02 0.  0.
          3    1    3    3  502    0 -0.45476946214E+03 -0.95814975615E+01 -0.30659919214E+03  0.54855276265E+03  0.00000000000E+00 0. -1.
         -3    1    3    3    0  502 -0.40565059801E+03  0.41623026068E+02 -0.19609774068E+03  0.45248116852E+03  0.00000000000E+00 0.  1.
         13    1    5    5    0    0 -0.98377955729E+01 -0.29579806773E+01  0.32976381793E+02  0.34539450308E+02  0.00000000000E+00 0. -1.
        -13    1    5    5    0    0  0.13421547780E+03 -0.22072121619E+03  0.40858362386E+03  0.48339655299E+03  0.00000000000E+00 0.  1.
          5    1    6    6  503    0  0.31103021079E+03  0.12320410592E+03  0.86881817908E+03  0.93101351335E+03  0.47000000000E+01 0. -1.
         -5    1    6    6    0  503  0.42501216712E+03  0.68433562442E+02  0.98189600356E+03  0.10721288852E+04  0.47000000000E+01 0.  1.
<mgrwt>
<rscale>  0 0.94816822E+03</rscale>
<asrwt>0</asrwt>
<pdfrwt beam="1">  1        2 0.40859150E+00 0.94816822E+03</pdfrwt>
<pdfrwt beam="2">  1       -2 0.13327193E+00 0.94816822E+03</pdfrwt>
<totfact> 0.11707946E+00</totfact>
</mgrwt>
</event>
<event>
12    1  0.3127365E-008  0.1082345E+04  0.7818608E-02  0.9222573E-01
         -2   -1    0    0    0  501 -0.00000000000E+00  0.00000000000E+00  0.45332124134E+03  0.45332124134E+03  0.00000000000E+00 0.  1.
          2   -1    0    0  501    0  0.00000000000E+00 -0.00000000000E+00 -0.27292803212E+04  0.27292803212E+04  0.00000000000E+00 0. -1.
         23    2    1    2    0    0 -0.97472635842E+03 -0.22052134793E+03 -0.70199226756E+03  0.12240038866E+04  0.81677610858E+02 0.  0.
    5000000    2    1    2    0    0  0.97472635842E+03  0.22052134793E+03 -0.15739668123E+04  0.19585976759E+04  0.60001015918E+03 0.  0.
         23    2    4    4    0    0  0.81876627189E+03 -0.64430383681E+02 -0.11730907135E+04  0.14347292779E+04  0.88186146396E+02 0.  0.
         23    2    4    4    0    0  0.15596008654E+03  0.28495173161E+03 -0.40087609883E+03  0.52386839803E+03  0.90638920484E+02 0.  0.
          4    1    3    3  502    0 -0.90866216344E+02 -0.42464754530E+02 -0.85185011186E+02  0.13159183402E+03  0.00000000000E+00 0. -1.
         -4    1    3    3    0  502 -0.88386014208E+03 -0.17805659340E+03 -0.61680725637E+03  0.10924120526E+04  0.00000000000E+00 0.  1.
         11    1    5    5    0    0  0.62586285807E+03 -0.86639705064E+02 -0.90020928584E+03  0.10998124903E+04  0.00000000000E+00 0.  1.
        -11    1    5    5    0    0  0.19290341382E+03  0.22209321383E+02 -0.27288142762E+03  0.33491678751E+03  0.00000000000E+00 0. -1.
          5    1    6    6  503    0  0.12075514623E+03  0.12876611549E+03 -0.19617639983E+03  0.26395035080E+03  0.47000000000E+01 0. -1.
         -5    1    6    6    0  503  0.35204940302E+02  0.15618561612E+03 -0.20469969900E+03  0.25991804723E+03  0.47000000000E+01 0.  1.
<mgrwt>
<rscale>  0 0.10823449E+04</rscale>
<asrwt>0</asrwt>
<pdfrwt beam="1">  1        2 0.41988928E+00 0.10823449E+04</pdfrwt>
<pdfrwt beam="2">  1       -2 0.69741729E-01 0.10823449E+04</pdfrwt>
<totfact> 0.48030280E+00</totfact>
</mgrwt>
</event>
<event>
12    1  0.3127365E-008  0.1145441E+04  0.7818608E-02  0.9162000E-01
         -1   -1    0    0    0  501 -0.00000000000E+00  0.00000000000E+00  0.44091071176E+03  0.44091071176E+03  0.00000000000E+00 0.  1.
          1   -1    0    0  501    0  0.00000000000E+00 -0.00000000000E+00 -0.40150601390E+04  0.40150601390E+04  0.00000000000E+00 0. -1.
         23    2    1    2    0    0  0.48243374915E+03 -0.97224928140E+03 -0.27739050807E+04  0.29800717470E+04  0.90924326987E+02 0.  0.
    5000000    2    1    2    0    0 -0.48243374915E+03  0.97224928140E+03 -0.80024434650E+03  0.14758991037E+04  0.59989679334E+03 0.  0.
         23    2    4    4    0    0 -0.24305274193E+03  0.92684688282E+03 -0.72434429368E+03  0.12049086208E+04  0.94922859062E+02 0.  0.
         23    2    4    4    0    0 -0.23938100722E+03  0.45402398586E+02 -0.75900052823E+02  0.27099048288E+03  0.91161282243E+02 0.  0.
          3    1    3    3  502    0  0.79088278190E+02 -0.12791994989E+03 -0.31254785142E+03  0.34684957655E+03  0.00000000000E+00 0. -1.
         -3    1    3    3    0  502  0.40334547096E+03 -0.84432933151E+03 -0.24613572293E+04  0.26332221705E+04  0.00000000000E+00 0.  1.
         13    1    5    5    0    0 -0.11798976050E+03  0.56249199764E+03 -0.47921419620E+03  0.74830814297E+03  0.00000000000E+00 0. -1.
        -13    1    5    5    0    0 -0.12506298143E+03  0.36435488517E+03 -0.24513009747E+03  0.45660047784E+03  0.00000000000E+00 0.  1.
          5    1    6    6  503    0 -0.60972025884E+02  0.21102842926E+02  0.18970216195E+02  0.67415703085E+02  0.47000000000E+01 0. -1.
         -5    1    6    6    0  503 -0.17840898133E+03  0.24299555660E+02 -0.94870269018E+02  0.20357477980E+03  0.47000000000E+01 0.  1.
<mgrwt>
<rscale>  0 0.11454412E+04</rscale>
<asrwt>0</asrwt>
<pdfrwt beam="1">  1        1 0.61770158E+00 0.11454412E+04</pdfrwt>
<pdfrwt beam="2">  1       -1 0.67832415E-01 0.11454412E+04</pdfrwt>
<totfact> 0.21044872E-01</totfact>
</mgrwt>
</event>
<event>
12    1  0.3127365E-008  0.5148713E+03  0.7818608E-02  0.1009969E+00
         -2   -1    0    0    0  501 -0.00000000000E+00  0.00000000000E+00  0.24784936146E+04  0.24784936146E+04  0.00000000000E+00 0. -1.
          2   -1    0    0  501    0  0.00000000000E+00 -0.00000000000E+00 -0.23861383530E+03  0.23861383530E+03  0.00000000000E+00 0.  1.
         23    2    1    2    0    0 -0.11291851886E+03 -0.41864109171E+03  0.10220098944E+03  0.45486817149E+03  0.91918744663E+02 0.  0.
    5000000    2    1    2    0    0  0.11291851886E+03  0.41864109171E+03  0.21376787899E+04  0.22622392784E+04  0.60003748936E+03 0.  0.
         23    2    4    4    0    0  0.23971824234E+03  0.33834689735E+03  0.73810617621E+03  0.85157928401E+03  0.91886293540E+02 0.  0.
         23    2    4    4    0    0 -0.12679972349E+03  0.80294194366E+02  0.13995726137E+04  0.14106599944E+04  0.92912816243E+02 0.  0.
          3    1    3    3  502    0 -0.12135058326E+03 -0.32454548777E+03  0.98937201903E+02  0.36033915636E+03  0.00000000000E+00 0. -1.
         -3    1    3    3    0  502  0.84320644016E+01 -0.94095603948E+02  0.32637875391E+01  0.94529015131E+02  0.00000000000E+00 0.  1.
         13    1    5    5    0    0  0.12737132655E+03  0.10342527730E+03  0.29939246635E+03  0.34140312201E+03  0.00000000000E+00 0.  1.
        -13    1    5    5    0    0  0.11234691579E+03  0.23492162004E+03  0.43871370986E+03  0.51017616200E+03  0.00000000000E+00 0. -1.
          5    1    6    6  503    0 -0.87647211310E+02  0.16510060829E+02  0.10096051168E+04  0.10135478270E+04  0.47000000000E+01 0. -1.
         -5    1    6    6    0  503 -0.39152512175E+02  0.63784133538E+02  0.38996749689E+03  0.39711216744E+03  0.47000000000E+01 0.  1.
<mgrwt>
<rscale>  0 0.51487129E+03</rscale>
<asrwt>0</asrwt>
<pdfrwt beam="1">  1        2 0.36709823E-01 0.51487129E+03</pdfrwt>
<pdfrwt beam="2">  1       -2 0.38130669E+00 0.51487129E+03</pdfrwt>
<totfact> 0.15423867E+00</totfact>
</mgrwt>
</event>
<event>
12    1  0.3127365E-008  0.1086535E+04  0.7818608E-02  0.9218416E-01
          1   -1    0    0  501    0  0.00000000000E+00  0.00000000000E+00  0.16519617048E+04  0.16519617048E+04  0.00000000000E+00 0. -1.
         -1   -1    0    0    0  501 -0.00000000000E+00 -0.00000000000E+00 -0.12342858819E+04  0.12342858819E+04  0.00000000000E+00 0.  1.
         23    2    1    2    0    0  0.10107358358E+04  0.20039782074E+03  0.11022014715E+04  0.15113197893E+04  0.86563302844E+02 0.  0.
    5000000    2    1    2    0    0 -0.10107358358E+04 -0.20039782074E+03 -0.68452564869E+03  0.13749277973E+04  0.60008738348E+03 0.  0.
         23    2    4    4    0    0 -0.87910053989E+03  0.96897809012E+01 -0.67236558555E+03  0.11102081609E+04  0.87034640842E+02 0.  0.
         23    2    4    4    0    0 -0.13163529592E+03 -0.21008760164E+03 -0.12160063147E+02  0.26471963648E+03  0.91999822315E+02 0.  0.
          4    1    3    3  502    0  0.68146293483E+03  0.12157728141E+03  0.79517390001E+03  0.10542648141E+04  0.00000000000E+00 0.  1.
         -4    1    3    3    0  502  0.32927290098E+03  0.78820539330E+02  0.30702757154E+03  0.45705497527E+03  0.00000000000E+00 0. -1.
         13    1    5    5    0    0 -0.24311644127E+03 -0.18851345498E+02 -0.14640872170E+03  0.28442308457E+03  0.00000000000E+00 0. -1.
        -13    1    5    5    0    0 -0.63598409862E+03  0.28541126399E+02 -0.52595686384E+03  0.82578507629E+03  0.00000000000E+00 0.  1.
          5    1    6    6  503    0 -0.14014031409E+03 -0.16907864095E+03 -0.23946626892E+02  0.22095797202E+03  0.47000000000E+01 0. -1.
         -5    1    6    6    0  503  0.85050181757E+01 -0.41008960691E+02  0.11786563745E+02  0.43761664457E+02  0.47000000000E+01 0.  1.
<mgrwt>
<rscale>  0 0.10865350E+04</rscale>
<asrwt>0</asrwt>
<pdfrwt beam="1">  1        1 0.25414796E+00 0.10865350E+04</pdfrwt>
<pdfrwt beam="2">  1       -1 0.18989013E+00 0.10865350E+04</pdfrwt>
<totfact> 0.90561967E-01</totfact>
</mgrwt>
</event>
<event>
12    1  0.3127365E-008  0.6108491E+03  0.7818608E-02  0.9883150E-01
          1   -1    0    0  501    0  0.00000000000E+00  0.00000000000E+00  0.78038011405E+03  0.78038011405E+03  0.00000000000E+00 0. -1.
         -1   -1    0    0    0  501 -0.00000000000E+00 -0.00000000000E+00 -0.74065894872E+03  0.74065894872E+03  0.00000000000E+00 0.  1.
         23    2    1    2    0    0 -0.44166250735E+03  0.14785713790E+03 -0.41937277747E+03  0.63350527845E+03  0.92346671371E+02 0.  0.
    5000000    2    1    2    0    0  0.44166250735E+03 -0.14785713790E+03  0.45909394281E+03  0.88753378432E+03  0.60001788837E+03 0.  0.
         23    2    4    4    0    0  0.32278099094E+03 -0.36486528423E+03  0.28751123124E+03  0.57309816145E+03  0.92002993545E+02 0.  0.
         23    2    4    4    0    0  0.11888151642E+03  0.21700814633E+03  0.17158271157E+03  0.31443562287E+03  0.90574739886E+02 0.  0.
          1    1    3    3  502    0 -0.23774167738E+03  0.32668495756E+02 -0.22867612110E+03  0.33148318832E+03  0.00000000000E+00 0. -1.
         -1    1    3    3    0  502 -0.20392082997E+03  0.11518864214E+03 -0.19069665637E+03  0.30202209013E+03  0.00000000000E+00 0.  1.
         13    1    5    5    0    0  0.80281665726E+02 -0.38361487264E+02  0.47745406845E+02  0.10097709360E+03  0.00000000000E+00 0. -1.
        -13    1    5    5    0    0  0.24249932521E+03 -0.32650379696E+03  0.23976582439E+03  0.47212106785E+03  0.00000000000E+00 0.  1.
          5    1    6    6  503    0  0.10279935323E+03  0.20963030828E+03  0.12607984530E+03  0.26538800004E+03  0.47000000000E+01 0.  1.
         -5    1    6    6    0  503  0.16082163189E+02  0.73778380452E+01  0.45502866268E+02  0.49047622833E+02  0.47000000000E+01 0. -1.
<mgrwt>
<rscale>  0 0.61084906E+03</rscale>
<asrwt>0</asrwt>
<pdfrwt beam="1">  1        1 0.12005848E+00 0.61084906E+03</pdfrwt>
<pdfrwt beam="2">  1       -1 0.11394753E+00 0.61084906E+03</pdfrwt>
<totfact> 0.16910210E+01</totfact>
</mgrwt>
</event>
<event>
12    1  0.3127365E-008  0.8398205E+03  0.7818608E-02  0.9504102E-01
         -2   -1    0    0    0  501 -0.00000000000E+00  0.00000000000E+00  0.46726909094E+03  0.46726909094E+03  0.00000000000E+00 0. -1.
          2   -1    0    0  501    0  0.00000000000E+00 -0.00000000000E+00 -0.16930957002E+04  0.16930957002E+04  0.00000000000E+00 0.  1.
         23    2    1    2    0    0  0.18764019563E+03  0.75834357264E+03 -0.44538787870E+03  0.90373534545E+03  0.89852072560E+02 0.  0.
    5000000    2    1    2    0    0 -0.18764019563E+03 -0.75834357264E+03 -0.78043873055E+03  0.12566294457E+04  0.59978257263E+03 0.  0.
         23    2    4    4    0    0 -0.19911355237E+03 -0.76493891095E+02 -0.24242003161E+02  0.23373198372E+03  0.92441567418E+02 0.  0.
         23    2    4    4    0    0  0.11473356738E+02 -0.68184968155E+03 -0.75619672739E+03  0.10228974620E+04  0.97134448228E+02 0.  0.
          3    1    3    3  502    0  0.15552421966E+03  0.58049851873E+03 -0.29943519190E+03  0.67143707620E+03  0.00000000000E+00 0. -1.
         -3    1    3    3    0  502  0.32115975970E+02  0.17784505391E+03 -0.14595268679E+03  0.23229826925E+03  0.00000000000E+00 0.  1.
         11    1    5    5    0    0 -0.32845434057E+02 -0.36654166101E+01  0.29630841573E+02  0.44387437295E+02  0.00000000000E+00 0. -1.
        -11    1    5    5    0    0 -0.16626811831E+03 -0.72828474485E+02 -0.53872844734E+02  0.18934454643E+03  0.00000000000E+00 0.  1.
          5    1    6    6  503    0  0.27952831640E+02 -0.39109446591E+03 -0.36951022155E+03  0.53879136583E+03  0.47000000000E+01 0. -1.
         -5    1    6    6    0  503 -0.16479474902E+02 -0.29075521563E+03 -0.38668650585E+03  0.48410609613E+03  0.47000000000E+01 0.  1.
<mgrwt>
<rscale>  0 0.83982048E+03</rscale>
<asrwt>0</asrwt>
<pdfrwt beam="1">  1        2 0.26047626E+00 0.83982048E+03</pdfrwt>
<pdfrwt beam="2">  1       -2 0.71887553E-01 0.83982048E+03</pdfrwt>
<totfact> 0.17635656E+01</totfact>
</mgrwt>
</event>
<event>
12    1  0.3127365E-008  0.5843698E+03  0.7818608E-02  0.9938375E-01
          1   -1    0    0  501    0  0.00000000000E+00  0.00000000000E+00  0.12654666198E+04  0.12654666198E+04  0.00000000000E+00 0. -1.
         -1   -1    0    0    0  501 -0.00000000000E+00 -0.00000000000E+00 -0.29989700853E+03  0.29989700853E+03  0.00000000000E+00 0.  1.
         23    2    1    2    0    0  0.13958080738E+03  0.42925654238E+03  0.50983980341E+03  0.68712423670E+03  0.91973423111E+02 0.  0.
    5000000    2    1    2    0    0 -0.13958080738E+03 -0.42925654238E+03  0.45572980790E+03  0.87823939166E+03  0.59989231558E+03 0.  0.
         23    2    4    4    0    0 -0.19456576134E+03  0.71875805753E+02  0.21469675502E+03  0.31223055953E+03  0.91494583187E+02 0.  0.
         23    2    4    4    0    0  0.54984953956E+02 -0.50113234813E+03  0.24103305289E+03  0.56600883213E+03  0.90067141420E+02 0.  0.
          4    1    3    3  502    0  0.54838357441E+02  0.17662232298E+03  0.14329726058E+03  0.23395896074E+03  0.00000000000E+00 0. -1.
         -4    1    3    3    0  502  0.84742449939E+02  0.25263421940E+03  0.36654254283E+03  0.45316527596E+03  0.00000000000E+00 0.  1.
         13    1    5    5    0    0 -0.56887727711E+02  0.18760369472E+01  0.13342658568E+02  0.58461608056E+02  0.00000000000E+00 0.  1.
        -13    1    5    5    0    0 -0.13767803362E+03  0.69999768806E+02  0.20135409645E+03  0.25376895147E+03  0.00000000000E+00 0. -1.
          5    1    6    6  503    0 -0.53542593418E+01 -0.10404134227E+03  0.87002743677E+02  0.13581176827E+03  0.47000000000E+01 0. -1.
         -5    1    6    6    0  503  0.60339213298E+02 -0.39709100586E+03  0.15403030921E+03  0.43019706386E+03  0.47000000000E+01 0.  1.
<mgrwt>
<rscale>  0 0.58436981E+03</rscale>
<asrwt>0</asrwt>
<pdfrwt beam="1">  1        1 0.19468717E+00 0.58436981E+03</pdfrwt>
<pdfrwt beam="2">  1       -1 0.46138002E-01 0.58436981E+03</pdfrwt>
<totfact> 0.46876360E+01</totfact>
</mgrwt>
</event>
<event>
12    1  0.3127365E-008  0.8997881E+03  0.7818608E-02  0.9425846E-01
          2   -1    0    0  501    0  0.00000000000E+00  0.00000000000E+00  0.20249908005E+04  0.20249908005E+04  0.00000000000E+00 0. -1.
         -2   -1    0    0    0  501 -0.00000000000E+00 -0.00000000000E+00 -0.48034148484E+03  0.48034148484E+03  0.00000000000E+00 0.  1.
         23    2    1    2    0    0 -0.82358030817E+03  0.18258245044E+03  0.33209927166E+03  0.91107379252E+03  0.90247736674E+02 0.  0.
    5000000    2    1    2    0    0  0.82358030817E+03 -0.18258245044E+03  0.12125500440E+04  0.15942584928E+04  0.59980134834E+03 0.  0.
         23    2    4    4    0    0  0.19792461983E+03  0.14715953021E+03  0.11973142141E+03  0.28941156632E+03  0.92700372054E+02 0.  0.
         23    2    4    4    0    0  0.62565568834E+03 -0.32974198066E+03  0.10928186226E+04  0.13048469265E+04  0.90543611183E+02 0.  0.
          2    1    3    3  502    0 -0.21347336016E+03  0.36534509927E+02  0.12693295374E+03  0.25103310670E+03  0.00000000000E+00 0. -1.
         -2    1    3    3    0  502 -0.61010694801E+03  0.14604794052E+03  0.20516631792E+03  0.66004068582E+03  0.00000000000E+00 0.  1.
         13    1    5    5    0    0  0.10271940160E+03  0.70591052099E+02  0.11104298113E+03  0.16692787592E+03  0.00000000000E+00 0. -1.
        -13    1    5    5    0    0  0.95205218227E+02  0.76568478113E+02  0.86884402781E+01  0.12248369039E+03  0.00000000000E+00 0.  1.
          5    1    6    6  503    0  0.56817020153E+02 -0.45398705907E+02  0.16057556910E+03  0.17634006824E+03  0.47000000000E+01 0. -1.
         -5    1    6    6    0  503  0.56883866819E+03 -0.28434327475E+03  0.93224305349E+03  0.11285068582E+04  0.47000000000E+01 0.  1.
<mgrwt>
<rscale>  0 0.89978812E+03</rscale>
<asrwt>0</asrwt>
<pdfrwt beam="1">  1        2 0.31153704E+00 0.89978812E+03</pdfrwt>
<pdfrwt beam="2">  1       -2 0.73898691E-01 0.89978812E+03</pdfrwt>
<totfact> 0.10835306E+01</totfact>
</mgrwt>
</event>
<event>
12    1  0.3127365E-008  0.6405738E+03  0.7818608E-02  0.9824629E-01
         -2   -1    0    0    0  501 -0.00000000000E+00  0.00000000000E+00  0.11279430230E+04  0.11279430230E+04  0.00000000000E+00 0. -1.
          2   -1    0    0  501    0  0.00000000000E+00 -0.00000000000E+00 -0.38914159384E+03  0.38914159384E+03  0.00000000000E+00 0.  1.
         23    2    1    2    0    0 -0.17674552953E+03 -0.49091760827E+03  0.27911932388E+03  0.59872490985E+03  0.91240563319E+02 0.  0.
    5000000    2    1    2    0    0  0.17674552953E+03  0.49091760827E+03  0.45968210525E+03  0.91835970697E+03  0.59986484576E+03 0.  0.
         23    2    4    4    0    0 -0.52826221566E+02 -0.84508898448E+02  0.19048340046E+03  0.23683924080E+03  0.99380765396E+02 0.  0.
         23    2    4    4    0    0  0.22957175109E+03  0.57542650671E+03  0.26919870479E+03  0.68152046617E+03  0.90461868300E+02 0.  0.
          3    1    3    3  502    0 -0.75066532699E+02 -0.19424336760E+03  0.16244682618E+03  0.26411066151E+03  0.00000000000E+00 0. -1.
         -3    1    3    3    0  502 -0.10167899683E+03 -0.29667424066E+03  0.11667249770E+03  0.33461424834E+03  0.00000000000E+00 0.  1.
         11    1    5    5    0    0  0.26529712506E+02 -0.20888582001E+02  0.79092814277E+02  0.85999021936E+02  0.00000000000E+00 0. -1.
        -11    1    5    5    0    0 -0.79355934071E+02 -0.63620316448E+02  0.11139058618E+03  0.15084021887E+03  0.00000000000E+00 0.  1.
          5    1    6    6  503    0  0.19553697737E+03  0.40251582606E+03  0.21892713090E+03  0.49820164431E+03  0.47000000000E+01 0. -1.
         -5    1    6    6    0  503  0.34034773719E+02  0.17291068065E+03  0.50271573894E+02  0.18331882186E+03  0.47000000000E+01 0.  1.
<mgrwt>
<rscale>  0 0.64057383E+03</rscale>
<asrwt>0</asrwt>
<pdfrwt beam="1">  1        2 0.59867938E-01 0.64057383E+03</pdfrwt>
<pdfrwt beam="2">  1       -2 0.17352970E+00 0.64057383E+03</pdfrwt>
<totfact> 0.16927578E+01</totfact>
</mgrwt>
</event>
<event>
12    1  0.3127365E-008  0.1126707E+04  0.7818608E-02  0.9179545E-01
         -2   -1    0    0    0  501 -0.00000000000E+00  0.00000000000E+00  0.26719644613E+04  0.26719644613E+04  0.00000000000E+00 0.  1.
          2   -1    0    0  501    0  0.00000000000E+00 -0.00000000000E+00 -0.51542973556E+03  0.51542973556E+03  0.00000000000E+00 0. -1.
         23    2    1    2    0    0 -0.23326030889E+03 -0.10511502896E+04  0.12795439730E+04  0.16746273268E+04  0.88411547406E+02 0.  0.
    5000000    2    1    2    0    0  0.23326030889E+03  0.10511502896E+04  0.87699075270E+03  0.15127668701E+04  0.60001959948E+03 0.  0.
         23    2    4    4    0    0  0.61503076131E+02  0.98426663221E+03  0.57454212072E+03  0.11447779057E+04  0.88624901575E+02 0.  0.
         23    2    4    4    0    0  0.17175723276E+03  0.66883657394E+02  0.30244863198E+03  0.36798896438E+03  0.99833522851E+02 0.  0.
          4    1    3    3  502    0 -0.18022897585E+03 -0.67618918794E+03  0.87643983821E+03  0.11215440658E+04  0.00000000000E+00 0. -1.
         -4    1    3    3    0  502 -0.53031333040E+02 -0.37496110167E+03  0.40310413483E+03  0.55308326097E+03  0.00000000000E+00 0.  1.
         13    1    5    5    0    0  0.39329438710E+02  0.20685636554E+03  0.15187081184E+03  0.25961722632E+03  0.00000000000E+00 0. -1.
        -13    1    5    5    0    0  0.22173637421E+02  0.77741026668E+03  0.42267130889E+03  0.88516067936E+03  0.00000000000E+00 0.  1.
          5    1    6    6  503    0  0.15877204922E+03  0.67995912543E+02  0.19868947844E+03  0.26330895651E+03  0.47000000000E+01 0. -1.
         -5    1    6    6    0  503  0.12985183537E+02 -0.11122551488E+01  0.10375915354E+03  0.10468000787E+03  0.47000000000E+01 0.  1.
<mgrwt>
<rscale>  0 0.11267074E+04</rscale>
<asrwt>0</asrwt>
<pdfrwt beam="1">  1        2 0.79296884E-01 0.11267074E+04</pdfrwt>
<pdfrwt beam="2">  1       -2 0.41107145E+00 0.11267074E+04</pdfrwt>
<totfact> 0.37432336E-01</totfact>
</mgrwt>
</event>
<event>
12    1  0.3127365E-008  0.5471702E+03  0.7818608E-02  0.1002151E+00
         -2   -1    0    0    0  501 -0.00000000000E+00  0.00000000000E+00  0.12824238035E+04  0.12824238035E+04  0.00000000000E+00 0.  1.
          2   -1    0    0  501    0  0.00000000000E+00 -0.00000000000E+00 -0.33289744719E+03  0.33289744719E+03  0.00000000000E+00 0. -1.
         23    2    1    2    0    0  0.31198305281E+03 -0.32209157510E+03  0.75186626792E+02  0.46394993381E+03  0.92304410731E+02 0.  0.
    5000000    2    1    2    0    0 -0.31198305281E+03  0.32209157510E+03  0.87433972952E+03  0.11513713169E+04  0.60009127535E+03 0.  0.
         23    2    4    4    0    0  0.48251057604E+02 -0.53763581914E+02  0.47315491077E+03  0.48750352732E+03  0.92549620548E+02 0.  0.
         23    2    4    4    0    0 -0.36023411042E+03  0.37585515702E+03  0.40118481876E+03  0.66386778958E+03  0.93463735600E+02 0.  0.
          4    1    3    3  502    0  0.12478319286E+03 -0.14952735716E+03 -0.11240490463E+02  0.19507850826E+03  0.00000000000E+00 0. -1.
         -4    1    3    3    0  502  0.18719985995E+03 -0.17256421795E+03  0.86427117255E+02  0.26887142555E+03  0.00000000000E+00 0.  1.
         13    1    5    5    0    0  0.60902269247E+02 -0.72292955616E+02  0.39798145374E+03  0.40905329158E+03  0.00000000000E+00 0.  1.
        -13    1    5    5    0    0 -0.12651211643E+02  0.18529373702E+02  0.75173457021E+02  0.78450235731E+02  0.00000000000E+00 0. -1.
          5    1    6    6  503    0 -0.35022998056E+03  0.33132949495E+03  0.37678103435E+03  0.61190384159E+03  0.47000000000E+01 0. -1.
         -5    1    6    6    0  503 -0.10004129851E+02  0.44525662071E+02  0.24403784412E+02  0.51963947989E+02  0.47000000000E+01 0. -1.
<mgrwt>
<rscale>  0 0.54717021E+03</rscale>
<asrwt>0</asrwt>
<pdfrwt beam="1">  1        2 0.51214992E-01 0.54717021E+03</pdfrwt>
<pdfrwt beam="2">  1       -2 0.19729597E+00 0.54717021E+03</pdfrwt>
<totfact> 0.14087060E+01</totfact>
</mgrwt>
</event>
<event>
12    1  0.3127365E-008  0.1126320E+04  0.7818608E-02  0.9179912E-01
          2   -1    0    0  501    0  0.00000000000E+00  0.00000000000E+00  0.18489459518E+04  0.18489459518E+04  0.00000000000E+00 0. -1.
         -2   -1    0    0    0  501 -0.00000000000E+00 -0.00000000000E+00 -0.79311153733E+03  0.79311153733E+03  0.00000000000E+00 0.  1.
         23    2    1    2    0    0  0.20454421544E+03 -0.10675044055E+04  0.85119549119E+03  0.13837488420E+04  0.93931368078E+02 0.  0.
    5000000    2    1    2    0    0 -0.20454421544E+03  0.10675044055E+04  0.20463892328E+03  0.12583086471E+04  0.60004964018E+03 0.  0.
         23    2    4    4    0    0 -0.12693008521E+03  0.10326186215E+04  0.31617359369E+03  0.10912297001E+04  0.91673622854E+02 0.  0.
         23    2    4    4    0    0 -0.77614130231E+02  0.34885783980E+02 -0.11153467040E+03  0.16707894697E+03  0.90743708780E+02 0.  0.
          1    1    3    3  502    0  0.13195254674E+03 -0.51089126746E+03  0.45425815781E+03  0.69625558216E+03  0.00000000000E+00 0. -1.
         -1    1    3    3    0  502  0.72591668695E+02 -0.55661313799E+03  0.39693733338E+03  0.68749325988E+03  0.00000000000E+00 0.  1.
         13    1    5    5    0    0 -0.33097707722E+02  0.60685812518E+03  0.16459763153E+03  0.62965436761E+03  0.00000000000E+00 0.  1.
        -13    1    5    5    0    0 -0.93832377485E+02  0.42576049630E+03  0.15157596216E+03  0.46157533250E+03  0.00000000000E+00 0. -1.
          5    1    6    6  503    0 -0.88924977492E+02  0.68363976370E+01 -0.10072764589E+03  0.13461997103E+03  0.47000000000E+01 0. -1.
         -5    1    6    6    0  503  0.11310847261E+02  0.28049386343E+02 -0.10807024514E+02  0.32458975936E+02  0.47000000000E+01 0.  1.
<mgrwt>
<rscale>  0 0.11263196E+04</rscale>
<asrwt>0</asrwt>
<pdfrwt beam="1">  1        2 0.28445322E+00 0.11263196E+04</pdfrwt>
<pdfrwt beam="2">  1       -2 0.12201716E+00 0.11263196E+04</pdfrwt>
<totfact> 0.40578901E+00</totfact>
</mgrwt>
</event>
<event>
12    1  0.3127365E-008  0.8993935E+03  0.7818608E-02  0.9426340E-01
         -2   -1    0    0    0  501 -0.00000000000E+00  0.00000000000E+00  0.74795294293E+03  0.74795294293E+03  0.00000000000E+00 0. -1.
          2   -1    0    0  501    0  0.00000000000E+00 -0.00000000000E+00 -0.15812969074E+04  0.15812969074E+04  0.00000000000E+00 0.  1.
         23    2    1    2    0    0  0.71684926028E+03 -0.36521697855E+03 -0.10262534873E+04  0.13070538889E+04  0.89091778460E+02 0.  0.
    5000000    2    1    2    0    0 -0.71684926028E+03  0.36521697855E+03  0.19290952279E+03  0.10221959614E+04  0.60034506426E+03 0.  0.
         23    2    4    4    0    0 -0.55855108980E+03 -0.30724373294E+02  0.85773624764E+02  0.57310927288E+03  0.90409163929E+02 0.  0.
         23    2    4    4    0    0 -0.15829817048E+03  0.39594135184E+03  0.10713589803E+03  0.44908668855E+03  0.91503487944E+02 0.  0.
          3    1    3    3  502    0  0.11032525255E+03 -0.44779152229E+02 -0.10710262507E+03  0.16014932445E+03  0.00000000000E+00 0. -1.
         -3    1    3    3    0  502  0.60652400773E+03 -0.32043782632E+03 -0.91915086223E+03  0.11469045645E+04  0.00000000000E+00 0.  1.
         13    1    5    5    0    0 -0.24702882113E+03  0.30128207489E+02  0.48185237606E+02  0.25348129020E+03  0.00000000000E+00 0. -1.
        -13    1    5    5    0    0 -0.31152226867E+03 -0.60852580783E+02  0.37588387158E+02  0.31962798268E+03  0.00000000000E+00 0.  1.
          5    1    6    6  503    0 -0.87321859588E+02  0.25558810266E+03  0.24193592201E+02  0.27121542229E+03  0.47000000000E+01 0. -1.
         -5    1    6    6    0  503 -0.70976310890E+02  0.14035324918E+03  0.82942305829E+02  0.17787126626E+03  0.47000000000E+01 0.  1.
<mgrwt>
<rscale>  0 0.89939350E+03</rscale>
<asrwt>0</asrwt>
<pdfrwt beam="1">  1        2 0.24327644E+00 0.89939350E+03</pdfrwt>
<pdfrwt beam="2">  1       -2 0.11506969E+00 0.89939350E+03</pdfrwt>
<totfact> 0.67697001E+00</totfact>
</mgrwt>
</event>
<event>
12    1  0.3127365E-008  0.6038598E+03  0.7818608E-02  0.9897430E-01
         -2   -1    0    0    0  501 -0.00000000000E+00  0.00000000000E+00  0.10253975540E+04  0.10253975540E+04  0.00000000000E+00 0. -1.
          2   -1    0    0  501    0  0.00000000000E+00 -0.00000000000E+00 -0.38101618483E+03  0.38101618483E+03  0.00000000000E+00 0.  1.
         23    2    1    2    0    0  0.36141497087E+03  0.30903311240E+03  0.25336608901E+03  0.54626440879E+03  0.89934328973E+02 0.  0.
    5000000    2    1    2    0    0 -0.36141497087E+03 -0.30903311240E+03  0.39101528017E+03  0.86014933004E+03  0.60070098628E+03 0.  0.
         23    2    4    4    0    0 -0.20537605815E+02 -0.36658508271E+03  0.80377214301E+02  0.38671481647E+03  0.91002398774E+02 0.  0.
         23    2    4    4    0    0 -0.34087736506E+03  0.57551970313E+02  0.31063806587E+03  0.47343451357E+03  0.90192146980E+02 0.  0.
          1    1    3    3  502    0  0.22230538423E+03  0.13520610634E+03  0.11795262222E+03  0.28568023407E+03  0.00000000000E+00 0. -1.
         -1    1    3    3    0  502  0.13910958665E+03  0.17382700605E+03  0.13541346679E+03  0.26058417473E+03  0.00000000000E+00 0.  1.
         11    1    5    5    0    0  0.14054678362E+02 -0.21121232296E+03  0.83380925999E+02  0.22750946832E+03  0.00000000000E+00 0.  1.
        -11    1    5    5    0    0 -0.34592284177E+02 -0.15537275975E+03 -0.30037116986E+01  0.15920534816E+03  0.00000000000E+00 0. -1.
          5    1    6    6  503    0 -0.16936396135E+03 -0.97929919641E+01  0.11724336228E+03  0.20627202935E+03  0.47000000000E+01 0. -1.
         -5    1    6    6    0  503 -0.17151340371E+03  0.67344962278E+02  0.19339470359E+03  0.26716248422E+03  0.47000000000E+01 0.  1.
<mgrwt>
<rscale>  0 0.60385982E+03</rscale>
<asrwt>0</asrwt>
<pdfrwt beam="1">  1        2 0.58617875E-01 0.60385982E+03</pdfrwt>
<pdfrwt beam="2">  1       -2 0.15775347E+00 0.60385982E+03</pdfrwt>
<totfact> 0.22573690E+01</totfact>
</mgrwt>
</event>
<event>
12    1  0.3127365E-008  0.2021916E+04  0.7818608E-02  0.8596442E-01
          1   -1    0    0  501    0  0.00000000000E+00  0.00000000000E+00  0.35292114352E+04  0.35292114352E+04  0.00000000000E+00 0. -1.
         -1   -1    0    0    0  501 -0.00000000000E+00 -0.00000000000E+00 -0.13408345999E+04  0.13408345999E+04  0.00000000000E+00 0.  1.
         23    2    1    2    0    0  0.10633527731E+04  0.17135592160E+04  0.18514782320E+04  0.27392874260E+04  0.93379074158E+02 0.  0.
    5000000    2    1    2    0    0 -0.10633527731E+04 -0.17135592160E+04  0.33689860324E+03  0.21307586091E+04  0.59968931497E+03 0.  0.
         23    2    4    4    0    0 -0.54423709316E+03 -0.10177968007E+04  0.46667965957E+03  0.12482917007E+04  0.91312235311E+02 0.  0.
         23    2    4    4    0    0 -0.51911567997E+03 -0.69576241533E+03 -0.12978105633E+03  0.88246690841E+03  0.91314259981E+02 0.  0.
          1    1    3    3  502    0  0.62715614131E+03  0.10911115262E+04  0.11329656292E+04  0.16933577015E+04  0.00000000000E+00 0. -1.
         -1    1    3    3    0  502  0.43619663181E+03  0.62244768985E+03  0.71851260283E+03  0.10459297245E+04  0.00000000000E+00 0.  1.
         11    1    5    5    0    0 -0.36879145566E+03 -0.63436713596E+03  0.25796498889E+03  0.77780121911E+03  0.00000000000E+00 0. -1.
        -11    1    5    5    0    0 -0.17544563750E+03 -0.38342966474E+03  0.20871467068E+03  0.47049048160E+03  0.00000000000E+00 0.  1.
          5    1    6    6  503    0 -0.19742498115E+03 -0.30916055085E+03 -0.18331911627E+02  0.36730779786E+03  0.47000000000E+01 0. -1.
         -5    1    6    6    0  503 -0.32169069882E+03 -0.38660186448E+03 -0.11144914470E+03  0.51515911055E+03  0.47000000000E+01 0.  1.
<mgrwt>
<rscale>  0 0.20219156E+04</rscale>
<asrwt>0</asrwt>
<pdfrwt beam="1">  1        1 0.54295560E+00 0.20219156E+04</pdfrwt>
<pdfrwt beam="2">  1       -1 0.20628225E+00 0.20219156E+04</pdfrwt>
<totfact> 0.28790507E-02</totfact>
</mgrwt>
</event>
<event>
12    1  0.3127365E-008  0.1490856E+04  0.7818608E-02  0.8890556E-01
         -2   -1    0    0    0  501 -0.00000000000E+00  0.00000000000E+00  0.13360437504E+04  0.13360437504E+04  0.00000000000E+00 0.  1.
          2   -1    0    0  501    0  0.00000000000E+00 -0.00000000000E+00 -0.19705985516E+04  0.19705985516E+04  0.00000000000E+00 0. -1.
         23    2    1    2    0    0  0.14472504793E+04 -0.85207983038E+02  0.29591768162E+03  0.14823978494E+04  0.90231697973E+02 0.  0.
    5000000    2    1    2    0    0 -0.14472504793E+04  0.85207983038E+02 -0.93047248284E+03  0.18242444526E+04  0.60024530911E+03 0.  0.
         23    2    4    4    0    0 -0.20311824522E+01  0.68478924069E+02 -0.12204533897E+03  0.16569577076E+03  0.88693488723E+02 0.  0.
         23    2    4    4    0    0 -0.14452192969E+04  0.16729058969E+02 -0.80842714387E+03  0.16585486818E+04  0.91052762058E+02 0.  0.
          1    1    3    3  502    0  0.32211492824E+03 -0.23988593290E+01  0.31604058420E+02  0.32367050844E+03  0.00000000000E+00 0.  1.
         -1    1    3    3    0  502  0.11251355511E+04 -0.82809123709E+02  0.26431362320E+03  0.11587273410E+04  0.00000000000E+00 0. -1.
         11    1    5    5    0    0  0.22132587182E+02  0.18551827721E+02  0.28676849770E+01  0.29021463510E+02  0.00000000000E+00 0.  1.
        -11    1    5    5    0    0 -0.24163769634E+02  0.49927096347E+02 -0.12491302394E+03  0.13667430725E+03  0.00000000000E+00 0. -1.
          5    1    6    6  503    0 -0.77622187521E+03  0.44118706144E+02 -0.40182082207E+03  0.87518507919E+03  0.47000000000E+01 0. -1.
         -5    1    6    6    0  503 -0.66899742168E+03 -0.27389647175E+02 -0.40660632180E+03  0.78336360263E+03  0.47000000000E+01 0.  1.
<mgrwt>
<rscale>  0 0.14908562E+04</rscale>
<asrwt>0</asrwt>
<pdfrwt beam="1">  1        2 0.30316901E+00 0.14908562E+04</pdfrwt>
<pdfrwt beam="2">  1       -2 0.20554519E+00 0.14908562E+04</pdfrwt>
<totfact> 0.79793607E-01</totfact>
</mgrwt>
</event>
<event>
12    1  0.3127365E-008  0.5443629E+03  0.7818608E-02  0.1002807E+00
         -2   -1    0    0    0  501 -0.00000000000E+00  0.00000000000E+00  0.31458517404E+03  0.31458517404E+03  0.00000000000E+00 0.  1.
          2   -1    0    0  501    0  0.00000000000E+00 -0.00000000000E+00 -0.12436980325E+04  0.12436980325E+04  0.00000000000E+00 0. -1.
         23    2    1    2    0    0  0.19893987681E+03 -0.43098108837E+03 -0.40946642365E+03  0.63327546015E+03  0.89740087020E+02 0.  0.
    5000000    2    1    2    0    0 -0.19893987681E+03  0.43098108837E+03 -0.51964643485E+03  0.92500774643E+03  0.60023757013E+03 0.  0.
         23    2    4    4    0    0 -0.12537006541E+02 -0.68766785040E+02 -0.33403667882E+03  0.35373113053E+03  0.93054621854E+02 0.  0.
         23    2    4    4    0    0 -0.18640287026E+03  0.49974787341E+03 -0.18560975603E+03  0.57127661591E+03  0.86093108498E+02 0.  0.
          3    1    3    3  502    0  0.11481326774E+03 -0.15233823640E+03 -0.13993863803E+03  0.23658370005E+03  0.00000000000E+00 0. -1.
         -3    1    3    3    0  502  0.84126609066E+02 -0.27864285197E+03 -0.26952778562E+03  0.39669176010E+03  0.00000000000E+00 0.  1.
         11    1    5    5    0    0  0.45672123336E+01 -0.37460867373E+02 -0.31667042682E+02  0.49264364454E+02  0.00000000000E+00 0.  1.
        -11    1    5    5    0    0 -0.17104218875E+02 -0.31305917668E+02 -0.30236963614E+03  0.30446676607E+03  0.00000000000E+00 0. -1.
          5    1    6    6  503    0 -0.92112340655E+02  0.25459281680E+03 -0.13932583318E+03  0.30452580097E+03  0.47000000000E+01 0. -1.
         -5    1    6    6    0  503 -0.94290529609E+02  0.24515505661E+03 -0.46283922855E+02  0.26675081494E+03  0.47000000000E+01 0.  1.
<mgrwt>
<rscale>  0 0.54436294E+03</rscale>
<asrwt>0</asrwt>
<pdfrwt beam="1">  1        2 0.19133816E+00 0.54436294E+03</pdfrwt>
<pdfrwt beam="2">  1       -2 0.48397719E-01 0.54436294E+03</pdfrwt>
<totfact> 0.74936643E+01</totfact>
</mgrwt>
</event>
<event>
12    1  0.3127365E-008  0.9295669E+03  0.7818608E-02  0.9389358E-01
         -1   -1    0    0    0  501 -0.00000000000E+00  0.00000000000E+00  0.92736673636E+03  0.92736673636E+03  0.00000000000E+00 0.  1.
          1   -1    0    0  501    0  0.00000000000E+00 -0.00000000000E+00 -0.18719262346E+04  0.18719262346E+04  0.00000000000E+00 0. -1.
         23    2    1    2    0    0  0.59427898689E+03  0.68526042311E+03 -0.13581686181E+04  0.16357369024E+04  0.90905758364E+02 0.  0.
    5000000    2    1    2    0    0 -0.59427898689E+03 -0.68526042311E+03  0.41360911987E+03  0.11635560686E+04  0.60003404811E+03 0.  0.
         23    2    4    4    0    0 -0.57967260572E+02 -0.24424426351E+03  0.37664209873E+03  0.46231840167E+03  0.94146537006E+02 0.  0.
         23    2    4    4    0    0 -0.53631172631E+03 -0.44101615960E+03  0.36967021146E+02  0.70123766689E+03  0.90786474754E+02 0.  0.
          1    1    3    3  502    0  0.34323343653E+03  0.35568656517E+03 -0.67230454010E+03  0.83445522303E+03  0.00000000000E+00 0. -1.
         -1    1    3    3    0  502  0.25104555036E+03  0.32957385794E+03 -0.68586407800E+03  0.80128167936E+03  0.00000000000E+00 0.  1.
         13    1    5    5    0    0 -0.62192820835E+02 -0.24397020688E+03  0.38072001793E+03  0.45643963551E+03  0.00000000000E+00 0.  1.
        -13    1    5    5    0    0  0.42255602631E+01 -0.27405662707E+00 -0.40779192002E+01  0.58787661609E+01  0.00000000000E+00 0. -1.
          5    1    6    6  503    0 -0.11925343452E+03 -0.91993098276E+02 -0.28827941007E+02  0.15341855154E+03  0.47000000000E+01 0. -1.
         -5    1    6    6    0  503 -0.41705829180E+03 -0.34902306132E+03  0.65794962153E+02  0.54781911534E+03  0.47000000000E+01 0.  1.
<mgrwt>
<rscale>  0 0.92956694E+03</rscale>
<asrwt>0</asrwt>
<pdfrwt beam="1">  1        1 0.28798865E+00 0.92956694E+03</pdfrwt>
<pdfrwt beam="2">  1       -1 0.14267181E+00 0.92956694E+03</pdfrwt>
<totfact> 0.14815833E+00</totfact>
</mgrwt>
</event>
<event>
12    1  0.3127365E-008  0.5986691E+03  0.7818608E-02  0.9908171E-01
          3   -1    0    0  501    0  0.00000000000E+00  0.00000000000E+00  0.24160790311E+03  0.24160790311E+03  0.00000000000E+00 0. -1.
         -3   -1    0    0    0  501 -0.00000000000E+00 -0.00000000000E+00 -0.16627591822E+04  0.16627591822E+04  0.00000000000E+00 0.  1.
         23    2    1    2    0    0 -0.37100640000E+03 -0.26692629475E+03 -0.80579354891E+03  0.93093279167E+03  0.91854360170E+02 0.  0.
    5000000    2    1    2    0    0  0.37100640000E+03  0.26692629475E+03 -0.61535773016E+03  0.97343429362E+03  0.60001149343E+03 0.  0.
         23    2    4    4    0    0 -0.12324410579E+03  0.18918534188E+03 -0.22693100347E+03  0.33281728233E+03  0.91046471034E+02 0.  0.
         23    2    4    4    0    0  0.49425050579E+03  0.77740952879E+02 -0.38842672670E+03  0.64061701129E+03  0.95852047006E+02 0.  0.
          4    1    3    3  502    0 -0.30482733467E+03 -0.24164615659E+03 -0.61810484375E+03  0.73031922255E+03  0.00000000000E+00 0. -1.
         -4    1    3    3    0  502 -0.66179065327E+02 -0.25280138164E+02 -0.18768870516E+03  0.20061356913E+03  0.00000000000E+00 0.  1.
         11    1    5    5    0    0 -0.10926836273E+03  0.12278590805E+03 -0.20224328689E+03  0.26061139921E+03  0.00000000000E+00 0. -1.
        -11    1    5    5    0    0 -0.13975743068E+02  0.66399433824E+02 -0.24687716580E+02  0.72205883115E+02  0.00000000000E+00 0.  1.
          5    1    6    6  503    0  0.15193665778E+03  0.56888513173E+02 -0.16399501740E+03  0.23073254352E+03  0.47000000000E+01 0. -1.
         -5    1    6    6    0  503  0.34231384801E+03  0.20852439707E+02 -0.22443170930E+03  0.40988446777E+03  0.47000000000E+01 0.  1.
<mgrwt>
<rscale>  0 0.59866911E+03</rscale>
<asrwt>0</asrwt>
<pdfrwt beam="1">  1        3 0.37170444E-01 0.59866911E+03</pdfrwt>
<pdfrwt beam="2">  1       -3 0.25580912E+00 0.59866911E+03</pdfrwt>
<totfact> 0.12982492E+00</totfact>
</mgrwt>
</event>
<event>
12    1  0.3127365E-008  0.7287530E+03  0.7818608E-02  0.9669286E-01
         -2   -1    0    0    0  501 -0.00000000000E+00  0.00000000000E+00  0.66641795166E+03  0.66641795166E+03  0.00000000000E+00 0.  1.
          2   -1    0    0  501    0  0.00000000000E+00 -0.00000000000E+00 -0.97249323733E+03  0.97249323733E+03  0.00000000000E+00 0. -1.
         23    2    1    2    0    0  0.61894641757E+03 -0.18717554969E+03 -0.37650518192E+03  0.75404409764E+03  0.93257680380E+02 0.  0.
    5000000    2    1    2    0    0 -0.61894641757E+03  0.18717554969E+03  0.70429896245E+02  0.88486709135E+03  0.59991669825E+03 0.  0.
         23    2    4    4    0    0 -0.20325135332E+03  0.30112726294E+03  0.20259002117E+03  0.42494645371E+03  0.86879403351E+02 0.  0.
         23    2    4    4    0    0 -0.41569506425E+03 -0.11395171325E+03 -0.13216012493E+03  0.45992063764E+03  0.90957764455E+02 0.  0.
          1    1    3    3  502    0  0.16927143882E+03 -0.82385405041E+02 -0.14443704986E+03  0.23728092283E+03  0.00000000000E+00 0. -1.
         -1    1    3    3    0  502  0.44967497875E+03 -0.10479014465E+03 -0.23206813206E+03  0.51676317482E+03  0.00000000000E+00 0.  1.
         13    1    5    5    0    0 -0.83319811210E+02  0.75667755165E+02  0.29216150786E+02  0.11628148425E+03  0.00000000000E+00 0. -1.
        -13    1    5    5    0    0 -0.11993154211E+03  0.22545950778E+03  0.17337387039E+03  0.30866496946E+03  0.00000000000E+00 0.  1.
          5    1    6    6  503    0 -0.31886664358E+03 -0.48341655654E+02 -0.10998564671E+03  0.34078113877E+03  0.47000000000E+01 0. -1.
         -5    1    6    6    0  503 -0.96828420669E+02 -0.65610057598E+02 -0.22174478216E+02  0.11913949887E+03  0.47000000000E+01 0.  1.
<mgrwt>
<rscale>  0 0.72875300E+03</rscale>
<asrwt>0</asrwt>
<pdfrwt beam="1">  1        2 0.14961434E+00 0.72875300E+03</pdfrwt>
<pdfrwt beam="2">  1       -2 0.10252584E+00 0.72875300E+03</pdfrwt>
<totfact> 0.20802187E+01</totfact>
</mgrwt>
</event>
<event>
12    1  0.3127365E-008  0.1253630E+04  0.7818608E-02  0.9067167E-01
          1   -1    0    0  501    0  0.00000000000E+00  0.00000000000E+00  0.34877261161E+04  0.34877261161E+04  0.00000000000E+00 0. -1.
         -1   -1    0    0    0  501 -0.00000000000E+00 -0.00000000000E+00 -0.54988751142E+03  0.54988751142E+03  0.00000000000E+00 0.  1.
         23    2    1    2    0    0 -0.66235128403E+03 -0.98778013356E+03  0.57351234228E+03  0.13238671883E+04  0.96380028196E+02 0.  0.
    5000000    2    1    2    0    0  0.66235128403E+03  0.98778013356E+03  0.23643262624E+04  0.27137464392E+04  0.59996853710E+03 0.  0.
         23    2    4    4    0    0  0.51931658445E+02  0.56931552420E+03  0.89148704579E+03  0.10629264495E+04  0.90809806343E+02 0.  0.
         23    2    4    4    0    0  0.61041962559E+03  0.41846460936E+03  0.14728392166E+04  0.16508199897E+04  0.90700231179E+02 0.  0.
          2    1    3    3  502    0 -0.50274790955E+03 -0.80927828207E+03  0.43612889097E+03  0.10478049475E+04  0.00000000000E+00 0. -1.
         -2    1    3    3    0  502 -0.15960337448E+03 -0.17850185150E+03  0.13738345131E+03  0.27606224086E+03  0.00000000000E+00 0.  1.
         11    1    5    5    0    0  0.29256079191E+02  0.42446726294E+03  0.72894269004E+03  0.84402951420E+03  0.00000000000E+00 0. -1.
        -11    1    5    5    0    0  0.22675579255E+02  0.14484826126E+03  0.16254435575E+03  0.21889693528E+03  0.00000000000E+00 0.  1.
          5    1    6    6  503    0  0.20646107857E+03  0.17954482130E+03  0.47706639172E+03  0.54997904681E+03  0.47000000000E+01 0. -1.
         -5    1    6    6    0  503  0.40395854701E+03  0.23891978806E+03  0.99577282485E+03  0.11008409429E+04  0.47000000000E+01 0.  1.
<mgrwt>
<rscale>  0 0.12536303E+04</rscale>
<asrwt>0</asrwt>
<pdfrwt beam="1">  1        1 0.53657323E+00 0.12536303E+04</pdfrwt>
<pdfrwt beam="2">  1       -1 0.84598081E-01 0.12536303E+04</pdfrwt>
<totfact> 0.35252537E-01</totfact>
</mgrwt>
</event>
<event>
12    1  0.3127365E-008  0.9194717E+03  0.7818608E-02  0.9401563E-01
         -4   -1    0    0    0  501 -0.00000000000E+00  0.00000000000E+00  0.47721599060E+03  0.47721599060E+03  0.00000000000E+00 0.  1.
          4   -1    0    0  501    0  0.00000000000E+00 -0.00000000000E+00 -0.21489730148E+04  0.21489730148E+04  0.00000000000E+00 0. -1.
         23    2    1    2    0    0 -0.79241476878E+03  0.40281644350E+03 -0.10783757861E+04  0.14004884466E+04  0.91056576649E+02 0.  0.
    5000000    2    1    2    0    0  0.79241476878E+03 -0.40281644350E+03 -0.59338123810E+03  0.12257005588E+04  0.60004859230E+03 0.  0.
         23    2    4    4    0    0  0.15298608324E+03  0.45869324430E+02 -0.36393164799E+03  0.40657012293E+03  0.85698797301E+02 0.  0.
         23    2    4    4    0    0  0.63942868554E+03 -0.44868576793E+03 -0.22944959011E+03  0.81913043585E+03  0.90219700144E+02 0.  0.
          2    1    3    3  502    0 -0.51784281830E+03  0.30343070162E+03 -0.76131360857E+03  0.96944818620E+03  0.00000000000E+00 0.  1.
         -2    1    3    3    0  502 -0.27457195049E+03  0.99385741884E+02 -0.31706217752E+03  0.43104026041E+03  0.00000000000E+00 0. -1.
         11    1    5    5    0    0  0.15021843348E+03  0.39581426266E+02 -0.26334885686E+03  0.30575298440E+03  0.00000000000E+00 0. -1.
        -11    1    5    5    0    0  0.27676497625E+01  0.62878981640E+01 -0.10058279113E+03  0.10081713853E+03  0.00000000000E+00 0.  1.
          5    1    6    6  503    0  0.30036720150E+03 -0.25485547723E+03 -0.14297718861E+03  0.41908989068E+03  0.47000000000E+01 0. -1.
         -5    1    6    6    0  503  0.33906148404E+03 -0.19383029070E+03 -0.86472401503E+02  0.40004054516E+03  0.47000000000E+01 0.  1.
<mgrwt>
<rscale>  0 0.91947173E+03</rscale>
<asrwt>0</asrwt>
<pdfrwt beam="1">  1        4 0.33061123E+00 0.91947173E+03</pdfrwt>
<pdfrwt beam="2">  1       -4 0.73417846E-01 0.91947173E+03</pdfrwt>
<totfact> 0.66245975E-02</totfact>
</mgrwt>
</event>
<event>
12    1  0.3127365E-008  0.1885229E+04  0.7818608E-02  0.8662244E-01
          2   -1    0    0  501    0  0.00000000000E+00  0.00000000000E+00  0.17122135778E+04  0.17122135778E+04  0.00000000000E+00 0. -1.
         -2   -1    0    0    0  501 -0.00000000000E+00 -0.00000000000E+00 -0.23157470512E+04  0.23157470512E+04  0.00000000000E+00 0.  1.
         23    2    1    2    0    0 -0.17939853711E+04 -0.40065721317E+03 -0.93842667482E+03  0.20654097530E+04  0.79769101453E+02 0.  0.
    5000000    2    1    2    0    0  0.17939853711E+04  0.40065721317E+03  0.33489320141E+03  0.19625508760E+04  0.60045213845E+03 0.  0.
         23    2    4    4    0    0  0.17840863805E+04  0.32761109384E+03  0.31177129590E+03  0.18427690523E+04  0.91121881951E+02 0.  0.
         23    2    4    4    0    0  0.98989906062E+01  0.73046119328E+02  0.23121905516E+02  0.11978182374E+03  0.91538719780E+02 0.  0.
          1    1    3    3  502    0 -0.97577955848E+03 -0.18287499118E+03 -0.52920402649E+03  0.11250092937E+04  0.00000000000E+00 0. -1.
         -1    1    3    3    0  502 -0.81820581260E+03 -0.21778222199E+03 -0.40922264833E+03  0.94040045932E+03  0.00000000000E+00 0.  1.
         13    1    5    5    0    0  0.17343086307E+04  0.32161661638E+03  0.28782435864E+03  0.17872063496E+04  0.00000000000E+00 0.  1.
        -13    1    5    5    0    0  0.49777749774E+02  0.59944774550E+01  0.23946937260E+02  0.55562702748E+02  0.00000000000E+00 0. -1.
          5    1    6    6  503    0  0.34083482401E+02  0.83429882653E+02  0.22636863743E+02  0.93041639561E+02  0.47000000000E+01 0. -1.
         -5    1    6    6    0  503 -0.24184491795E+02 -0.10383763325E+02  0.48504177341E+00  0.26740184175E+02  0.47000000000E+01 0.  1.
<mgrwt>
<rscale>  0 0.18852292E+04</rscale>
<asrwt>0</asrwt>
<pdfrwt beam="1">  1        2 0.26341747E+00 0.18852292E+04</pdfrwt>
<pdfrwt beam="2">  1       -2 0.35626878E+00 0.18852292E+04</pdfrwt>
<totfact> 0.12366078E-01</totfact>
</mgrwt>
</event>
<event>
12    1  0.3127365E-008  0.1871315E+04  0.7818608E-02  0.8669268E-01
          2   -1    0    0  501    0  0.00000000000E+00  0.00000000000E+00  0.29517208086E+04  0.29517208086E+04  0.00000000000E+00 0. -1.
         -2   -1    0    0    0  501 -0.00000000000E+00 -0.00000000000E+00 -0.12496429101E+04  0.12496429101E+04  0.00000000000E+00 0.  1.
         23    2    1    2    0    0 -0.72649273501E+03  0.17159910246E+04  0.10348854850E+04  0.21331403448E+04  0.82963083712E+02 0.  0.
    5000000    2    1    2    0    0  0.72649273501E+03 -0.17159910246E+04  0.66719241360E+03  0.20682233739E+04  0.59998776417E+03 0.  0.
         23    2    4    4    0    0  0.55571609134E+03 -0.10290981079E+04  0.14108067044E+03  0.11815921382E+04  0.91612966734E+02 0.  0.
         23    2    4    4    0    0  0.17077664367E+03 -0.68689291667E+03  0.52611174316E+03  0.88663123568E+03  0.91295349270E+02 0.  0.
          2    1    3    3  502    0 -0.22322610666E+03  0.55315614338E+03  0.28885958636E+03  0.66276049541E+03  0.00000000000E+00 0. -1.
         -2    1    3    3    0  502 -0.50326662836E+03  0.11628348812E+04  0.74602589863E+03  0.14703798494E+04  0.00000000000E+00 0.  1.
         11    1    5    5    0    0  0.38451047672E+03 -0.74906375440E+03  0.13885423001E+03  0.85336118499E+03  0.00000000000E+00 0. -1.
        -11    1    5    5    0    0  0.17120561463E+03 -0.28003435348E+03  0.22264404262E+01  0.32823095321E+03  0.00000000000E+00 0.  1.
          5    1    6    6  503    0  0.17024530431E+03 -0.66654666243E+03  0.52555404333E+03  0.86573498213E+03  0.47000000000E+01 0. -1.
         -5    1    6    6    0  503  0.53133936326E+00 -0.20346254247E+02  0.55769983521E+00  0.20896253552E+02  0.47000000000E+01 0. -1.
<mgrwt>
<rscale>  0 0.18713147E+04</rscale>
<asrwt>0</asrwt>
<pdfrwt beam="1">  1        2 0.45411089E+00 0.18713147E+04</pdfrwt>
<pdfrwt beam="2">  1       -2 0.19225276E+00 0.18713147E+04</pdfrwt>
<totfact> 0.25308310E-01</totfact>
</mgrwt>
</event>
<event>
12    1  0.3127365E-008  0.8018295E+03  0.7818608E-02  0.9557373E-01
         -1   -1    0    0    0  501 -0.00000000000E+00  0.00000000000E+00  0.37039629492E+03  0.37039629492E+03  0.00000000000E+00 0.  1.
          1   -1    0    0  501    0  0.00000000000E+00 -0.00000000000E+00 -0.22959992563E+04  0.22959992563E+04  0.00000000000E+00 0. -1.
         23    2    1    2    0    0 -0.31913738578E+03 -0.72001306794E+03 -0.52380135703E+03  0.95020549971E+03  0.90857806737E+02 0.  0.
    5000000    2    1    2    0    0  0.31913738578E+03  0.72001306794E+03 -0.14018016043E+04  0.17161900515E+04  0.59999422158E+03 0.  0.
         23    2    4    4    0    0  0.21187277738E+02  0.14720282880E+03 -0.83232776741E+03  0.85036116097E+03  0.90702911408E+02 0.  0.
         23    2    4    4    0    0  0.29795010804E+03  0.57281023913E+03 -0.56947383691E+03  0.86582889051E+03  0.92050962958E+02 0.  0.
          4    1    3    3  502    0 -0.10899610844E+03 -0.22824626688E+03 -0.21954996491E+03  0.33493088405E+03  0.00000000000E+00 0.  1.
         -4    1    3    3    0  502 -0.21014127734E+03 -0.49176680106E+03 -0.30425139212E+03  0.61527461566E+03  0.00000000000E+00 0. -1.
         13    1    5    5    0    0  0.32077807861E+02  0.15332831949E+03 -0.80764234598E+03  0.82269357500E+03  0.00000000000E+00 0. -1.
        -13    1    5    5    0    0 -0.10890530123E+02 -0.61254906887E+01 -0.24685421427E+02  0.27667585973E+02  0.00000000000E+00 0.  1.
          5    1    6    6  503    0  0.25834381764E+03  0.46695386769E+03 -0.50931267515E+03  0.73770518077E+03  0.47000000000E+01 0. -1.
         -5    1    6    6    0  503  0.39606290406E+02  0.10585637144E+03 -0.60161161764E+02  0.12812370975E+03  0.47000000000E+01 0.  1.
<mgrwt>
<rscale>  0 0.80182950E+03</rscale>
<asrwt>0</asrwt>
<pdfrwt beam="1">  1        1 0.35323066E+00 0.80182950E+03</pdfrwt>
<pdfrwt beam="2">  1       -1 0.56984045E-01 0.80182950E+03</pdfrwt>
<totfact> 0.61007998E+00</totfact>
</mgrwt>
</event>
<event>
12    1  0.3127365E-008  0.1520897E+04  0.7818608E-02  0.8870674E-01
          1   -1    0    0  501    0  0.00000000000E+00  0.00000000000E+00  0.12277870362E+04  0.12277870362E+04  0.00000000000E+00 0. -1.
         -1   -1    0    0    0  501 -0.00000000000E+00 -0.00000000000E+00 -0.19754099012E+04  0.19754099012E+04  0.00000000000E+00 0.  1.
         23    2    1    2    0    0 -0.12293204670E+04 -0.85351926793E+03 -0.27909048571E+03  0.15242126490E+04  0.74891579650E+02 0.  0.
    5000000    2    1    2    0    0  0.12293204670E+04  0.85351926793E+03 -0.46853237929E+03  0.16789842885E+04  0.59978471067E+03 0.  0.
         23    2    4    4    0    0  0.89942593634E+03  0.42289293042E+03 -0.71818011175E+02  0.10007920384E+04  0.92851665538E+02 0.  0.
         23    2    4    4    0    0  0.32989453068E+03  0.43062633752E+03 -0.39671436811E+03  0.67819225010E+03  0.91065878880E+02 0.  0.
          3    1    3    3  502    0 -0.11598375931E+04 -0.79947662752E+03 -0.24506639458E+03  0.14298404310E+04  0.00000000000E+00 0. -1.
         -3    1    3    3    0  502 -0.69482873913E+02 -0.54042640412E+02 -0.34024091125E+02  0.94372217982E+02  0.00000000000E+00 0.  1.
         11    1    5    5    0    0  0.44011726747E+03  0.17080137187E+03 -0.67000579403E+02  0.47682847587E+03  0.00000000000E+00 0. -1.
        -11    1    5    5    0    0  0.45930866887E+03  0.25209155854E+03 -0.48174317715E+01  0.52396356251E+03  0.00000000000E+00 0.  1.
          5    1    6    6  503    0  0.15490082937E+03  0.13524102503E+03 -0.12891966285E+03  0.24274837025E+03  0.47000000000E+01 0.  1.
         -5    1    6    6    0  503  0.17499370130E+03  0.29538531249E+03 -0.26779470526E+03  0.43544387985E+03  0.47000000000E+01 0. -1.
<mgrwt>
<rscale>  0 0.15208972E+04</rscale>
<asrwt>0</asrwt>
<pdfrwt beam="1">  1        1 0.18889031E+00 0.15208972E+04</pdfrwt>
<pdfrwt beam="2">  1       -1 0.30390922E+00 0.15208972E+04</pdfrwt>
<totfact> 0.30058942E-01</totfact>
</mgrwt>
</event>
<event>
12    1  0.3127365E-008  0.4189645E+03  0.7818608E-02  0.1037404E+00
          2   -1    0    0  501    0  0.00000000000E+00  0.00000000000E+00  0.55234804548E+03  0.55234804548E+03  0.00000000000E+00 0. -1.
         -2   -1    0    0    0  501 -0.00000000000E+00 -0.00000000000E+00 -0.62332570653E+03  0.62332570653E+03  0.00000000000E+00 0.  1.
         23    2    1    2    0    0  0.13748375784E+03  0.36514783452E+03  0.14926077723E+03  0.42742037632E+03  0.90413902431E+02 0.  0.
    5000000    2    1    2    0    0 -0.13748375784E+03 -0.36514783452E+03 -0.22023843828E+03  0.74825337569E+03  0.59928575807E+03 0.  0.
         23    2    4    4    0    0 -0.72858454600E+01 -0.47485303217E+02  0.18312169645E+03  0.21039437191E+03  0.91783977099E+02 0.  0.
         23    2    4    4    0    0 -0.13019791238E+03 -0.31766253130E+03 -0.40336013473E+03  0.53785900379E+03  0.93444793782E+02 0.  0.
          4    1    3    3  502    0  0.43332222815E+02  0.18501002025E+03  0.31790112318E+02  0.19265772854E+03  0.00000000000E+00 0. -1.
         -4    1    3    3    0  502  0.94151535024E+02  0.18013781427E+03  0.11747066491E+03  0.23476264778E+03  0.00000000000E+00 0.  1.
         11    1    5    5    0    0  0.36261447544E+01  0.25051845972E+02  0.22712099945E+02  0.34008578275E+02  0.00000000000E+00 0.  1.
        -11    1    5    5    0    0 -0.10911990214E+02 -0.72537149189E+02  0.16040959651E+03  0.17638579363E+03  0.00000000000E+00 0. -1.
          5    1    6    6  503    0 -0.70435233161E+02 -0.22330447314E+03 -0.21025907165E+03  0.31473318384E+03  0.47000000000E+01 0. -1.
         -5    1    6    6    0  503 -0.59762679219E+02 -0.94358058157E+02 -0.19310106308E+03  0.22312581995E+03  0.47000000000E+01 0.  1.
<mgrwt>
<rscale>  0 0.41896453E+03</rscale>
<asrwt>0</asrwt>
<pdfrwt beam="1">  1        2 0.84976623E-01 0.41896453E+03</pdfrwt>
<pdfrwt beam="2">  1       -2 0.95896262E-01 0.41896453E+03</pdfrwt>
<totfact> 0.52060606E+01</totfact>
</mgrwt>
</event>
<event>
12    1  0.3127365E-008  0.7487892E+03  0.7818608E-02  0.9637252E-01
          2   -1    0    0  501    0  0.00000000000E+00  0.00000000000E+00  0.12741461252E+04  0.12741461252E+04  0.00000000000E+00 0. -1.
         -2   -1    0    0    0  501 -0.00000000000E+00 -0.00000000000E+00 -0.53453681177E+03  0.53453681177E+03  0.00000000000E+00 0.  1.
         23    2    1    2    0    0 -0.70056453567E+03  0.62416447901E+02  0.44147330541E+03  0.83740113895E+03  0.10796067119E+03 0.  0.
    5000000    2    1    2    0    0  0.70056453567E+03 -0.62416447901E+02  0.29813600801E+03  0.97128179801E+03  0.59984728913E+03 0.  0.
         23    2    4    4    0    0  0.65858835865E+03  0.50197377571E+02  0.41012276686E+03  0.78157395283E+03  0.79992230700E+02 0.  0.
         23    2    4    4    0    0  0.41976177014E+02 -0.11261382547E+03 -0.11198675885E+03  0.18970784519E+03  0.94890248407E+02 0.  0.
          1    1    3    3  502    0 -0.36294785333E+03  0.45559574471E+02  0.16769844091E+03  0.40240475413E+03  0.00000000000E+00 0. -1.
         -1    1    3    3    0  502 -0.33761668234E+03  0.16856873430E+02  0.27377486451E+03  0.43499638482E+03  0.00000000000E+00 0.  1.
         11    1    5    5    0    0  0.24064432354E+03  0.29083934739E+02  0.19467901583E+03  0.31089465244E+03  0.00000000000E+00 0. -1.
        -11    1    5    5    0    0  0.41794403511E+03  0.21113442833E+02  0.21544375104E+03  0.47067930039E+03  0.00000000000E+00 0.  1.
          5    1    6    6  503    0 -0.11494265746E+02 -0.66441029574E+01  0.11631709414E+02  0.18266059045E+02  0.47000000000E+01 0. -1.
         -5    1    6    6    0  503  0.53470442761E+02 -0.10596972252E+03 -0.12361846826E+03  0.17144178614E+03  0.47000000000E+01 0.  1.
<mgrwt>
<rscale>  0 0.74878917E+03</rscale>
<asrwt>0</asrwt>
<pdfrwt beam="1">  1        2 0.19602248E+00 0.74878917E+03</pdfrwt>
<pdfrwt beam="2">  1       -2 0.82236433E-01 0.74878917E+03</pdfrwt>
<totfact> 0.22683226E+01</totfact>
</mgrwt>
</event>
<event>
12    1  0.3127365E-008  0.1808692E+04  0.7818608E-02  0.8701691E-01
          1   -1    0    0  501    0  0.00000000000E+00  0.00000000000E+00  0.37460121659E+04  0.37460121659E+04  0.00000000000E+00 0. -1.
         -1   -1    0    0    0  501 -0.00000000000E+00 -0.00000000000E+00 -0.10992957678E+04  0.10992957678E+04  0.00000000000E+00 0.  1.
         23    2    1    2    0    0 -0.15209919790E+04  0.89409141595E+03  0.23780215116E+04  0.29624805849E+04  0.92134933740E+02 0.  0.
    5000000    2    1    2    0    0  0.15209919790E+04 -0.89409141595E+03  0.26869488647E+03  0.18828273487E+04  0.60002151864E+03 0.  0.
         23    2    4    4    0    0  0.10367247905E+04 -0.87928310813E+03  0.27552458322E+03  0.13898119752E+04  0.87900256322E+02 0.  0.
         23    2    4    4    0    0  0.48426718851E+03 -0.14808307813E+02 -0.68296967545E+01  0.49301537349E+03  0.91013833543E+02 0.  0.
          1    1    3    3  502    0 -0.10989826899E+04  0.63326589503E+03  0.16411131121E+04  0.20741361800E+04  0.00000000000E+00 0. -1.
         -1    1    3    3    0  502 -0.42200928913E+03  0.26082552092E+03  0.73690839956E+03  0.88834440495E+03  0.00000000000E+00 0.  1.
         13    1    5    5    0    0  0.87072649578E+03 -0.77359329704E+03  0.25129862035E+03  0.11915377528E+04  0.00000000000E+00 0. -1.
        -13    1    5    5    0    0  0.16599829471E+03 -0.10568981110E+03  0.24225962873E+02  0.19827422246E+03  0.00000000000E+00 0.  1.
          5    1    6    6  503    0  0.42745002048E+03  0.13565301353E+02  0.74351964677E+01  0.42775566572E+03  0.47000000000E+01 0. -1.
         -5    1    6    6    0  503  0.56817168025E+02 -0.28373609166E+02 -0.14264893222E+02  0.65259707769E+02  0.47000000000E+01 0.  1.
<mgrwt>
<rscale>  0 0.18086924E+04</rscale>
<asrwt>0</asrwt>
<pdfrwt beam="1">  1        1 0.57630956E+00 0.18086924E+04</pdfrwt>
<pdfrwt beam="2">  1       -1 0.16912243E+00 0.18086924E+04</pdfrwt>
<totfact> 0.36286826E-02</totfact>
</mgrwt>
</event>
<event>
12    1  0.3127365E-008  0.7394891E+03  0.7818608E-02  0.9651986E-01
          2   -1    0    0  501    0  0.00000000000E+00  0.00000000000E+00  0.20607305893E+04  0.20607305893E+04  0.00000000000E+00 0. -1.
         -2   -1    0    0    0  501 -0.00000000000E+00 -0.00000000000E+00 -0.49300018857E+03  0.49300018857E+03  0.00000000000E+00 0.  1.
         23    2    1    2    0    0 -0.56368627546E+03 -0.32296593073E+03  0.15341339906E+04  0.16687092901E+04  0.94733225804E+02 0.  0.
    5000000    2    1    2    0    0  0.56368627546E+03  0.32296593073E+03  0.33596410112E+02  0.88502148780E+03  0.60007091709E+03 0.  0.
         23    2    4    4    0    0 -0.75474525255E+02 -0.14807447245E+02  0.10045729710E+03  0.15258877199E+03  0.85299474443E+02 0.  0.
         23    2    4    4    0    0  0.63916080071E+03  0.33777337798E+03 -0.66860886991E+02  0.73243271581E+03  0.96798351944E+02 0.  0.
          3    1    3    3  502    0 -0.59766751549E+02 -0.22778186911E+02  0.23023320535E+03  0.23895237859E+03  0.00000000000E+00 0. -1.
         -3    1    3    3    0  502 -0.50391952391E+03 -0.30018774382E+03  0.13039007853E+04  0.14297569115E+04  0.00000000000E+00 0.  1.
         11    1    5    5    0    0 -0.64483514828E+02 -0.39054489966E+02  0.10091241591E+03  0.12596306028E+03  0.00000000000E+00 0.  1.
        -11    1    5    5    0    0 -0.10991010426E+02  0.24247042721E+02 -0.45511880509E+00  0.26625711709E+02  0.00000000000E+00 0. -1.
          5    1    6    6  503    0  0.23060925351E+03  0.83998353119E+02  0.83159029827E+01  0.24561676525E+03  0.47000000000E+01 0. -1.
         -5    1    6    6    0  503  0.40855154720E+03  0.25377502486E+03 -0.75176789973E+02  0.48681595055E+03  0.47000000000E+01 0.  1.
<mgrwt>
<rscale>  0 0.73948909E+03</rscale>
<asrwt>0</asrwt>
<pdfrwt beam="1">  1        2 0.31703547E+00 0.73948909E+03</pdfrwt>
<pdfrwt beam="2">  1       -2 0.75846184E-01 0.73948909E+03</pdfrwt>
<totfact> 0.99969265E+00</totfact>
</mgrwt>
</event>
<event>
12    1  0.3127365E-008  0.7538778E+03  0.7818608E-02  0.9629286E-01
          1   -1    0    0  501    0  0.00000000000E+00  0.00000000000E+00  0.29745065026E+04  0.29745065026E+04  0.00000000000E+00 0. -1.
         -1   -1    0    0    0  501 -0.00000000000E+00 -0.00000000000E+00 -0.23020504613E+03  0.23020504613E+03  0.00000000000E+00 0.  1.
         23    2    1    2    0    0  0.31565168368E+03  0.59050524771E+03  0.16838826962E+04  0.18143968681E+04  0.90788917708E+02 0.  0.
    5000000    2    1    2    0    0 -0.31565168368E+03 -0.59050524771E+03  0.10604187603E+04  0.13903146806E+04  0.60012876197E+03 0.  0.
         23    2    4    4    0    0 -0.18578177230E+03 -0.65308239380E+03  0.64468287582E+03  0.94065095253E+03  0.90425240479E+02 0.  0.
         23    2    4    4    0    0 -0.12986991137E+03  0.62577146084E+02  0.41573588448E+03  0.44966372808E+03  0.92623159167E+02 0.  0.
          2    1    3    3  502    0  0.26004083767E+03  0.51238963381E+03  0.13544256683E+04  0.14712692701E+04  0.00000000000E+00 0. -1.
         -2    1    3    3    0  502  0.55610846010E+02  0.78115613901E+02  0.32945702788E+03  0.34312759806E+03  0.00000000000E+00 0.  1.
         11    1    5    5    0    0 -0.17998007232E+03 -0.50846444599E+03  0.52724226836E+03  0.75426343462E+03  0.00000000000E+00 0.  1.
        -11    1    5    5    0    0 -0.58016999842E+01 -0.14461794781E+03  0.11744060747E+03  0.18638751791E+03  0.00000000000E+00 0. -1.
          5    1    6    6  503    0 -0.11297364626E+03  0.71191014150E+02  0.25632824429E+03  0.28906307974E+03  0.47000000000E+01 0. -1.
         -5    1    6    6    0  503 -0.16896265114E+02 -0.86138680660E+01  0.15940764019E+03  0.16060064835E+03  0.47000000000E+01 0.  1.
<mgrwt>
<rscale>  0 0.75387782E+03</rscale>
<asrwt>0</asrwt>
<pdfrwt beam="1">  1        1 0.45761636E+00 0.75387782E+03</pdfrwt>
<pdfrwt beam="2">  1       -1 0.35416163E-01 0.75387782E+03</pdfrwt>
<totfact> 0.50541129E+00</totfact>
</mgrwt>
</event>
<event>
12    1  0.3127365E-008  0.1061397E+04  0.7818608E-02  0.9243655E-01
         -1   -1    0    0    0  501 -0.00000000000E+00  0.00000000000E+00  0.19680869629E+04  0.19680869629E+04  0.00000000000E+00 0.  1.
          1   -1    0    0  501    0  0.00000000000E+00 -0.00000000000E+00 -0.61251569041E+03  0.61251569041E+03  0.00000000000E+00 0. -1.
         23    2    1    2    0    0  0.87081638357E+03 -0.46621541449E+03  0.89668641377E+03  0.13371520313E+04  0.90835255563E+02 0.  0.
    5000000    2    1    2    0    0 -0.87081638357E+03  0.46621541449E+03  0.45888485869E+03  0.12434506219E+04  0.59993012016E+03 0.  0.
         23    2    4    4    0    0  0.54428611800E+01 -0.64593971316E+02  0.11221229364E+03  0.15855796340E+03  0.91362043786E+02 0.  0.
         23    2    4    4    0    0 -0.87625924475E+03  0.53080938580E+03  0.34667256505E+03  0.10848926585E+04  0.84978498074E+02 0.  0.
          4    1    3    3  502    0  0.48139683952E+03 -0.21382625002E+03  0.50844537352E+03  0.73210742392E+03  0.00000000000E+00 0. -1.
         -4    1    3    3    0  502  0.38941954405E+03 -0.25238916447E+03  0.38824104025E+03  0.60504460742E+03  0.00000000000E+00 0.  1.
         13    1    5    5    0    0  0.43122363737E+02 -0.16890310333E+02  0.26130151638E+02  0.53175235421E+02  0.00000000000E+00 0.  1.
        -13    1    5    5    0    0 -0.37679502557E+02 -0.47703660983E+02  0.86082142003E+02  0.10538272798E+03  0.00000000000E+00 0. -1.
          5    1    6    6  503    0 -0.53210251440E+03  0.30701855677E+03  0.24901827085E+03  0.66289189862E+03  0.47000000000E+01 0. -1.
         -5    1    6    6    0  503 -0.34415673035E+03  0.22379082903E+03  0.97654294203E+02  0.42200075993E+03  0.47000000000E+01 0.  1.
<mgrwt>
<rscale>  0 0.10613974E+04</rscale>
<asrwt>0</asrwt>
<pdfrwt beam="1">  1        1 0.94233184E-01 0.10613974E+04</pdfrwt>
<pdfrwt beam="2">  1       -1 0.30278261E+00 0.10613974E+04</pdfrwt>
<totfact> 0.10593654E+00</totfact>
</mgrwt>
</event>
<event>
12    1  0.3127365E-008  0.1055944E+04  0.7818608E-02  0.9249229E-01
         -1   -1    0    0    0  501 -0.00000000000E+00  0.00000000000E+00  0.91184764076E+03  0.91184764076E+03  0.00000000000E+00 0.  1.
          1   -1    0    0  501    0  0.00000000000E+00 -0.00000000000E+00 -0.17402906038E+04  0.17402906038E+04  0.00000000000E+00 0. -1.
         23    2    1    2    0    0 -0.90947450370E+03 -0.45217114827E+03  0.25497185811E+03  0.10505299661E+04  0.83665649675E+02 0.  0.
    5000000    2    1    2    0    0  0.90947450370E+03  0.45217114827E+03 -0.10834148212E+04  0.16016082785E+04  0.59979895202E+03 0.  0.
         23    2    4    4    0    0  0.70861954209E+03  0.15729154785E+03 -0.97091708905E+03  0.12155297665E+04  0.89164639552E+02 0.  0.
         23    2    4    4    0    0  0.20085496161E+03  0.29487960043E+03 -0.11249773212E+03  0.38607851202E+03  0.95415844405E+02 0.  0.
          1    1    3    3  502    0 -0.81313964653E+03 -0.38442015740E+03  0.24573327158E+03  0.93239464978E+03  0.00000000000E+00 0. -1.
         -1    1    3    3    0  502 -0.96334857176E+02 -0.67750990870E+02  0.92385865296E+01  0.11813531628E+03  0.00000000000E+00 0.  1.
         13    1    5    5    0    0  0.27021758338E+03  0.74340967458E+02 -0.30775381333E+03  0.41624095357E+03  0.00000000000E+00 0.  1.
        -13    1    5    5    0    0  0.43840195871E+03  0.82950580391E+02 -0.66316327571E+03  0.79928881291E+03  0.00000000000E+00 0. -1.
          5    1    6    6  503    0  0.14593507123E+03  0.27170379976E+03 -0.83105987194E+02  0.31945061422E+03  0.47000000000E+01 0. -1.
         -5    1    6    6    0  503  0.54919890384E+02  0.23175800669E+02 -0.29391744922E+02  0.66627897806E+02  0.47000000000E+01 0.  1.
<mgrwt>
<rscale>  0 0.10559437E+04</rscale>
<asrwt>0</asrwt>
<pdfrwt beam="1">  1        1 0.26773701E+00 0.10559437E+04</pdfrwt>
<pdfrwt beam="2">  1       -1 0.14028425E+00 0.10559437E+04</pdfrwt>
<totfact> 0.18652365E+00</totfact>
</mgrwt>
</event>
<event>
12    1  0.3127365E-008  0.3954797E+03  0.7818608E-02  0.1045356E+00
         -2   -1    0    0    0  501 -0.00000000000E+00  0.00000000000E+00  0.19435598218E+03  0.19435598218E+03  0.00000000000E+00 0.  1.
          2   -1    0    0  501    0  0.00000000000E+00 -0.00000000000E+00 -0.13231990085E+04  0.13231990085E+04  0.00000000000E+00 0. -1.
         23    2    1    2    0    0 -0.16489674485E+03  0.27512023727E+03 -0.35765701710E+03  0.48919998708E+03  0.92282197938E+02 0.  0.
    5000000    2    1    2    0    0  0.16489674485E+03 -0.27512023727E+03 -0.77118600922E+03  0.10283550036E+04  0.59992005401E+03 0.  0.
         23    2    4    4    0    0  0.24477646153E+03 -0.12170368757E+03 -0.64932698340E+02  0.29505222925E+03  0.90068079709E+02 0.  0.
         23    2    4    4    0    0 -0.79879716679E+02 -0.15341654969E+03 -0.70625331088E+03  0.73330277436E+03  0.94983224258E+02 0.  0.
          1    1    3    3  502    0 -0.12077420776E+03  0.13828721947E+03 -0.24705603037E+03  0.30780910719E+03  0.00000000000E+00 0. -1.
         -1    1    3    3    0  502 -0.44122537086E+02  0.13683301779E+03 -0.11060098674E+03  0.18139087988E+03  0.00000000000E+00 0.  1.
         13    1    5    5    0    0  0.10846862285E+03 -0.29678108114E+02 -0.66372484683E+02  0.13058154145E+03  0.00000000000E+00 0. -1.
        -13    1    5    5    0    0  0.13630783868E+03 -0.92025579459E+02  0.14397863425E+01  0.16447068780E+03  0.00000000000E+00 0.  1.
          5    1    6    6  503    0 -0.85559888782E+02 -0.95601207887E+02 -0.58293612263E+03  0.59690593781E+03  0.47000000000E+01 0. -1.
         -5    1    6    6    0  503  0.56801721028E+01 -0.57815341806E+02 -0.12331718825E+03  0.13639683655E+03  0.47000000000E+01 0.  1.
<mgrwt>
<rscale>  0 0.39547969E+03</rscale>
<asrwt>0</asrwt>
<pdfrwt beam="1">  1        2 0.20356909E+00 0.39547969E+03</pdfrwt>
<pdfrwt beam="2">  1       -2 0.29900919E-01 0.39547969E+03</pdfrwt>
<totfact> 0.17349184E+02</totfact>
</mgrwt>
</event>
<event>
12    1  0.3127365E-008  0.8140751E+03  0.7818608E-02  0.9539865E-01
         -2   -1    0    0    0  501 -0.00000000000E+00  0.00000000000E+00  0.52246102558E+03  0.52246102558E+03  0.00000000000E+00 0.  1.
          2   -1    0    0  501    0  0.00000000000E+00 -0.00000000000E+00 -0.14598564700E+04  0.14598564700E+04  0.00000000000E+00 0. -1.
         23    2    1    2    0    0  0.32047938218E+03 -0.68686625558E+03 -0.28120779331E+03  0.81393465036E+03  0.94443128818E+02 0.  0.
    5000000    2    1    2    0    0 -0.32047938218E+03  0.68686625558E+03 -0.65618765108E+03  0.11683828452E+04  0.60003662558E+03 0.  0.
         23    2    4    4    0    0  0.90408544363E+02  0.10074067549E+03 -0.34658302494E+03  0.38325783153E+03  0.91893327627E+02 0.  0.
         23    2    4    4    0    0 -0.41088792655E+03  0.58612558009E+03 -0.30960462614E+03  0.78512501365E+03  0.90521703016E+02 0.  0.
          4    1    3    3  502    0  0.11573914358E+03 -0.31757766517E+03 -0.16415654732E+03  0.37576388171E+03  0.00000000000E+00 0. -1.
         -4    1    3    3    0  502  0.20474023861E+03 -0.36928859041E+03 -0.11705124599E+03  0.43817076866E+03  0.00000000000E+00 0.  1.
         11    1    5    5    0    0  0.30402630113E+02  0.78049898613E+02 -0.11077126123E+03  0.13887540785E+03  0.00000000000E+00 0. -1.
        -11    1    5    5    0    0  0.60005914250E+02  0.22690776876E+02 -0.23581176371E+03  0.24438242368E+03  0.00000000000E+00 0.  1.
          5    1    6    6  503    0 -0.39936799060E+03  0.58375858470E+03 -0.31042341655E+03  0.77243359887E+03  0.47000000000E+01 0. -1.
         -5    1    6    6    0  503 -0.11519935947E+02  0.23669953959E+01  0.81879041160E+00  0.12691414782E+02  0.47000000000E+01 0.  1.
<mgrwt>
<rscale>  0 0.81407506E+03</rscale>
<asrwt>0</asrwt>
<pdfrwt beam="1">  1        2 0.22459330E+00 0.81407506E+03</pdfrwt>
<pdfrwt beam="2">  1       -2 0.80378620E-01 0.81407506E+03</pdfrwt>
<totfact> 0.18581673E+01</totfact>
</mgrwt>
</event>
<event>
12    1  0.3127365E-008  0.4590723E+03  0.7818608E-02  0.1025051E+00
         -2   -1    0    0    0  501 -0.00000000000E+00  0.00000000000E+00  0.43141375640E+03  0.43141375640E+03  0.00000000000E+00 0.  1.
          2   -1    0    0  501    0  0.00000000000E+00 -0.00000000000E+00 -0.80010688855E+03  0.80010688855E+03  0.00000000000E+00 0. -1.
         23    2    1    2    0    0  0.21075431627E+03  0.36480295245E+03 -0.57613729980E+02  0.43496609136E+03  0.91529136386E+02 0.  0.
    5000000    2    1    2    0    0 -0.21075431627E+03 -0.36480295245E+03 -0.31107940217E+03  0.79655455360E+03  0.60019179139E+03 0.  0.
         23    2    4    4    0    0 -0.24068160078E+03 -0.26199769679E+03  0.84558585198E+02  0.37641591729E+03  0.89265684220E+02 0.  0.
         23    2    4    4    0    0  0.29927284510E+02 -0.10280525566E+03 -0.39563798737E+03  0.42013863631E+03  0.92317353296E+02 0.  0.
          3    1    3    3  502    0  0.16939398172E+03  0.31703290026E+03 -0.16999255973E+02  0.35985157439E+03  0.00000000000E+00 0. -1.
         -3    1    3    3    0  502  0.41360334550E+02  0.47770052196E+02 -0.40614474006E+02  0.75114516970E+02  0.00000000000E+00 0.  1.
         11    1    5    5    0    0 -0.10809317159E+03 -0.18247294618E+03  0.53251943015E+02  0.21866933774E+03  0.00000000000E+00 0. -1.
        -11    1    5    5    0    0 -0.13258842919E+03 -0.79524750614E+02  0.31306642183E+02  0.15774657955E+03  0.00000000000E+00 0.  1.
          5    1    6    6  503    0  0.50887090051E+02 -0.90830699543E+02 -0.22780333441E+03  0.25051179829E+03  0.47000000000E+01 0. -1.
         -5    1    6    6    0  503 -0.20959805542E+02 -0.11974556115E+02 -0.16783465295E+03  0.16962683801E+03  0.47000000000E+01 0.  1.
<mgrwt>
<rscale>  0 0.45907234E+03</rscale>
<asrwt>0</asrwt>
<pdfrwt beam="1">  1        2 0.12309337E+00 0.45907234E+03</pdfrwt>
<pdfrwt beam="2">  1       -2 0.66371348E-01 0.45907234E+03</pdfrwt>
<totfact> 0.74756810E+01</totfact>
</mgrwt>
</event>
<event>
12    1  0.3127365E-008  0.3569759E+03  0.7818608E-02  0.1059788E+00
          1   -1    0    0  501    0  0.00000000000E+00  0.00000000000E+00  0.52180993271E+03  0.52180993271E+03  0.00000000000E+00 0. -1.
         -1   -1    0    0    0  501 -0.00000000000E+00 -0.00000000000E+00 -0.42875265182E+03  0.42875265182E+03  0.00000000000E+00 0.  1.
         23    2    1    2    0    0 -0.35625884330E+02 -0.25705462304E+03 -0.54334273238E+02  0.28043568911E+03  0.91354691270E+02 0.  0.
    5000000    2    1    2    0    0  0.35625884330E+02  0.25705462304E+03  0.14739155413E+03  0.67012689543E+03  0.59999958574E+03 0.  0.
         23    2    4    4    0    0 -0.51617227805E+02 -0.46704003941E+02 -0.17492161874E+03  0.20912435758E+03  0.91048459850E+02 0.  0.
         23    2    4    4    0    0  0.87243112135E+02  0.30375862698E+03  0.32231317287E+03  0.46100253784E+03  0.93578279577E+02 0.  0.
          2    1    3    3  502    0 -0.62166590170E+02 -0.18426438650E+03 -0.19360918902E+02  0.19543002391E+03  0.00000000000E+00 0. -1.
         -2    1    3    3    0  502  0.26540705840E+02 -0.72790236540E+02 -0.34973354335E+02  0.85005665196E+02  0.00000000000E+00 0.  1.
         11    1    5    5    0    0  0.22919934518E+02 -0.27709426124E+02 -0.39770541967E+02  0.53617457071E+02  0.00000000000E+00 0. -1.
        -11    1    5    5    0    0 -0.74537162323E+02 -0.18994577817E+02 -0.13515107678E+03  0.15550690051E+03  0.00000000000E+00 0.  1.
          5    1    6    6  503    0  0.91431282793E+02  0.15345401072E+03  0.18729275683E+03  0.25885996144E+03  0.47000000000E+01 0.  1.
         -5    1    6    6    0  503 -0.41881706585E+01  0.15030461627E+03  0.13502041604E+03  0.20214257640E+03  0.47000000000E+01 0. -1.
<mgrwt>
<rscale>  0 0.35697593E+03</rscale>
<asrwt>0</asrwt>
<pdfrwt beam="1">  1        1 0.80278451E-01 0.35697593E+03</pdfrwt>
<pdfrwt beam="2">  1       -1 0.65961947E-01 0.35697593E+03</pdfrwt>
<totfact> 0.10279008E+02</totfact>
</mgrwt>
</event>
<event>
12    1  0.3127365E-008  0.5896951E+03  0.7818608E-02  0.9927019E-01
         -2   -1    0    0    0  501 -0.00000000000E+00  0.00000000000E+00  0.74064192709E+03  0.74064192709E+03  0.00000000000E+00 0.  1.
          2   -1    0    0  501    0  0.00000000000E+00 -0.00000000000E+00 -0.57716307127E+03  0.57716307127E+03  0.00000000000E+00 0. -1.
         23    2    1    2    0    0  0.31090127332E+03  0.39403603613E+03  0.16059154496E+03  0.53535349980E+03  0.94285343065E+02 0.  0.
    5000000    2    1    2    0    0 -0.31090127332E+03 -0.39403603613E+03  0.28873108502E+01  0.78245149856E+03  0.60024829156E+03 0.  0.
         23    2    4    4    0    0  0.37683845220E+02  0.44226940129E+02  0.16010258331E+03  0.19357913886E+03  0.91999735841E+02 0.  0.
         23    2    4    4    0    0 -0.34858511854E+03 -0.43826297626E+03 -0.15721527246E+03  0.58887235970E+03  0.92021697993E+02 0.  0.
          1    1    3    3  502    0  0.16321591279E+03  0.14160313555E+03  0.92640855689E+02  0.23510255279E+03  0.00000000000E+00 0. -1.
         -1    1    3    3    0  502  0.14768536053E+03  0.25243290057E+03  0.67950689272E+02  0.30025094701E+03  0.00000000000E+00 0.  1.
         13    1    5    5    0    0 -0.28711051901E+02  0.14614156625E+02  0.27509090073E+02  0.42363287311E+02  0.00000000000E+00 0. -1.
        -13    1    5    5    0    0  0.66394897121E+02  0.29612783504E+02  0.13259349324E+03  0.15121585155E+03  0.00000000000E+00 0.  1.
          5    1    6    6  503    0 -0.23787715306E+03 -0.23491522648E+03 -0.71313392935E+02  0.34187482153E+03  0.47000000000E+01 0. -1.
         -5    1    6    6    0  503 -0.11070796548E+03 -0.20334774978E+03 -0.85901879527E+02  0.24699753818E+03  0.47000000000E+01 0.  1.
<mgrwt>
<rscale>  0 0.58969513E+03</rscale>
<asrwt>0</asrwt>
<pdfrwt beam="1">  1        2 0.88794319E-01 0.58969513E+03</pdfrwt>
<pdfrwt beam="2">  1       -2 0.11394491E+00 0.58969513E+03</pdfrwt>
<totfact> 0.32194055E+01</totfact>
</mgrwt>
</event>
<event>
12    1  0.3127365E-008  0.1190028E+04  0.7818608E-02  0.9121630E-01
          2   -1    0    0  501    0  0.00000000000E+00  0.00000000000E+00  0.11588356636E+04  0.11588356636E+04  0.00000000000E+00 0. -1.
         -2   -1    0    0    0  501 -0.00000000000E+00 -0.00000000000E+00 -0.21569309088E+04  0.21569309088E+04  0.00000000000E+00 0.  1.
         23    2    1    2    0    0 -0.78171589943E+03 -0.80281692155E+03 -0.15625825720E+04  0.19249886126E+04  0.91225585244E+02 0.  0.
    5000000    2    1    2    0    0  0.78171589943E+03  0.80281692155E+03  0.56448732684E+03  0.13907779598E+04  0.60001886159E+03 0.  0.
         23    2    4    4    0    0  0.59943544258E+03  0.21513002163E+03  0.35229564090E+03  0.73360825766E+03  0.92005875313E+02 0.  0.
         23    2    4    4    0    0  0.18228045685E+03  0.58768689991E+03  0.21219168594E+03  0.65716970210E+03  0.90800046790E+02 0.  0.
          1    1    3    3  502    0 -0.37948747236E+03 -0.41435450392E+03 -0.71080138479E+03  0.90605684436E+03  0.00000000000E+00 0. -1.
         -1    1    3    3    0  502 -0.40222842706E+03 -0.38846241763E+03 -0.85178118722E+03  0.10189317682E+04  0.00000000000E+00 0.  1.
         11    1    5    5    0    0  0.30912885089E+03  0.62476771266E+02  0.16599552873E+03  0.35639656138E+03  0.00000000000E+00 0. -1.
        -11    1    5    5    0    0  0.29030659168E+03  0.15265325037E+03  0.18630011216E+03  0.37721169629E+03  0.00000000000E+00 0.  1.
          5    1    6    6  503    0  0.35440114217E+02  0.95325634818E+02  0.14544032096E+01  0.10181936770E+03  0.47000000000E+01 0. -1.
         -5    1    6    6    0  503  0.14684034263E+03  0.49236126509E+03  0.21073728273E+03  0.55535033440E+03  0.47000000000E+01 0.  1.
<mgrwt>
<rscale>  0 0.11900281E+04</rscale>
<asrwt>0</asrwt>
<pdfrwt beam="1">  1        2 0.17828241E+00 0.11900281E+04</pdfrwt>
<pdfrwt beam="2">  1       -2 0.33183552E+00 0.11900281E+04</pdfrwt>
<totfact> 0.39783385E-01</totfact>
</mgrwt>
</event>
<event>
12    1  0.3127365E-008  0.1338459E+04  0.7818608E-02  0.8999611E-01
          1   -1    0    0  501    0  0.00000000000E+00  0.00000000000E+00  0.31348514505E+04  0.31348514505E+04  0.00000000000E+00 0. -1.
         -1   -1    0    0    0  501 -0.00000000000E+00 -0.00000000000E+00 -0.60056602653E+03  0.60056602653E+03  0.00000000000E+00 0.  1.
         23    2    1    2    0    0  0.73620496179E+03 -0.10452426545E+04  0.15633290202E+04  0.20215547829E+04  0.90311474128E+02 0.  0.
    5000000    2    1    2    0    0 -0.73620496179E+03  0.10452426545E+04  0.97095640371E+03  0.17138626940E+04  0.60003253541E+03 0.  0.
         23    2    4    4    0    0 -0.15840827161E+03  0.69503023388E+03  0.60103059128E+03  0.93701305743E+03  0.92711874200E+02 0.  0.
         23    2    4    4    0    0 -0.57779669018E+03  0.35021242064E+03  0.36992581244E+03  0.77684963662E+03  0.10075959734E+03 0.  0.
          3    1    3    3  502    0  0.62729935631E+03 -0.92079235668E+03  0.13985567514E+04  0.17881062702E+04  0.00000000000E+00 0. -1.
         -3    1    3    3    0  502  0.10890560548E+03 -0.12445029784E+03  0.16477226877E+03  0.23344851273E+03  0.00000000000E+00 0.  1.
         11    1    5    5    0    0 -0.16506442073E+03  0.69089603721E+03  0.59824081059E+03  0.92869567926E+03  0.00000000000E+00 0.  1.
        -11    1    5    5    0    0  0.66561491235E+01  0.41341966738E+01  0.27897806816E+01  0.83173781652E+01  0.00000000000E+00 0. -1.
          5    1    6    6  503    0 -0.31712183716E+01  0.97347203534E+01  0.19620351824E+02  0.22624535620E+02  0.47000000000E+01 0. -1.
         -5    1    6    6    0  503 -0.57462547181E+03  0.34047770029E+03  0.35030546061E+03  0.75422510100E+03  0.47000000000E+01 0.  1.
<mgrwt>
<rscale>  0 0.13384589E+04</rscale>
<asrwt>0</asrwt>
<pdfrwt beam="1">  1        1 0.48228483E+00 0.13384589E+04</pdfrwt>
<pdfrwt beam="2">  1       -1 0.92394775E-01 0.13384589E+04</pdfrwt>
<totfact> 0.53110571E-01</totfact>
</mgrwt>
</event>
<event>
12    1  0.3127365E-008  0.1670961E+04  0.7818608E-02  0.8778102E-01
         -2   -1    0    0    0  501 -0.00000000000E+00  0.00000000000E+00  0.10365628823E+04  0.10365628823E+04  0.00000000000E+00 0.  1.
          2   -1    0    0  501    0  0.00000000000E+00 -0.00000000000E+00 -0.30270907991E+04  0.30270907991E+04  0.00000000000E+00 0. -1.
         23    2    1    2    0    0 -0.14225509666E+04 -0.83230986271E+03 -0.40558486615E+03  0.16996684015E+04  0.89345572818E+02 0.  0.
    5000000    2    1    2    0    0  0.14225509666E+04  0.83230986271E+03 -0.15849430507E+04  0.23639852800E+04  0.59999247483E+03 0.  0.
         23    2    4    4    0    0  0.14079868350E+04  0.77545531593E+03 -0.15816869655E+04  0.22569300423E+04  0.90783723016E+02 0.  0.
         23    2    4    4    0    0  0.14564131534E+02  0.56854546777E+02 -0.32560852249E+01  0.10705523768E+03  0.89474400843E+02 0.  0.
          4    1    3    3  502    0 -0.29302808492E+03 -0.13903863598E+03 -0.10239282346E+03  0.34011981880E+03  0.00000000000E+00 0.  1.
         -4    1    3    3    0  502 -0.11295228817E+04 -0.69327122673E+03 -0.30319204269E+03  0.13595485827E+04  0.00000000000E+00 0. -1.
         11    1    5    5    0    0  0.12283277565E+04  0.66336002717E+03 -0.13318113707E+04  0.19293929434E+04  0.00000000000E+00 0. -1.
        -11    1    5    5    0    0  0.17965907856E+03  0.11209528876E+03 -0.24987559475E+03  0.32753709885E+03  0.00000000000E+00 0.  1.
          5    1    6    6  503    0  0.30094123057E+02  0.60622586146E+02  0.26595317737E+02  0.72870811160E+02  0.47000000000E+01 0. -1.
         -5    1    6    6    0  503 -0.15529991523E+02 -0.37680393696E+01 -0.29851402962E+02  0.34184426515E+02  0.47000000000E+01 0.  1.
<mgrwt>
<rscale>  0 0.16709605E+04</rscale>
<asrwt>0</asrwt>
<pdfrwt beam="1">  1        2 0.46570628E+00 0.16709605E+04</pdfrwt>
<pdfrwt beam="2">  1       -2 0.15947121E+00 0.16709605E+04</pdfrwt>
<totfact> 0.39539273E-01</totfact>
</mgrwt>
</event>
<event>
12    1  0.3127365E-008  0.5814697E+03  0.7818608E-02  0.9944614E-01
         -2   -1    0    0    0  501 -0.00000000000E+00  0.00000000000E+00  0.11908502362E+04  0.11908502362E+04  0.00000000000E+00 0.  1.
          2   -1    0    0  501    0  0.00000000000E+00 -0.00000000000E+00 -0.12252283490E+04  0.12252283490E+04  0.00000000000E+00 0. -1.
         23    2    1    2    0    0  0.31239913640E+03 -0.32054041470E+03 -0.10555483758E+04  0.11499356950E+04  0.88489270493E+02 0.  0.
    5000000    2    1    2    0    0 -0.31239913640E+03  0.32054041470E+03  0.10211702630E+04  0.12661428902E+04  0.59999144541E+03 0.  0.
         23    2    4    4    0    0 -0.42998570290E+03  0.91034194096E+02  0.78343539548E+03  0.90354383593E+03  0.97188041291E+02 0.  0.
         23    2    4    4    0    0  0.11758656650E+03  0.22950622060E+03  0.23773486748E+03  0.36259905426E+03  0.91980981837E+02 0.  0.
          2    1    3    3  502    0  0.17278238994E+03 -0.21513063728E+03 -0.55727349235E+03  0.62184297909E+03  0.00000000000E+00 0. -1.
         -2    1    3    3    0  502  0.13961674646E+03 -0.10540977742E+03 -0.49827488346E+03  0.52809271587E+03  0.00000000000E+00 0.  1.
         13    1    5    5    0    0 -0.33594538031E+03  0.10542842000E+03  0.57187124228E+03  0.67157365049E+03  0.00000000000E+00 0.  1.
        -13    1    5    5    0    0 -0.94040322590E+02 -0.14394225903E+02  0.21156415321E+03  0.23197018544E+03  0.00000000000E+00 0. -1.
          5    1    6    6  503    0  0.73606299801E+02  0.19579138808E+03  0.14531741576E+03  0.25473789734E+03  0.47000000000E+01 0. -1.
         -5    1    6    6    0  503  0.43980266699E+02  0.33714832522E+02  0.92417451716E+02  0.10786115692E+03  0.47000000000E+01 0.  1.
<mgrwt>
<rscale>  0 0.58146974E+03</rscale>
<asrwt>0</asrwt>
<pdfrwt beam="1">  1        2 0.18849667E+00 0.58146974E+03</pdfrwt>
<pdfrwt beam="2">  1       -2 0.18320773E+00 0.58146974E+03</pdfrwt>
<totfact> 0.33295214E+00</totfact>
</mgrwt>
</event>
<event>
12    1  0.3127365E-008  0.7888007E+03  0.7818608E-02  0.9576371E-01
         -2   -1    0    0    0  501 -0.00000000000E+00  0.00000000000E+00  0.23717043145E+03  0.23717043145E+03  0.00000000000E+00 0.  1.
          2   -1    0    0  501    0  0.00000000000E+00 -0.00000000000E+00 -0.29032514046E+04  0.29032514046E+04  0.00000000000E+00 0. -1.
         23    2    1    2    0    0  0.46656064383E+03  0.51575070695E+03 -0.82450403854E+03  0.10824909153E+04  0.91115564419E+02 0.  0.
    5000000    2    1    2    0    0 -0.46656064383E+03 -0.51575070695E+03 -0.18415769346E+04  0.20579309207E+04  0.59999703522E+03 0.  0.
         23    2    4    4    0    0  0.84460483501E+02 -0.24864518601E+03 -0.38392276229E+03  0.47430510845E+03  0.92793570349E+02 0.  0.
         23    2    4    4    0    0 -0.55102112733E+03 -0.26710552094E+03 -0.14576541723E+04  0.15836258123E+04  0.90251787382E+02 0.  0.
          4    1    3    3  502    0  0.20443848941E+03  0.25597198533E+03 -0.45100521079E+03  0.55742484102E+03  0.00000000000E+00 0. -1.
         -4    1    3    3    0  502  0.26212215442E+03  0.25977872162E+03 -0.37349882775E+03  0.52506607429E+03  0.00000000000E+00 0.  1.
         13    1    5    5    0    0  0.35876787049E+02 -0.10107657977E+03 -0.23848376630E+03  0.26149211386E+03  0.00000000000E+00 0. -1.
        -13    1    5    5    0    0  0.48583696452E+02 -0.14756860624E+03 -0.14543899599E+03  0.21281299458E+03  0.00000000000E+00 0.  1.
          5    1    6    6  503    0 -0.31917455238E+03 -0.20098900310E+03 -0.92325714904E+03  0.99734388628E+03  0.47000000000E+01 0. -1.
         -5    1    6    6    0  503 -0.23184657495E+03 -0.66116517842E+02 -0.53439702326E+03  0.58628192597E+03  0.47000000000E+01 0.  1.
<mgrwt>
<rscale>  0 0.78880073E+03</rscale>
<asrwt>0</asrwt>
<pdfrwt beam="1">  1        2 0.44665408E+00 0.78880073E+03</pdfrwt>
<pdfrwt beam="2">  1       -2 0.36487758E-01 0.78880073E+03</pdfrwt>
<totfact> 0.14868507E+01</totfact>
</mgrwt>
</event>
<event>
12    1  0.3127365E-008  0.1283017E+04  0.7818608E-02  0.9043142E-01
          1   -1    0    0  501    0  0.00000000000E+00  0.00000000000E+00  0.12056413059E+04  0.12056413059E+04  0.00000000000E+00 0. -1.
         -1   -1    0    0    0  501 -0.00000000000E+00 -0.00000000000E+00 -0.14476249876E+04  0.14476249876E+04  0.00000000000E+00 0.  1.
         23    2    1    2    0    0  0.12127285825E+04 -0.18571082711E+03  0.13178653648E+03  0.12373571936E+04  0.92119526689E+02 0.  0.
    5000000    2    1    2    0    0 -0.12127285825E+04  0.18571082711E+03 -0.37377021821E+03  0.14159091000E+04  0.59991272465E+03 0.  0.
         23    2    4    4    0    0 -0.11900064750E+04  0.72942773597E+02 -0.24389199324E+03  0.12201310027E+04  0.88319310979E+02 0.  0.
         23    2    4    4    0    0 -0.22722107535E+02  0.11276805351E+03 -0.12987822498E+03  0.19577809726E+03  0.90707121989E+02 0.  0.
          1    1    3    3  502    0  0.75824703235E+03 -0.10213655788E+03  0.12477105631E+03  0.77520207366E+03  0.00000000000E+00 0.  1.
         -1    1    3    3    0  502  0.45448155016E+03 -0.83574269225E+02  0.70154801694E+01  0.46215511993E+03  0.00000000000E+00 0. -1.
         13    1    5    5    0    0 -0.25119873507E+03  0.22411062354E+02 -0.15797216447E+02  0.25269074432E+03  0.00000000000E+00 0. -1.
        -13    1    5    5    0    0 -0.93880773990E+03  0.50531711243E+02 -0.22809477679E+03  0.96744025838E+03  0.00000000000E+00 0.  1.
          5    1    6    6  503    0 -0.51215189767E+01  0.12457278849E+03 -0.10945339572E+03  0.16597212243E+03  0.47000000000E+01 0. -1.
         -5    1    6    6    0  503 -0.17600588558E+02 -0.11804734977E+02 -0.20424829256E+02  0.29805974830E+02  0.47000000000E+01 0.  1.
<mgrwt>
<rscale>  0 0.12830172E+04</rscale>
<asrwt>0</asrwt>
<pdfrwt beam="1">  1        1 0.18548328E+00 0.12830172E+04</pdfrwt>
<pdfrwt beam="2">  1       -1 0.22271154E+00 0.12830172E+04</pdfrwt>
<totfact> 0.10847213E+00</totfact>
</mgrwt>
</event>
<event>
12    1  0.3127365E-008  0.4621945E+03  0.7818608E-02  0.1024147E+00
         -2   -1    0    0    0  501 -0.00000000000E+00  0.00000000000E+00  0.22624508463E+03  0.22624508463E+03  0.00000000000E+00 0.  1.
          2   -1    0    0  501    0  0.00000000000E+00 -0.00000000000E+00 -0.21891398361E+04  0.21891398361E+04  0.00000000000E+00 0. -1.
         23    2    1    2    0    0  0.24245560618E+03 -0.13670301797E+03  0.49132972424E+02  0.29753794742E+03  0.92964214017E+02 0.  0.
    5000000    2    1    2    0    0 -0.24245560618E+03  0.13670301797E+03 -0.20120277239E+04  0.21178469733E+04  0.59962305202E+03 0.  0.
         23    2    4    4    0    0  0.15924883603E+02 -0.20038764833E+03 -0.54959117958E+03  0.59225553222E+03  0.91144606254E+02 0.  0.
         23    2    4    4    0    0 -0.25838048978E+03  0.33709066630E+03 -0.14624365443E+04  0.15255914411E+04  0.91203092959E+02 0.  0.
          3    1    3    3  502    0  0.73725312555E+02 -0.52029299083E+02 -0.26683598294E+02  0.94098268275E+02  0.00000000000E+00 0. -1.
         -3    1    3    3    0  502  0.16873029362E+03 -0.84673718886E+02  0.75816570718E+02  0.20343967914E+03  0.00000000000E+00 0.  1.
         13    1    5    5    0    0 -0.20961572050E+02 -0.14245709321E+03 -0.29065672508E+03  0.32436822092E+03  0.00000000000E+00 0. -1.
        -13    1    5    5    0    0  0.36886455653E+02 -0.57930555120E+02 -0.25893445450E+03  0.26788731130E+03  0.00000000000E+00 0.  1.
          5    1    6    6  503    0 -0.23723153491E+03  0.25723417192E+03 -0.12324807201E+04  0.12812021838E+04  0.47000000000E+01 0. -1.
         -5    1    6    6    0  503 -0.21148954865E+02  0.79856494373E+02 -0.22995582423E+03  0.24438925730E+03  0.47000000000E+01 0.  1.
<mgrwt>
<rscale>  0 0.46219449E+03</rscale>
<asrwt>0</asrwt>
<pdfrwt beam="1">  1        2 0.33679073E+00 0.46219449E+03</pdfrwt>
<pdfrwt beam="2">  1       -2 0.34806937E-01 0.46219449E+03</pdfrwt>
<totfact> 0.43972789E+01</totfact>
</mgrwt>
</event>
<event>
12    1  0.3127365E-008  0.3584755E+03  0.7818608E-02  0.1059189E+00
         -1   -1    0    0    0  501 -0.00000000000E+00  0.00000000000E+00  0.20891209875E+03  0.20891209875E+03  0.00000000000E+00 0.  1.
          1   -1    0    0  501    0  0.00000000000E+00 -0.00000000000E+00 -0.10602830861E+04  0.10602830861E+04  0.00000000000E+00 0. -1.
         23    2    1    2    0    0 -0.19531300724E+03 -0.29816867457E+02 -0.50313150402E+03  0.54791303265E+03  0.89616765370E+02 0.  0.
    5000000    2    1    2    0    0  0.19531300724E+03  0.29816867457E+02 -0.34823948334E+03  0.72128215220E+03  0.59995082211E+03 0.  0.
         23    2    4    4    0    0  0.32301895862E+03  0.88541021994E+02 -0.41892011416E+03  0.54400704918E+03  0.90933202433E+02 0.  0.
         23    2    4    4    0    0 -0.12770595138E+03 -0.58724154537E+02  0.70680630820E+02  0.17727510302E+03  0.81690723059E+02 0.  0.
          4    1    3    3  502    0 -0.14427300914E+03  0.19693783799E+02 -0.32599431257E+03  0.35703618600E+03  0.00000000000E+00 0.  1.
         -4    1    3    3    0  502 -0.51039998094E+02 -0.49510651256E+02 -0.17713719145E+03  0.19087684665E+03  0.00000000000E+00 0. -1.
         11    1    5    5    0    0  0.22386824030E+03  0.39989890861E+02 -0.21948066817E+03  0.31605054040E+03  0.00000000000E+00 0. -1.
        -11    1    5    5    0    0  0.99150718315E+02  0.48551131133E+02 -0.19943944599E+03  0.22795650878E+03  0.00000000000E+00 0.  1.
          5    1    6    6  503    0  0.26457063044E+01 -0.27866244800E+02  0.15337296276E+02  0.32262207273E+02  0.47000000000E+01 0. -1.
         -5    1    6    6    0  503 -0.13035165769E+03 -0.30857909737E+02  0.55343334544E+02  0.14501289575E+03  0.47000000000E+01 0.  1.
<mgrwt>
<rscale>  0 0.35847546E+03</rscale>
<asrwt>0</asrwt>
<pdfrwt beam="1">  1        1 0.16312048E+00 0.35847546E+03</pdfrwt>
<pdfrwt beam="2">  1       -1 0.32140323E-01 0.35847546E+03</pdfrwt>
<totfact> 0.13030825E+02</totfact>
</mgrwt>
</event>
<event>
12    1  0.3127365E-008  0.6167488E+03  0.7818608E-02  0.9871254E-01
         -1   -1    0    0    0  501 -0.00000000000E+00  0.00000000000E+00  0.51791139277E+03  0.51791139277E+03  0.00000000000E+00 0.  1.
          1   -1    0    0  501    0  0.00000000000E+00 -0.00000000000E+00 -0.18410974847E+04  0.18410974847E+04  0.00000000000E+00 0. -1.
         23    2    1    2    0    0  0.37010079083E+03 -0.48409979338E+03 -0.13704062862E+04  0.15024747778E+04  0.89943667892E+02 0.  0.
    5000000    2    1    2    0    0 -0.37010079083E+03  0.48409979338E+03  0.47220194340E+02  0.85653409959E+03  0.60007808798E+03 0.  0.
         23    2    4    4    0    0 -0.15818981835E+03  0.26558650526E+03  0.30759691406E+03  0.44582238365E+03  0.92636525260E+02 0.  0.
         23    2    4    4    0    0 -0.21191097248E+03  0.21851328812E+03 -0.26037671972E+03  0.41071171594E+03  0.90740068861E+02 0.  0.
          3    1    3    3  502    0  0.30395560564E+03 -0.34981579439E+03 -0.97040413361E+03  0.10753809942E+04  0.00000000000E+00 0. -1.
         -3    1    3    3    0  502  0.66145185190E+02 -0.13428399900E+03 -0.40000215261E+03  0.42709378362E+03  0.00000000000E+00 0.  1.
         11    1    5    5    0    0 -0.12321372794E+03  0.21616780202E+03  0.18828360290E+03  0.31202701246E+03  0.00000000000E+00 0. -1.
        -11    1    5    5    0    0 -0.34976090411E+02  0.49418703242E+02  0.11931331116E+03  0.13379537119E+03  0.00000000000E+00 0.  1.
          5    1    6    6  503    0 -0.99638919635E+02  0.14760971740E+03 -0.18959987929E+03  0.26016676806E+03  0.47000000000E+01 0. -1.
         -5    1    6    6    0  503 -0.11227205285E+03  0.70903570714E+02 -0.70776840434E+02  0.15054494788E+03  0.47000000000E+01 0.  1.
<mgrwt>
<rscale>  0 0.61674879E+03</rscale>
<asrwt>0</asrwt>
<pdfrwt beam="1">  1        1 0.28324577E+00 0.61674879E+03</pdfrwt>
<pdfrwt beam="2">  1       -1 0.79678676E-01 0.61674879E+03</pdfrwt>
<totfact> 0.64436709E+00</totfact>
</mgrwt>
</event>
<event>
12    1  0.3127365E-008  0.6212436E+03  0.7818608E-02  0.9862287E-01
         -2   -1    0    0    0  501 -0.00000000000E+00  0.00000000000E+00  0.17557521891E+03  0.17557521891E+03  0.00000000000E+00 0. -1.
          2   -1    0    0  501    0  0.00000000000E+00 -0.00000000000E+00 -0.30642006313E+04  0.30642006313E+04  0.00000000000E+00 0.  1.
         23    2    1    2    0    0  0.31040075123E+03 -0.47835768794E+03 -0.75439029320E+03  0.95062590226E+03  0.97006121373E+02 0.  0.
    5000000    2    1    2    0    0 -0.31040075123E+03  0.47835768794E+03 -0.21342351192E+04  0.22891499480E+04  0.60006102710E+03 0.  0.
         23    2    4    4    0    0 -0.60147963223E+02  0.37453650360E+03 -0.51845121655E+03  0.64838590641E+03  0.87847878026E+02 0.  0.
         23    2    4    4    0    0 -0.25025278801E+03  0.10382118434E+03 -0.16157839027E+04  0.16407640416E+04  0.89127570220E+02 0.  0.
          1    1    3    3  502    0  0.77203894781E+02 -0.99328617698E+02 -0.10769465922E+03  0.16560421277E+03  0.00000000000E+00 0. -1.
         -1    1    3    3    0  502  0.23319685645E+03 -0.37902907025E+03 -0.64669563399E+03  0.78502168949E+03  0.00000000000E+00 0.  1.
         11    1    5    5    0    0  0.21884076162E+02  0.50112306350E+02 -0.68995379787E+02  0.88037028966E+02  0.00000000000E+00 0.  1.
        -11    1    5    5    0    0 -0.82032039386E+02  0.32442419725E+03 -0.44945583677E+03  0.56034887744E+03  0.00000000000E+00 0. -1.
          5    1    6    6  503    0 -0.19212897642E+03  0.11355168297E+03 -0.11730637056E+04  0.11941139291E+04  0.47000000000E+01 0. -1.
         -5    1    6    6    0  503 -0.58123811593E+02 -0.97304986221E+01 -0.44272019702E+03  0.44665011242E+03  0.47000000000E+01 0.  1.
<mgrwt>
<rscale>  0 0.62124361E+03</rscale>
<asrwt>0</asrwt>
<pdfrwt beam="1">  1        2 0.47141548E+00 0.62124361E+03</pdfrwt>
<pdfrwt beam="2">  1       -2 0.27011572E-01 0.62124361E+03</pdfrwt>
<totfact> 0.21445752E+01</totfact>
</mgrwt>
</event>
<event>
12    1  0.3127365E-008  0.1718584E+04  0.7818608E-02  0.8750836E-01
          2   -1    0    0  501    0  0.00000000000E+00  0.00000000000E+00  0.21709013437E+04  0.21709013437E+04  0.00000000000E+00 0. -1.
         -2   -1    0    0    0  501 -0.00000000000E+00 -0.00000000000E+00 -0.13910219665E+04  0.13910219665E+04  0.00000000000E+00 0.  1.
         23    2    1    2    0    0  0.90700700780E+03 -0.14069126290E+04  0.18411958129E+03  0.16865460952E+04  0.92048102275E+02 0.  0.
    5000000    2    1    2    0    0 -0.90700700780E+03  0.14069126290E+04  0.59575979596E+03  0.18753772150E+04  0.60003758731E+03 0.  0.
         23    2    4    4    0    0 -0.55366441679E+03  0.37587552395E+03  0.14326990884E+03  0.69184136034E+03  0.10144705602E+03 0.  0.
         23    2    4    4    0    0 -0.35334259101E+03  0.10310371051E+04  0.45248988713E+03  0.11835358547E+04  0.90119491131E+02 0.  0.
          2    1    3    3  502    0  0.35206401152E+03 -0.57885193137E+03  0.32746369982E+02  0.67830004527E+03  0.00000000000E+00 0. -1.
         -2    1    3    3    0  502  0.55494299628E+03 -0.82806069764E+03  0.15137321131E+03  0.10082460499E+04  0.00000000000E+00 0.  1.
         13    1    5    5    0    0 -0.48823848036E+03  0.34163974892E+03  0.15812285257E+03  0.61652037132E+03  0.00000000000E+00 0. -1.
        -13    1    5    5    0    0 -0.65425936428E+02  0.34235775028E+02 -0.14852943733E+02  0.75320989019E+02  0.00000000000E+00 0.  1.
          5    1    6    6  503    0 -0.56453154525E+02  0.27645657777E+03  0.13293494641E+03  0.31194388602E+03  0.47000000000E+01 0. -1.
         -5    1    6    6    0  503 -0.29688943649E+03  0.75458052730E+03  0.31955494072E+03  0.87159196865E+03  0.47000000000E+01 0.  1.
<mgrwt>
<rscale>  0 0.17185835E+04</rscale>
<asrwt>0</asrwt>
<pdfrwt beam="1">  1        2 0.33398482E+00 0.17185835E+04</pdfrwt>
<pdfrwt beam="2">  1       -2 0.21400338E+00 0.17185835E+04</pdfrwt>
<totfact> 0.53142330E-01</totfact>
</mgrwt>
</event>
<event>
12    1  0.3127365E-008  0.1614150E+04  0.7818608E-02  0.8811902E-01
         -2   -1    0    0    0  501 -0.00000000000E+00  0.00000000000E+00  0.14864092493E+04  0.14864092493E+04  0.00000000000E+00 0.  1.
          2   -1    0    0  501    0  0.00000000000E+00 -0.00000000000E+00 -0.32937023142E+04  0.32937023142E+04  0.00000000000E+00 0. -1.
         23    2    1    2    0    0 -0.14752477388E+04  0.58213387680E+03  0.71390166346E+03  0.17417190535E+04  0.93241272770E+02 0.  0.
    5000000    2    1    2    0    0  0.14752477388E+04 -0.58213387680E+03 -0.25211947284E+04  0.30383925100E+04  0.60014202066E+03 0.  0.
         23    2    4    4    0    0  0.49232531442E+03 -0.39452845724E+03 -0.13646986967E+04  0.15062674212E+04  0.91662928664E+02 0.  0.
         23    2    4    4    0    0  0.98292242434E+03 -0.18760541955E+03 -0.11564960317E+04  0.15321250888E+04  0.92692668125E+02 0.  0.
          3    1    3    3  502    0 -0.13738777199E+04  0.52319346736E+03  0.67914718590E+03  0.16194172698E+04  0.00000000000E+00 0. -1.
         -3    1    3    3    0  502 -0.10137001888E+03  0.58940409440E+02  0.34754477561E+02  0.12230178373E+03  0.00000000000E+00 0.  1.
         11    1    5    5    0    0  0.16819762266E+03 -0.19040356621E+03 -0.57123289571E+03  0.62518075741E+03  0.00000000000E+00 0. -1.
        -11    1    5    5    0    0  0.32412769176E+03 -0.20412489103E+03 -0.79346580101E+03  0.88108666377E+03  0.00000000000E+00 0.  1.
          5    1    6    6  503    0  0.63180333011E+03 -0.81968861280E+02 -0.76877920170E+03  0.99846777270E+03  0.47000000000E+01 0. -1.
         -5    1    6    6    0  503  0.35111909423E+03 -0.10563655827E+03 -0.38771683000E+03  0.53365731611E+03  0.47000000000E+01 0.  1.
<mgrwt>
<rscale>  0 0.16141503E+04</rscale>
<asrwt>0</asrwt>
<pdfrwt beam="1">  1        2 0.50672344E+00 0.16141503E+04</pdfrwt>
<pdfrwt beam="2">  1       -2 0.22867834E+00 0.16141503E+04</pdfrwt>
<totfact> 0.91136876E-02</totfact>
</mgrwt>
</event>
<event>
12    1  0.3127365E-008  0.7032338E+03  0.7818608E-02  0.9711718E-01
         -1   -1    0    0    0  501 -0.00000000000E+00  0.00000000000E+00  0.82892263129E+03  0.82892263129E+03  0.00000000000E+00 0.  1.
          1   -1    0    0  501    0  0.00000000000E+00 -0.00000000000E+00 -0.68270899355E+03  0.68270899355E+03  0.00000000000E+00 0. -1.
         23    2    1    2    0    0 -0.15430390522E+03  0.59600807472E+03 -0.66123837835E+02  0.62618111062E+03  0.93247525848E+02 0.  0.
    5000000    2    1    2    0    0  0.15430390522E+03 -0.59600807472E+03  0.21233747558E+03  0.88545051422E+03  0.59991673530E+03 0.  0.
         23    2    4    4    0    0  0.27916188581E+03 -0.13145228977E+03 -0.56800263980E+02  0.32679106790E+03  0.91406067047E+02 0.  0.
         23    2    4    4    0    0 -0.12485798059E+03 -0.46455578495E+03  0.26913773956E+03  0.55865944632E+03  0.90904683375E+02 0.  0.
          1    1    3    3  502    0 -0.82216609451E+02  0.32491873860E+03  0.10737303439E+02  0.33533125003E+03  0.00000000000E+00 0. -1.
         -1    1    3    3    0  502 -0.72087295774E+02  0.27108933611E+03 -0.76861141274E+02  0.29084986059E+03  0.00000000000E+00 0.  1.
         13    1    5    5    0    0  0.22628056453E+03 -0.10696001166E+03 -0.74049593298E+01  0.25039602913E+03  0.00000000000E+00 0.  1.
        -13    1    5    5    0    0  0.52881321282E+02 -0.24492278106E+02 -0.49395304650E+02  0.76395038770E+02  0.00000000000E+00 0. -1.
          5    1    6    6  503    0 -0.62723643413E+02 -0.29396198162E+03  0.21347750056E+03  0.36870399419E+03  0.47000000000E+01 0. -1.
         -5    1    6    6    0  503 -0.62134337178E+02 -0.17059380333E+03  0.55660239000E+02  0.18995545213E+03  0.47000000000E+01 0.  1.
<mgrwt>
<rscale>  0 0.70323385E+03</rscale>
<asrwt>0</asrwt>
<pdfrwt beam="1">  1        1 0.10503215E+00 0.70323385E+03</pdfrwt>
<pdfrwt beam="2">  1       -1 0.12752656E+00 0.70323385E+03</pdfrwt>
<totfact> 0.15575728E+01</totfact>
</mgrwt>
</event>
<event>
12    1  0.3127365E-008  0.1169099E+04  0.7818608E-02  0.9140342E-01
          2   -1    0    0  501    0  0.00000000000E+00  0.00000000000E+00  0.26717270014E+04  0.26717270014E+04  0.00000000000E+00 0. -1.
         -2   -1    0    0    0  501 -0.00000000000E+00 -0.00000000000E+00 -0.76983549510E+03  0.76983549510E+03  0.00000000000E+00 0.  1.
         23    2    1    2    0    0 -0.99920664244E+03  0.47772113363E+03 -0.57004850470E+02  0.11126271636E+04  0.89767791391E+02 0.  0.
    5000000    2    1    2    0    0  0.99920664244E+03 -0.47772113363E+03  0.19588963568E+04  0.23289353329E+04  0.60002787645E+03 0.  0.
         23    2    4    4    0    0  0.82748310612E+03 -0.13931999909E+03  0.15355904754E+04  0.17526987522E+04  0.98875956963E+02 0.  0.
         23    2    4    4    0    0  0.17172353632E+03 -0.33840113454E+03  0.42330588142E+03  0.57623658072E+03  0.94108591208E+02 0.  0.
          3    1    3    3  502    0 -0.52198737632E+03  0.24631063322E+03  0.15107439596E+02  0.57738027660E+03  0.00000000000E+00 0. -1.
         -3    1    3    3    0  502 -0.47721926612E+03  0.23141050041E+03 -0.72112290066E+02  0.53524688699E+03  0.00000000000E+00 0.  1.
         11    1    5    5    0    0  0.22326972746E+03 -0.62431963696E+02  0.50296465508E+03  0.55382358703E+03  0.00000000000E+00 0.  1.
        -11    1    5    5    0    0  0.60421337866E+03 -0.76888035395E+02  0.10326258203E+04  0.11988751652E+04  0.00000000000E+00 0. -1.
          5    1    6    6  503    0  0.10813625369E+03 -0.29041190123E+03  0.31725986480E+03  0.44351824490E+03  0.47000000000E+01 0. -1.
         -5    1    6    6    0  503  0.63587282631E+02 -0.47989233306E+02  0.10604601661E+03  0.13271833583E+03  0.47000000000E+01 0.  1.
<mgrwt>
<rscale>  0 0.11690993E+04</rscale>
<asrwt>0</asrwt>
<pdfrwt beam="1">  1        2 0.41103492E+00 0.11690993E+04</pdfrwt>
<pdfrwt beam="2">  1       -2 0.11843623E+00 0.11690993E+04</pdfrwt>
<totfact> 0.14946166E+00</totfact>
</mgrwt>
</event>
<event>
12    1  0.3127365E-008  0.7868319E+03  0.7818608E-02  0.9579275E-01
         -2   -1    0    0    0  501 -0.00000000000E+00  0.00000000000E+00  0.35502356558E+03  0.35502356558E+03  0.00000000000E+00 0.  1.
          2   -1    0    0  501    0  0.00000000000E+00 -0.00000000000E+00 -0.17611604327E+04  0.17611604327E+04  0.00000000000E+00 0. -1.
         23    2    1    2    0    0 -0.75162547948E+02 -0.66793691168E+03 -0.65479052617E+03  0.94286344103E+03  0.91933175038E+02 0.  0.
    5000000    2    1    2    0    0  0.75162547948E+02  0.66793691168E+03 -0.75134634091E+03  0.11733205572E+04  0.60030882000E+03 0.  0.
         23    2    4    4    0    0 -0.20217304905E+03  0.52869768015E+03 -0.45244287923E+03  0.73069757708E+03  0.93910656597E+02 0.  0.
         23    2    4    4    0    0  0.27733559700E+03  0.13923923152E+03 -0.29890346168E+03  0.44262298013E+03  0.10133719047E+03 0.  0.
          2    1    3    3  502    0 -0.72702741047E+02 -0.42865540672E+03 -0.47210762693E+03  0.64180741478E+03  0.00000000000E+00 0. -1.
         -2    1    3    3    0  502 -0.24598069014E+01 -0.23928150495E+03 -0.18268289924E+03  0.30105602625E+03  0.00000000000E+00 0.  1.
         13    1    5    5    0    0 -0.69831966370E+02  0.31184204707E+03 -0.26057694042E+03  0.41233761377E+03  0.00000000000E+00 0.  1.
        -13    1    5    5    0    0 -0.13234108268E+03  0.21685563308E+03 -0.19186593881E+03  0.31835996331E+03  0.00000000000E+00 0. -1.
          5    1    6    6  503    0  0.22400001376E+03  0.15224313885E+03 -0.23914357843E+03  0.36133878922E+03  0.47000000000E+01 0. -1.
         -5    1    6    6    0  503  0.53335583237E+02 -0.13003907324E+02 -0.59759883249E+02  0.81284190904E+02  0.47000000000E+01 0.  1.
<mgrwt>
<rscale>  0 0.78683189E+03</rscale>
<asrwt>0</asrwt>
<pdfrwt beam="1">  1        2 0.27094776E+00 0.78683189E+03</pdfrwt>
<pdfrwt beam="2">  1       -2 0.54619009E-01 0.78683189E+03</pdfrwt>
<totfact> 0.29273514E+01</totfact>
</mgrwt>
</event>
<event>
12    1  0.3127365E-008  0.7044385E+03  0.7818608E-02  0.9709672E-01
          2   -1    0    0  501    0  0.00000000000E+00  0.00000000000E+00  0.83385379711E+03  0.83385379711E+03  0.00000000000E+00 0. -1.
         -2   -1    0    0    0  501 -0.00000000000E+00 -0.00000000000E+00 -0.94852160612E+03  0.94852160612E+03  0.00000000000E+00 0.  1.
         23    2    1    2    0    0  0.79520549879E+02 -0.58905544604E+03  0.46301175117E+03  0.75895342485E+03  0.91217229711E+02 0.  0.
    5000000    2    1    2    0    0 -0.79520549879E+02  0.58905544604E+03 -0.57767956018E+03  0.10234219784E+04  0.60030745057E+03 0.  0.
         23    2    4    4    0    0  0.14992636355E+03  0.55764377262E+03 -0.48023428499E+03  0.75650466452E+03  0.90718506045E+02 0.  0.
         23    2    4    4    0    0 -0.22944691343E+03  0.31411673427E+02 -0.97445275193E+02  0.26691731386E+03  0.90092682673E+02 0.  0.
          1    1    3    3  502    0  0.74594874623E+02 -0.42325084085E+03  0.37899407931E+03  0.57301150228E+03  0.00000000000E+00 0. -1.
         -1    1    3    3    0  502  0.49256752555E+01 -0.16580460520E+03  0.84017671862E+02  0.18594192256E+03  0.00000000000E+00 0.  1.
         11    1    5    5    0    0  0.23779666902E+01  0.90678129182E+02 -0.44683085276E+02  0.10111753531E+03  0.00000000000E+00 0.  1.
        -11    1    5    5    0    0  0.14754839686E+03  0.46696564343E+03 -0.43555119972E+03  0.65538712921E+03  0.00000000000E+00 0. -1.
          5    1    6    6  503    0 -0.10287632630E+03  0.32043686252E+01 -0.90227732801E+02  0.13695597927E+03  0.47000000000E+01 0. -1.
         -5    1    6    6    0  503 -0.12657058713E+03  0.28207304802E+02 -0.72175423924E+01  0.12996133459E+03  0.47000000000E+01 0.  1.
<mgrwt>
<rscale>  0 0.70443853E+03</rscale>
<asrwt>0</asrwt>
<pdfrwt beam="1">  1        2 0.12828520E+00 0.70443853E+03</pdfrwt>
<pdfrwt beam="2">  1       -2 0.14592640E+00 0.70443853E+03</pdfrwt>
<totfact> 0.10725203E+01</totfact>
</mgrwt>
</event>
<event>
12    1  0.3127365E-008  0.7739472E+03  0.7818608E-02  0.9598512E-01
          2   -1    0    0  501    0  0.00000000000E+00  0.00000000000E+00  0.21230992916E+04  0.21230992916E+04  0.00000000000E+00 0.  1.
         -2   -1    0    0    0  501 -0.00000000000E+00 -0.00000000000E+00 -0.33563495202E+03  0.33563495202E+03  0.00000000000E+00 0. -1.
         23    2    1    2    0    0  0.58580083366E+03  0.36229948894E+03  0.11538862962E+04  0.13468858201E+04  0.90687879031E+02 0.  0.
    5000000    2    1    2    0    0 -0.58580083366E+03 -0.36229948894E+03  0.63357804336E+03  0.11118484235E+04  0.60030179362E+03 0.  0.
         23    2    4    4    0    0 -0.59010644074E+03 -0.12679928007E+03  0.60251332953E+03  0.85771717123E+03  0.91393461100E+02 0.  0.
         23    2    4    4    0    0  0.43056070788E+01 -0.23550020886E+03  0.31064713829E+02  0.25413125228E+03  0.90215244337E+02 0.  0.
          3    1    3    3  502    0  0.31511106327E+03  0.18764489402E+03  0.70058651440E+03  0.79077623422E+03  0.00000000000E+00 0. -1.
         -3    1    3    3    0  502  0.27068977038E+03  0.17465459492E+03  0.45329978181E+03  0.55610958588E+03  0.00000000000E+00 0.  1.
         13    1    5    5    0    0 -0.32769575600E+03 -0.11155984552E+03  0.37141985116E+03  0.50772316617E+03  0.00000000000E+00 0. -1.
        -13    1    5    5    0    0 -0.26241068474E+03 -0.15239434553E+02  0.23109347837E+03  0.34999400506E+03  0.00000000000E+00 0.  1.
          5    1    6    6  503    0  0.40397481087E+02 -0.17244765294E+03  0.65086265859E+01  0.17729805894E+03  0.47000000000E+01 0. -1.
         -5    1    6    6    0  503 -0.36091874008E+02 -0.63052555920E+02  0.24556087243E+02  0.76833193335E+02  0.47000000000E+01 0.  1.
<mgrwt>
<rscale>  0 0.77394717E+03</rscale>
<asrwt>0</asrwt>
<pdfrwt beam="1">  1        2 0.32663065E+00 0.77394717E+03</pdfrwt>
<pdfrwt beam="2">  1       -2 0.51636148E-01 0.77394717E+03</pdfrwt>
<totfact> 0.20875754E+01</totfact>
</mgrwt>
</event>
<event>
12    1  0.3127365E-008  0.4259699E+03  0.7818608E-02  0.1035141E+00
          2   -1    0    0  501    0  0.00000000000E+00  0.00000000000E+00  0.14098726946E+04  0.14098726946E+04  0.00000000000E+00 0. -1.
         -2   -1    0    0    0  501 -0.00000000000E+00 -0.00000000000E+00 -0.41160184193E+03  0.41160184193E+03  0.00000000000E+00 0.  1.
         23    2    1    2    0    0 -0.12793868099E+03 -0.27628703177E+03  0.10965144900E+04  0.11415303613E+04  0.89692301490E+02 0.  0.
    5000000    2    1    2    0    0  0.12793868099E+03  0.27628703177E+03 -0.98243637406E+02  0.67994417517E+03  0.59997453199E+03 0.  0.
         23    2    4    4    0    0 -0.10520688175E+03  0.28183980248E+03  0.13267232981E+03  0.34008923969E+03  0.86928600720E+02 0.  0.
         23    2    4    4    0    0  0.23314556274E+03 -0.55527707153E+01 -0.23091596721E+03  0.33985493548E+03  0.88269510979E+02 0.  0.
          2    1    3    3  502    0 -0.39418653910E+02 -0.20887784564E+02  0.21166931062E+03  0.21631927070E+03  0.00000000000E+00 0. -1.
         -2    1    3    3    0  502 -0.88520027077E+02 -0.25539924720E+03  0.88484517942E+03  0.92521109062E+03  0.00000000000E+00 0.  1.
         11    1    5    5    0    0 -0.45524593864E+02  0.12672916514E+03  0.10684658062E+03  0.17189811440E+03  0.00000000000E+00 0. -1.
        -11    1    5    5    0    0 -0.59682287891E+02  0.15511063734E+03  0.25825749184E+02  0.16819112529E+03  0.00000000000E+00 0.  1.
          5    1    6    6  503    0  0.12160312099E+03 -0.20909329814E+02 -0.17466608933E+03  0.21390383790E+03  0.47000000000E+01 0. -1.
         -5    1    6    6    0  503  0.11154244175E+03  0.15356559099E+02 -0.56249877884E+02  0.12595109758E+03  0.47000000000E+01 0.  1.
<mgrwt>
<rscale>  0 0.42596988E+03</rscale>
<asrwt>0</asrwt>
<pdfrwt beam="1">  1        2 0.21690349E+00 0.42596988E+03</pdfrwt>
<pdfrwt beam="2">  1       -2 0.63323361E-01 0.42596988E+03</pdfrwt>
<totfact> 0.35300894E+01</totfact>
</mgrwt>
</event>
<event>
12    1  0.3127365E-008  0.1464911E+04  0.7818608E-02  0.8908128E-01
         -2   -1    0    0    0  501 -0.00000000000E+00  0.00000000000E+00  0.73841118162E+03  0.73841118162E+03  0.00000000000E+00 0.  1.
          2   -1    0    0  501    0  0.00000000000E+00 -0.00000000000E+00 -0.32675460852E+04  0.32675460852E+04  0.00000000000E+00 0. -1.
         23    2    1    2    0    0  0.12048111417E+04  0.82808573600E+03 -0.16153443625E+04  0.21804773325E+04  0.88589585622E+02 0.  0.
    5000000    2    1    2    0    0 -0.12048111417E+04 -0.82808573600E+03 -0.91379054108E+03  0.18254799343E+04  0.60005663427E+03 0.  0.
         23    2    4    4    0    0 -0.49978518796E+03 -0.27326915297E+03 -0.68554236089E+03  0.89517075234E+03  0.83072758496E+02 0.  0.
         23    2    4    4    0    0 -0.70502595375E+03 -0.55481658303E+03 -0.22824818019E+03  0.93030918200E+03  0.92167814751E+02 0.  0.
          3    1    3    3  502    0  0.10575217266E+04  0.72369758941E+03 -0.14569876715E+04  0.19403359189E+04  0.00000000000E+00 0. -1.
         -3    1    3    3    0  502  0.14728941511E+03  0.10438814659E+03 -0.15835669102E+03  0.24014141364E+03  0.00000000000E+00 0.  1.
         13    1    5    5    0    0 -0.73656568804E+02 -0.28463901345E+02 -0.14139542069E+03  0.16195106915E+03  0.00000000000E+00 0.  1.
        -13    1    5    5    0    0 -0.42612861916E+03 -0.24480525163E+03 -0.54414694021E+03  0.73321968320E+03  0.00000000000E+00 0. -1.
          5    1    6    6  503    0 -0.50968407117E+03 -0.38938863649E+03 -0.20428643957E+03  0.67316892533E+03  0.47000000000E+01 0. -1.
         -5    1    6    6    0  503 -0.19534188258E+03 -0.16542794653E+03 -0.23961740624E+02  0.25714025667E+03  0.47000000000E+01 0.  1.
<mgrwt>
<rscale>  0 0.14649111E+04</rscale>
<asrwt>0</asrwt>
<pdfrwt beam="1">  1        2 0.50269941E+00 0.14649111E+04</pdfrwt>
<pdfrwt beam="2">  1       -2 0.11360172E+00 0.14649111E+04</pdfrwt>
<totfact> 0.68296009E-01</totfact>
</mgrwt>
</event>
<event>
12    1  0.3127365E-008  0.1431110E+04  0.7818608E-02  0.8931603E-01
          2   -1    0    0  501    0  0.00000000000E+00  0.00000000000E+00  0.31219284699E+04  0.31219284699E+04  0.00000000000E+00 0. -1.
         -2   -1    0    0    0  501 -0.00000000000E+00 -0.00000000000E+00 -0.18035673817E+04  0.18035673817E+04  0.00000000000E+00 0.  1.
         23    2    1    2    0    0  0.13357277431E+04 -0.36114738423E+03 -0.13015864663E+04  0.19022776325E+04  0.99683623964E+02 0.  0.
    5000000    2    1    2    0    0 -0.13357277431E+04  0.36114738423E+03  0.26199475545E+04  0.30232182191E+04  0.60093857853E+03 0.  0.
         23    2    4    4    0    0 -0.10166306454E+04  0.48433887818E+03  0.17287324104E+04  0.20651413065E+04  0.90392758891E+02 0.  0.
         23    2    4    4    0    0 -0.31909709768E+03 -0.12319149394E+03  0.89121514409E+03  0.95807691261E+03  0.81534259633E+02 0.  0.
          2    1    3    3  502    0  0.17269596368E+03 -0.82186356707E+02 -0.18022453752E+03  0.26279150866E+03  0.00000000000E+00 0. -1.
         -2    1    3    3    0  502  0.11630317794E+04 -0.27896102753E+03 -0.11213619288E+04  0.16394861238E+04  0.00000000000E+00 0.  1.
         13    1    5    5    0    0 -0.51854905759E+03  0.21123579233E+03  0.91589914760E+03  0.10734919346E+04  0.00000000000E+00 0.  1.
        -13    1    5    5    0    0 -0.49808158783E+03  0.27310308585E+03  0.81283326281E+03  0.99164937189E+03  0.00000000000E+00 0. -1.
          5    1    6    6  503    0 -0.19907575721E+03 -0.46551630903E+02  0.59961825976E+03  0.63353165579E+03  0.47000000000E+01 0. -1.
         -5    1    6    6    0  503 -0.12002134046E+03 -0.76639863040E+02  0.29159688434E+03  0.32454525683E+03  0.47000000000E+01 0.  1.
<mgrwt>
<rscale>  0 0.14311098E+04</rscale>
<asrwt>0</asrwt>
<pdfrwt beam="1">  1        2 0.48029669E+00 0.14311098E+04</pdfrwt>
<pdfrwt beam="2">  1       -2 0.27747191E+00 0.14311098E+04</pdfrwt>
<totfact> 0.60489903E-02</totfact>
</mgrwt>
</event>
<event>
12    1  0.3127365E-008  0.1091456E+04  0.7818608E-02  0.9213559E-01
          2   -1    0    0  501    0  0.00000000000E+00  0.00000000000E+00  0.14490374251E+04  0.14490374251E+04  0.00000000000E+00 0. -1.
         -2   -1    0    0    0  501 -0.00000000000E+00 -0.00000000000E+00 -0.16766969017E+04  0.16766969017E+04  0.00000000000E+00 0.  1.
         23    2    1    2    0    0 -0.12303832112E+03  0.10778457133E+04 -0.11479501969E+04  0.15820552300E+04  0.90660278582E+02 0.  0.
    5000000    2    1    2    0    0  0.12303832112E+03 -0.10778457133E+04  0.92029072031E+03  0.15436790968E+04  0.59926649653E+03 0.  0.
         23    2    4    4    0    0  0.21602236832E+02 -0.26813053581E+03  0.59672177102E+03  0.66095530906E+03  0.91784572250E+02 0.  0.
         23    2    4    4    0    0  0.10143608428E+03 -0.80971517747E+03  0.32356894929E+03  0.88272378772E+03  0.92609247081E+02 0.  0.
          3    1    3    3  502    0 -0.51579780219E+02  0.41051512486E+03 -0.50237102149E+03  0.65081470843E+03  0.00000000000E+00 0. -1.
         -3    1    3    3    0  502 -0.71458540897E+02  0.66733058842E+03 -0.64557917543E+03  0.93124052159E+03  0.00000000000E+00 0.  1.
         11    1    5    5    0    0  0.36079825910E+02 -0.49606096698E+02  0.89814631021E+02  0.10876206422E+03  0.00000000000E+00 0. -1.
        -11    1    5    5    0    0 -0.14477589078E+02 -0.21852443911E+03  0.50690714000E+03  0.55219324485E+03  0.00000000000E+00 0.  1.
          5    1    6    6  503    0  0.23480951136E+02 -0.72758811020E+02  0.71977981836E+01  0.76935674080E+02  0.47000000000E+01 0. -1.
         -5    1    6    6    0  503  0.77955133147E+02 -0.73695636645E+03  0.31637115111E+03  0.80578811364E+03  0.47000000000E+01 0.  1.
<mgrwt>
<rscale>  0 0.10914562E+04</rscale>
<asrwt>0</asrwt>
<pdfrwt beam="1">  1        2 0.22292884E+00 0.10914562E+04</pdfrwt>
<pdfrwt beam="2">  1       -2 0.25795337E+00 0.10914562E+04</pdfrwt>
<totfact> 0.76821014E-01</totfact>
</mgrwt>
</event>
<event>
12    1  0.3127365E-008  0.5472433E+03  0.7818608E-02  0.1002134E+00
         -2   -1    0    0    0  501 -0.00000000000E+00  0.00000000000E+00  0.96498971358E+02  0.96498971358E+02  0.00000000000E+00 0.  1.
          2   -1    0    0  501    0  0.00000000000E+00 -0.00000000000E+00 -0.35321208706E+04  0.35321208706E+04  0.00000000000E+00 0. -1.
         23    2    1    2    0    0 -0.40823986706E+03 -0.10537253775E+03 -0.14139945583E+04  0.14782327078E+04  0.89600039116E+02 0.  0.
    5000000    2    1    2    0    0  0.40823986706E+03  0.10537253775E+03 -0.20216273409E+04  0.21503871341E+04  0.59952027484E+03 0.  0.
         23    2    4    4    0    0  0.11642366466E+03 -0.19371937773E+03 -0.36738593250E+03  0.44173978954E+03  0.95288778238E+02 0.  0.
         23    2    4    4    0    0  0.29181620239E+03  0.29909191548E+03 -0.16542414084E+04  0.17086473445E+04  0.91369801820E+02 0.  0.
          1    1    3    3  502    0 -0.63616363827E+02 -0.41799687203E+02 -0.34368276789E+03  0.35201150626E+03  0.00000000000E+00 0. -1.
         -1    1    3    3    0  502 -0.34462350323E+03 -0.63572850543E+02 -0.10703117904E+04  0.11262212016E+04  0.00000000000E+00 0.  1.
         11    1    5    5    0    0  0.25285654864E+02 -0.13350552500E+03 -0.19554101544E+03  0.23811631248E+03  0.00000000000E+00 0. -1.
        -11    1    5    5    0    0  0.91138009796E+02 -0.60213852728E+02 -0.17184491706E+03  0.20362347706E+03  0.00000000000E+00 0.  1.
          5    1    6    6  503    0  0.11489539901E+03  0.16338068414E+03 -0.91175926609E+03  0.93339233443E+03  0.47000000000E+01 0. -1.
         -5    1    6    6    0  503  0.17692080339E+03  0.13571123133E+03 -0.74248214234E+03  0.77525501009E+03  0.47000000000E+01 0.  1.
<mgrwt>
<rscale>  0 0.54724334E+03</rscale>
<asrwt>0</asrwt>
<pdfrwt beam="1">  1        2 0.54340315E+00 0.54724334E+03</pdfrwt>
<pdfrwt beam="2">  1       -2 0.14845997E-01 0.54724334E+03</pdfrwt>
<totfact> 0.30852825E+01</totfact>
</mgrwt>
</event>
<event>
12    1  0.3127365E-008  0.1557158E+04  0.7818608E-02  0.8847309E-01
         -2   -1    0    0    0  501 -0.00000000000E+00  0.00000000000E+00  0.14721394192E+04  0.14721394192E+04  0.00000000000E+00 0.  1.
          2   -1    0    0  501    0  0.00000000000E+00 -0.00000000000E+00 -0.17563494071E+04  0.17563494071E+04  0.00000000000E+00 0. -1.
         23    2    1    2    0    0  0.14469807684E+04  0.55759740188E+03 -0.14394408258E+03  0.15599051373E+04  0.88971522148E+02 0.  0.
    5000000    2    1    2    0    0 -0.14469807684E+04 -0.55759740188E+03 -0.14026590532E+03  0.16685836890E+04  0.59985731324E+03 0.  0.
         23    2    4    4    0    0 -0.81018375764E+03 -0.36671875941E+03  0.19997889830E+03  0.91612232859E+03  0.91696191496E+02 0.  0.
         23    2    4    4    0    0 -0.63679701077E+03 -0.19087864247E+03 -0.34024480363E+03  0.75246136040E+03  0.92122111495E+02 0.  0.
          1    1    3    3  502    0  0.10686682136E+04  0.37017850643E+03 -0.97280668139E+02  0.11351420201E+04  0.00000000000E+00 0. -1.
         -1    1    3    3    0  502  0.37831255479E+03  0.18741889545E+03 -0.46663414443E+02  0.42476311719E+03  0.00000000000E+00 0.  1.
         11    1    5    5    0    0 -0.33937947515E+03 -0.17280192377E+03  0.42795327777E+02  0.38323670635E+03  0.00000000000E+00 0. -1.
        -11    1    5    5    0    0 -0.47080428248E+03 -0.19391683565E+03  0.15718357052E+03  0.53288562224E+03  0.00000000000E+00 0.  1.
          5    1    6    6  503    0 -0.17983217726E+03 -0.11675604852E+02 -0.90943429460E+02  0.20191267689E+03  0.47000000000E+01 0. -1.
         -5    1    6    6    0  503 -0.45696483352E+03 -0.17920303762E+03 -0.24930137417E+03  0.55054868352E+03  0.47000000000E+01 0.  1.
<mgrwt>
<rscale>  0 0.15571577E+04</rscale>
<asrwt>0</asrwt>
<pdfrwt beam="1">  1        2 0.27020760E+00 0.15571577E+04</pdfrwt>
<pdfrwt beam="2">  1       -2 0.22648299E+00 0.15571577E+04</pdfrwt>
<totfact> 0.76646133E-01</totfact>
</mgrwt>
</event>
<event>
12    1  0.3127365E-008  0.3436773E+03  0.7818608E-02  0.1065240E+00
         -2   -1    0    0    0  501 -0.00000000000E+00  0.00000000000E+00  0.52867261771E+03  0.52867261771E+03  0.00000000000E+00 0.  1.
          2   -1    0    0  501    0  0.00000000000E+00 -0.00000000000E+00 -0.37884130074E+03  0.37884130074E+03  0.00000000000E+00 0. -1.
         23    2    1    2    0    0 -0.10498437351E+03  0.83756032063E+02  0.23528763988E+03  0.28683559292E+03  0.94220975875E+02 0.  0.
    5000000    2    1    2    0    0  0.10498437351E+03 -0.83756032063E+02 -0.85456322908E+02  0.62067832553E+03  0.59991833533E+03 0.  0.
         23    2    4    4    0    0  0.16709059316E+03  0.17727383181E+03 -0.18419200890E+03  0.32025973653E+03  0.96407079256E+02 0.  0.
         23    2    4    4    0    0 -0.62106219649E+02 -0.26102986387E+03  0.98735685997E+02  0.30041858900E+03  0.92243268440E+02 0.  0.
          1    1    3    3  502    0  0.87008330172E+00  0.45350172415E+02  0.35896101146E+02  0.57843973416E+02  0.00000000000E+00 0. -1.
         -1    1    3    3    0  502 -0.10585445681E+03  0.38405859648E+02  0.19939153874E+03  0.22899161950E+03  0.00000000000E+00 0.  1.
         13    1    5    5    0    0  0.69007808716E+01  0.32878632649E+02 -0.66665270736E+02  0.74651748699E+02  0.00000000000E+00 0.  1.
        -13    1    5    5    0    0  0.16018981229E+03  0.14439519916E+03 -0.11752673817E+03  0.24560798783E+03  0.00000000000E+00 0. -1.
          5    1    6    6  503    0  0.16266744030E+00 -0.16812140171E+03  0.82403842768E+02  0.18728938965E+03  0.47000000000E+01 0. -1.
         -5    1    6    6    0  503 -0.62268887089E+02 -0.92908462166E+02  0.16331843228E+02  0.11312919935E+03  0.47000000000E+01 0.  1.
<mgrwt>
<rscale>  0 0.34367731E+03</rscale>
<asrwt>0</asrwt>
<pdfrwt beam="1">  1        2 0.58283277E-01 0.34367731E+03</pdfrwt>
<pdfrwt beam="2">  1       -2 0.81334249E-01 0.34367731E+03</pdfrwt>
<totfact> 0.11664412E+02</totfact>
</mgrwt>
</event>
<event>
12    1  0.3127365E-008  0.7030038E+03  0.7818608E-02  0.9712109E-01
         -2   -1    0    0    0  501 -0.00000000000E+00  0.00000000000E+00  0.64658063234E+03  0.64658063234E+03  0.00000000000E+00 0. -1.
          2   -1    0    0  501    0  0.00000000000E+00 -0.00000000000E+00 -0.93914225358E+03  0.93914225358E+03  0.00000000000E+00 0.  1.
         23    2    1    2    0    0  0.15344748807E+03  0.57015519100E+03 -0.42574598926E+03  0.73373015551E+03  0.92071821495E+02 0.  0.
    5000000    2    1    2    0    0 -0.15344748807E+03 -0.57015519100E+03  0.13318436803E+03  0.85199273042E+03  0.59960859182E+03 0.  0.
         23    2    4    4    0    0 -0.28992046338E+03 -0.82796207921E+02 -0.16901868719E+02  0.31568912662E+03  0.92004697544E+02 0.  0.
         23    2    4    4    0    0  0.13647297531E+03 -0.48735898307E+03  0.15008623674E+03  0.53630360379E+03  0.94615144700E+02 0.  0.
          2    1    3    3  502    0  0.13928208402E+03  0.38103952550E+03 -0.31910756512E+03  0.51615913926E+03  0.00000000000E+00 0. -1.
         -2    1    3    3    0  502  0.14165404043E+02  0.18911566550E+03 -0.10663842414E+03  0.21757101625E+03  0.00000000000E+00 0.  1.
         11    1    5    5    0    0 -0.22380488989E+03 -0.72977157733E+02  0.25116204012E+02  0.23673850129E+03  0.00000000000E+00 0.  1.
        -11    1    5    5    0    0 -0.66115573486E+02 -0.98190501889E+01 -0.42018072731E+02  0.78950625330E+02  0.00000000000E+00 0. -1.
          5    1    6    6  503    0  0.47600175840E+02 -0.25808849123E+03  0.35124195708E+02  0.26482304501E+03  0.47000000000E+01 0. -1.
         -5    1    6    6    0  503  0.88872799471E+02 -0.22927049185E+03  0.11496204104E+03  0.27148055878E+03  0.47000000000E+01 0.  1.
<mgrwt>
<rscale>  0 0.70300376E+03</rscale>
<asrwt>0</asrwt>
<pdfrwt beam="1">  1        2 0.14448342E+00 0.70300376E+03</pdfrwt>
<pdfrwt beam="2">  1       -2 0.99473944E-01 0.70300376E+03</pdfrwt>
<totfact> 0.23562167E+01</totfact>
</mgrwt>
</event>
<event>
12    1  0.3127365E-008  0.8551294E+03  0.7818608E-02  0.9483478E-01
         -1   -1    0    0    0  501 -0.00000000000E+00  0.00000000000E+00  0.12361977930E+04  0.12361977930E+04  0.00000000000E+00 0.  1.
          1   -1    0    0  501    0  0.00000000000E+00 -0.00000000000E+00 -0.70070088961E+03  0.70070088961E+03  0.00000000000E+00 0. -1.
         23    2    1    2    0    0 -0.31900256087E+03 -0.75732726476E+03  0.10960153420E+03  0.83387635264E+03  0.89610576399E+02 0.  0.
    5000000    2    1    2    0    0  0.31900256087E+03  0.75732726476E+03  0.42589536923E+03  0.11030223300E+04  0.59997014524E+03 0.  0.
         23    2    4    4    0    0  0.37424993512E+03  0.57844268903E+03  0.79925640254E+02  0.69928088740E+03  0.89144226316E+02 0.  0.
         23    2    4    4    0    0 -0.55247374251E+02  0.17888457573E+03  0.34596972898E+03  0.40374144261E+03  0.90885286566E+02 0.  0.
          2    1    3    3  502    0 -0.82850524736E+02 -0.19473173392E+03  0.68127585510E+02  0.22231964725E+03  0.00000000000E+00 0. -1.
         -2    1    3    3    0  502 -0.23615203614E+03 -0.56259553084E+03  0.41473948692E+02  0.61155670539E+03  0.00000000000E+00 0.  1.
         13    1    5    5    0    0  0.77944754061E+02  0.19491187451E+03  0.30177169704E+02  0.21207707345E+03  0.00000000000E+00 0. -1.
        -13    1    5    5    0    0  0.29630518106E+03  0.38353081452E+03  0.49748470549E+02  0.48720381395E+03  0.00000000000E+00 0.  1.
          5    1    6    6  503    0 -0.24323554280E+02  0.19616896319E+02  0.12879713364E+03  0.13261692783E+03  0.47000000000E+01 0. -1.
         -5    1    6    6    0  503 -0.30923819971E+02  0.15926767941E+03  0.21717259534E+03  0.27112451478E+03  0.47000000000E+01 0.  1.
<mgrwt>
<rscale>  0 0.85512943E+03</rscale>
<asrwt>0</asrwt>
<pdfrwt beam="1">  1        1 0.10780014E+00 0.85512943E+03</pdfrwt>
<pdfrwt beam="2">  1       -1 0.19018428E+00 0.85512943E+03</pdfrwt>
<totfact> 0.48930290E+00</totfact>
</mgrwt>
</event>
<event>
12    1  0.3127365E-008  0.8073540E+03  0.7818608E-02  0.9549433E-01
         -1   -1    0    0    0  501 -0.00000000000E+00  0.00000000000E+00  0.51196208934E+03  0.51196208934E+03  0.00000000000E+00 0.  1.
          1   -1    0    0  501    0  0.00000000000E+00 -0.00000000000E+00 -0.16529794277E+04  0.16529794277E+04  0.00000000000E+00 0. -1.
         23    2    1    2    0    0  0.24620674996E+02 -0.75592331669E+03 -0.14050637981E+03  0.77460073524E+03  0.90763527407E+02 0.  0.
    5000000    2    1    2    0    0 -0.24620674996E+02  0.75592331669E+03 -0.10005109585E+04  0.13903407818E+04  0.59999922747E+03 0.  0.
         23    2    4    4    0    0 -0.20587297162E+03  0.44510354118E+03 -0.25723849582E+03  0.55947824257E+03  0.79645573459E+02 0.  0.
         23    2    4    4    0    0  0.18125229662E+03  0.31081977552E+03 -0.74327246271E+03  0.83086253920E+03  0.91745721072E+02 0.  0.
          3    1    3    3  502    0 -0.19306455276E+02 -0.23553745980E+03 -0.11192561647E+02  0.23659228141E+03  0.00000000000E+00 0. -1.
         -3    1    3    3    0  502  0.43927130272E+02 -0.52038585689E+03 -0.12931381816E+03  0.53800845383E+03  0.00000000000E+00 0.  1.
         11    1    5    5    0    0 -0.74520231077E+02  0.85851191457E+02 -0.47183917427E+02  0.12308539303E+03  0.00000000000E+00 0. -1.
        -11    1    5    5    0    0 -0.13135274054E+03  0.35925234972E+03 -0.21005457839E+03  0.43639284954E+03  0.00000000000E+00 0.  1.
          5    1    6    6  503    0  0.92748795990E+02  0.15538413518E+03 -0.47568634790E+03  0.50896577508E+03  0.47000000000E+01 0. -1.
         -5    1    6    6    0  503  0.88503500630E+02  0.15543564034E+03 -0.26758611481E+03  0.32189676412E+03  0.47000000000E+01 0.  1.
<mgrwt>
<rscale>  0 0.80735396E+03</rscale>
<asrwt>0</asrwt>
<pdfrwt beam="1">  1        1 0.25430453E+00 0.80735396E+03</pdfrwt>
<pdfrwt beam="2">  1       -1 0.78763398E-01 0.80735396E+03</pdfrwt>
<totfact> 0.85448325E+00</totfact>
</mgrwt>
</event>
<event>
12    1  0.3127365E-008  0.8493781E+03  0.7818608E-02  0.9491172E-01
          2   -1    0    0  501    0  0.00000000000E+00  0.00000000000E+00  0.61625275119E+03  0.61625275119E+03  0.00000000000E+00 0.  1.
         -2   -1    0    0    0  501 -0.00000000000E+00 -0.00000000000E+00 -0.12611595665E+04  0.12611595665E+04  0.00000000000E+00 0. -1.
         23    2    1    2    0    0 -0.85737239473E+01 -0.75102069219E+03 -0.75252981803E+02  0.76002055634E+03  0.88671562234E+02 0.  0.
    5000000    2    1    2    0    0  0.85737239473E+01  0.75102069219E+03 -0.56965383348E+03  0.11173917613E+04  0.59996105662E+03 0.  0.
         23    2    4    4    0    0  0.22517752529E+03  0.10462958867E+03 -0.22826210446E+03  0.34981577598E+03  0.92818209810E+02 0.  0.
         23    2    4    4    0    0 -0.21660380134E+03  0.64639110352E+03 -0.34139172902E+03  0.76757598535E+03  0.88802675533E+02 0.  0.
          4    1    3    3  502    0 -0.19859166715E+02 -0.54561778768E+03 -0.91802390043E+02  0.55364323851E+03  0.00000000000E+00 0. -1.
         -4    1    3    3    0  502  0.11285442768E+02 -0.20540290451E+03  0.16549408240E+02  0.20637731783E+03  0.00000000000E+00 0.  1.
         11    1    5    5    0    0  0.13447860090E+03  0.10817679369E+03 -0.16807106986E+03  0.24090370964E+03  0.00000000000E+00 0. -1.
        -11    1    5    5    0    0  0.90698924390E+02 -0.35472050216E+01 -0.60191034596E+02  0.10891206634E+03  0.00000000000E+00 0.  1.
          5    1    6    6  503    0 -0.15650289942E+03  0.38849985300E+03 -0.24784082340E+03  0.48669544589E+03  0.47000000000E+01 0. -1.
         -5    1    6    6    0  503 -0.60100901924E+02  0.25789125051E+03 -0.93550905623E+02  0.28088053946E+03  0.47000000000E+01 0.  1.
<mgrwt>
<rscale>  0 0.84937813E+03</rscale>
<asrwt>0</asrwt>
<pdfrwt beam="1">  1        2 0.94808116E-01 0.84937813E+03</pdfrwt>
<pdfrwt beam="2">  1       -2 0.19402455E+00 0.84937813E+03</pdfrwt>
<totfact> 0.70516482E+00</totfact>
</mgrwt>
</event>
<event>
12    1  0.3127365E-008  0.1037423E+04  0.7818608E-02  0.9268426E-01
          2   -1    0    0  501    0  0.00000000000E+00  0.00000000000E+00  0.14620364354E+04  0.14620364354E+04  0.00000000000E+00 0. -1.
         -2   -1    0    0    0  501 -0.00000000000E+00 -0.00000000000E+00 -0.90050862596E+03  0.90050862596E+03  0.00000000000E+00 0.  1.
         23    2    1    2    0    0  0.19690546403E+03 -0.98950910122E+03 -0.95235355984E+02  0.10174470567E+04  0.90712275741E+02 0.  0.
    5000000    2    1    2    0    0 -0.19690546403E+03  0.98950910122E+03  0.65676316542E+03  0.13450980047E+04  0.60004230146E+03 0.  0.
         23    2    4    4    0    0 -0.77219762146E+02  0.82682211825E+02  0.34312162826E+03  0.37371363754E+03  0.95552034440E+02 0.  0.
         23    2    4    4    0    0 -0.11968570189E+03  0.90682688939E+03  0.31364153716E+03  0.97138436712E+03  0.92503515041E+02 0.  0.
          3    1    3    3  502    0  0.68874386278E+02 -0.49915744753E+03 -0.13198674915E+02  0.50405956348E+03  0.00000000000E+00 0. -1.
         -3    1    3    3    0  502  0.12803107776E+03 -0.49035165368E+03 -0.82036681069E+02  0.51338749321E+03  0.00000000000E+00 0.  1.
         11    1    5    5    0    0 -0.57743818553E+02  0.10415843075E+03  0.27605700530E+03  0.30065062357E+03  0.00000000000E+00 0. -1.
        -11    1    5    5    0    0 -0.19475943592E+02 -0.21476218921E+02  0.67064622960E+02  0.73063013973E+02  0.00000000000E+00 0.  1.
          5    1    6    6  503    0 -0.63173997748E+02  0.30017440903E+03  0.14407247564E+03  0.33893155366E+03  0.47000000000E+01 0. -1.
         -5    1    6    6    0  503 -0.56511704141E+02  0.60665248036E+03  0.16956906152E+03  0.63245281346E+03  0.47000000000E+01 0.  1.
<mgrwt>
<rscale>  0 0.10374232E+04</rscale>
<asrwt>0</asrwt>
<pdfrwt beam="1">  1        2 0.22492868E+00 0.10374232E+04</pdfrwt>
<pdfrwt beam="2">  1       -2 0.13853979E+00 0.10374232E+04</pdfrwt>
<totfact> 0.48675210E+00</totfact>
</mgrwt>
</event>
<event>
12    1  0.3127365E-008  0.1008200E+04  0.7818608E-02  0.9299597E-01
          1   -1    0    0  501    0  0.00000000000E+00  0.00000000000E+00  0.14303184464E+04  0.14303184464E+04  0.00000000000E+00 0. -1.
         -1   -1    0    0    0  501 -0.00000000000E+00 -0.00000000000E+00 -0.90440697860E+03  0.90440697860E+03  0.00000000000E+00 0.  1.
         23    2    1    2    0    0  0.37505424642E+03 -0.84583983825E+03 -0.27760873088E+03  0.97025196607E+03  0.90617605757E+02 0.  0.
    5000000    2    1    2    0    0 -0.37505424642E+03  0.84583983825E+03  0.80352019867E+03  0.13644734589E+04  0.60002699165E+03 0.  0.
         23    2    4    4    0    0 -0.37558424464E+03  0.90618567878E+03  0.68604376753E+03  0.12002858612E+04  0.88284134698E+02 0.  0.
         23    2    4    4    0    0  0.52999822481E+00 -0.60345840531E+02  0.11747643113E+03  0.16418759769E+03  0.97544625671E+02 0.  0.
          1    1    3    3  502    0  0.30318022204E+03 -0.62655281917E+03 -0.17506342792E+03  0.71772828148E+03  0.00000000000E+00 0. -1.
         -1    1    3    3    0  502  0.71874024376E+02 -0.21928701909E+03 -0.10254530296E+03  0.25252368459E+03  0.00000000000E+00 0.  1.
         11    1    5    5    0    0 -0.99788241351E+02  0.22112183390E+03  0.21654137146E+03  0.32518106356E+03  0.00000000000E+00 0.  1.
        -11    1    5    5    0    0 -0.27579600329E+03  0.68506384488E+03  0.46950239607E+03  0.87510479767E+03  0.00000000000E+00 0. -1.
          5    1    6    6  503    0  0.42520901080E+02 -0.12306769871E+02  0.23049680896E+02  0.50128449035E+02  0.47000000000E+01 0. -1.
         -5    1    6    6    0  503 -0.41990902855E+02 -0.48039070659E+02  0.94426750237E+02  0.11405914866E+03  0.47000000000E+01 0.  1.
<mgrwt>
<rscale>  0 0.10081997E+04</rscale>
<asrwt>0</asrwt>
<pdfrwt beam="1">  1        1 0.22004899E+00 0.10081997E+04</pdfrwt>
<pdfrwt beam="2">  1       -1 0.13913953E+00 0.10081997E+04</pdfrwt>
<totfact> 0.31280599E+00</totfact>
</mgrwt>
</event>
<event>
12    1  0.3127365E-008  0.9354751E+03  0.7818608E-02  0.9382291E-01
         -2   -1    0    0    0  501 -0.00000000000E+00  0.00000000000E+00  0.51122008049E+03  0.51122008049E+03  0.00000000000E+00 0.  1.
          2   -1    0    0  501    0  0.00000000000E+00 -0.00000000000E+00 -0.18479060486E+04  0.18479060486E+04  0.00000000000E+00 0. -1.
         23    2    1    2    0    0  0.33994307979E+03  0.79168053104E+03 -0.80391834192E+03  0.11817645959E+04  0.89238438271E+02 0.  0.
    5000000    2    1    2    0    0 -0.33994307979E+03 -0.79168053104E+03 -0.53276762618E+03  0.11773615332E+04  0.60001622949E+03 0.  0.
         23    2    4    4    0    0  0.31439675855E+02 -0.57092206093E+03 -0.15981829984E+03  0.60057958805E+03  0.90628360571E+02 0.  0.
         23    2    4    4    0    0 -0.37138275564E+03 -0.22075847011E+03 -0.37294932634E+03  0.57678194517E+03  0.83227152626E+02 0.  0.
          1    1    3    3  502    0  0.17052900025E+03  0.44712353242E+03 -0.39146576042E+03  0.61825968230E+03  0.00000000000E+00 0. -1.
         -1    1    3    3    0  502  0.16941407954E+03  0.34455699862E+03 -0.41245258150E+03  0.56350491358E+03  0.00000000000E+00 0.  1.
         13    1    5    5    0    0 -0.84153930320E+01 -0.38018244104E+03 -0.72836036015E+02  0.38718806214E+03  0.00000000000E+00 0. -1.
        -13    1    5    5    0    0  0.39855068887E+02 -0.19073961989E+03 -0.86982263827E+02  0.21339152591E+03  0.00000000000E+00 0.  1.
          5    1    6    6  503    0 -0.14479394964E+03 -0.68190537910E+02 -0.18758518052E+03  0.24662831804E+03  0.47000000000E+01 0. -1.
         -5    1    6    6    0  503 -0.22658880601E+03 -0.15256793220E+03 -0.18536414583E+03  0.33015362712E+03  0.47000000000E+01 0.  1.
<mgrwt>
<rscale>  0 0.93547511E+03</rscale>
<asrwt>0</asrwt>
<pdfrwt beam="1">  1        2 0.28429324E+00 0.93547511E+03</pdfrwt>
<pdfrwt beam="2">  1       -2 0.78649244E-01 0.93547511E+03</pdfrwt>
<totfact> 0.11744447E+01</totfact>
</mgrwt>
</event>
<event>
12    1  0.3127365E-008  0.6157083E+03  0.7818608E-02  0.9873342E-01
         -2   -1    0    0    0  501 -0.00000000000E+00  0.00000000000E+00  0.31898284324E+03  0.31898284324E+03  0.00000000000E+00 0.  1.
          2   -1    0    0  501    0  0.00000000000E+00 -0.00000000000E+00 -0.14744304505E+04  0.14744304505E+04  0.00000000000E+00 0. -1.
         23    2    1    2    0    0 -0.62637781727E+02 -0.49871772787E+03 -0.17709479379E+03  0.54059178293E+03  0.90741644200E+02 0.  0.
    5000000    2    1    2    0    0  0.62637781727E+02  0.49871772787E+03 -0.97835281348E+03  0.12528215108E+04  0.59978716769E+03 0.  0.
         23    2    4    4    0    0  0.21119709699E+03  0.36337297961E+02 -0.56108494660E+03  0.60715053771E+03  0.88830429180E+02 0.  0.
         23    2    4    4    0    0 -0.14855931526E+03  0.46238042991E+03 -0.41726786688E+03  0.64567097310E+03  0.83144456601E+02 0.  0.
          3    1    3    3  502    0 -0.30236027226E+02 -0.63187291905E+02 -0.48910958137E+02  0.85434963724E+02  0.00000000000E+00 0. -1.
         -3    1    3    3    0  502 -0.32401754501E+02 -0.43553043596E+03 -0.12818383565E+03  0.45515681920E+03  0.00000000000E+00 0.  1.
         11    1    5    5    0    0  0.10389594612E+03 -0.26950384606E+02 -0.25213892985E+03  0.27403417816E+03  0.00000000000E+00 0. -1.
        -11    1    5    5    0    0  0.10730115087E+03  0.63287682567E+02 -0.30894601675E+03  0.33311635956E+03  0.00000000000E+00 0.  1.
          5    1    6    6  503    0 -0.19675384635E+02  0.19305517391E+03 -0.16366148799E+03  0.25389878611E+03  0.47000000000E+01 0. -1.
         -5    1    6    6    0  503 -0.12888393062E+03  0.26932525600E+03 -0.25360637889E+03  0.39177218700E+03  0.47000000000E+01 0.  1.
<mgrwt>
<rscale>  0 0.61570826E+03</rscale>
<asrwt>0</asrwt>
<pdfrwt beam="1">  1        2 0.22683545E+00 0.61570826E+03</pdfrwt>
<pdfrwt beam="2">  1       -2 0.49074285E-01 0.61570826E+03</pdfrwt>
<totfact> 0.53492242E+01</totfact>
</mgrwt>
</event>
<event>
12    1  0.3127365E-008  0.1843855E+04  0.7818608E-02  0.8683319E-01
          2   -1    0    0  501    0  0.00000000000E+00  0.00000000000E+00  0.24438055219E+04  0.24438055219E+04  0.00000000000E+00 0. -1.
         -2   -1    0    0    0  501 -0.00000000000E+00 -0.00000000000E+00 -0.14533163425E+04  0.14533163425E+04  0.00000000000E+00 0.  1.
         23    2    1    2    0    0 -0.28175164991E+03  0.17739415456E+04  0.87436033368E+03  0.19998368719E+04  0.92676436736E+02 0.  0.
    5000000    2    1    2    0    0  0.28175164991E+03 -0.17739415456E+04  0.11612884571E+03  0.18972849924E+04  0.59995986072E+03 0.  0.
         23    2    4    4    0    0 -0.14356223482E+03 -0.91914702961E+03  0.42353224779E+02  0.93503380677E+03  0.83982419858E+02 0.  0.
         23    2    4    4    0    0  0.42531388473E+03 -0.85479451594E+03  0.73775620926E+02  0.96225118567E+03  0.94440124151E+02 0.  0.
          4    1    3    3  502    0 -0.21495990851E+03  0.14451512156E+04  0.67360331103E+03  0.16088540079E+04  0.00000000000E+00 0.  1.
         -4    1    3    3    0  502 -0.66791741403E+02  0.32879032996E+03  0.20075702265E+03  0.39098286399E+03  0.00000000000E+00 0. -1.
         11    1    5    5    0    0 -0.11847794038E+03 -0.59888126223E+03  0.59159438502E+02  0.61334788478E+03  0.00000000000E+00 0. -1.
        -11    1    5    5    0    0 -0.25084294442E+02 -0.32026576738E+03 -0.16806213723E+02  0.32168592198E+03  0.00000000000E+00 0.  1.
          5    1    6    6  503    0  0.14305271960E+03 -0.19609375205E+03  0.19028544915E+02  0.24351799872E+03  0.47000000000E+01 0. -1.
         -5    1    6    6    0  503  0.28226116513E+03 -0.65870076389E+03  0.54747076011E+02  0.71873318695E+03  0.47000000000E+01 0.  1.
<mgrwt>
<rscale>  0 0.18438550E+04</rscale>
<asrwt>0</asrwt>
<pdfrwt beam="1">  1        2 0.37597008E+00 0.18438550E+04</pdfrwt>
<pdfrwt beam="2">  1       -2 0.22358713E+00 0.18438550E+04</pdfrwt>
<totfact> 0.31867269E-01</totfact>
</mgrwt>
</event>
<event>
12    1  0.3127365E-008  0.1423977E+04  0.7818608E-02  0.8936643E-01
         -1   -1    0    0    0  501 -0.00000000000E+00  0.00000000000E+00  0.11079203595E+04  0.11079203595E+04  0.00000000000E+00 0.  1.
          1   -1    0    0  501    0  0.00000000000E+00 -0.00000000000E+00 -0.20039649773E+04  0.20039649773E+04  0.00000000000E+00 0. -1.
         23    2    1    2    0    0 -0.13302380439E+04  0.32141967841E+03 -0.85660576916E+03  0.16170879729E+04  0.91412281009E+02 0.  0.
    5000000    2    1    2    0    0  0.13302380439E+04 -0.32141967841E+03 -0.39438848609E+02  0.14947973639E+04  0.60001656070E+03 0.  0.
         23    2    4    4    0    0  0.17938136631E+03  0.13695653081E+03 -0.68331176967E+02  0.25236347005E+03  0.89907760295E+02 0.  0.
         23    2    4    4    0    0  0.11508566776E+04 -0.45837620921E+03  0.28892328358E+02  0.12424338938E+04  0.90704863748E+02 0.  0.
          3    1    3    3  502    0 -0.15691478343E+03  0.64014440655E+02 -0.12531226908E+03  0.21076826767E+03  0.00000000000E+00 0. -1.
         -3    1    3    3    0  502 -0.11733232605E+04  0.25740523775E+03 -0.73129350008E+03  0.14063197052E+04  0.00000000000E+00 0.  1.
         13    1    5    5    0    0  0.17033397954E+03  0.94243052547E+02 -0.35839355263E+02  0.19793907377E+03  0.00000000000E+00 0.  1.
        -13    1    5    5    0    0  0.90473867613E+01  0.42713478261E+02 -0.32491821704E+02  0.54424396276E+02  0.00000000000E+00 0. -1.
          5    1    6    6  503    0  0.85686324821E+03 -0.33381098432E+03  0.60228710429E+02  0.92157147685E+03  0.47000000000E+01 0. -1.
         -5    1    6    6    0  503  0.29399342941E+03 -0.12456522490E+03 -0.31336382071E+02  0.32086241699E+03  0.47000000000E+01 0.  1.
<mgrwt>
<rscale>  0 0.14239775E+04</rscale>
<asrwt>0</asrwt>
<pdfrwt beam="1">  1        1 0.30830230E+00 0.14239775E+04</pdfrwt>
<pdfrwt beam="2">  1       -1 0.17044929E+00 0.14239775E+04</pdfrwt>
<totfact> 0.69113945E-01</totfact>
</mgrwt>
</event>
<event>
12    1  0.3127365E-008  0.1160537E+04  0.7818608E-02  0.9148118E-01
         -2   -1    0    0    0  501 -0.00000000000E+00  0.00000000000E+00  0.88854004640E+03  0.88854004640E+03  0.00000000000E+00 0.  1.
          2   -1    0    0  501    0  0.00000000000E+00 -0.00000000000E+00 -0.21037437400E+04  0.21037437400E+04  0.00000000000E+00 0. -1.
         23    2    1    2    0    0  0.23864988021E+03  0.11009266095E+04  0.13028803944E+03  0.11377258713E+04  0.91934870184E+02 0.  0.
    5000000    2    1    2    0    0 -0.23864988021E+03 -0.11009266095E+04 -0.13454917331E+04  0.18545579151E+04  0.60003657552E+03 0.  0.
         23    2    4    4    0    0 -0.33026371137E+03 -0.90233583355E+03 -0.12843887584E+04  0.16066854593E+04  0.92193312250E+02 0.  0.
         23    2    4    4    0    0  0.91613831159E+02 -0.19859077590E+03 -0.61102974644E+02  0.24787245579E+03  0.99377011900E+02 0.  0.
          4    1    3    3  502    0  0.27590771163E+02  0.29501578912E+03  0.53622597927E+02  0.30111617276E+03  0.00000000000E+00 0. -1.
         -4    1    3    3    0  502  0.21105910905E+03  0.80591082033E+03  0.76665441515E+02  0.83660969858E+03  0.00000000000E+00 0.  1.
         13    1    5    5    0    0 -0.29984860103E+03 -0.73672257784E+03 -0.10246434994E+04  0.12971367087E+04  0.00000000000E+00 0.  1.
        -13    1    5    5    0    0 -0.30415110340E+02 -0.16561325571E+03 -0.25974525909E+03  0.30954875064E+03  0.00000000000E+00 0. -1.
          5    1    6    6  503    0  0.35518985951E+02 -0.14777828821E+03 -0.76919740263E+02  0.17040762093E+03  0.47000000000E+01 0. -1.
         -5    1    6    6    0  503  0.56094845209E+02 -0.50812487691E+02  0.15816765620E+02  0.77464834854E+02  0.47000000000E+01 0.  1.
<mgrwt>
<rscale>  0 0.11605367E+04</rscale>
<asrwt>0</asrwt>
<pdfrwt beam="1">  1        2 0.32365288E+00 0.11605367E+04</pdfrwt>
<pdfrwt beam="2">  1       -2 0.13669847E+00 0.11605367E+04</pdfrwt>
<totfact> 0.21886627E+00</totfact>
</mgrwt>
</event>
<event>
12    1  0.3127365E-008  0.3289757E+03  0.7818608E-02  0.1071591E+00
          2   -1    0    0  501    0  0.00000000000E+00  0.00000000000E+00  0.62493551854E+03  0.62493551854E+03  0.00000000000E+00 0. -1.
         -2   -1    0    0    0  501 -0.00000000000E+00 -0.00000000000E+00 -0.41745548742E+03  0.41745548742E+03  0.00000000000E+00 0.  1.
         23    2    1    2    0    0 -0.43202163430E+02 -0.22524634091E+03  0.30636470861E+03  0.39225335814E+03  0.86029188491E+02 0.  0.
    5000000    2    1    2    0    0  0.43202163430E+02  0.22524634091E+03 -0.98884677489E+02  0.65013764782E+03  0.60024864902E+03 0.  0.
         23    2    4    4    0    0 -0.12292049776E+03  0.36583403424E+02 -0.28296885052E+03  0.32523403936E+03  0.96218583542E+02 0.  0.
         23    2    4    4    0    0  0.16612266119E+03  0.18866293749E+03  0.18408417303E+03  0.32490360846E+03  0.92113676974E+02 0.  0.
          3    1    3    3  502    0  0.17310746403E+01 -0.16165740413E+03  0.16585096936E+03  0.23160884475E+03  0.00000000000E+00 0. -1.
         -3    1    3    3    0  502 -0.44933238071E+02 -0.63588936785E+02  0.14051373925E+03  0.16064451339E+03  0.00000000000E+00 0.  1.
         13    1    5    5    0    0 -0.14189738185E+02 -0.27091568116E+02 -0.87322813427E+02  0.92523378006E+02  0.00000000000E+00 0.  1.
        -13    1    5    5    0    0 -0.10873075957E+03  0.63674971540E+02 -0.19564603709E+03  0.23271066136E+03  0.00000000000E+00 0. -1.
          5    1    6    6  503    0  0.16541953876E+03  0.15147024889E+03  0.13060370037E+03  0.25958866819E+03  0.47000000000E+01 0. -1.
         -5    1    6    6    0  503  0.70312243029E+00  0.37192688604E+02  0.53480472657E+02  0.65314940270E+02  0.47000000000E+01 0.  1.
<mgrwt>
<rscale>  0 0.32897573E+03</rscale>
<asrwt>0</asrwt>
<pdfrwt beam="1">  1        2 0.96143926E-01 0.32897573E+03</pdfrwt>
<pdfrwt beam="2">  1       -2 0.64223921E-01 0.32897573E+03</pdfrwt>
<totfact> 0.11067940E+02</totfact>
</mgrwt>
</event>
<event>
12    1  0.3127365E-008  0.8227937E+03  0.7818608E-02  0.9527598E-01
         -2   -1    0    0    0  501 -0.00000000000E+00  0.00000000000E+00  0.24174626316E+03  0.24174626316E+03  0.00000000000E+00 0.  1.
          2   -1    0    0  501    0  0.00000000000E+00 -0.00000000000E+00 -0.35509308721E+04  0.35509308721E+04  0.00000000000E+00 0. -1.
         23    2    1    2    0    0 -0.14304401785E+03  0.79345545480E+03 -0.18618158362E+04  0.20305716852E+04  0.82643880976E+02 0.  0.
    5000000    2    1    2    0    0  0.14304401785E+03 -0.79345545480E+03 -0.14473687728E+04  0.17621054501E+04  0.60008841263E+03 0.  0.
         23    2    4    4    0    0  0.48449651391E+02 -0.65563173011E+03 -0.14224918414E+04  0.15696287930E+04  0.89728339122E+02 0.  0.
         23    2    4    4    0    0  0.94594366461E+02 -0.13782372470E+03 -0.24876931392E+02  0.19247665705E+03  0.92113671831E+02 0.  0.
          2    1    3    3  502    0 -0.73319567360E+01  0.24005053876E+03 -0.58529181962E+03  0.63264882270E+03  0.00000000000E+00 0.  1.
         -2    1    3    3    0  502 -0.13571206112E+03  0.55340491604E+03 -0.12765240166E+04  0.13979228625E+04  0.00000000000E+00 0. -1.
         13    1    5    5    0    0  0.55548326122E+02 -0.19775007389E+03 -0.42399472427E+03  0.47112868143E+03  0.00000000000E+00 0. -1.
        -13    1    5    5    0    0 -0.70986747318E+01 -0.45788165622E+03 -0.99849711712E+03  0.10985001116E+04  0.00000000000E+00 0.  1.
          5    1    6    6  503    0  0.91427003466E+02 -0.10645469979E+03 -0.52893485651E+02  0.15003769824E+03  0.47000000000E+01 0. -1.
         -5    1    6    6    0  503  0.31673629957E+01 -0.31369024911E+02  0.28016554260E+02  0.42438958809E+02  0.47000000000E+01 0.  1.
<mgrwt>
<rscale>  0 0.82279367E+03</rscale>
<asrwt>0</asrwt>
<pdfrwt beam="1">  1        2 0.54629699E+00 0.82279367E+03</pdfrwt>
<pdfrwt beam="2">  1       -2 0.37191737E-01 0.82279367E+03</pdfrwt>
<totfact> 0.54569711E+00</totfact>
</mgrwt>
</event>
<event>
12    1  0.3127365E-008  0.1264743E+04  0.7818608E-02  0.9058001E-01
         -2   -1    0    0    0  501 -0.00000000000E+00  0.00000000000E+00  0.21201699110E+04  0.21201699110E+04  0.00000000000E+00 0.  1.
          2   -1    0    0  501    0  0.00000000000E+00 -0.00000000000E+00 -0.16158298697E+04  0.16158298697E+04  0.00000000000E+00 0. -1.
         23    2    1    2    0    0  0.10057746113E+04 -0.75944531777E+03 -0.10528100813E+04  0.16447949545E+04  0.92744895825E+02 0.  0.
    5000000    2    1    2    0    0 -0.10057746113E+04  0.75944531777E+03  0.15571501226E+04  0.20912048261E+04  0.60006779709E+03 0.  0.
         23    2    4    4    0    0 -0.50409961667E+03  0.39704710694E+03  0.36340129094E+03  0.74359728629E+03  0.95465162625E+02 0.  0.
         23    2    4    4    0    0 -0.50167499466E+03  0.36239821083E+03  0.11937488317E+04  0.13476075398E+04  0.89440174944E+02 0.  0.
          2    1    3    3  502    0  0.66478518859E+02 -0.62435214955E+02 -0.10691167208E+03  0.14052635042E+03  0.00000000000E+00 0. -1.
         -2    1    3    3    0  502  0.93929609247E+03 -0.69701010282E+03 -0.94589840921E+03  0.15042686041E+04  0.00000000000E+00 0.  1.
         13    1    5    5    0    0 -0.53338927409E+02  0.94511768640E+01  0.26920563034E+02  0.60490351588E+02  0.00000000000E+00 0.  1.
        -13    1    5    5    0    0 -0.45076068926E+03  0.38759593007E+03  0.33648072791E+03  0.68310693471E+03  0.00000000000E+00 0. -1.
          5    1    6    6  503    0 -0.28676369873E+03  0.22868232053E+03  0.61804523916E+03  0.71870093244E+03  0.47000000000E+01 0. -1.
         -5    1    6    6    0  503 -0.21491129594E+03  0.13371589030E+03  0.57570359249E+03  0.62890660741E+03  0.47000000000E+01 0.  1.
<mgrwt>
<rscale>  0 0.12647432E+04</rscale>
<asrwt>0</asrwt>
<pdfrwt beam="1">  1        2 0.24858921E+00 0.12647432E+04</pdfrwt>
<pdfrwt beam="2">  1       -2 0.32617999E+00 0.12647432E+04</pdfrwt>
<totfact> 0.23212519E-01</totfact>
</mgrwt>
</event>
<event>
12    1  0.3127365E-008  0.4974512E+03  0.7818608E-02  0.1014446E+00
         -1   -1    0    0    0  501 -0.00000000000E+00  0.00000000000E+00  0.74068069851E+02  0.74068069851E+02  0.00000000000E+00 0.  1.
          1   -1    0    0  501    0  0.00000000000E+00 -0.00000000000E+00 -0.35186354451E+04  0.35186354451E+04  0.00000000000E+00 0. -1.
         23    2    1    2    0    0 -0.48838038735E+02 -0.31923685802E+03 -0.13098442960E+04  0.13518883645E+04  0.87251045035E+02 0.  0.
    5000000    2    1    2    0    0  0.48838038735E+02  0.31923685802E+03 -0.21347230793E+04  0.22408151504E+04  0.59992715200E+03 0.  0.
         23    2    4    4    0    0  0.24261744447E+03  0.37915844672E+03 -0.14570185632E+04  0.15277438505E+04  0.92053393484E+02 0.  0.
         23    2    4    4    0    0 -0.19377940573E+03 -0.59921588696E+02 -0.67770451611E+03  0.71307129994E+03  0.89700684306E+02 0.  0.
          2    1    3    3  502    0 -0.23505158406E+02 -0.19382168187E+03 -0.95313404346E+03  0.97292540394E+03  0.00000000000E+00 0.  1.
         -2    1    3    3    0  502 -0.25332880330E+02 -0.12541517615E+03 -0.35671025252E+03  0.37896296057E+03  0.00000000000E+00 0. -1.
         11    1    5    5    0    0  0.23459700124E+03  0.37648772680E+03 -0.13635185591E+04  0.14338624838E+04  0.00000000000E+00 0. -1.
        -11    1    5    5    0    0  0.80204432316E+01  0.26707199129E+01 -0.93500004017E+02  0.93881366658E+02  0.00000000000E+00 0.  1.
          5    1    6    6  503    0 -0.10202112664E+03  0.12202897098E+02 -0.36682840537E+03  0.38097557660E+03  0.47000000000E+01 0.  1.
         -5    1    6    6    0  503 -0.91758279089E+02 -0.72124485793E+02 -0.31087611074E+03  0.33209572334E+03  0.47000000000E+01 0. -1.
<mgrwt>
<rscale>  0 0.49745123E+03</rscale>
<asrwt>0</asrwt>
<pdfrwt beam="1">  1        1 0.54132855E+00 0.49745123E+03</pdfrwt>
<pdfrwt beam="2">  1       -1 0.11395087E-01 0.49745123E+03</pdfrwt>
<totfact> 0.14014296E+01</totfact>
</mgrwt>
</event>
<event>
12    1  0.3127365E-008  0.2003574E+04  0.7818608E-02  0.8604952E-01
          1   -1    0    0  501    0  0.00000000000E+00  0.00000000000E+00  0.29311668985E+04  0.29311668985E+04  0.00000000000E+00 0. -1.
         -1   -1    0    0    0  501 -0.00000000000E+00 -0.00000000000E+00 -0.14136161911E+04  0.14136161911E+04  0.00000000000E+00 0.  1.
         23    2    1    2    0    0  0.14424317820E+04  0.13415468770E+04  0.10456747466E+04  0.22322756154E+04  0.96235535221E+02 0.  0.
    5000000    2    1    2    0    0 -0.14424317820E+04 -0.13415468770E+04  0.47187596072E+03  0.21125074742E+04  0.59971946536E+03 0.  0.
         23    2    4    4    0    0 -0.36351997977E+03 -0.65983482391E+03  0.32105399791E+03  0.82407270685E+03  0.92148717153E+02 0.  0.
         23    2    4    4    0    0 -0.10789118022E+04 -0.68171205312E+03  0.15082196282E+03  0.12884347673E+04  0.92384440257E+02 0.  0.
          3    1    3    3  502    0  0.11324831691E+04  0.11039192253E+04  0.82756314229E+03  0.17849416065E+04  0.00000000000E+00 0. -1.
         -3    1    3    3    0  502  0.30994861293E+03  0.23762765173E+03  0.21811160435E+03  0.44733400885E+03  0.00000000000E+00 0.  1.
         11    1    5    5    0    0 -0.88620351944E+02 -0.25061866177E+03  0.10452397056E+03  0.28563707887E+03  0.00000000000E+00 0.  1.
        -11    1    5    5    0    0 -0.27489962782E+03 -0.40921616214E+03  0.21653002735E+03  0.53843562798E+03  0.00000000000E+00 0. -1.
          5    1    6    6  503    0 -0.76793180279E+03 -0.48383822923E+03  0.65196104138E+02  0.90999522405E+03  0.47000000000E+01 0. -1.
         -5    1    6    6    0  503 -0.31097999945E+03 -0.19787382388E+03  0.85625858679E+02  0.37843954327E+03  0.47000000000E+01 0.  1.
<mgrwt>
<rscale>  0 0.20035739E+04</rscale>
<asrwt>0</asrwt>
<pdfrwt beam="1">  1        1 0.45094875E+00 0.20035739E+04</pdfrwt>
<pdfrwt beam="2">  1       -1 0.21747942E+00 0.20035739E+04</pdfrwt>
<totfact> 0.68513293E-02</totfact>
</mgrwt>
</event>
<event>
12    1  0.3127365E-008  0.5594297E+03  0.7818608E-02  0.9993346E-01
          2   -1    0    0  501    0  0.00000000000E+00  0.00000000000E+00  0.35617921739E+03  0.35617921739E+03  0.00000000000E+00 0. -1.
         -2   -1    0    0    0  501 -0.00000000000E+00 -0.00000000000E+00 -0.13822836349E+04  0.13822836349E+04  0.00000000000E+00 0.  1.
         23    2    1    2    0    0  0.54399273549E+03 -0.69116437609E+02 -0.23266191919E+03  0.60251780294E+03  0.90503900538E+02 0.  0.
    5000000    2    1    2    0    0 -0.54399273549E+03  0.69116437609E+02 -0.79344249837E+03  0.11359450494E+04  0.60009580803E+03 0.  0.
         23    2    4    4    0    0 -0.22543332105E+03  0.76571419141E+01 -0.75845855472E+03  0.79713998753E+03  0.96405219905E+02 0.  0.
         23    2    4    4    0    0 -0.31855941444E+03  0.61459295695E+02 -0.34983943651E+02  0.33880506187E+03  0.91146300429E+02 0.  0.
          3    1    3    3  502    0  0.11582822741E+03  0.19646515728E+02 -0.64538085644E+02  0.13404226327E+03  0.00000000000E+00 0. -1.
         -3    1    3    3    0  502  0.42816450808E+03 -0.88762953337E+02 -0.16812383354E+03  0.46847553967E+03  0.00000000000E+00 0.  1.
         13    1    5    5    0    0 -0.97342134959E+02 -0.33038962134E+02 -0.23122533781E+03  0.25304588735E+03  0.00000000000E+00 0.  1.
        -13    1    5    5    0    0 -0.12809118609E+03  0.40696104048E+02 -0.52723321691E+03  0.54409410018E+03  0.00000000000E+00 0. -1.
          5    1    6    6  503    0 -0.24811011548E+03  0.63948325698E+02  0.74890158557E+01  0.25637120182E+03  0.47000000000E+01 0.  1.
         -5    1    6    6    0  503 -0.70449298959E+02 -0.24890300034E+01 -0.42472959507E+02  0.82433860054E+02  0.47000000000E+01 0. -1.
<mgrwt>
<rscale>  0 0.55942974E+03</rscale>
<asrwt>0</asrwt>
<pdfrwt beam="1">  1        2 0.54796802E-01 0.55942974E+03</pdfrwt>
<pdfrwt beam="2">  1       -2 0.21265902E+00 0.55942974E+03</pdfrwt>
<totfact> 0.10409734E+01</totfact>
</mgrwt>
</event>
<event>
12    1  0.3127365E-008  0.8372570E+03  0.7818608E-02  0.9507602E-01
         -2   -1    0    0    0  501 -0.00000000000E+00  0.00000000000E+00  0.89852195395E+03  0.89852195395E+03  0.00000000000E+00 0.  1.
          2   -1    0    0  501    0  0.00000000000E+00 -0.00000000000E+00 -0.95717591628E+03  0.95717591628E+03  0.00000000000E+00 0. -1.
         23    2    1    2    0    0 -0.33231888705E+03 -0.75769371354E+03 -0.68301846768E+01  0.83235142934E+03  0.90700850483E+02 0.  0.
    5000000    2    1    2    0    0  0.33231888705E+03  0.75769371354E+03 -0.51823777647E+02  0.10233464409E+04  0.60001385644E+03 0.  0.
         23    2    4    4    0    0  0.26363215268E+03  0.58888801339E+03  0.21542857312E+03  0.68645725299E+03  0.92320560206E+02 0.  0.
         23    2    4    4    0    0  0.68686734373E+02  0.16880570015E+03 -0.26725235076E+03  0.33688918790E+03  0.94113091809E+02 0.  0.
          4    1    3    3  502    0 -0.57512692165E+02 -0.12323907363E+03  0.32477282876E+02  0.13982257662E+03  0.00000000000E+00 0. -1.
         -4    1    3    3    0  502 -0.27480619489E+03 -0.63445463991E+03 -0.39307467553E+02  0.69252885272E+03  0.00000000000E+00 0.  1.
         11    1    5    5    0    0  0.20918286072E+02  0.13874517554E+03  0.50089566958E+02  0.14898578169E+03  0.00000000000E+00 0.  1.
        -11    1    5    5    0    0  0.24271386661E+03  0.45014283784E+03  0.16533900616E+03  0.53747147130E+03  0.00000000000E+00 0. -1.
          5    1    6    6  503    0  0.61856745972E+02  0.60144219756E+02 -0.17057013463E+03  0.19120628917E+03  0.47000000000E+01 0. -1.
         -5    1    6    6    0  503  0.68299884009E+01  0.10866148040E+03 -0.96682216136E+02  0.14568289872E+03  0.47000000000E+01 0.  1.
<mgrwt>
<rscale>  0 0.83725699E+03</rscale>
<asrwt>0</asrwt>
<pdfrwt beam="1">  1        2 0.14725783E+00 0.83725699E+03</pdfrwt>
<pdfrwt beam="2">  1       -2 0.13823415E+00 0.83725699E+03</pdfrwt>
<totfact> 0.10041967E+01</totfact>
</mgrwt>
</event>
<event>
12    1  0.3127365E-008  0.6864047E+03  0.7818608E-02  0.9740769E-01
          1   -1    0    0  501    0  0.00000000000E+00  0.00000000000E+00  0.49270678635E+03  0.49270678635E+03  0.00000000000E+00 0. -1.
         -1   -1    0    0    0  501 -0.00000000000E+00 -0.00000000000E+00 -0.15415009664E+04  0.15415009664E+04  0.00000000000E+00 0.  1.
         23    2    1    2    0    0  0.57836018156E+03 -0.44988030975E+02 -0.10461544226E+04  0.11995798237E+04  0.89600529637E+02 0.  0.
    5000000    2    1    2    0    0 -0.57836018156E+03  0.44988030975E+02 -0.26397574276E+01  0.83462792906E+03  0.60006032121E+03 0.  0.
         23    2    4    4    0    0 -0.66276134287E+03  0.11329992200E+03  0.57966952022E+02  0.68085268153E+03  0.90059627442E+02 0.  0.
         23    2    4    4    0    0  0.84401161309E+02 -0.68311891021E+02 -0.60606709450E+02  0.15377524752E+03  0.90463158443E+02 0.  0.
          4    1    3    3  502    0  0.24783771283E+03 -0.32299605956E+02 -0.53853007523E+03  0.59370147244E+03  0.00000000000E+00 0. -1.
         -4    1    3    3    0  502  0.33052246873E+03 -0.12688425019E+02 -0.50762434740E+03  0.60587835127E+03  0.00000000000E+00 0.  1.
         11    1    5    5    0    0 -0.45542812591E+03  0.62447868956E+02  0.78670507522E+02  0.46637277254E+03  0.00000000000E+00 0. -1.
        -11    1    5    5    0    0 -0.20733321696E+03  0.50852053040E+02 -0.20703555500E+02  0.21447990899E+03  0.00000000000E+00 0.  1.
          5    1    6    6  503    0  0.47062957472E+02 -0.81716628919E+01  0.14813364122E+02  0.50231701116E+02  0.47000000000E+01 0. -1.
         -5    1    6    6    0  503  0.37338203837E+02 -0.60140228129E+02 -0.75420073571E+02  0.10354354641E+03  0.47000000000E+01 0.  1.
<mgrwt>
<rscale>  0 0.68640470E+03</rscale>
<asrwt>0</asrwt>
<pdfrwt beam="1">  1        1 0.75801044E-01 0.68640470E+03</pdfrwt>
<pdfrwt beam="2">  1       -1 0.23715400E+00 0.68640470E+03</pdfrwt>
<totfact> 0.40220617E+00</totfact>
</mgrwt>
</event>
<event>
12    1  0.3127365E-008  0.4570587E+03  0.7818608E-02  0.1025638E+00
          1   -1    0    0  501    0  0.00000000000E+00  0.00000000000E+00  0.10045645182E+04  0.10045645182E+04  0.00000000000E+00 0. -1.
         -1   -1    0    0    0  501 -0.00000000000E+00 -0.00000000000E+00 -0.26789901220E+03  0.26789901220E+03  0.00000000000E+00 0.  1.
         23    2    1    2    0    0  0.13609703054E+03  0.24062799288E+03  0.10822369959E+02  0.29104483383E+03  0.90364478237E+02 0.  0.
    5000000    2    1    2    0    0 -0.13609703054E+03 -0.24062799288E+03  0.72584313601E+03  0.98141869653E+03  0.59992513461E+03 0.  0.
         23    2    4    4    0    0 -0.25943152446E+03 -0.36869287509E+03  0.50901362836E+03  0.68658390345E+03  0.95202051422E+02 0.  0.
         23    2    4    4    0    0  0.12333449392E+03  0.12806488221E+03  0.21682950764E+03  0.29483479308E+03  0.91107125868E+02 0.  0.
          4    1    3    3  502    0  0.81054133551E+02  0.19274952271E+03 -0.23512736182E+02  0.21041625373E+03  0.00000000000E+00 0. -1.
         -4    1    3    3    0  502  0.55042896990E+02  0.47878470165E+02  0.34335106141E+02  0.80628580095E+02  0.00000000000E+00 0.  1.
         11    1    5    5    0    0 -0.13245629059E+03 -0.23399482852E+03  0.24245234473E+03  0.36205163741E+03  0.00000000000E+00 0.  1.
        -11    1    5    5    0    0 -0.12697523387E+03 -0.13469804657E+03  0.26656128363E+03  0.32453226604E+03  0.00000000000E+00 0. -1.
          5    1    6    6  503    0  0.57546714825E+02  0.61907415135E+02  0.17094242741E+03  0.19075522516E+03  0.47000000000E+01 0. -1.
         -5    1    6    6    0  503  0.65787779091E+02  0.66157467075E+02  0.45887080229E+02  0.10407956792E+03  0.47000000000E+01 0.  1.
<mgrwt>
<rscale>  0 0.45705875E+03</rscale>
<asrwt>0</asrwt>
<pdfrwt beam="1">  1        1 0.15454839E+00 0.45705875E+03</pdfrwt>
<pdfrwt beam="2">  1       -1 0.41215233E-01 0.45705875E+03</pdfrwt>
<totfact> 0.91046181E+01</totfact>
</mgrwt>
</event>
<event>
12    1  0.3127365E-008  0.6469628E+03  0.7818608E-02  0.9812495E-01
         -2   -1    0    0    0  501 -0.00000000000E+00  0.00000000000E+00  0.10763044539E+04  0.10763044539E+04  0.00000000000E+00 0. -1.
          2   -1    0    0  501    0  0.00000000000E+00 -0.00000000000E+00 -0.14508433424E+04  0.14508433424E+04  0.00000000000E+00 0.  1.
         23    2    1    2    0    0 -0.44767318853E+03  0.26211386229E+03 -0.12435680244E+04  0.13505366972E+04  0.91503982367E+02 0.  0.
    5000000    2    1    2    0    0  0.44767318853E+03 -0.26211386229E+03  0.86902913590E+03  0.11766110991E+04  0.60007256144E+03 0.  0.
         23    2    4    4    0    0 -0.16594740754E+02  0.13814278204E+03  0.11089663024E+03  0.19743174300E+03  0.85571121850E+02 0.  0.
         23    2    4    4    0    0  0.46426792929E+03 -0.40025664433E+03  0.75813250566E+03  0.97917935612E+03  0.90979249409E+02 0.  0.
          4    1    3    3  502    0 -0.12879410806E+03  0.29706240585E+02 -0.30829187347E+03  0.33543145685E+03  0.00000000000E+00 0. -1.
         -4    1    3    3    0  502 -0.31887908047E+03  0.23240762171E+03 -0.93527615089E+03  0.10151052404E+04  0.00000000000E+00 0.  1.
         13    1    5    5    0    0 -0.36117596209E+02  0.68658913547E+02  0.96530726928E+02  0.12384146481E+03  0.00000000000E+00 0.  1.
        -13    1    5    5    0    0  0.19522855455E+02  0.69483868491E+02  0.14365903312E+02  0.73590278186E+02  0.00000000000E+00 0. -1.
          5    1    6    6  503    0  0.26562876558E+03 -0.18072082154E+03  0.43642568396E+03  0.54194845148E+03  0.47000000000E+01 0. -1.
         -5    1    6    6    0  503  0.19863916371E+03 -0.21953582279E+03  0.32170682170E+03  0.43723090464E+03  0.47000000000E+01 0.  1.
<mgrwt>
<rscale>  0 0.64696280E+03</rscale>
<asrwt>0</asrwt>
<pdfrwt beam="1">  1        2 0.22320667E+00 0.64696280E+03</pdfrwt>
<pdfrwt beam="2">  1       -2 0.16558530E+00 0.64696280E+03</pdfrwt>
<totfact> 0.32444267E+00</totfact>
</mgrwt>
</event>
<event>
12    1  0.3127365E-008  0.7256072E+03  0.7818608E-02  0.9674416E-01
          2   -1    0    0  501    0  0.00000000000E+00  0.00000000000E+00  0.14540784320E+04  0.14540784320E+04  0.00000000000E+00 0. -1.
         -2   -1    0    0    0  501 -0.00000000000E+00 -0.00000000000E+00 -0.40530587715E+03  0.40530587715E+03  0.00000000000E+00 0.  1.
         23    2    1    2    0    0  0.14954351808E+03  0.62945254021E+03  0.50051379934E+03  0.82053352527E+03  0.64710420981E+02 0.  0.
    5000000    2    1    2    0    0 -0.14954351808E+03 -0.62945254021E+03  0.54825875554E+03  0.10388507839E+04  0.60004126858E+03 0.  0.
         23    2    4    4    0    0 -0.33700470137E+02  0.48980795642E+02 -0.52705784033E+02  0.12063548507E+03  0.90775440286E+02 0.  0.
         23    2    4    4    0    0 -0.11584304795E+03 -0.67843333586E+03  0.60096453957E+03  0.91821529882E+03  0.90937089334E+02 0.  0.
          4    1    3    3  502    0  0.76534970605E+02  0.44746705511E+03  0.34135611514E+03  0.56798623617E+03  0.00000000000E+00 0. -1.
         -4    1    3    3    0  502  0.73008547478E+02  0.18198548510E+03  0.15915768420E+03  0.25254728910E+03  0.00000000000E+00 0.  1.
         11    1    5    5    0    0 -0.24818177740E+01 -0.25995450943E+02 -0.20769092075E+02  0.33365821956E+02  0.00000000000E+00 0.  1.
        -11    1    5    5    0    0 -0.31218652363E+02  0.74976246585E+02 -0.31936691958E+02  0.87269663117E+02  0.00000000000E+00 0. -1.
          5    1    6    6  503    0 -0.12994127142E+03 -0.62446012026E+03  0.54370128820E+03  0.83813385363E+03  0.47000000000E+01 0. -1.
         -5    1    6    6    0  503  0.14098223470E+02 -0.53973215597E+02  0.57263251372E+02  0.80081445195E+02  0.47000000000E+01 0.  1.
<mgrwt>
<rscale>  0 0.72560716E+03</rscale>
<asrwt>0</asrwt>
<pdfrwt beam="1">  1        2 0.22370437E+00 0.72560716E+03</pdfrwt>
<pdfrwt beam="2">  1       -2 0.62354751E-01 0.72560716E+03</pdfrwt>
<totfact> 0.32972452E+01</totfact>
</mgrwt>
</event>
<event>
12    1  0.3127365E-008  0.1171419E+04  0.7818608E-02  0.9138248E-01
          2   -1    0    0  501    0  0.00000000000E+00  0.00000000000E+00  0.29794422240E+04  0.29794422240E+04  0.00000000000E+00 0. -1.
         -2   -1    0    0    0  501 -0.00000000000E+00 -0.00000000000E+00 -0.62925954588E+03  0.62925954588E+03  0.00000000000E+00 0.  1.
         23    2    1    2    0    0 -0.60401092048E+03  0.94305385520E+03  0.24541422954E+03  0.11502077655E+04  0.92574260886E+02 0.  0.
    5000000    2    1    2    0    0  0.60401092048E+03 -0.94305385520E+03  0.21047684485E+04  0.24584940044E+04  0.59996898401E+03 0.  0.
         23    2    4    4    0    0  0.38265091158E+02  0.19895640976E+02  0.44345734331E+03  0.45505275027E+03  0.92512358450E+02 0.  0.
         23    2    4    4    0    0  0.56574582933E+03 -0.96294949617E+03  0.16613111052E+04  0.20034412541E+04  0.80512078254E+02 0.  0.
          1    1    3    3  502    0 -0.32482890577E+03  0.45479412714E+03  0.84784320537E+02  0.56527860132E+03  0.00000000000E+00 0. -1.
         -1    1    3    3    0  502 -0.27918201471E+03  0.48825972806E+03  0.16062990900E+03  0.58492916413E+03  0.00000000000E+00 0.  1.
         13    1    5    5    0    0  0.68573784503E+02  0.63912171956E+01  0.29508640237E+03  0.30301682535E+03  0.00000000000E+00 0. -1.
        -13    1    5    5    0    0 -0.30308693346E+02  0.13504423780E+02  0.14837094093E+03  0.15203592492E+03  0.00000000000E+00 0.  1.
          5    1    6    6  503    0  0.35074309980E+03 -0.66719160193E+03  0.10974342380E+04  0.13313712302E+04  0.47000000000E+01 0.  1.
         -5    1    6    6    0  503  0.21500272953E+03 -0.29575789425E+03  0.56387686723E+03  0.67207002396E+03  0.47000000000E+01 0. -1.
<mgrwt>
<rscale>  0 0.11714192E+04</rscale>
<asrwt>0</asrwt>
<pdfrwt beam="1">  1        2 0.45837572E+00 0.11714192E+04</pdfrwt>
<pdfrwt beam="2">  1       -2 0.96809163E-01 0.11714192E+04</pdfrwt>
<totfact> 0.15903139E+00</totfact>
</mgrwt>
</event>
<event>
12    1  0.3127365E-008  0.6117584E+03  0.7818608E-02  0.9881307E-01
          2   -1    0    0  501    0  0.00000000000E+00  0.00000000000E+00  0.11579544795E+04  0.11579544795E+04  0.00000000000E+00 0. -1.
         -2   -1    0    0    0  501 -0.00000000000E+00 -0.00000000000E+00 -0.36117418869E+03  0.36117418869E+03  0.00000000000E+00 0.  1.
         23    2    1    2    0    0 -0.32661810172E+03 -0.37863745811E+03  0.24804324455E+03  0.56549147789E+03  0.90606022683E+02 0.  0.
    5000000    2    1    2    0    0  0.32661810172E+03  0.37863745811E+03  0.54873704627E+03  0.95363719030E+03  0.59855311855E+03 0.  0.
         23    2    4    4    0    0  0.20826444487E+03 -0.81795783144E+02  0.30909586333E+02  0.24475835337E+03  0.94268870159E+02 0.  0.
         23    2    4    4    0    0  0.11835365685E+03  0.46043324125E+03  0.51782745994E+03  0.70887883693E+03  0.91419743154E+02 0.  0.
          2    1    3    3  502    0 -0.30502732311E+03 -0.31089560047E+03  0.19733498402E+03  0.47816193717E+03  0.00000000000E+00 0. -1.
         -2    1    3    3    0  502 -0.21590778609E+02 -0.67741857638E+02  0.50708260532E+02  0.87329540726E+02  0.00000000000E+00 0.  1.
         13    1    5    5    0    0  0.14400643044E+03 -0.97998203601E+02  0.37445743482E+02  0.17816757174E+03  0.00000000000E+00 0. -1.
        -13    1    5    5    0    0  0.64258014436E+02  0.16202420457E+02 -0.65361571495E+01  0.66590781631E+02  0.00000000000E+00 0.  1.
          5    1    6    6  503    0  0.20131999576E+02  0.13098781883E+03  0.20439148521E+03  0.24364128409E+03  0.47000000000E+01 0. -1.
         -5    1    6    6    0  503  0.98221657275E+02  0.32944542242E+03  0.31343597473E+03  0.46523755283E+03  0.47000000000E+01 0.  1.
<mgrwt>
<rscale>  0 0.61175842E+03</rscale>
<asrwt>0</asrwt>
<pdfrwt beam="1">  1        2 0.17814684E+00 0.61175842E+03</pdfrwt>
<pdfrwt beam="2">  1       -2 0.55565260E-01 0.61175842E+03</pdfrwt>
<totfact> 0.62967006E+01</totfact>
</mgrwt>
</event>
<event>
12    1  0.3127365E-008  0.5186481E+03  0.7818608E-02  0.1009023E+00
          2   -1    0    0  501    0  0.00000000000E+00  0.00000000000E+00  0.20915593748E+04  0.20915593748E+04  0.00000000000E+00 0. -1.
         -2   -1    0    0    0  501 -0.00000000000E+00 -0.00000000000E+00 -0.13304890630E+03  0.13304890630E+03  0.00000000000E+00 0.  1.
         23    2    1    2    0    0  0.12357865484E+03  0.32510035007E+03  0.65197502599E+03  0.74541279133E+03  0.98014659181E+02 0.  0.
    5000000    2    1    2    0    0 -0.12357865484E+03 -0.32510035007E+03  0.13065354425E+04  0.14791954898E+04  0.60001876045E+03 0.  0.
         23    2    4    4    0    0 -0.26268345690E+03 -0.41427784078E+03  0.85823804392E+03  0.99274744467E+03  0.91357654123E+02 0.  0.
         23    2    4    4    0    0  0.13910480206E+03  0.89177490705E+02  0.44829739858E+03  0.48644804511E+03  0.91424133619E+02 0.  0.
          3    1    3    3  502    0  0.10040523905E+03  0.13721519724E+03  0.26951655105E+03  0.31866658701E+03  0.00000000000E+00 0. -1.
         -3    1    3    3    0  502  0.23173415788E+02  0.18788515283E+03  0.38245847494E+03  0.42674620432E+03  0.00000000000E+00 0.  1.
         11    1    5    5    0    0 -0.81544217888E+02 -0.17879448199E+03  0.41468500155E+03  0.45889059346E+03  0.00000000000E+00 0.  1.
        -11    1    5    5    0    0 -0.18113923901E+03 -0.23548335879E+03  0.44355304238E+03  0.53385685120E+03  0.00000000000E+00 0. -1.
          5    1    6    6  503    0  0.12302244760E+03  0.10462672715E+03  0.34921741232E+03  0.38478067222E+03  0.47000000000E+01 0. -1.
         -5    1    6    6    0  503  0.16082354463E+02 -0.15449236445E+02  0.99079986268E+02  0.10166737289E+03  0.47000000000E+01 0.  1.
<mgrwt>
<rscale>  0 0.51864806E+03</rscale>
<asrwt>0</asrwt>
<pdfrwt beam="1">  1        2 0.32177834E+00 0.51864806E+03</pdfrwt>
<pdfrwt beam="2">  1       -2 0.20469064E-01 0.51864806E+03</pdfrwt>
<totfact> 0.12861304E+02</totfact>
</mgrwt>
</event>
<event>
12    1  0.3127365E-008  0.1369191E+04  0.7818608E-02  0.8976427E-01
         -2   -1    0    0    0  501 -0.00000000000E+00  0.00000000000E+00  0.31829078809E+04  0.31829078809E+04  0.00000000000E+00 0. -1.
          2   -1    0    0  501    0  0.00000000000E+00 -0.00000000000E+00 -0.12805074074E+04  0.12805074074E+04  0.00000000000E+00 0.  1.
         23    2    1    2    0    0 -0.73069289413E+03  0.11037620585E+04  0.25482531118E+04  0.28730728243E+04  0.93545416129E+02 0.  0.
    5000000    2    1    2    0    0  0.73069289413E+03 -0.11037620585E+04 -0.64585263825E+03  0.15903424640E+04  0.59988393476E+03 0.  0.
         23    2    4    4    0    0  0.70525285933E+03 -0.68698740449E+03 -0.60839757687E+03  0.11609323765E+04  0.91011437365E+02 0.  0.
         23    2    4    4    0    0  0.25440034801E+02 -0.41677465403E+03 -0.37455061372E+02  0.42941008752E+03  0.92961465322E+02 0.  0.
          4    1    3    3  502    0 -0.12102491952E+03  0.13066904333E+03  0.31356978696E+03  0.36062091082E+03  0.00000000000E+00 0. -1.
         -4    1    3    3    0  502 -0.60966797461E+03  0.97309301519E+03  0.22346833248E+04  0.25124519135E+04  0.00000000000E+00 0.  1.
         11    1    5    5    0    0  0.26201615338E+03 -0.22791558609E+03 -0.16941454721E+03  0.38639263428E+03  0.00000000000E+00 0.  1.
        -11    1    5    5    0    0  0.44323670595E+03 -0.45907181841E+03 -0.43898302966E+03  0.77453974222E+03  0.00000000000E+00 0. -1.
          5    1    6    6  503    0  0.53640066523E+02 -0.34722942029E+03 -0.43065524726E+02  0.35400883671E+03  0.47000000000E+01 0. -1.
         -5    1    6    6    0  503 -0.28200031722E+02 -0.69545233737E+02  0.56104633539E+01  0.75401250810E+02  0.47000000000E+01 0.  1.
<mgrwt>
<rscale>  0 0.13691906E+04</rscale>
<asrwt>0</asrwt>
<pdfrwt beam="1">  1        2 0.19700114E+00 0.13691906E+04</pdfrwt>
<pdfrwt beam="2">  1       -2 0.48967813E+00 0.13691906E+04</pdfrwt>
<totfact> 0.31007150E-02</totfact>
</mgrwt>
</event>
<event>
12    1  0.3127365E-008  0.8541830E+03  0.7818608E-02  0.9484740E-01
         -1   -1    0    0    0  501 -0.00000000000E+00  0.00000000000E+00  0.53375675953E+03  0.53375675953E+03  0.00000000000E+00 0.  1.
          1   -1    0    0  501    0  0.00000000000E+00 -0.00000000000E+00 -0.16402251192E+04  0.16402251192E+04  0.00000000000E+00 0. -1.
         23    2    1    2    0    0  0.40286310806E+03 -0.68016489728E+03 -0.17996795664E+03  0.81588185428E+03  0.91387982800E+02 0.  0.
    5000000    2    1    2    0    0 -0.40286310806E+03  0.68016489728E+03 -0.92650040307E+03  0.13581000245E+04  0.60092404539E+03 0.  0.
         23    2    4    4    0    0 -0.47766018927E+03  0.44115928408E+03 -0.40156522413E+03  0.76949768266E+03  0.89951564991E+02 0.  0.
         23    2    4    4    0    0  0.74797081215E+02  0.23900561320E+03 -0.52493517894E+03  0.58860234183E+03  0.90429465485E+02 0.  0.
          3    1    3    3  502    0  0.15830305058E+03 -0.21852633769E+03 -0.97938656458E+02  0.28706374992E+03  0.00000000000E+00 0. -1.
         -3    1    3    3    0  502  0.24456005747E+03 -0.46163855959E+03 -0.82029300180E+02  0.52881810436E+03  0.00000000000E+00 0.  1.
         13    1    5    5    0    0 -0.14073497075E+03  0.10477412359E+03 -0.67989730859E+02  0.18816628940E+03  0.00000000000E+00 0.  1.
        -13    1    5    5    0    0 -0.33692521852E+03  0.33638516049E+03 -0.33357549327E+03  0.58133139326E+03  0.00000000000E+00 0. -1.
          5    1    6    6  503    0 -0.17150888725E+02  0.68582625750E+02 -0.11260242044E+03  0.13303805707E+03  0.47000000000E+01 0. -1.
         -5    1    6    6    0  503  0.91947969940E+02  0.17042298745E+03 -0.41233275849E+03  0.45556428476E+03  0.47000000000E+01 0.  1.
<mgrwt>
<rscale>  0 0.85418304E+03</rscale>
<asrwt>0</asrwt>
<pdfrwt beam="1">  1        1 0.25234232E+00 0.85418304E+03</pdfrwt>
<pdfrwt beam="2">  1       -1 0.82116426E-01 0.85418304E+03</pdfrwt>
<totfact> 0.79233066E+00</totfact>
</mgrwt>
</event>
<event>
12    1  0.3127365E-008  0.8707088E+03  0.7818608E-02  0.9462956E-01
         -2   -1    0    0    0  501 -0.00000000000E+00  0.00000000000E+00  0.13833502057E+04  0.13833502057E+04  0.00000000000E+00 0.  1.
          2   -1    0    0  501    0  0.00000000000E+00 -0.00000000000E+00 -0.71512892187E+03  0.71512892187E+03  0.00000000000E+00 0. -1.
         23    2    1    2    0    0 -0.17741262639E+03 -0.83754445512E+03  0.60205871985E+03  0.10509274910E+04  0.94962807426E+02 0.  0.
    5000000    2    1    2    0    0  0.17741262639E+03  0.83754445512E+03  0.66162563965E+02  0.10475516366E+04  0.60002582625E+03 0.  0.
         23    2    4    4    0    0  0.16870192455E+03  0.66262782974E+03 -0.19821154643E+03  0.71774322272E+03  0.91277250831E+02 0.  0.
         23    2    4    4    0    0  0.87107018322E+01  0.17491662538E+03  0.26437411040E+03  0.32980841388E+03  0.90599213346E+02 0.  0.
          1    1    3    3  502    0 -0.71895023578E+02 -0.50332974233E+03  0.39512224228E+03  0.64391871403E+03  0.00000000000E+00 0. -1.
         -1    1    3    3    0  502 -0.10551760281E+03 -0.33421471279E+03  0.20693647757E+03  0.40700877693E+03  0.00000000000E+00 0.  1.
         13    1    5    5    0    0  0.94160975030E+02  0.20634532684E+03 -0.80344642246E+02  0.24062407333E+03  0.00000000000E+00 0. -1.
        -13    1    5    5    0    0  0.74540949524E+02  0.45628250290E+03 -0.11786690419E+03  0.47711914939E+03  0.00000000000E+00 0.  1.
          5    1    6    6  503    0  0.44043336122E+02  0.72986523350E+02  0.14942316264E+03  0.17209363608E+03  0.47000000000E+01 0. -1.
         -5    1    6    6    0  503 -0.35332634290E+02  0.10193010203E+03  0.11495094776E+03  0.15771477780E+03  0.47000000000E+01 0. -1.
<mgrwt>
<rscale>  0 0.87070885E+03</rscale>
<asrwt>0</asrwt>
<pdfrwt beam="1">  1        2 0.11001983E+00 0.87070885E+03</pdfrwt>
<pdfrwt beam="2">  1       -2 0.21282311E+00 0.87070885E+03</pdfrwt>
<totfact> 0.44140943E+00</totfact>
</mgrwt>
</event>
<event>
12    1  0.3127365E-008  0.4581909E+03  0.7818608E-02  0.1025307E+00
          2   -1    0    0  501    0  0.00000000000E+00  0.00000000000E+00  0.16604988989E+04  0.16604988989E+04  0.00000000000E+00 0.  1.
         -2   -1    0    0    0  501 -0.00000000000E+00 -0.00000000000E+00 -0.23836534781E+03  0.23836534781E+03  0.00000000000E+00 0. -1.
         23    2    1    2    0    0  0.41515691831E+02 -0.39771674633E+03  0.14862166885E+03  0.43570083831E+03  0.88570068721E+02 0.  0.
    5000000    2    1    2    0    0 -0.41515691831E+02  0.39771674633E+03  0.12735118822E+04  0.14631634084E+04  0.59925994565E+03 0.  0.
         23    2    4    4    0    0  0.11218008119E+03  0.22037148951E+03  0.11552340918E+04  0.11850490696E+04  0.92884479221E+02 0.  0.
         23    2    4    4    0    0 -0.15369577302E+03  0.17734525682E+03  0.11827779039E+03  0.27811433875E+03  0.91017684862E+02 0.  0.
          4    1    3    3  502    0 -0.23179336407E+02 -0.71683384074E+02  0.11818612292E+02  0.76259220984E+02  0.00000000000E+00 0. -1.
         -4    1    3    3    0  502  0.64695028238E+02 -0.32603336226E+03  0.13680305656E+03  0.35944161733E+03  0.00000000000E+00 0.  1.
         11    1    5    5    0    0  0.12543786305E+03  0.19612275701E+03  0.10822745116E+04  0.11070306733E+04  0.00000000000E+00 0. -1.
        -11    1    5    5    0    0 -0.13257781864E+02  0.24248732496E+02  0.72959580246E+02  0.78018396275E+02  0.00000000000E+00 0.  1.
          5    1    6    6  503    0 -0.44822145005E+02  0.11300358063E+03  0.34904124669E+02  0.12656706458E+03  0.47000000000E+01 0. -1.
         -5    1    6    6    0  503 -0.10887362801E+03  0.64341676192E+02  0.83373665717E+02  0.15154727417E+03  0.47000000000E+01 0.  1.
<mgrwt>
<rscale>  0 0.45819087E+03</rscale>
<asrwt>0</asrwt>
<pdfrwt beam="1">  1        2 0.25546136E+00 0.45819087E+03</pdfrwt>
<pdfrwt beam="2">  1       -2 0.36671593E-01 0.45819087E+03</pdfrwt>
<totfact> 0.76683921E+01</totfact>
</mgrwt>
</event>
<event>
12    1  0.3127365E-008  0.3343960E+03  0.7818608E-02  0.1069208E+00
         -3   -1    0    0    0  501 -0.00000000000E+00  0.00000000000E+00  0.25236253681E+03  0.25236253681E+03  0.00000000000E+00 0.  1.
          3   -1    0    0  501    0  0.00000000000E+00 -0.00000000000E+00 -0.80149109758E+03  0.80149109758E+03  0.00000000000E+00 0. -1.
         23    2    1    2    0    0 -0.23059775386E+02 -0.11076181887E+03 -0.39985100426E+03  0.42540332492E+03  0.91034221512E+02 0.  0.
    5000000    2    1    2    0    0  0.23059775386E+02  0.11076181887E+03 -0.14927755650E+03  0.62845030946E+03  0.59988838031E+03 0.  0.
         23    2    4    4    0    0 -0.17990213366E+03 -0.10142196021E+03  0.84361452247E+02  0.24125044863E+03  0.91835356103E+02 0.  0.
         23    2    4    4    0    0  0.20296190905E+03  0.21218377908E+03 -0.23363900875E+03  0.38719986083E+03  0.95504205074E+02 0.  0.
          1    1    3    3  502    0 -0.50267008620E+02 -0.26824120990E+02 -0.15758675745E+03  0.16757055752E+03  0.00000000000E+00 0. -1.
         -1    1    3    3    0  502  0.27207233234E+02 -0.83937697884E+02 -0.24226424681E+03  0.25783276741E+03  0.00000000000E+00 0.  1.
         13    1    5    5    0    0  0.61126831056E+01 -0.23271502352E+02  0.12133818611E+02  0.26947305441E+02  0.00000000000E+00 0. -1.
        -13    1    5    5    0    0 -0.18601481677E+03 -0.78150457858E+02  0.72227633637E+02  0.21430314319E+03  0.00000000000E+00 0.  1.
          5    1    6    6  503    0  0.56006199551E+02  0.30224990883E+02 -0.97515482227E+02  0.11654013788E+03  0.47000000000E+01 0. -1.
         -5    1    6    6    0  503  0.14695570950E+03  0.18195878820E+03 -0.13612352653E+03  0.27065972296E+03  0.47000000000E+01 0.  1.
<mgrwt>
<rscale>  0 0.33439602E+03</rscale>
<asrwt>0</asrwt>
<pdfrwt beam="1">  1        3 0.12330632E+00 0.33439602E+03</pdfrwt>
<pdfrwt beam="2">  1       -3 0.38825006E-01 0.33439602E+03</pdfrwt>
<totfact> 0.90735991E+00</totfact>
</mgrwt>
</event>
<event>
12    1  0.3127365E-008  0.5299579E+03  0.7818608E-02  0.1006242E+00
         -1   -1    0    0    0  501 -0.00000000000E+00  0.00000000000E+00  0.27595149225E+03  0.27595149225E+03  0.00000000000E+00 0.  1.
          1   -1    0    0  501    0  0.00000000000E+00 -0.00000000000E+00 -0.13843078528E+04  0.13843078528E+04  0.00000000000E+00 0. -1.
         23    2    1    2    0    0 -0.24715699849E+03  0.26092740617E+03 -0.82570174137E+03  0.90500238482E+03  0.89868001239E+02 0.  0.
    5000000    2    1    2    0    0  0.24715699849E+03 -0.26092740617E+03 -0.28265461922E+03  0.75525696027E+03  0.60112373857E+03 0.  0.
         23    2    4    4    0    0 -0.14814987950E+03  0.49467343909E+02 -0.23954077835E+02  0.18209942309E+03  0.90504127721E+02 0.  0.
         23    2    4    4    0    0  0.39530687799E+03 -0.31039475007E+03 -0.25870054138E+03  0.57315753718E+03  0.94716226951E+02 0.  0.
          2    1    3    3  502    0 -0.29865508872E+02  0.87461173691E+02 -0.20852233488E+03  0.22808544379E+03  0.00000000000E+00 0. -1.
         -2    1    3    3    0  502 -0.21729148962E+03  0.17346623247E+03 -0.61717940649E+03  0.67691694104E+03  0.00000000000E+00 0.  1.
         11    1    5    5    0    0 -0.82985495230E+02  0.71359431929E+02 -0.28837116938E+02  0.11318277368E+03  0.00000000000E+00 0.  1.
        -11    1    5    5    0    0 -0.65164384273E+02 -0.21892088019E+02  0.48830391026E+01  0.68916649414E+02  0.00000000000E+00 0. -1.
          5    1    6    6  503    0  0.21646769866E+03 -0.22759171704E+03 -0.15138222269E+03  0.34870463372E+03  0.47000000000E+01 0. -1.
         -5    1    6    6    0  503  0.17883917933E+03 -0.82803033030E+02 -0.10731831870E+03  0.22445290346E+03  0.47000000000E+01 0.  1.
<mgrwt>
<rscale>  0 0.52995788E+03</rscale>
<asrwt>0</asrwt>
<pdfrwt beam="1">  1        1 0.21297044E+00 0.52995788E+03</pdfrwt>
<pdfrwt beam="2">  1       -1 0.42454076E-01 0.52995788E+03</pdfrwt>
<totfact> 0.45503311E+01</totfact>
</mgrwt>
</event>
<event>
12    1  0.3127365E-008  0.1703115E+04  0.7818608E-02  0.8759590E-01
          2   -1    0    0  501    0  0.00000000000E+00  0.00000000000E+00  0.25219728057E+04  0.25219728057E+04  0.00000000000E+00 0.  1.
         -2   -1    0    0    0  501 -0.00000000000E+00 -0.00000000000E+00 -0.12174876266E+04  0.12174876266E+04  0.00000000000E+00 0. -1.
         23    2    1    2    0    0 -0.16950066065E+04 -0.13027841479E+02  0.49981180651E+03  0.17695065418E+04  0.90135668642E+02 0.  0.
    5000000    2    1    2    0    0  0.16950066065E+04  0.13027841479E+02  0.80467337256E+03  0.19699538905E+04  0.60000164457E+03 0.  0.
         23    2    4    4    0    0  0.74108532862E+03 -0.73118334583E+02  0.65595961536E+03  0.99656392266E+03  0.91120139407E+02 0.  0.
         23    2    4    4    0    0  0.95392127786E+03  0.86146176062E+02  0.14871375720E+03  0.97338996784E+03  0.89360393338E+02 0.  0.
          3    1    3    3  502    0 -0.47764929205E+03 -0.10251580247E+02  0.99441875361E+02  0.48799859392E+03  0.00000000000E+00 0.  1.
         -3    1    3    3    0  502 -0.12173573144E+04 -0.27762612314E+01  0.40036993115E+03  0.12815079479E+04  0.00000000000E+00 0. -1.
         13    1    5    5    0    0  0.42332252037E+03  0.13834441343E+01  0.38895663320E+03  0.57488358185E+03  0.00000000000E+00 0. -1.
        -13    1    5    5    0    0  0.31776280825E+03 -0.74501778717E+02  0.26700298216E+03  0.42168034081E+03  0.00000000000E+00 0.  1.
          5    1    6    6  503    0  0.67436267553E+03  0.98503919798E+02  0.90345770090E+02  0.68749726439E+03  0.47000000000E+01 0. -1.
         -5    1    6    6    0  503  0.27955860233E+03 -0.12357743736E+02  0.58367987107E+02  0.28589270345E+03  0.47000000000E+01 0.  1.
<mgrwt>
<rscale>  0 0.17031152E+04</rscale>
<asrwt>0</asrwt>
<pdfrwt beam="1">  1        2 0.38799582E+00 0.17031152E+04</pdfrwt>
<pdfrwt beam="2">  1       -2 0.18730579E+00 0.17031152E+04</pdfrwt>
<totfact> 0.50339531E-01</totfact>
</mgrwt>
</event>
<event>
12    1  0.3127365E-008  0.8300087E+03  0.7818608E-02  0.9517568E-01
          1   -1    0    0  501    0  0.00000000000E+00  0.00000000000E+00  0.12959260195E+04  0.12959260195E+04  0.00000000000E+00 0. -1.
         -1   -1    0    0    0  501 -0.00000000000E+00 -0.00000000000E+00 -0.71683375675E+03  0.71683375675E+03  0.00000000000E+00 0.  1.
         23    2    1    2    0    0  0.71506342595E+03 -0.38572266971E+03  0.58003695677E+03  0.10027986408E+04  0.95207991936E+02 0.  0.
    5000000    2    1    2    0    0 -0.71506342595E+03  0.38572266971E+03 -0.94469401029E+00  0.10099611354E+04  0.59993576456E+03 0.  0.
         23    2    4    4    0    0 -0.64452473229E+02  0.61657553020E+01 -0.19609697996E+03  0.22646033835E+03  0.92941494771E+02 0.  0.
         23    2    4    4    0    0 -0.65061095272E+03  0.37955691441E+03  0.19515228595E+03  0.78350079710E+03  0.91820592806E+02 0.  0.
          4    1    3    3  502    0  0.36367536875E+03 -0.20080404779E+03  0.23835412983E+03  0.47895169971E+03  0.00000000000E+00 0. -1.
         -4    1    3    3    0  502  0.35138805720E+03 -0.18491862192E+03  0.34168282695E+03  0.52384694111E+03  0.00000000000E+00 0.  1.
         11    1    5    5    0    0 -0.45828046445E+02  0.32731765447E+02 -0.18300501549E+03  0.19147431682E+03  0.00000000000E+00 0.  1.
        -11    1    5    5    0    0 -0.18624426784E+02 -0.26566010145E+02 -0.13091964474E+02  0.34986021521E+02  0.00000000000E+00 0. -1.
          5    1    6    6  503    0 -0.38730998191E+03  0.17373169367E+03  0.11390934571E+03  0.43953287990E+03  0.47000000000E+01 0. -1.
         -5    1    6    6    0  503 -0.26330097081E+03  0.20582522074E+03  0.81242940240E+02  0.34396791720E+03  0.47000000000E+01 0.  1.
<mgrwt>
<rscale>  0 0.83000871E+03</rscale>
<asrwt>0</asrwt>
<pdfrwt beam="1">  1        1 0.19937323E+00 0.83000871E+03</pdfrwt>
<pdfrwt beam="2">  1       -1 0.11028212E+00 0.83000871E+03</pdfrwt>
<totfact> 0.70838486E+00</totfact>
</mgrwt>
</event>
<event>
12    1  0.3127365E-008  0.5227087E+03  0.7818608E-02  0.1008016E+00
         -2   -1    0    0    0  501 -0.00000000000E+00  0.00000000000E+00  0.20711422305E+03  0.20711422305E+03  0.00000000000E+00 0. -1.
          2   -1    0    0  501    0  0.00000000000E+00 -0.00000000000E+00 -0.14198147996E+04  0.14198147996E+04  0.00000000000E+00 0.  1.
         23    2    1    2    0    0 -0.16102147643E+03  0.31961656116E+03 -0.55569635146E+03  0.66786876739E+03  0.95747550340E+02 0.  0.
    5000000    2    1    2    0    0  0.16102147643E+03 -0.31961656116E+03 -0.65700422507E+03  0.95906025523E+03  0.60004946410E+03 0.  0.
         23    2    4    4    0    0  0.61934620990E+02 -0.47580727283E+03 -0.40377514696E+03  0.63383854180E+03  0.92132891021E+02 0.  0.
         23    2    4    4    0    0  0.99086855435E+02  0.15619071167E+03 -0.25322907812E+03  0.32522171343E+03  0.86200078605E+02 0.  0.
          3    1    3    3  502    0 -0.13266498280E+03  0.18611349437E+03 -0.29068917376E+03  0.36978159255E+03  0.00000000000E+00 0.  1.
         -3    1    3    3    0  502 -0.28356493623E+02  0.13350306679E+03 -0.26500717770E+03  0.29808717484E+03  0.00000000000E+00 0. -1.
         11    1    5    5    0    0  0.79536962533E+02 -0.30725568006E+03 -0.23735728434E+03  0.39632141220E+03  0.00000000000E+00 0.  1.
        -11    1    5    5    0    0 -0.17602341543E+02 -0.16855159277E+03 -0.16641786262E+03  0.23751712960E+03  0.00000000000E+00 0. -1.
          5    1    6    6  503    0  0.42804413578E+02  0.11730023510E+03 -0.11021013398E+03  0.16661310455E+03  0.47000000000E+01 0. -1.
         -5    1    6    6    0  503  0.56282441858E+02  0.38890476575E+02 -0.14301894414E+03  0.15860860888E+03  0.47000000000E+01 0.  1.
<mgrwt>
<rscale>  0 0.52270874E+03</rscale>
<asrwt>0</asrwt>
<pdfrwt beam="1">  1        2 0.21843305E+00 0.52270874E+03</pdfrwt>
<pdfrwt beam="2">  1       -2 0.31863727E-01 0.52270874E+03</pdfrwt>
<totfact> 0.13405776E+02</totfact>
</mgrwt>
</event>
<event>
12    1  0.3127365E-008  0.4585888E+03  0.7818608E-02  0.1025191E+00
         -2   -1    0    0    0  501 -0.00000000000E+00  0.00000000000E+00  0.41250455545E+03  0.41250455545E+03  0.00000000000E+00 0.  1.
          2   -1    0    0  501    0  0.00000000000E+00 -0.00000000000E+00 -0.70564284745E+03  0.70564284745E+03  0.00000000000E+00 0. -1.
         23    2    1    2    0    0 -0.24341451643E+03  0.12286058891E+03  0.14846657989E+03  0.32478702692E+03  0.95388345161E+02 0.  0.
    5000000    2    1    2    0    0  0.24341451643E+03 -0.12286058891E+03 -0.44160487190E+03  0.79336037599E+03  0.60005039137E+03 0.  0.
         23    2    4    4    0    0  0.17168402850E+03  0.22254824058E+03 -0.21548740706E+03  0.36538453552E+03  0.89821551803E+02 0.  0.
         23    2    4    4    0    0  0.71730487932E+02 -0.34540882949E+03 -0.22611746484E+03  0.42797584047E+03  0.87072898961E+02 0.  0.
          4    1    3    3  502    0 -0.57588254731E+02  0.32249911745E+02 -0.66312759193E+01  0.66335795095E+02  0.00000000000E+00 0. -1.
         -4    1    3    3    0  502 -0.18582626170E+03  0.90610677165E+02  0.15509785581E+03  0.25845123182E+03  0.00000000000E+00 0.  1.
         13    1    5    5    0    0  0.86219998714E+02  0.11681344800E+03 -0.16640803186E+03  0.22084135229E+03  0.00000000000E+00 0.  1.
        -13    1    5    5    0    0  0.85464029787E+02  0.10573479258E+03 -0.49079375198E+02  0.14454318323E+03  0.00000000000E+00 0. -1.
          5    1    6    6  503    0 -0.10044035499E+02 -0.16251332419E+03 -0.97081745330E+02  0.18962705098E+03  0.47000000000E+01 0. -1.
         -5    1    6    6    0  503  0.81774523431E+02 -0.18289550530E+03 -0.12903571951E+03  0.23834878949E+03  0.47000000000E+01 0.  1.
<mgrwt>
<rscale>  0 0.45858875E+03</rscale>
<asrwt>0</asrwt>
<pdfrwt beam="1">  1        2 0.10856044E+00 0.45858875E+03</pdfrwt>
<pdfrwt beam="2">  1       -2 0.63462240E-01 0.45858875E+03</pdfrwt>
<totfact> 0.96529113E+01</totfact>
</mgrwt>
</event>
<event>
12    1  0.3127365E-008  0.7650087E+03  0.7818608E-02  0.9612094E-01
          2   -1    0    0  501    0  0.00000000000E+00  0.00000000000E+00  0.26665750477E+04  0.26665750477E+04  0.00000000000E+00 0. -1.
         -2   -1    0    0    0  501 -0.00000000000E+00 -0.00000000000E+00 -0.28116827936E+03  0.28116827936E+03  0.00000000000E+00 0.  1.
         23    2    1    2    0    0 -0.67614799786E+03 -0.19026844343E+03  0.56488399187E+03  0.90625460322E+03  0.93942993376E+02 0.  0.
    5000000    2    1    2    0    0  0.67614799786E+03  0.19026844343E+03  0.18205227764E+04  0.20414887238E+04  0.59999569525E+03 0.  0.
         23    2    4    4    0    0 -0.37284617694E+02  0.60097444125E+02  0.52772767053E+02  0.12861856810E+03  0.93573103036E+02 0.  0.
         23    2    4    4    0    0  0.71343261556E+03  0.13017099931E+03  0.17677500094E+04  0.19128701557E+04  0.90562414369E+02 0.  0.
          3    1    3    3  502    0 -0.50973173701E+03 -0.13751926660E+03  0.37051386412E+03  0.64499497355E+03  0.00000000000E+00 0. -1.
         -3    1    3    3    0  502 -0.16641626085E+03 -0.52749176832E+02  0.19437012775E+03  0.26125962967E+03  0.00000000000E+00 0.  1.
         13    1    5    5    0    0  0.11031870196E+02  0.52029849358E+02  0.58774410826E+02  0.79266883074E+02  0.00000000000E+00 0. -1.
        -13    1    5    5    0    0 -0.48316487890E+02  0.80675947672E+01 -0.60016437730E+01  0.49351685031E+02  0.00000000000E+00 0.  1.
          5    1    6    6  503    0  0.52279344211E+03  0.92700109584E+02  0.11836649186E+04  0.12973014388E+04  0.47000000000E+01 0. -1.
         -5    1    6    6    0  503  0.19063917345E+03  0.37470889722E+02  0.58408509074E+03  0.61556871692E+03  0.47000000000E+01 0.  1.
<mgrwt>
<rscale>  0 0.76500874E+03</rscale>
<asrwt>0</asrwt>
<pdfrwt beam="1">  1        2 0.41024230E+00 0.76500874E+03</pdfrwt>
<pdfrwt beam="2">  1       -2 0.43256660E-01 0.76500874E+03</pdfrwt>
<totfact> 0.14778050E+01</totfact>
</mgrwt>
</event>
<event>
12    1  0.3127365E-008  0.5996992E+03  0.7818608E-02  0.9906030E-01
         -2   -1    0    0    0  501 -0.00000000000E+00  0.00000000000E+00  0.46638956216E+03  0.46638956216E+03  0.00000000000E+00 0.  1.
          2   -1    0    0  501    0  0.00000000000E+00 -0.00000000000E+00 -0.11780082742E+04  0.11780082742E+04  0.00000000000E+00 0. -1.
         23    2    1    2    0    0  0.28589533411E+03 -0.43106482949E+03 -0.67074970997E+03  0.85116493298E+03  0.83806565488E+02 0.  0.
    5000000    2    1    2    0    0 -0.28589533411E+03  0.43106482949E+03 -0.40869002024E+02  0.79323290333E+03  0.59999594524E+03 0.  0.
         23    2    4    4    0    0 -0.27330644800E+03  0.49726672911E+02  0.17976935361E+03  0.34299749691E+03  0.90338839233E+02 0.  0.
         23    2    4    4    0    0 -0.12588886110E+02  0.38133815658E+03 -0.22063835564E+03  0.45023540641E+03  0.91942196500E+02 0.  0.
          3    1    3    3  502    0  0.43101588153E+02 -0.51577757545E+02 -0.13776653214E+03  0.15328936477E+03  0.00000000000E+00 0. -1.
         -3    1    3    3    0  502  0.24279374596E+03 -0.37948707194E+03 -0.53298317784E+03  0.69787556821E+03  0.00000000000E+00 0.  1.
         11    1    5    5    0    0 -0.78596799340E+02 -0.25080076809E+02  0.38265607342E+02  0.90943519969E+02  0.00000000000E+00 0. -1.
        -11    1    5    5    0    0 -0.19470964866E+03  0.74806749720E+02  0.14150374627E+03  0.25205397694E+03  0.00000000000E+00 0.  1.
          5    1    6    6  503    0  0.33616221548E+02  0.22327755845E+03 -0.10566153145E+03  0.24933785851E+03  0.47000000000E+01 0. -1.
         -5    1    6    6    0  503 -0.46205107658E+02  0.15806059812E+03 -0.11497682418E+03  0.20089754790E+03  0.47000000000E+01 0.  1.
<mgrwt>
<rscale>  0 0.59969925E+03</rscale>
<asrwt>0</asrwt>
<pdfrwt beam="1">  1        2 0.18123204E+00 0.59969925E+03</pdfrwt>
<pdfrwt beam="2">  1       -2 0.71752240E-01 0.59969925E+03</pdfrwt>
<totfact> 0.35599994E+01</totfact>
</mgrwt>
</event>
<event>
12    1  0.3127365E-008  0.7418179E+03  0.7818608E-02  0.9648275E-01
         -2   -1    0    0    0  501 -0.00000000000E+00  0.00000000000E+00  0.87732681471E+03  0.87732681471E+03  0.00000000000E+00 0.  1.
          2   -1    0    0  501    0  0.00000000000E+00 -0.00000000000E+00 -0.93036440875E+03  0.93036440875E+03  0.00000000000E+00 0. -1.
         23    2    1    2    0    0 -0.72044113183E+03  0.45103803559E+02 -0.37104815927E+03  0.81662895225E+03  0.90201616575E+02 0.  0.
    5000000    2    1    2    0    0  0.72044113183E+03 -0.45103803559E+02  0.31801056524E+03  0.99106227121E+03  0.60000327356E+03 0.  0.
         23    2    4    4    0    0  0.25697876158E+03  0.80157028339E+02 -0.14383539270E+03  0.31869882662E+03  0.91744693590E+02 0.  0.
         23    2    4    4    0    0  0.46346237025E+03 -0.12526083190E+03  0.46184595793E+03  0.67236344459E+03  0.91012461300E+02 0.  0.
          2    1    3    3  502    0 -0.59201127679E+03  0.69051047324E+02 -0.28938849794E+03  0.66256403595E+03  0.00000000000E+00 0. -1.
         -2    1    3    3    0  502 -0.12842985504E+03 -0.23947243765E+02 -0.81659661331E+02  0.15406491631E+03  0.00000000000E+00 0.  1.
         11    1    5    5    0    0  0.14679710666E+03  0.45466264196E+02 -0.30112980695E+02  0.15659937200E+03  0.00000000000E+00 0.  1.
        -11    1    5    5    0    0  0.11018165492E+03  0.34690764143E+02 -0.11372241200E+03  0.16209945462E+03  0.00000000000E+00 0. -1.
          5    1    6    6  503    0  0.24788381178E+03 -0.11109927980E+03  0.27700917492E+03  0.38800207101E+03  0.47000000000E+01 0. -1.
         -5    1    6    6    0  503  0.21557855847E+03 -0.14161552094E+02  0.18483678301E+03  0.28436137358E+03  0.47000000000E+01 0.  1.
<mgrwt>
<rscale>  0 0.74181791E+03</rscale>
<asrwt>0</asrwt>
<pdfrwt beam="1">  1        2 0.14313299E+00 0.74181791E+03</pdfrwt>
<pdfrwt beam="2">  1       -2 0.13497336E+00 0.74181791E+03</pdfrwt>
<totfact> 0.11237156E+01</totfact>
</mgrwt>
</event>
<event>
12    1  0.3127365E-008  0.5586120E+03  0.7818608E-02  0.9995200E-01
         -2   -1    0    0    0  501 -0.00000000000E+00  0.00000000000E+00  0.36501566662E+03  0.36501566662E+03  0.00000000000E+00 0.  1.
          2   -1    0    0  501    0  0.00000000000E+00 -0.00000000000E+00 -0.11426780520E+04  0.11426780520E+04  0.00000000000E+00 0. -1.
         23    2    1    2    0    0  0.34299008794E+03  0.26878690242E+03 -0.18278484158E+02  0.44575667261E+03  0.92066871666E+02 0.  0.
    5000000    2    1    2    0    0 -0.34299008794E+03 -0.26878690242E+03 -0.75938390123E+03  0.10619370460E+04  0.60096404295E+03 0.  0.
         23    2    4    4    0    0 -0.34722393258E+03  0.40438833951E+02 -0.19370291840E+03  0.41037381780E+03  0.93199201106E+02 0.  0.
         23    2    4    4    0    0  0.42338446470E+01 -0.30922573637E+03 -0.56568098283E+03  0.65156322822E+03  0.94346089269E+02 0.  0.
          4    1    3    3  502    0  0.22716329931E+03  0.20590963182E+03 -0.48849354905E+02  0.31046449153E+03  0.00000000000E+00 0. -1.
         -4    1    3    3    0  502  0.11582678863E+03  0.62877270599E+02  0.30570870747E+02  0.13529218108E+03  0.00000000000E+00 0.  1.
         11    1    5    5    0    0 -0.18164486018E+03  0.53937622484E+02 -0.65344933379E+02  0.20043473418E+03  0.00000000000E+00 0. -1.
        -11    1    5    5    0    0 -0.16557907240E+03 -0.13498788533E+02 -0.12835798502E+03  0.20993908361E+03  0.00000000000E+00 0.  1.
          5    1    6    6  503    0  0.47865176210E+02 -0.19532857608E+03 -0.34398659651E+03  0.39848864012E+03  0.47000000000E+01 0. -1.
         -5    1    6    6    0  503 -0.43631331563E+02 -0.11389716028E+03 -0.22169438632E+03  0.25307458810E+03  0.47000000000E+01 0.  1.
<mgrwt>
<rscale>  0 0.55861202E+03</rscale>
<asrwt>0</asrwt>
<pdfrwt beam="1">  1        2 0.17579662E+00 0.55861202E+03</pdfrwt>
<pdfrwt beam="2">  1       -2 0.56156257E-01 0.55861202E+03</pdfrwt>
<totfact> 0.63284900E+01</totfact>
</mgrwt>
</event>
<event>
12    1  0.3127365E-008  0.6021076E+03  0.7818608E-02  0.9901043E-01
         -2   -1    0    0    0  501 -0.00000000000E+00  0.00000000000E+00  0.58719630933E+03  0.58719630933E+03  0.00000000000E+00 0.  1.
          2   -1    0    0  501    0  0.00000000000E+00 -0.00000000000E+00 -0.63079929086E+03  0.63079929086E+03  0.00000000000E+00 0. -1.
         23    2    1    2    0    0 -0.24040100865E+02 -0.45090167310E+03 -0.69963194519E+02  0.46654932592E+03  0.94250621592E+02 0.  0.
    5000000    2    1    2    0    0  0.24040100865E+02  0.45090167310E+03  0.26360212994E+02  0.75144627427E+03  0.60007199321E+03 0.  0.
         23    2    4    4    0    0  0.17307370899E+03  0.51922232564E+03 -0.27450674017E+02  0.55583256587E+03  0.93005212686E+02 0.  0.
         23    2    4    4    0    0 -0.14903360812E+03 -0.68320652538E+02  0.53810887010E+02  0.19561370840E+03  0.92143276708E+02 0.  0.
          4    1    3    3  502    0  0.26936442256E+02 -0.47321557781E+02 -0.10143700693E+02  0.55387691918E+02  0.00000000000E+00 0. -1.
         -4    1    3    3    0  502 -0.50976543121E+02 -0.40358011532E+03 -0.59819493826E+02  0.41116163400E+03  0.00000000000E+00 0.  1.
         11    1    5    5    0    0  0.43951169871E+02  0.27659452286E+03 -0.56395341498E+01  0.28012147321E+03  0.00000000000E+00 0.  1.
        -11    1    5    5    0    0  0.12912253911E+03  0.24262780278E+03 -0.21811139867E+02  0.27571109265E+03  0.00000000000E+00 0. -1.
          5    1    6    6  503    0  0.75325325866E+01 -0.23532224643E+02  0.74243989646E+01  0.26224346395E+02  0.47000000000E+01 0. -1.
         -5    1    6    6    0  503 -0.15656614071E+03 -0.44788427895E+02  0.46386488046E+02  0.16938936201E+03  0.47000000000E+01 0.  1.
<mgrwt>
<rscale>  0 0.60210756E+03</rscale>
<asrwt>0</asrwt>
<pdfrwt beam="1">  1        2 0.97046045E-01 0.60210756E+03</pdfrwt>
<pdfrwt beam="2">  1       -2 0.90337894E-01 0.60210756E+03</pdfrwt>
<totfact> 0.50085564E+01</totfact>
</mgrwt>
</event>
<event>
12    1  0.3127365E-008  0.4493041E+03  0.7818608E-02  0.1027930E+00
          1   -1    0    0  501    0  0.00000000000E+00  0.00000000000E+00  0.29390375847E+03  0.29390375847E+03  0.00000000000E+00 0. -1.
         -1   -1    0    0    0  501 -0.00000000000E+00 -0.00000000000E+00 -0.86949804936E+03  0.86949804936E+03  0.00000000000E+00 0.  1.
         23    2    1    2    0    0  0.26944223228E+03  0.43004017797E+02  0.89083478136E+00  0.28783308691E+03  0.91644041004E+02 0.  0.
    5000000    2    1    2    0    0 -0.26944223228E+03 -0.43004017797E+02 -0.57648512568E+03  0.87556872092E+03  0.59986417033E+03 0.  0.
         23    2    4    4    0    0  0.16175266242E+03 -0.87526983214E+02 -0.11557624749E+03  0.23645523817E+03  0.93425446659E+02 0.  0.
         23    2    4    4    0    0 -0.43119489470E+03  0.44522965416E+02 -0.46090887819E+03  0.63911348275E+03  0.90098380510E+02 0.  0.
          1    1    3    3  502    0  0.13301671648E+03  0.24651693927E+02 -0.45253988764E+02  0.14265018884E+03  0.00000000000E+00 0. -1.
         -1    1    3    3    0  502  0.13642551580E+03  0.18352323871E+02  0.46144823546E+02  0.14518289807E+03  0.00000000000E+00 0.  1.
         13    1    5    5    0    0  0.99979503578E+02 -0.57524382174E+02 -0.17411621011E+02  0.11665384789E+03  0.00000000000E+00 0.  1.
        -13    1    5    5    0    0  0.61773158845E+02 -0.30002601039E+02 -0.98164626478E+02  0.11980139029E+03  0.00000000000E+00 0. -1.
          5    1    6    6  503    0 -0.24999505385E+03  0.67369933552E+02 -0.29223022249E+03  0.39045720358E+03  0.47000000000E+01 0. -1.
         -5    1    6    6    0  503 -0.18119984086E+03 -0.22846968135E+02 -0.16867865570E+03  0.24865627916E+03  0.47000000000E+01 0.  1.
<mgrwt>
<rscale>  0 0.44930408E+03</rscale>
<asrwt>0</asrwt>
<pdfrwt beam="1">  1        1 0.45215963E-01 0.44930408E+03</pdfrwt>
<pdfrwt beam="2">  1       -1 0.13376893E+00 0.44930408E+03</pdfrwt>
<totfact> 0.44727356E+01</totfact>
</mgrwt>
</event>
<event>
12    1  0.3127365E-008  0.1298012E+04  0.7818608E-02  0.9031143E-01
          2   -1    0    0  501    0  0.00000000000E+00  0.00000000000E+00  0.33172558863E+04  0.33172558863E+04  0.00000000000E+00 0. -1.
         -2   -1    0    0    0  501 -0.00000000000E+00 -0.00000000000E+00 -0.53333072650E+03  0.53333072650E+03  0.00000000000E+00 0.  1.
         23    2    1    2    0    0  0.61398897837E+03  0.10986995644E+04  0.12016602946E+04  0.17417122951E+04  0.73831271789E+02 0.  0.
    5000000    2    1    2    0    0 -0.61398897837E+03 -0.10986995644E+04  0.15822648652E+04  0.21088743177E+04  0.59972125692E+03 0.  0.
         23    2    4    4    0    0 -0.31987773739E+03 -0.17882878387E+03  0.22227936615E+03  0.43831301435E+03  0.91698861008E+02 0.  0.
         23    2    4    4    0    0 -0.29411124098E+03 -0.91987078056E+03  0.13599854990E+04  0.16705613034E+04  0.92470729554E+02 0.  0.
          2    1    3    3  502    0  0.24809191945E+03  0.40653793771E+03  0.49743178118E+03  0.68866615440E+03  0.00000000000E+00 0. -1.
         -2    1    3    3    0  502  0.36589705892E+03  0.69216162673E+03  0.70422851346E+03  0.10530461407E+04  0.00000000000E+00 0.  1.
         11    1    5    5    0    0 -0.60300089221E+02 -0.45675219345E+02  0.91177578218E+02  0.11847226339E+03  0.00000000000E+00 0. -1.
        -11    1    5    5    0    0 -0.25957764817E+03 -0.13315356453E+03  0.13110178793E+03  0.31984075096E+03  0.00000000000E+00 0.  1.
          5    1    6    6  503    0 -0.12420347238E+03 -0.26202462866E+03  0.37811826888E+03  0.47652798851E+03  0.47000000000E+01 0. -1.
         -5    1    6    6    0  503 -0.16990776860E+03 -0.65784615190E+03  0.98186723016E+03  0.11940333149E+04  0.47000000000E+01 0.  1.
<mgrwt>
<rscale>  0 0.12980122E+04</rscale>
<asrwt>0</asrwt>
<pdfrwt beam="1">  1        2 0.51034705E+00 0.12980122E+04</pdfrwt>
<pdfrwt beam="2">  1       -2 0.82050883E-01 0.12980122E+04</pdfrwt>
<totfact> 0.13968115E+00</totfact>
</mgrwt>
</event>
<event>
12    1  0.3127365E-008  0.1775511E+04  0.7818608E-02  0.8719432E-01
         -1   -1    0    0    0  501 -0.00000000000E+00  0.00000000000E+00  0.15837981571E+04  0.15837981571E+04  0.00000000000E+00 0.  1.
          1   -1    0    0  501    0  0.00000000000E+00 -0.00000000000E+00 -0.21515561486E+04  0.21515561486E+04  0.00000000000E+00 0. -1.
         23    2    1    2    0    0 -0.79997317642E+03  0.15733552593E+04 -0.61260266996E+03  0.18705733265E+04  0.91425837291E+02 0.  0.
    5000000    2    1    2    0    0  0.79997317642E+03 -0.15733552593E+04  0.44844678454E+02  0.18647809792E+04  0.59999433357E+03 0.  0.
         23    2    4    4    0    0  0.64511601762E+03 -0.13354446981E+04 -0.17207809817E+03  0.14958055624E+04  0.90753461593E+02 0.  0.
         23    2    4    4    0    0  0.15485715880E+03 -0.23791056113E+03  0.21692277662E+03  0.36897541675E+03  0.92223600117E+02 0.  0.
          4    1    3    3  502    0 -0.54189305131E+03  0.96841037863E+03 -0.38708649907E+03  0.11752883469E+04  0.00000000000E+00 0.  1.
         -4    1    3    3    0  502 -0.25808012511E+03  0.60494488065E+03 -0.22551617089E+03  0.69528497965E+03  0.00000000000E+00 0. -1.
         13    1    5    5    0    0  0.12633360143E+03 -0.34404848231E+03 -0.58103558679E+02  0.37108699864E+03  0.00000000000E+00 0. -1.
        -13    1    5    5    0    0  0.51878241619E+03 -0.99139621584E+03 -0.11397453949E+03  0.11247185638E+04  0.00000000000E+00 0.  1.
          5    1    6    6  503    0  0.10197752207E+03 -0.74568973757E+02  0.83793697966E+02  0.15166878609E+03  0.47000000000E+01 0. -1.
         -5    1    6    6    0  503  0.52879636737E+02 -0.16334158737E+03  0.13312907866E+03  0.21730663066E+03  0.47000000000E+01 0.  1.
<mgrwt>
<rscale>  0 0.17755107E+04</rscale>
<asrwt>0</asrwt>
<pdfrwt beam="1">  1        1 0.33100864E+00 0.17755107E+04</pdfrwt>
<pdfrwt beam="2">  1       -1 0.24366125E+00 0.17755107E+04</pdfrwt>
<totfact> 0.16491431E-01</totfact>
</mgrwt>
</event>
<event>
12    1  0.3127365E-008  0.4598080E+03  0.7818608E-02  0.1024837E+00
         -2   -1    0    0    0  501 -0.00000000000E+00  0.00000000000E+00  0.16998029090E+03  0.16998029090E+03  0.00000000000E+00 0.  1.
          2   -1    0    0  501    0  0.00000000000E+00 -0.00000000000E+00 -0.17890627100E+04  0.17890627100E+04  0.00000000000E+00 0. -1.
         23    2    1    2    0    0 -0.30051060112E+03  0.23300839138E+03 -0.52591465901E+03  0.65546151515E+03  0.91891443817E+02 0.  0.
    5000000    2    1    2    0    0  0.30051060112E+03 -0.23300839138E+03 -0.10931677601E+04  0.13035814857E+04  0.59975778980E+03 0.  0.
         23    2    4    4    0    0  0.10985736250E+03 -0.27615430804E+03 -0.10320374220E+04  0.10779672827E+04  0.92641137486E+02 0.  0.
         23    2    4    4    0    0  0.19065323861E+03  0.43145916655E+02 -0.61130338074E+02  0.22561420297E+03  0.94628868900E+02 0.  0.
          4    1    3    3  502    0 -0.16442984760E+03  0.18339186900E+03 -0.32601276846E+03  0.40860014390E+03  0.00000000000E+00 0. -1.
         -4    1    3    3    0  502 -0.13608075352E+03  0.49616522387E+02 -0.19990189055E+03  0.24686137125E+03  0.00000000000E+00 0.  1.
         11    1    5    5    0    0  0.20534942630E+02  0.52855488961E+00 -0.64996935956E+02  0.68165716623E+02  0.00000000000E+00 0.  1.
        -11    1    5    5    0    0  0.89322419875E+02 -0.27668286293E+03 -0.96704048603E+03  0.10098015661E+04  0.00000000000E+00 0. -1.
          5    1    6    6  503    0  0.93015346398E+02  0.69179411430E+02 -0.32453412575E+02  0.12046974566E+03  0.47000000000E+01 0.  1.
         -5    1    6    6    0  503  0.97637892214E+02 -0.26033494775E+02 -0.28676925499E+02  0.10514445731E+03  0.47000000000E+01 0. -1.
<mgrwt>
<rscale>  0 0.45980803E+03</rscale>
<asrwt>0</asrwt>
<pdfrwt beam="1">  1        2 0.27524041E+00 0.45980803E+03</pdfrwt>
<pdfrwt beam="2">  1       -2 0.26150815E-01 0.45980803E+03</pdfrwt>
<totfact> 0.12227531E+02</totfact>
</mgrwt>
</event>
<event>
12    1  0.3127365E-008  0.5470910E+03  0.7818608E-02  0.1002169E+00
          1   -1    0    0  501    0  0.00000000000E+00  0.00000000000E+00  0.13590453374E+04  0.13590453374E+04  0.00000000000E+00 0. -1.
         -1   -1    0    0    0  501 -0.00000000000E+00 -0.00000000000E+00 -0.28085202160E+03  0.28085202160E+03  0.00000000000E+00 0.  1.
         23    2    1    2    0    0 -0.21688769528E+03 -0.39106810859E+03  0.23990583469E+03  0.51617031745E+03  0.94352791030E+02 0.  0.
    5000000    2    1    2    0    0  0.21688769528E+03  0.39106810859E+03  0.83828748109E+03  0.11237270415E+04  0.60005168527E+03 0.  0.
         23    2    4    4    0    0  0.15072275120E+02  0.41886297554E+03  0.78045284725E+03  0.89064763102E+03  0.92049932683E+02 0.  0.
         23    2    4    4    0    0  0.20181542016E+03 -0.27794866948E+02  0.57834633848E+02  0.23307941052E+03  0.97360917690E+02 0.  0.
          3    1    3    3  502    0 -0.41096935551E+02 -0.10496822543E+03  0.10577233891E+03  0.15458031615E+03  0.00000000000E+00 0.  1.
         -3    1    3    3    0  502 -0.17579075973E+03 -0.28609988316E+03  0.13413349578E+03  0.36159000130E+03  0.00000000000E+00 0. -1.
         11    1    5    5    0    0 -0.31265389666E+02  0.25788185081E+03  0.43357798004E+03  0.50544083565E+03  0.00000000000E+00 0.  1.
        -11    1    5    5    0    0  0.46337664786E+02  0.16098112473E+03  0.34687486720E+03  0.38520679537E+03  0.00000000000E+00 0. -1.
          5    1    6    6  503    0  0.14341371143E+03  0.17179093048E+02  0.95389604505E+01  0.14482988514E+03  0.47000000000E+01 0. -1.
         -5    1    6    6    0  503  0.58401708725E+02 -0.44973959996E+02  0.48295673397E+02  0.88249525373E+02  0.47000000000E+01 0.  1.
<mgrwt>
<rscale>  0 0.54709101E+03</rscale>
<asrwt>0</asrwt>
<pdfrwt beam="1">  1        1 0.20908389E+00 0.54709101E+03</pdfrwt>
<pdfrwt beam="2">  1       -1 0.43208004E-01 0.54709101E+03</pdfrwt>
<totfact> 0.45747764E+01</totfact>
</mgrwt>
</event>
<event>
12    1  0.3127365E-008  0.4251246E+03  0.7818608E-02  0.1035411E+00
          3   -1    0    0  501    0  0.00000000000E+00  0.00000000000E+00  0.18149983936E+03  0.18149983936E+03  0.00000000000E+00 0. -1.
         -3   -1    0    0    0  501 -0.00000000000E+00 -0.00000000000E+00 -0.12753998670E+04  0.12753998670E+04  0.00000000000E+00 0.  1.
         23    2    1    2    0    0 -0.25792076401E+03 -0.56015196578E+01 -0.51836031243E+03  0.58641092838E+03  0.92875539854E+02 0.  0.
    5000000    2    1    2    0    0  0.25792076401E+03  0.56015196578E+01 -0.57553971518E+03  0.87048877794E+03  0.59995854128E+03 0.  0.
         23    2    4    4    0    0  0.41774600518E+03 -0.28566235774E+02 -0.24839667857E+03  0.49530985295E+03  0.91121818657E+02 0.  0.
         23    2    4    4    0    0 -0.15982524118E+03  0.34167755432E+02 -0.32714303661E+03  0.37517892499E+03  0.83815965824E+02 0.  0.
          2    1    3    3  502    0 -0.44066233182E+02  0.12805330705E+02 -0.35585711989E+02  0.58070235914E+02  0.00000000000E+00 0. -1.
         -2    1    3    3    0  502 -0.21385453082E+03 -0.18406850362E+02 -0.48277460044E+03  0.52834069247E+03  0.00000000000E+00 0.  1.
         11    1    5    5    0    0  0.22753260702E+03 -0.12192225279E+02 -0.82339841029E+02  0.24227997655E+03  0.00000000000E+00 0.  1.
        -11    1    5    5    0    0  0.19021339816E+03 -0.16374010495E+02 -0.16605683754E+03  0.25302987640E+03  0.00000000000E+00 0. -1.
          5    1    6    6  503    0 -0.11704613832E+03  0.19114491569E+01 -0.28051695142E+03  0.30399885224E+03  0.47000000000E+01 0. -1.
         -5    1    6    6    0  503 -0.42779102861E+02  0.32256306275E+02 -0.46626085191E+02  0.71180072747E+02  0.47000000000E+01 0.  1.
<mgrwt>
<rscale>  0 0.42512463E+03</rscale>
<asrwt>0</asrwt>
<pdfrwt beam="1">  1        3 0.27923053E-01 0.42512463E+03</pdfrwt>
<pdfrwt beam="2">  1       -3 0.19621536E+00 0.42512463E+03</pdfrwt>
<totfact> 0.50892400E+00</totfact>
</mgrwt>
</event>
<event>
12    1  0.3127365E-008  0.9528005E+03  0.7818608E-02  0.9361883E-01
         -2   -1    0    0    0  501 -0.00000000000E+00  0.00000000000E+00  0.43377262585E+03  0.43377262585E+03  0.00000000000E+00 0.  1.
          2   -1    0    0  501    0  0.00000000000E+00 -0.00000000000E+00 -0.25026633044E+04  0.25026633044E+04  0.00000000000E+00 0. -1.
         23    2    1    2    0    0 -0.45735752035E+03  0.78489276964E+03 -0.54431927465E+03  0.10630582165E+04  0.92610677910E+02 0.  0.
    5000000    2    1    2    0    0  0.45735752035E+03 -0.78489276964E+03 -0.15245714039E+04  0.18733777137E+04  0.59999460957E+03 0.  0.
         23    2    4    4    0    0  0.88215228367E+02  0.20642750209E+01 -0.54511474114E+03  0.56058728386E+03  0.96549645591E+02 0.  0.
         23    2    4    4    0    0  0.36914229198E+03 -0.78695704466E+03 -0.97945666276E+03  0.13127904299E+04  0.92281833093E+02 0.  0.
          3    1    3    3  502    0 -0.36013470537E+03  0.63901955813E+03 -0.39690791216E+03  0.83401372436E+03  0.00000000000E+00 0. -1.
         -3    1    3    3    0  502 -0.97222814978E+02  0.14587321151E+03 -0.14741136250E+03  0.22904449214E+03  0.00000000000E+00 0.  1.
         13    1    5    5    0    0  0.67060848266E+01 -0.35681969953E+02 -0.97311035529E+02  0.10386343047E+03  0.00000000000E+00 0. -1.
        -13    1    5    5    0    0  0.81509143541E+02  0.37746244974E+02 -0.44780370561E+03  0.45672385339E+03  0.00000000000E+00 0.  1.
          5    1    6    6  503    0  0.13975160608E+03 -0.35489638392E+03 -0.48755509362E+03  0.61904282084E+03  0.47000000000E+01 0. -1.
         -5    1    6    6    0  503  0.22939068590E+03 -0.43206066074E+03 -0.49190156914E+03  0.69374760905E+03  0.47000000000E+01 0.  1.
<mgrwt>
<rscale>  0 0.95280052E+03</rscale>
<asrwt>0</asrwt>
<pdfrwt beam="1">  1        2 0.38502514E+00 0.95280052E+03</pdfrwt>
<pdfrwt beam="2">  1       -2 0.66734247E-01 0.95280052E+03</pdfrwt>
<totfact> 0.72805800E+00</totfact>
</mgrwt>
</event>
<event>
12    1  0.3127365E-008  0.5237418E+03  0.7818608E-02  0.1007761E+00
         -2   -1    0    0    0  501 -0.00000000000E+00  0.00000000000E+00  0.41115100234E+03  0.41115100234E+03  0.00000000000E+00 0. -1.
          2   -1    0    0  501    0  0.00000000000E+00 -0.00000000000E+00 -0.19054391801E+04  0.19054391801E+04  0.00000000000E+00 0.  1.
         23    2    1    2    0    0  0.15485349049E+03  0.47055371466E+03 -0.14525614945E+04  0.15374190327E+04  0.91224913599E+02 0.  0.
    5000000    2    1    2    0    0 -0.15485349049E+03 -0.47055371466E+03 -0.41726683296E+02  0.77917114980E+03  0.59997180158E+03 0.  0.
         23    2    4    4    0    0 -0.10301182319E+03 -0.44174180791E+03  0.20865237508E+03  0.50703302611E+03  0.88314298780E+02 0.  0.
         23    2    4    4    0    0 -0.51841667304E+02 -0.28811906750E+02 -0.25037905838E+03  0.27213812369E+03  0.88610389078E+02 0.  0.
          3    1    3    3  502    0  0.25103881267E+01  0.72393241115E+02 -0.29766489987E+03  0.30635188268E+03  0.00000000000E+00 0. -1.
         -3    1    3    3    0  502  0.15234310237E+03  0.39816047354E+03 -0.11548965946E+04  0.12310671500E+04  0.00000000000E+00 0.  1.
         11    1    5    5    0    0 -0.52107128898E+02 -0.10185258561E+03  0.81999141798E+02  0.14075852135E+03  0.00000000000E+00 0. -1.
        -11    1    5    5    0    0 -0.50904694293E+02 -0.33988922230E+03  0.12665323328E+03  0.36627450476E+03  0.00000000000E+00 0.  1.
          5    1    6    6  503    0 -0.39478096603E+01  0.20707481547E+02 -0.14198480061E+03  0.14361809983E+03  0.47000000000E+01 0. -1.
         -5    1    6    6    0  503 -0.47893857643E+02 -0.49519388297E+02 -0.10839425776E+03  0.12852002386E+03  0.47000000000E+01 0.  1.
<mgrwt>
<rscale>  0 0.52374185E+03</rscale>
<asrwt>0</asrwt>
<pdfrwt beam="1">  1        2 0.29314448E+00 0.52374185E+03</pdfrwt>
<pdfrwt beam="2">  1       -2 0.63254001E-01 0.52374185E+03</pdfrwt>
<totfact> 0.18700811E+01</totfact>
</mgrwt>
</event>
<event>
12    1  0.3127365E-008  0.7081159E+03  0.7818608E-02  0.9703453E-01
          1   -1    0    0  501    0  0.00000000000E+00  0.00000000000E+00  0.83402019590E+03  0.83402019590E+03  0.00000000000E+00 0. -1.
         -1   -1    0    0    0  501 -0.00000000000E+00 -0.00000000000E+00 -0.68007820317E+03  0.68007820317E+03  0.00000000000E+00 0.  1.
         23    2    1    2    0    0  0.13312923305E+03  0.58425910290E+03 -0.12925885959E+03  0.62006165876E+03  0.93201479954E+02 0.  0.
    5000000    2    1    2    0    0 -0.13312923305E+03 -0.58425910290E+03  0.28320085231E+03  0.89403674030E+03  0.60001406503E+03 0.  0.
         23    2    4    4    0    0 -0.82254634048E+02  0.87719845006E+02  0.12358696065E+03  0.19532277088E+03  0.91742312765E+02 0.  0.
         23    2    4    4    0    0 -0.50874599005E+02 -0.67197894791E+03  0.15961389166E+03  0.69871396942E+03  0.92631989033E+02 0.  0.
          1    1    3    3  502    0  0.30108915763E+02  0.11375630790E+03  0.11583805395E+02  0.11824224686E+03  0.00000000000E+00 0. -1.
         -1    1    3    3    0  502  0.10302031729E+03  0.47050279500E+03 -0.14084266498E+03  0.50181941190E+03  0.00000000000E+00 0.  1.
         13    1    5    5    0    0 -0.25419110710E+02  0.81352943795E+02  0.40271094316E+02  0.94266609628E+02  0.00000000000E+00 0.  1.
        -13    1    5    5    0    0 -0.56835523337E+02  0.63669012111E+01  0.83315866334E+02  0.10105616125E+03  0.00000000000E+00 0. -1.
          5    1    6    6  503    0 -0.39617816202E+02 -0.34828162461E+03  0.12820768496E+03  0.37326794918E+03  0.47000000000E+01 0. -1.
         -5    1    6    6    0  503 -0.11256782803E+02 -0.32369732330E+03  0.31406206702E+02  0.32544602024E+03  0.47000000000E+01 0.  1.
<mgrwt>
<rscale>  0 0.70811587E+03</rscale>
<asrwt>0</asrwt>
<pdfrwt beam="1">  1        1 0.12831080E+00 0.70811587E+03</pdfrwt>
<pdfrwt beam="2">  1       -1 0.10462742E+00 0.70811587E+03</pdfrwt>
<totfact> 0.18332960E+01</totfact>
</mgrwt>
</event>
<event>
12    1  0.3127365E-008  0.1273716E+04  0.7818608E-02  0.9050672E-01
          2   -1    0    0  501    0  0.00000000000E+00  0.00000000000E+00  0.20042132509E+04  0.20042132509E+04  0.00000000000E+00 0. -1.
         -2   -1    0    0    0  501 -0.00000000000E+00 -0.00000000000E+00 -0.88909606644E+03  0.88909606644E+03  0.00000000000E+00 0.  1.
         23    2    1    2    0    0  0.69927099611E+03  0.98135258387E+03  0.94958332096E+03  0.15371337471E+04  0.95072882961E+02 0.  0.
    5000000    2    1    2    0    0 -0.69927099611E+03 -0.98135258387E+03  0.16553386351E+03  0.13561755703E+04  0.59981488608E+03 0.  0.
         23    2    4    4    0    0 -0.21472229266E+03 -0.77728091096E+03  0.12307695646E+03  0.82074339663E+03  0.90556658453E+02 0.  0.
         23    2    4    4    0    0 -0.48454870346E+03 -0.20407167291E+03  0.42456907045E+02  0.53543217364E+03  0.91936553705E+02 0.  0.
          3    1    3    3  502    0  0.52498637040E+03  0.78146073376E+03  0.70227134384E+03  0.11745112208E+04  0.00000000000E+00 0. -1.
         -3    1    3    3    0  502  0.17428462571E+03  0.19989185010E+03  0.24731197712E+03  0.36262252622E+03  0.00000000000E+00 0.  1.
         11    1    5    5    0    0 -0.20332511353E+03 -0.76241087160E+03  0.10743686658E+03  0.79633794285E+03  0.00000000000E+00 0. -1.
        -11    1    5    5    0    0 -0.11397179125E+02 -0.14870039365E+02  0.15640089881E+02  0.24405453780E+02  0.00000000000E+00 0.  1.
          5    1    6    6  503    0 -0.51586532309E+02  0.52721140697E+01  0.12575598569E+02  0.53564924921E+02  0.47000000000E+01 0. -1.
         -5    1    6    6    0  503 -0.43296217115E+03 -0.20934378697E+03  0.29881308477E+02  0.48186724872E+03  0.47000000000E+01 0.  1.
<mgrwt>
<rscale>  0 0.12737163E+04</rscale>
<asrwt>0</asrwt>
<pdfrwt beam="1">  1        2 0.30834050E+00 0.12737163E+04</pdfrwt>
<pdfrwt beam="2">  1       -2 0.13678401E+00 0.12737163E+04</pdfrwt>
<totfact> 0.24509988E+00</totfact>
</mgrwt>
</event>
<event>
12    1  0.3127365E-008  0.8842746E+03  0.7818608E-02  0.9445455E-01
          2   -1    0    0  501    0  0.00000000000E+00  0.00000000000E+00  0.15515111141E+04  0.15515111141E+04  0.00000000000E+00 0. -1.
         -2   -1    0    0    0  501 -0.00000000000E+00 -0.00000000000E+00 -0.14695432002E+04  0.14695432002E+04  0.00000000000E+00 0.  1.
         23    2    1    2    0    0  0.29321533899E+03 -0.76383246253E+03  0.12353084450E+04  0.14845073663E+04  0.91432491975E+02 0.  0.
    5000000    2    1    2    0    0 -0.29321533899E+03  0.76383246253E+03 -0.11533405310E+04  0.15365469480E+04  0.60113798495E+03 0.  0.
         23    2    4    4    0    0 -0.81241078481E+02 -0.56462653057E+02 -0.60656628320E+02  0.15083914310E+03  0.96359101854E+02 0.  0.
         23    2    4    4    0    0 -0.21197426051E+03  0.82029511559E+03 -0.10926839027E+04  0.13857078049E+04  0.91710661507E+02 0.  0.
          1    1    3    3  502    0  0.22924648902E+03 -0.48839603462E+03  0.84447684972E+03  0.10021106671E+04  0.00000000000E+00 0. -1.
         -1    1    3    3    0  502  0.63968849972E+02 -0.27543642791E+03  0.39083159527E+03  0.48239669925E+03  0.00000000000E+00 0.  1.
         13    1    5    5    0    0 -0.38587740532E+02 -0.28133766179E+02 -0.82377639088E+02  0.95218684829E+02  0.00000000000E+00 0. -1.
        -13    1    5    5    0    0 -0.42653337949E+02 -0.28328886878E+02  0.21721010768E+02  0.55620458275E+02  0.00000000000E+00 0.  1.
          5    1    6    6  503    0 -0.13208386542E+03  0.51621821152E+03 -0.75721505340E+03  0.92591798584E+03  0.47000000000E+01 0. -1.
         -5    1    6    6    0  503 -0.79890395092E+02  0.30407690407E+03 -0.33546884930E+03  0.45978981901E+03  0.47000000000E+01 0.  1.
<mgrwt>
<rscale>  0 0.88427461E+03</rscale>
<asrwt>0</asrwt>
<pdfrwt beam="1">  1        2 0.23869402E+00 0.88427461E+03</pdfrwt>
<pdfrwt beam="2">  1       -2 0.22608357E+00 0.88427461E+03</pdfrwt>
<totfact> 0.10888776E+00</totfact>
</mgrwt>
</event>
<event>
12    1  0.3127365E-008  0.6534877E+03  0.7818608E-02  0.9800257E-01
          1   -1    0    0  501    0  0.00000000000E+00  0.00000000000E+00  0.17858144231E+04  0.17858144231E+04  0.00000000000E+00 0.  1.
         -1   -1    0    0    0  501 -0.00000000000E+00 -0.00000000000E+00 -0.27092093267E+03  0.27092093267E+03  0.00000000000E+00 0. -1.
         23    2    1    2    0    0  0.52864631190E+03  0.15153109664E+03  0.44996156089E+03  0.71641459281E+03  0.91410427072E+02 0.  0.
    5000000    2    1    2    0    0 -0.52864631190E+03 -0.15153109664E+03  0.10649319295E+04  0.13403207629E+04  0.59995927923E+03 0.  0.
         23    2    4    4    0    0 -0.31847144789E+03  0.16768978690E+03  0.28729010587E+03  0.46916743194E+03  0.89657941714E+02 0.  0.
         23    2    4    4    0    0 -0.21017486401E+03 -0.31922088353E+03  0.77764182364E+03  0.87115333099E+03  0.90032628999E+02 0.  0.
          4    1    3    3  502    0  0.19634806751E+03  0.66855090000E+02  0.22645246374E+03  0.30708774806E+03  0.00000000000E+00 0. -1.
         -4    1    3    3    0  502  0.33229824439E+03  0.84676006637E+02  0.22350909715E+03  0.40932684475E+03  0.00000000000E+00 0.  1.
         11    1    5    5    0    0 -0.20001126013E+03  0.70107225332E+02  0.12619976343E+03  0.24666963233E+03  0.00000000000E+00 0.  1.
        -11    1    5    5    0    0 -0.11846018776E+03  0.97582561563E+02  0.16109034244E+03  0.22249779961E+03  0.00000000000E+00 0. -1.
          5    1    6    6  503    0 -0.26555949097E+02 -0.10795420756E+03  0.25603837969E+03  0.27917211758E+03  0.47000000000E+01 0. -1.
         -5    1    6    6    0  503 -0.18361891491E+03 -0.21126667597E+03  0.52160344395E+03  0.59198121341E+03  0.47000000000E+01 0.  1.
<mgrwt>
<rscale>  0 0.65348765E+03</rscale>
<asrwt>0</asrwt>
<pdfrwt beam="1">  1        1 0.27474067E+00 0.65348765E+03</pdfrwt>
<pdfrwt beam="2">  1       -1 0.41680145E-01 0.65348765E+03</pdfrwt>
<totfact> 0.24720532E+01</totfact>
</mgrwt>
</event>
<event>
12    1  0.3127365E-008  0.1962453E+04  0.7818608E-02  0.8624379E-01
         -2   -1    0    0    0  501 -0.00000000000E+00  0.00000000000E+00  0.16612280459E+04  0.16612280459E+04  0.00000000000E+00 0.  1.
          2   -1    0    0  501    0  0.00000000000E+00 -0.00000000000E+00 -0.24018532927E+04  0.24018532927E+04  0.00000000000E+00 0. -1.
         23    2    1    2    0    0  0.19365506166E+04 -0.18958765257E+03 -0.51127166593E+03  0.20140002861E+04  0.92879856308E+02 0.  0.
    5000000    2    1    2    0    0 -0.19365506166E+04  0.18958765257E+03 -0.22935358081E+03  0.20490810525E+04  0.59996527075E+03 0.  0.
         23    2    4    4    0    0 -0.62817488986E+03 -0.89086786848E+02 -0.29705877540E+03  0.70639336166E+03  0.90595350370E+02 0.  0.
         23    2    4    4    0    0 -0.13083757267E+04  0.27867443942E+03  0.67705194589E+02  0.13426876908E+04  0.93379635466E+02 0.  0.
          3    1    3    3  502    0  0.18008600412E+04 -0.18706829368E+03 -0.45336570141E+03  0.18664490065E+04  0.00000000000E+00 0. -1.
         -3    1    3    3    0  502  0.13569057533E+03 -0.25193588947E+01 -0.57905964513E+02  0.14755127966E+03  0.00000000000E+00 0.  1.
         13    1    5    5    0    0 -0.25288206407E+03  0.85996124776E+01 -0.11220783400E+03  0.27679214164E+03  0.00000000000E+00 0.  1.
        -13    1    5    5    0    0 -0.37529282579E+03 -0.97686399326E+02 -0.18485094139E+03  0.42960122001E+03  0.00000000000E+00 0. -1.
          5    1    6    6  503    0 -0.13337969573E+03  0.27807196645E+02  0.35024798736E+02  0.14075585225E+03  0.47000000000E+01 0. -1.
         -5    1    6    6    0  503 -0.11749960310E+04  0.25086724278E+03  0.32680395853E+02  0.12019318386E+04  0.47000000000E+01 0.  1.
<mgrwt>
<rscale>  0 0.19624532E+04</rscale>
<asrwt>0</asrwt>
<pdfrwt beam="1">  1        2 0.36951589E+00 0.19624532E+04</pdfrwt>
<pdfrwt beam="2">  1       -2 0.25557355E+00 0.19624532E+04</pdfrwt>
<totfact> 0.21038920E-01</totfact>
</mgrwt>
</event>
<event>
12    1  0.3127365E-008  0.8052548E+03  0.7818608E-02  0.9552442E-01
          2   -1    0    0  501    0  0.00000000000E+00  0.00000000000E+00  0.11717366414E+04  0.11717366414E+04  0.00000000000E+00 0. -1.
         -2   -1    0    0    0  501 -0.00000000000E+00 -0.00000000000E+00 -0.93439757334E+03  0.93439757334E+03  0.00000000000E+00 0.  1.
         23    2    1    2    0    0 -0.45580371280E+03 -0.64164377590E+03 -0.44042997695E+03  0.90659185528E+03  0.92013410522E+02 0.  0.
    5000000    2    1    2    0    0  0.45580371280E+03  0.64164377590E+03  0.67776904499E+03  0.11995423594E+04  0.60005602571E+03 0.  0.
         23    2    4    4    0    0  0.10829972190E+03  0.29623676088E+02  0.42063907426E+03  0.44466321498E+03  0.90453037613E+02 0.  0.
         23    2    4    4    0    0  0.34750399090E+03  0.61202009981E+03  0.25712997073E+03  0.75487914446E+03  0.91646465446E+02 0.  0.
          2    1    3    3  502    0 -0.20788205374E+03 -0.35121416415E+03 -0.19197851455E+03  0.45102337790E+03  0.00000000000E+00 0.  1.
         -2    1    3    3    0  502 -0.24792165906E+03 -0.29042961175E+03 -0.24845146240E+03  0.45556847738E+03  0.00000000000E+00 0. -1.
         13    1    5    5    0    0  0.92204100031E+02  0.33180006784E+02  0.41621651557E+03  0.42759641807E+03  0.00000000000E+00 0.  1.
        -13    1    5    5    0    0  0.16095621871E+02 -0.35563306956E+01  0.44225586898E+01  0.17066796911E+02  0.00000000000E+00 0. -1.
          5    1    6    6  503    0  0.31765534219E+03  0.58412376847E+03  0.22265349711E+03  0.70121477672E+03  0.47000000000E+01 0. -1.
         -5    1    6    6    0  503  0.29848648705E+02  0.27896331347E+02  0.34476473618E+02  0.53664367743E+02  0.47000000000E+01 0.  1.
<mgrwt>
<rscale>  0 0.80525484E+03</rscale>
<asrwt>0</asrwt>
<pdfrwt beam="1">  1        2 0.18026717E+00 0.80525484E+03</pdfrwt>
<pdfrwt beam="2">  1       -2 0.14375347E+00 0.80525484E+03</pdfrwt>
<totfact> 0.66890874E+00</totfact>
</mgrwt>
</event>
<event>
12    1  0.3127365E-008  0.1104544E+04  0.7818608E-02  0.9200775E-01
          2   -1    0    0  501    0  0.00000000000E+00  0.00000000000E+00  0.12781022751E+04  0.12781022751E+04  0.00000000000E+00 0. -1.
         -2   -1    0    0    0  501 -0.00000000000E+00 -0.00000000000E+00 -0.14281802809E+04  0.14281802809E+04  0.00000000000E+00 0.  1.
         23    2    1    2    0    0 -0.10118714839E+04 -0.40606267057E+03 -0.74855632324E+03  0.13253217211E+04  0.85850469081E+02 0.  0.
    5000000    2    1    2    0    0  0.10118714839E+04  0.40606267057E+03  0.59847831748E+03  0.13809608348E+04  0.60008810890E+03 0.  0.
         23    2    4    4    0    0  0.70379326394E+03  0.38359647160E+03  0.67576123277E+03  0.10526477917E+04  0.94567003945E+02 0.  0.
         23    2    4    4    0    0  0.30807822000E+03  0.22466198967E+02 -0.77282915284E+02  0.32831304316E+03  0.79999284877E+02 0.  0.
          1    1    3    3  502    0 -0.31544270049E+03 -0.16002829164E+03 -0.21182069889E+03  0.41228771494E+03  0.00000000000E+00 0. -1.
         -1    1    3    3    0  502 -0.69642878345E+03 -0.24603437893E+03 -0.53673562435E+03  0.91303400620E+03  0.00000000000E+00 0.  1.
         11    1    5    5    0    0  0.60761684506E+03  0.31065902361E+03  0.60931728092E+03  0.91486327294E+03  0.00000000000E+00 0. -1.
        -11    1    5    5    0    0  0.96176418884E+02  0.72937447986E+02  0.66443951845E+02  0.13778451874E+03  0.00000000000E+00 0.  1.
          5    1    6    6  503    0  0.79561723096E+02  0.29427484587E+02  0.54543790905E+01  0.85134510525E+02  0.47000000000E+01 0. -1.
         -5    1    6    6    0  503  0.22851649690E+03 -0.69612856201E+01 -0.82737294375E+02  0.24317853263E+03  0.47000000000E+01 0.  1.
<mgrwt>
<rscale>  0 0.11045437E+04</rscale>
<asrwt>0</asrwt>
<pdfrwt beam="1">  1        2 0.19663112E+00 0.11045437E+04</pdfrwt>
<pdfrwt beam="2">  1       -2 0.21972004E+00 0.11045437E+04</pdfrwt>
<totfact> 0.16581097E+00</totfact>
</mgrwt>
</event>
<event>
12    1  0.3127365E-008  0.8974238E+03  0.7818608E-02  0.9428808E-01
          2   -1    0    0  501    0  0.00000000000E+00  0.00000000000E+00  0.44230226243E+04  0.44230226243E+04  0.00000000000E+00 0. -1.
         -2   -1    0    0    0  501 -0.00000000000E+00 -0.00000000000E+00 -0.21310796146E+03  0.21310796146E+03  0.00000000000E+00 0.  1.
         23    2    1    2    0    0 -0.81056469053E+03 -0.22154345678E+03  0.13190711263E+04  0.15663697301E+04  0.86422650072E+02 0.  0.
    5000000    2    1    2    0    0  0.81056469053E+03  0.22154345678E+03  0.28908435366E+04  0.30697608557E+04  0.60029887327E+03 0.  0.
         23    2    4    4    0    0  0.41354133130E+03 -0.10415211621E+03  0.19074796086E+04  0.19566997149E+04  0.91275522891E+02 0.  0.
         23    2    4    4    0    0  0.39702335924E+03  0.32569557299E+03  0.98336392805E+03  0.11130611408E+04  0.90528085186E+02 0.  0.
          4    1    3    3  502    0 -0.37178259798E+03 -0.11789123436E+03  0.53782894908E+03  0.66436482581E+03  0.00000000000E+00 0. -1.
         -4    1    3    3    0  502 -0.43878209255E+03 -0.10365222242E+03  0.78124217717E+03  0.90200490428E+03  0.00000000000E+00 0.  1.
         11    1    5    5    0    0  0.33279673998E+03 -0.45924531363E+02  0.14263982742E+04  0.14654264803E+04  0.00000000000E+00 0. -1.
        -11    1    5    5    0    0  0.80744591319E+02 -0.58227584843E+02  0.48108133440E+03  0.49127323454E+03  0.00000000000E+00 0.  1.
          5    1    6    6  503    0  0.27620028849E+03  0.18267169935E+03  0.68367685605E+03  0.75966550705E+03  0.47000000000E+01 0. -1.
         -5    1    6    6    0  503  0.12082307075E+03  0.14302387363E+03  0.29968707200E+03  0.35339563379E+03  0.47000000000E+01 0.  1.
<mgrwt>
<rscale>  0 0.89742383E+03</rscale>
<asrwt>0</asrwt>
<pdfrwt beam="1">  1        2 0.68046495E+00 0.89742383E+03</pdfrwt>
<pdfrwt beam="2">  1       -2 0.32785843E-01 0.89742383E+03</pdfrwt>
<totfact> 0.13859318E+00</totfact>
</mgrwt>
</event>
<event>
12    1  0.3127365E-008  0.5317327E+03  0.7818608E-02  0.1005813E+00
         -3   -1    0    0    0  501 -0.00000000000E+00  0.00000000000E+00  0.16601668436E+03  0.16601668436E+03  0.00000000000E+00 0.  1.
          3   -1    0    0  501    0  0.00000000000E+00 -0.00000000000E+00 -0.18917746043E+04  0.18917746043E+04  0.00000000000E+00 0. -1.
         23    2    1    2    0    0  0.21171836555E+01  0.37503940623E+03 -0.83646988050E+03  0.92131491156E+03  0.92088362917E+02 0.  0.
    5000000    2    1    2    0    0 -0.21171836555E+01 -0.37503940623E+03 -0.88928803942E+03  0.11364763771E+04  0.60007191229E+03 0.  0.
         23    2    4    4    0    0 -0.20223863839E+03  0.41874121266E+02 -0.20102577168E+03  0.30197259288E+03  0.90123121799E+02 0.  0.
         23    2    4    4    0    0  0.20012145474E+03 -0.41691352750E+03 -0.68826226774E+03  0.83450378420E+03  0.93947488472E+02 0.  0.
          3    1    3    3  502    0  0.41860464559E+02  0.25954131488E+03 -0.60322924976E+03  0.65802699062E+03  0.00000000000E+00 0. -1.
         -3    1    3    3    0  502 -0.39743280904E+02  0.11549809135E+03 -0.23324063074E+03  0.26328792094E+03  0.00000000000E+00 0.  1.
         11    1    5    5    0    0 -0.16209912775E+03  0.30936468063E+02 -0.20139086350E+03  0.26036795535E+03  0.00000000000E+00 0. -1.
        -11    1    5    5    0    0 -0.40139510646E+02  0.10937653203E+02  0.36509181535E+00  0.41604637537E+02  0.00000000000E+00 0.  1.
          5    1    6    6  503    0  0.19504001076E+03 -0.32102321181E+03 -0.55500536123E+03  0.67018620495E+03  0.47000000000E+01 0. -1.
         -5    1    6    6    0  503  0.50814439756E+01 -0.95890315690E+02 -0.13325690651E+03  0.16431757924E+03  0.47000000000E+01 0.  1.
<mgrwt>
<rscale>  0 0.53173268E+03</rscale>
<asrwt>0</asrwt>
<pdfrwt beam="1">  1        3 0.29104225E+00 0.53173268E+03</pdfrwt>
<pdfrwt beam="2">  1       -3 0.25541028E-01 0.53173268E+03</pdfrwt>
<totfact> 0.17254106E+00</totfact>
</mgrwt>
</event>
<event>
12    1  0.3127365E-008  0.9549278E+03  0.7818608E-02  0.9359409E-01
          2   -1    0    0  501    0  0.00000000000E+00  0.00000000000E+00  0.12443025616E+04  0.12443025616E+04  0.00000000000E+00 0.  1.
         -2   -1    0    0    0  501 -0.00000000000E+00 -0.00000000000E+00 -0.85977577327E+03  0.85977577327E+03  0.00000000000E+00 0. -1.
         23    2    1    2    0    0  0.15970704973E+03 -0.91737151377E+03  0.12669067481E+02  0.93559721589E+03  0.90026713311E+02 0.  0.
    5000000    2    1    2    0    0 -0.15970704973E+03  0.91737151377E+03  0.37185772090E+03  0.11684811190E+04  0.59999427073E+03 0.  0.
         23    2    4    4    0    0 -0.44169527793E+02  0.74072415750E+02 -0.12615205759E+03  0.17807398394E+03  0.91423914591E+02 0.  0.
         23    2    4    4    0    0 -0.11553752193E+03  0.84329909802E+03  0.49800977849E+03  0.99040713508E+03  0.91598395524E+02 0.  0.
          3    1    3    3  502    0  0.10652588156E+03 -0.72768780940E+03 -0.20997560868E+02  0.73574330371E+03  0.00000000000E+00 0. -1.
         -3    1    3    3    0  502  0.53181168165E+02 -0.18968370437E+03  0.33666628349E+02  0.19985391218E+03  0.00000000000E+00 0.  1.
         13    1    5    5    0    0  0.20416631047E+02  0.49749905903E+02 -0.74453807235E+02  0.91843679001E+02  0.00000000000E+00 0.  1.
        -13    1    5    5    0    0 -0.64586158840E+02  0.24322509847E+02 -0.51698250359E+02  0.86230304935E+02  0.00000000000E+00 0. -1.
          5    1    6    6  503    0 -0.43327037281E+02  0.11918976961E+03  0.53903370156E+02  0.13788073344E+03  0.47000000000E+01 0. -1.
         -5    1    6    6    0  503 -0.72210484652E+02  0.72410932840E+03  0.44410640833E+03  0.85252640164E+03  0.47000000000E+01 0.  1.
<mgrwt>
<rscale>  0 0.95492780E+03</rscale>
<asrwt>0</asrwt>
<pdfrwt beam="1">  1        2 0.19143116E+00 0.95492780E+03</pdfrwt>
<pdfrwt beam="2">  1       -2 0.13227320E+00 0.95492780E+03</pdfrwt>
<totfact> 0.73835429E+00</totfact>
</mgrwt>
</event>
<event>
12    1  0.3127365E-008  0.1098281E+04  0.7818608E-02  0.9206869E-01
         -2   -1    0    0    0  501 -0.00000000000E+00  0.00000000000E+00  0.20030149605E+04  0.20030149605E+04  0.00000000000E+00 0.  1.
          2   -1    0    0  501    0  0.00000000000E+00 -0.00000000000E+00 -0.79864685804E+03  0.79864685804E+03  0.00000000000E+00 0. -1.
         23    2    1    2    0    0  0.93158246934E+03 -0.52511600413E+03 -0.13490010990E+02  0.10734340827E+04  0.92119675304E+02 0.  0.
    5000000    2    1    2    0    0 -0.93158246934E+03  0.52511600413E+03  0.12178581135E+04  0.17282277358E+04  0.60000000618E+03 0.  0.
         23    2    4    4    0    0 -0.89422032164E+03  0.44008645558E+03  0.12423106222E+04  0.15950764654E+04  0.87333707043E+02 0.  0.
         23    2    4    4    0    0 -0.37362147700E+02  0.85029548553E+02 -0.24452508685E+02  0.13315127049E+03  0.92224624935E+02 0.  0.
          3    1    3    3  502    0  0.79018017132E+03 -0.46836856007E+03  0.13699047771E+02  0.91866287348E+03  0.00000000000E+00 0. -1.
         -3    1    3    3    0  502  0.14140229802E+03 -0.56747444063E+02 -0.27189058760E+02  0.15477120924E+03  0.00000000000E+00 0.  1.
         13    1    5    5    0    0 -0.54653320365E+03  0.22140642846E+03  0.74003280746E+03  0.94623882048E+03  0.00000000000E+00 0. -1.
        -13    1    5    5    0    0 -0.34768711798E+03  0.21868002712E+03  0.50227781470E+03  0.64883764488E+03  0.00000000000E+00 0.  1.
          5    1    6    6  503    0  0.26413249472E+02  0.34577582607E+02  0.97001159814E+01  0.44826902823E+02  0.47000000000E+01 0. -1.
         -5    1    6    6    0  503 -0.63775397172E+02  0.50451965946E+02 -0.34152624666E+02  0.88324367668E+02  0.47000000000E+01 0.  1.
<mgrwt>
<rscale>  0 0.10982807E+04</rscale>
<asrwt>0</asrwt>
<pdfrwt beam="1">  1        2 0.12286875E+00 0.10982807E+04</pdfrwt>
<pdfrwt beam="2">  1       -2 0.30815614E+00 0.10982807E+04</pdfrwt>
<totfact> 0.97118196E-01</totfact>
</mgrwt>
</event>
<event>
12    1  0.3127365E-008  0.5373991E+03  0.7818608E-02  0.1004453E+00
         -2   -1    0    0    0  501 -0.00000000000E+00  0.00000000000E+00  0.22301411987E+03  0.22301411987E+03  0.00000000000E+00 0. -1.
          2   -1    0    0  501    0  0.00000000000E+00 -0.00000000000E+00 -0.19786958492E+04  0.19786958492E+04  0.00000000000E+00 0.  1.
         23    2    1    2    0    0 -0.36168768269E+03 -0.10238253557E+03 -0.95029887473E+02  0.39643835585E+03  0.82659101586E+02 0.  0.
    5000000    2    1    2    0    0  0.36168768269E+03  0.10238253557E+03 -0.16606518418E+04  0.18052716132E+04  0.59995074314E+03 0.  0.
         23    2    4    4    0    0 -0.49943852072E+02  0.23255393538E+03 -0.45765915325E+03  0.52396127134E+03  0.92237693447E+02 0.  0.
         23    2    4    4    0    0  0.41163153476E+03 -0.13017139981E+03 -0.12029926886E+04  0.12813103418E+04  0.90441525817E+02 0.  0.
          2    1    3    3  502    0 -0.15243201555E+03 -0.52731275426E+01 -0.19865989632E+02  0.15381151707E+03  0.00000000000E+00 0. -1.
         -2    1    3    3    0  502 -0.20925566714E+03 -0.97109408029E+02 -0.75163897841E+02  0.24262683878E+03  0.00000000000E+00 0.  1.
         11    1    5    5    0    0  0.54382406052E+01  0.17497369097E+03 -0.30539578742E+03  0.35201129807E+03  0.00000000000E+00 0. -1.
        -11    1    5    5    0    0 -0.55382092677E+02  0.57580244412E+02 -0.15226336583E+03  0.17194997328E+03  0.00000000000E+00 0.  1.
          5    1    6    6  503    0  0.25742531469E+03 -0.11378008069E+03 -0.85910991492E+03  0.90404957570E+03  0.47000000000E+01 0. -1.
         -5    1    6    6    0  503  0.15420622007E+03 -0.16391319128E+02 -0.34388277365E+03  0.37726076614E+03  0.47000000000E+01 0.  1.
<mgrwt>
<rscale>  0 0.53739912E+03</rscale>
<asrwt>0</asrwt>
<pdfrwt beam="1">  1        2 0.30441476E+00 0.53739912E+03</pdfrwt>
<pdfrwt beam="2">  1       -2 0.34309864E-01 0.53739912E+03</pdfrwt>
<totfact> 0.57887305E+01</totfact>
</mgrwt>
</event>
<event>
12    1  0.3127365E-008  0.8507035E+03  0.7818608E-02  0.9489393E-01
         -2   -1    0    0    0  501 -0.00000000000E+00  0.00000000000E+00  0.51991273130E+03  0.51991273130E+03  0.00000000000E+00 0.  1.
          2   -1    0    0  501    0  0.00000000000E+00 -0.00000000000E+00 -0.16203487859E+04  0.16203487859E+04  0.00000000000E+00 0. -1.
         23    2    1    2    0    0  0.22789492614E+03  0.78082833514E+03 -0.40908012985E+03  0.91560279393E+03  0.96710585264E+02 0.  0.
    5000000    2    1    2    0    0 -0.22789492614E+03 -0.78082833514E+03 -0.69135592476E+03  0.12246587233E+04  0.60015580268E+03 0.  0.
         23    2    4    4    0    0  0.75767829115E+02 -0.79113649204E+02  0.54909601348E+02  0.15239020698E+03  0.90597888748E+02 0.  0.
         23    2    4    4    0    0 -0.30366275525E+03 -0.70171468593E+03 -0.74626552610E+03  0.10722685163E+04  0.90735694172E+02 0.  0.
          2    1    3    3  502    0  0.14971374416E+03  0.43187508200E+03 -0.18198841743E+03  0.49198584910E+03  0.00000000000E+00 0. -1.
         -2    1    3    3    0  502  0.78181181978E+02  0.34895325314E+03 -0.22709171243E+03  0.42361694483E+03  0.00000000000E+00 0.  1.
         11    1    5    5    0    0  0.40449928934E+02 -0.13519418710E+02 -0.19678508236E+02  0.46970364267E+02  0.00000000000E+00 0. -1.
        -11    1    5    5    0    0  0.35317900181E+02 -0.65594230493E+02  0.74588109584E+02  0.10541984272E+03  0.00000000000E+00 0.  1.
          5    1    6    6  503    0 -0.15630370844E+03 -0.25477084982E+03 -0.30680137699E+03  0.42835523823E+03  0.47000000000E+01 0. -1.
         -5    1    6    6    0  503 -0.14735904681E+03 -0.44694383611E+03 -0.43946414911E+03  0.64391327807E+03  0.47000000000E+01 0.  1.
<mgrwt>
<rscale>  0 0.85070345E+03</rscale>
<asrwt>0</asrwt>
<pdfrwt beam="1">  1        2 0.24928442E+00 0.85070345E+03</pdfrwt>
<pdfrwt beam="2">  1       -2 0.79986577E-01 0.85070345E+03</pdfrwt>
<totfact> 0.15230951E+01</totfact>
</mgrwt>
</event>
<event>
12    1  0.3127365E-008  0.7851833E+03  0.7818608E-02  0.9581715E-01
         -2   -1    0    0    0  501 -0.00000000000E+00  0.00000000000E+00  0.12344446630E+04  0.12344446630E+04  0.00000000000E+00 0. -1.
          2   -1    0    0  501    0  0.00000000000E+00 -0.00000000000E+00 -0.59286784087E+03  0.59286784087E+03  0.00000000000E+00 0.  1.
         23    2    1    2    0    0  0.70673122960E+03 -0.36663406647E+02  0.53913644369E+03  0.89389200193E+03  0.86957287988E+02 0.  0.
    5000000    2    1    2    0    0 -0.70673122960E+03  0.36663406647E+02  0.10244037840E+03  0.93342050190E+03  0.59997213765E+03 0.  0.
         23    2    4    4    0    0 -0.49073487835E+03 -0.20157015047E+03 -0.92658212612E+02  0.54642287703E+03  0.92418449377E+02 0.  0.
         23    2    4    4    0    0 -0.21599635124E+03  0.23823355712E+03  0.19509859102E+03  0.38699762486E+03  0.91071674770E+02 0.  0.
          4    1    3    3  502    0  0.61051298034E+03 -0.33299502148E+02  0.42525084894E+03  0.74476388240E+03  0.00000000000E+00 0. -1.
         -4    1    3    3    0  502  0.96218249259E+02 -0.33639044994E+01  0.11388559476E+03  0.14912811954E+03  0.00000000000E+00 0.  1.
         13    1    5    5    0    0 -0.11370398758E+03 -0.18249558155E+02 -0.48188749824E+02  0.12483508631E+03  0.00000000000E+00 0. -1.
        -13    1    5    5    0    0 -0.37703089078E+03 -0.18332059232E+03 -0.44469462788E+02  0.42158779072E+03  0.00000000000E+00 0.  1.
          5    1    6    6  503    0 -0.19572687850E+03  0.23703014546E+03  0.16101073620E+03  0.34704300597E+03  0.47000000000E+01 0. -1.
         -5    1    6    6    0  503 -0.20269472740E+02  0.12034116649E+01  0.34087854815E+02  0.39954618891E+02  0.47000000000E+01 0.  1.
<mgrwt>
<rscale>  0 0.78518326E+03</rscale>
<asrwt>0</asrwt>
<pdfrwt beam="1">  1        2 0.91210437E-01 0.78518326E+03</pdfrwt>
<pdfrwt beam="2">  1       -2 0.18991456E+00 0.78518326E+03</pdfrwt>
<totfact> 0.79239518E+00</totfact>
</mgrwt>
</event>
<event>
12    1  0.3127365E-008  0.5737456E+03  0.7818608E-02  0.9961424E-01
          2   -1    0    0  501    0  0.00000000000E+00  0.00000000000E+00  0.15897926330E+04  0.15897926330E+04  0.00000000000E+00 0.  1.
         -2   -1    0    0    0  501 -0.00000000000E+00 -0.00000000000E+00 -0.32739046616E+03  0.32739046616E+03  0.00000000000E+00 0. -1.
         23    2    1    2    0    0  0.17903470322E+02 -0.47629188415E+03  0.57217811766E+02  0.48898881368E+03  0.93068194190E+02 0.  0.
    5000000    2    1    2    0    0 -0.17903470322E+02  0.47629188415E+03  0.12051843551E+04  0.14281942855E+04  0.60007923992E+03 0.  0.
         23    2    4    4    0    0  0.80018919832E+02  0.53590630841E+03  0.11448951876E+04  0.12698342727E+04  0.89974943592E+02 0.  0.
         23    2    4    4    0    0 -0.97922390154E+02 -0.59614424260E+02  0.60289167464E+02  0.15836001282E+03  0.91106727922E+02 0.  0.
          4    1    3    3  502    0  0.28838625443E+02 -0.19732135132E+03 -0.16902136833E+02  0.20013261662E+03  0.00000000000E+00 0. -1.
         -4    1    3    3    0  502 -0.10935155121E+02 -0.27897053282E+03  0.74119948599E+02  0.28885619706E+03  0.00000000000E+00 0.  1.
         11    1    5    5    0    0  0.21961531005E+02  0.38816624982E+03  0.85732303072E+03  0.94135972154E+03  0.00000000000E+00 0.  1.
        -11    1    5    5    0    0  0.58057388826E+02  0.14774005859E+03  0.28757215689E+03  0.32847455111E+03  0.00000000000E+00 0. -1.
          5    1    6    6  503    0 -0.75043861095E+02 -0.24291673206E+02 -0.64928710892E+01  0.79283755273E+02  0.47000000000E+01 0. -1.
         -5    1    6    6    0  503 -0.22878529059E+02 -0.35322751054E+02  0.66782038553E+02  0.79076257544E+02  0.47000000000E+01 0.  1.
<mgrwt>
<rscale>  0 0.57374565E+03</rscale>
<asrwt>0</asrwt>
<pdfrwt beam="1">  1        2 0.24458348E+00 0.57374565E+03</pdfrwt>
<pdfrwt beam="2">  1       -2 0.50367765E-01 0.57374565E+03</pdfrwt>
<totfact> 0.44091141E+01</totfact>
</mgrwt>
</event>
<event>
12    1  0.3127365E-008  0.6774067E+03  0.7818608E-02  0.9756669E-01
          1   -1    0    0  501    0  0.00000000000E+00  0.00000000000E+00  0.65415139880E+03  0.65415139880E+03  0.00000000000E+00 0. -1.
         -1   -1    0    0    0  501 -0.00000000000E+00 -0.00000000000E+00 -0.79462093330E+03  0.79462093330E+03  0.00000000000E+00 0.  1.
         23    2    1    2    0    0 -0.13024825907E+03 -0.57707185206E+03 -0.31950525472E+02  0.59927412215E+03  0.90178190121E+02 0.  0.
    5000000    2    1    2    0    0  0.13024825907E+03  0.57707185206E+03 -0.10851900903E+03  0.84949820995E+03  0.59991191183E+03 0.  0.
         23    2    4    4    0    0 -0.14549050342E+03  0.83668329629E+02 -0.19162567904E+03  0.27078119943E+03  0.91837797942E+02 0.  0.
         23    2    4    4    0    0  0.27573876248E+03  0.49340352243E+03  0.83106670010E+02  0.57871701052E+03  0.92345863925E+02 0.  0.
          3    1    3    3  502    0 -0.48414870432E+02 -0.73758395431E+02  0.16677960960E+01  0.88244445260E+02  0.00000000000E+00 0. -1.
         -3    1    3    3    0  502 -0.81833388635E+02 -0.50331345663E+03 -0.33618321568E+02  0.51102967689E+03  0.00000000000E+00 0.  1.
         11    1    5    5    0    0 -0.92082816099E+02  0.96714438762E+02 -0.15561978160E+03  0.20506204942E+03  0.00000000000E+00 0. -1.
        -11    1    5    5    0    0 -0.53407687318E+02 -0.13046109133E+02 -0.36005897437E+02  0.65719150013E+02  0.00000000000E+00 0.  1.
          5    1    6    6  503    0  0.16720167281E+03  0.35294157385E+03  0.23002534313E+02  0.39124846393E+03  0.47000000000E+01 0. -1.
         -5    1    6    6    0  503  0.10853708967E+03  0.14046194858E+03  0.60104135697E+02  0.18746854659E+03  0.47000000000E+01 0.  1.
<mgrwt>
<rscale>  0 0.67740671E+03</rscale>
<asrwt>0</asrwt>
<pdfrwt beam="1">  1        1 0.10063868E+00 0.67740671E+03</pdfrwt>
<pdfrwt beam="2">  1       -1 0.12224937E+00 0.67740671E+03</pdfrwt>
<totfact> 0.18485992E+01</totfact>
</mgrwt>
</event>
<event>
12    1  0.3127365E-008  0.5499685E+03  0.7818608E-02  0.1001501E+00
         -1   -1    0    0    0  501 -0.00000000000E+00  0.00000000000E+00  0.47122416068E+03  0.47122416068E+03  0.00000000000E+00 0.  1.
          1   -1    0    0  501    0  0.00000000000E+00 -0.00000000000E+00 -0.77172256967E+03  0.77172256967E+03  0.00000000000E+00 0. -1.
         23    2    1    2    0    0  0.44563271914E+03 -0.39909637939E+02 -0.13500020900E+03  0.47637292380E+03  0.92329878883E+02 0.  0.
    5000000    2    1    2    0    0 -0.44563271914E+03  0.39909637939E+02 -0.16549819999E+03  0.76657380655E+03  0.60005370354E+03 0.  0.
         23    2    4    4    0    0 -0.66650161211E+01  0.16220623412E+03  0.11872717146E+03  0.22127502614E+03  0.92256225401E+02 0.  0.
         23    2    4    4    0    0 -0.43896770301E+03 -0.12229659618E+03 -0.28422537145E+03  0.54529878041E+03  0.94433026098E+02 0.  0.
          1    1    3    3  502    0  0.26967258323E+03 -0.28836278553E+01 -0.12226596302E+03  0.29610907310E+03  0.00000000000E+00 0. -1.
         -1    1    3    3    0  502  0.17596013590E+03 -0.37026010084E+02 -0.12734245984E+02  0.18026385071E+03  0.00000000000E+00 0.  1.
         13    1    5    5    0    0 -0.49384695235E+02  0.78478520557E+02  0.58108650234E+02  0.10942733454E+03  0.00000000000E+00 0.  1.
        -13    1    5    5    0    0  0.42719679114E+02  0.83727713561E+02  0.60618521223E+02  0.11184769160E+03  0.00000000000E+00 0. -1.
          5    1    6    6  503    0 -0.23123138497E+03 -0.20091220305E+02 -0.16524362960E+03  0.28495465894E+03  0.47000000000E+01 0. -1.
         -5    1    6    6    0  503 -0.20773631805E+03 -0.10220537587E+03 -0.11898174185E+03  0.26034412148E+03  0.47000000000E+01 0.  1.
<mgrwt>
<rscale>  0 0.54996850E+03</rscale>
<asrwt>0</asrwt>
<pdfrwt beam="1">  1        1 0.11872655E+00 0.54996850E+03</pdfrwt>
<pdfrwt beam="2">  1       -1 0.72496025E-01 0.54996850E+03</pdfrwt>
<totfact> 0.46998980E+01</totfact>
</mgrwt>
</event>
<event>
12    1  0.3127365E-008  0.1106599E+04  0.7818608E-02  0.9198784E-01
         -1   -1    0    0    0  501 -0.00000000000E+00  0.00000000000E+00  0.74341749226E+03  0.74341749226E+03  0.00000000000E+00 0.  1.
          1   -1    0    0  501    0  0.00000000000E+00 -0.00000000000E+00 -0.22251854463E+04  0.22251854463E+04  0.00000000000E+00 0. -1.
         23    2    1    2    0    0  0.96737702468E+03  0.49969918200E+03 -0.80850561559E+02  0.10955808482E+04  0.90790975845E+02 0.  0.
    5000000    2    1    2    0    0 -0.96737702468E+03 -0.49969918200E+03 -0.14009173925E+04  0.18730220904E+04  0.60010384937E+03 0.  0.
         23    2    4    4    0    0 -0.72002944425E+03 -0.48606032230E+03 -0.13434249484E+04  0.16024016894E+04  0.90573422895E+02 0.  0.
         23    2    4    4    0    0 -0.24734758043E+03 -0.13638859697E+02 -0.57492444129E+02  0.27062040092E+03  0.92537431474E+02 0.  0.
          1    1    3    3  502    0  0.26744018693E+03  0.99001586371E+02 -0.16178397627E+01  0.28518096902E+03  0.00000000000E+00 0. -1.
         -1    1    3    3    0  502  0.69993683775E+03  0.40069759563E+03 -0.79232721796E+02  0.81039987919E+03  0.00000000000E+00 0.  1.
         11    1    5    5    0    0 -0.52755273684E+03 -0.36018594005E+03 -0.91125574704E+03  0.11128489736E+04  0.00000000000E+00 0. -1.
        -11    1    5    5    0    0 -0.19247670741E+03 -0.12587438225E+03 -0.43216920131E+03  0.48955271582E+03  0.00000000000E+00 0.  1.
          5    1    6    6  503    0 -0.25121802402E+02 -0.16541053173E+02 -0.36213544656E+02  0.47309853230E+02  0.47000000000E+01 0. -1.
         -5    1    6    6    0  503 -0.22222577803E+03  0.29021934764E+01 -0.21278899472E+02  0.22331054769E+03  0.47000000000E+01 0.  1.
<mgrwt>
<rscale>  0 0.11065990E+04</rscale>
<asrwt>0</asrwt>
<pdfrwt beam="1">  1        1 0.34233622E+00 0.11065990E+04</pdfrwt>
<pdfrwt beam="2">  1       -1 0.11437192E+00 0.11065990E+04</pdfrwt>
<totfact> 0.14544662E+00</totfact>
</mgrwt>
</event>
<event>
12    1  0.3127365E-008  0.4910314E+03  0.7818608E-02  0.1016147E+00
         -3   -1    0    0    0  501 -0.00000000000E+00  0.00000000000E+00  0.14981201414E+03  0.14981201414E+03  0.00000000000E+00 0.  1.
          3   -1    0    0  501    0  0.00000000000E+00 -0.00000000000E+00 -0.17099260638E+04  0.17099260638E+04  0.00000000000E+00 0. -1.
         23    2    1    2    0    0 -0.89557245444E+02  0.30581639513E+03 -0.51148164413E+03  0.61029380691E+03  0.96441125707E+02 0.  0.
    5000000    2    1    2    0    0  0.89557245444E+02 -0.30581639513E+03 -0.10486324056E+04  0.12494442711E+04  0.59994741166E+03 0.  0.
         23    2    4    4    0    0 -0.24230157363E+03 -0.12997576874E+03 -0.39564158686E+03  0.49054501631E+03  0.92186738377E+02 0.  0.
         23    2    4    4    0    0  0.33185881907E+03 -0.17584062639E+03 -0.65299081869E+03  0.75889925475E+03  0.92091627562E+02 0.  0.
          4    1    3    3  502    0 -0.77863806352E+02  0.27468240227E+03 -0.38376893656E+03  0.47832184889E+03  0.00000000000E+00 0. -1.
         -4    1    3    3    0  502 -0.11693439092E+02  0.31133992868E+02 -0.12771270757E+03  0.13197195803E+03  0.00000000000E+00 0.  1.
         11    1    5    5    0    0 -0.13304478171E+03 -0.39789466750E+02 -0.13382044160E+03  0.19285234299E+03  0.00000000000E+00 0.  1.
        -11    1    5    5    0    0 -0.10925679192E+03 -0.90186301991E+02 -0.26182114526E+03  0.29769267333E+03  0.00000000000E+00 0. -1.
          5    1    6    6  503    0  0.21762976008E+03 -0.74764045570E+02 -0.44418368769E+03  0.50027353857E+03  0.47000000000E+01 0. -1.
         -5    1    6    6    0  503  0.11422905899E+03 -0.10107658082E+03 -0.20880713100E+03  0.25862571617E+03  0.47000000000E+01 0.  1.
<mgrwt>
<rscale>  0 0.49103141E+03</rscale>
<asrwt>0</asrwt>
<pdfrwt beam="1">  1        3 0.26306555E+00 0.49103141E+03</pdfrwt>
<pdfrwt beam="2">  1       -3 0.23048002E-01 0.49103141E+03</pdfrwt>
<totfact> 0.29761411E+00</totfact>
</mgrwt>
</event>
<event>
12    1  0.3127365E-008  0.1113012E+04  0.7818608E-02  0.9192602E-01
         -1   -1    0    0    0  501 -0.00000000000E+00  0.00000000000E+00  0.38214151674E+03  0.38214151674E+03  0.00000000000E+00 0.  1.
          1   -1    0    0  501    0  0.00000000000E+00 -0.00000000000E+00 -0.32791213513E+04  0.32791213513E+04  0.00000000000E+00 0. -1.
         23    2    1    2    0    0 -0.45988518596E+03 -0.92682163441E+03 -0.12321867379E+04  0.16113787055E+04  0.88116111655E+02 0.  0.
    5000000    2    1    2    0    0  0.45988518596E+03  0.92682163441E+03 -0.16647930966E+04  0.20498841625E+04  0.59999691582E+03 0.  0.
         23    2    4    4    0    0  0.86624576761E+02  0.77062063160E+03 -0.10980145045E+04  0.13472883434E+04  0.90498911514E+02 0.  0.
         23    2    4    4    0    0  0.37326060920E+03  0.15620100281E+03 -0.56677859211E+03  0.70259581914E+03  0.93170150491E+02 0.  0.
          4    1    3    3  502    0 -0.75707616527E+02 -0.90994631185E+02 -0.14870062060E+03  0.19006193904E+03  0.00000000000E+00 0.  1.
         -4    1    3    3    0  502 -0.38417756943E+03 -0.83582700322E+03 -0.10834861173E+04  0.14213167665E+04  0.00000000000E+00 0. -1.
         11    1    5    5    0    0 -0.15611793818E+02  0.22966400287E+03 -0.32063334690E+03  0.39470878565E+03  0.00000000000E+00 0.  1.
        -11    1    5    5    0    0  0.10223637058E+03  0.54095662873E+03 -0.77738115759E+03  0.95257955773E+03  0.00000000000E+00 0. -1.
          5    1    6    6  503    0  0.18988206643E+03  0.10283608121E+03 -0.23082427251E+03  0.31612085273E+03  0.47000000000E+01 0. -1.
         -5    1    6    6    0  503  0.18337854277E+03  0.53364921599E+02 -0.33595431960E+03  0.38647496641E+03  0.47000000000E+01 0.  1.
<mgrwt>
<rscale>  0 0.11130120E+04</rscale>
<asrwt>0</asrwt>
<pdfrwt beam="1">  1        1 0.50448021E+00 0.11130120E+04</pdfrwt>
<pdfrwt beam="2">  1       -1 0.58791002E-01 0.11130120E+04</pdfrwt>
<totfact> 0.11041001E+00</totfact>
</mgrwt>
</event>
<event>
12    1  0.3127365E-008  0.9412682E+03  0.7818608E-02  0.9375415E-01
          2   -1    0    0  501    0  0.00000000000E+00  0.00000000000E+00  0.82517522043E+03  0.82517522043E+03  0.00000000000E+00 0. -1.
         -2   -1    0    0    0  501 -0.00000000000E+00 -0.00000000000E+00 -0.12228034311E+04  0.12228034311E+04  0.00000000000E+00 0.  1.
         23    2    1    2    0    0 -0.88871914693E+02 -0.86250260773E+03 -0.47110266463E+03  0.99098213951E+03  0.91098378953E+02 0.  0.
    5000000    2    1    2    0    0  0.88871914693E+02  0.86250260773E+03  0.73474453927E+02  0.10569965120E+04  0.60002847060E+03 0.  0.
         23    2    4    4    0    0  0.15052337472E+03  0.90998808757E+03  0.38263915999E+02  0.92762384186E+03  0.91028890213E+02 0.  0.
         23    2    4    4    0    0 -0.61651460028E+02 -0.47485479838E+02  0.35210537928E+02  0.12937267019E+03  0.97168577699E+02 0.  0.
          1    1    3    3  502    0 -0.13971206565E+02 -0.50235203337E+03 -0.24376939412E+03  0.55854836635E+03  0.00000000000E+00 0. -1.
         -1    1    3    3    0  502 -0.74900708128E+02 -0.36015057436E+03 -0.22733327050E+03  0.43243377316E+03  0.00000000000E+00 0.  1.
         13    1    5    5    0    0  0.16046845001E+03  0.78985262739E+03  0.25340089791E+02  0.80638664213E+03  0.00000000000E+00 0. -1.
        -13    1    5    5    0    0 -0.99450752871E+01  0.12013546018E+03  0.12923826208E+02  0.12123719973E+03  0.00000000000E+00 0.  1.
          5    1    6    6  503    0 -0.88782352007E+01  0.48248158410E+01  0.51889645010E+02  0.53072847742E+02  0.47000000000E+01 0. -1.
         -5    1    6    6    0  503 -0.52773224828E+02 -0.52310295679E+02 -0.16679107082E+02  0.76299822449E+02  0.47000000000E+01 0.  1.
<mgrwt>
<rscale>  0 0.94126820E+03</rscale>
<asrwt>0</asrwt>
<pdfrwt beam="1">  1        2 0.12695003E+00 0.94126820E+03</pdfrwt>
<pdfrwt beam="2">  1       -2 0.18812360E+00 0.94126820E+03</pdfrwt>
<totfact> 0.52625404E+00</totfact>
</mgrwt>
</event>
<event>
12    1  0.3127365E-008  0.7068300E+03  0.7818608E-02  0.9705623E-01
          2   -1    0    0  501    0  0.00000000000E+00  0.00000000000E+00  0.16344430812E+04  0.16344430812E+04  0.00000000000E+00 0. -1.
         -2   -1    0    0    0  501 -0.00000000000E+00 -0.00000000000E+00 -0.31959218757E+03  0.31959218757E+03  0.00000000000E+00 0.  1.
         23    2    1    2    0    0 -0.16097086740E+03 -0.56709572153E+03  0.63760186751E+03  0.87415752268E+03  0.10052887880E+03 0.  0.
    5000000    2    1    2    0    0  0.16097086740E+03  0.56709572153E+03  0.67724902611E+03  0.10798777461E+04  0.59996710374E+03 0.  0.
         23    2    4    4    0    0 -0.20208578511E+03  0.11801603701E+03  0.26442549174E+03  0.36451263963E+03  0.90455371525E+02 0.  0.
         23    2    4    4    0    0  0.36305665251E+03  0.44907968452E+03  0.41282353438E+03  0.71536510644E+03  0.88550940145E+02 0.  0.
          1    1    3    3  502    0 -0.41231823473E+02 -0.32526057888E+03  0.36327823486E+03  0.48935220789E+03  0.00000000000E+00 0. -1.
         -1    1    3    3    0  502 -0.11973904393E+03 -0.24183514266E+03  0.27432363265E+03  0.38480531479E+03  0.00000000000E+00 0.  1.
         13    1    5    5    0    0 -0.15270543163E+03  0.69414505569E+02  0.23618920550E+03  0.28969408559E+03  0.00000000000E+00 0. -1.
        -13    1    5    5    0    0 -0.49380353485E+02  0.48601531445E+02  0.28236286238E+02  0.74818554047E+02  0.00000000000E+00 0.  1.
          5    1    6    6  503    0  0.23913430813E+03  0.26520877383E+03  0.30062658460E+03  0.46681832056E+03  0.47000000000E+01 0. -1.
         -5    1    6    6    0  503  0.12392234438E+03  0.18387091069E+03  0.11219694978E+03  0.24854678589E+03  0.47000000000E+01 0.  1.
<mgrwt>
<rscale>  0 0.70682999E+03</rscale>
<asrwt>0</asrwt>
<pdfrwt beam="1">  1        2 0.25145278E+00 0.70682999E+03</pdfrwt>
<pdfrwt beam="2">  1       -2 0.49168030E-01 0.70682999E+03</pdfrwt>
<totfact> 0.43008762E+01</totfact>
</mgrwt>
</event>
<event>
12    1  0.3127365E-008  0.2368713E+04  0.7818608E-02  0.8451311E-01
          2   -1    0    0  501    0  0.00000000000E+00  0.00000000000E+00  0.24690268895E+04  0.24690268895E+04  0.00000000000E+00 0. -1.
         -2   -1    0    0    0  501 -0.00000000000E+00 -0.00000000000E+00 -0.23509895395E+04  0.23509895395E+04  0.00000000000E+00 0.  1.
         23    2    1    2    0    0 -0.16549764185E+03  0.23585621193E+04 -0.11987167877E+03  0.23691274796E+04  0.90504448124E+02 0.  0.
    5000000    2    1    2    0    0  0.16549764185E+03 -0.23585621193E+04  0.23790902872E+03  0.24508889493E+04  0.60004266175E+03 0.  0.
         23    2    4    4    0    0 -0.18090786648E+02 -0.45370419254E+03  0.26737474935E+03  0.53484529894E+03  0.91626777304E+02 0.  0.
         23    2    4    4    0    0  0.18358842850E+03 -0.19048579268E+04 -0.29465720633E+02  0.19160436504E+04  0.90369293803E+02 0.  0.
          1    1    3    3  502    0 -0.13060018357E+03  0.19082402495E+04 -0.61431195766E+02  0.19136904268E+04  0.00000000000E+00 0. -1.
         -1    1    3    3    0  502 -0.34897458278E+02  0.45032186982E+03 -0.58440483002E+02  0.45543705283E+03  0.00000000000E+00 0.  1.
         13    1    5    5    0    0 -0.33283296902E+02 -0.11785117450E+03  0.39401402310E+02  0.12864349066E+03  0.00000000000E+00 0. -1.
        -13    1    5    5    0    0  0.15192510254E+02 -0.33585301804E+03  0.22797334704E+03  0.40620180829E+03  0.00000000000E+00 0.  1.
          5    1    6    6  503    0  0.48698713646E+02 -0.76678731235E+03 -0.48039415230E+02  0.76984688250E+03  0.47000000000E+01 0. -1.
         -5    1    6    6    0  503  0.13488971485E+03 -0.11380706144E+04  0.18573694598E+02  0.11461967679E+04  0.47000000000E+01 0.  1.
<mgrwt>
<rscale>  0 0.23687132E+04</rscale>
<asrwt>0</asrwt>
<pdfrwt beam="1">  1        2 0.37985029E+00 0.23687132E+04</pdfrwt>
<pdfrwt beam="2">  1       -2 0.36169070E+00 0.23687132E+04</pdfrwt>
<totfact> 0.40599240E-02</totfact>
</mgrwt>
</event>
<event>
12    1  0.3127365E-008  0.1603729E+04  0.7818608E-02  0.8818261E-01
          2   -1    0    0  501    0  0.00000000000E+00  0.00000000000E+00  0.25201536087E+04  0.25201536087E+04  0.00000000000E+00 0. -1.
         -2   -1    0    0    0  501 -0.00000000000E+00 -0.00000000000E+00 -0.12040453495E+04  0.12040453495E+04  0.00000000000E+00 0.  1.
         23    2    1    2    0    0 -0.15356890518E+04 -0.41136141363E+03  0.12486660390E+04  0.20235684718E+04  0.90018921684E+02 0.  0.
    5000000    2    1    2    0    0  0.15356890518E+04  0.41136141363E+03  0.67442220174E+02  0.17006304864E+04  0.60003043391E+03 0.  0.
         23    2    4    4    0    0  0.86156265692E+03  0.10747370010E+03  0.29690667963E+03  0.92214158148E+03  0.91382229545E+02 0.  0.
         23    2    4    4    0    0  0.67412639492E+03  0.30388771353E+03 -0.22946445946E+03  0.77848890491E+03  0.81221291245E+02 0.  0.
          1    1    3    3  502    0 -0.55448271183E+03 -0.10396882331E+03  0.44136088791E+03  0.71628208641E+03  0.00000000000E+00 0. -1.
         -1    1    3    3    0  502 -0.98120634001E+03 -0.30739259032E+03  0.80730515114E+03  0.13072863853E+04  0.00000000000E+00 0.  1.
         11    1    5    5    0    0  0.78696548714E+03  0.12383096103E+03  0.26926265555E+03  0.84092280415E+03  0.00000000000E+00 0.  1.
        -11    1    5    5    0    0  0.74597169777E+02 -0.16357260934E+02  0.27644024086E+02  0.81218777334E+02  0.00000000000E+00 0. -1.
          5    1    6    6  503    0  0.37631383436E+03  0.13604257450E+03 -0.96432526538E+02  0.41163212482E+03  0.47000000000E+01 0. -1.
         -5    1    6    6    0  503  0.29781256056E+03  0.16784513903E+03 -0.13303193292E+03  0.36685678009E+03  0.47000000000E+01 0.  1.
<mgrwt>
<rscale>  0 0.16037286E+04</rscale>
<asrwt>0</asrwt>
<pdfrwt beam="1">  1        2 0.38771594E+00 0.16037286E+04</pdfrwt>
<pdfrwt beam="2">  1       -2 0.18523775E+00 0.16037286E+04</pdfrwt>
<totfact> 0.52645501E-01</totfact>
</mgrwt>
</event>
<event>
12    1  0.3127365E-008  0.6568085E+03  0.7818608E-02  0.9794087E-01
         -2   -1    0    0    0  501 -0.00000000000E+00  0.00000000000E+00  0.28651019563E+04  0.28651019563E+04  0.00000000000E+00 0. -1.
          2   -1    0    0  501    0  0.00000000000E+00 -0.00000000000E+00 -0.21634256984E+03  0.21634256984E+03  0.00000000000E+00 0.  1.
         23    2    1    2    0    0  0.26542599195E+03  0.45348229667E+03  0.32545637894E+03  0.62505348547E+03  0.93128161729E+02 0.  0.
    5000000    2    1    2    0    0 -0.26542599195E+03 -0.45348229667E+03  0.23233030075E+04  0.24563910407E+04  0.60001910750E+03 0.  0.
         23    2    4    4    0    0 -0.65697897146E+02 -0.54556368581E+03  0.17121136370E+04  0.18005131085E+04  0.92511615247E+02 0.  0.
         23    2    4    4    0    0 -0.19972809480E+03  0.92081389137E+02  0.61118937049E+03  0.65587793214E+03  0.90846690561E+02 0.  0.
          2    1    3    3  502    0  0.10033853343E+03  0.19985877605E+03  0.87726878255E+02  0.24022355593E+03  0.00000000000E+00 0. -1.
         -2    1    3    3    0  502  0.16508745853E+03  0.25362352062E+03  0.23772950069E+03  0.38482992954E+03  0.00000000000E+00 0.  1.
         13    1    5    5    0    0  0.22338053264E+02 -0.17109761443E+03  0.53589160505E+03  0.56298596310E+03  0.00000000000E+00 0.  1.
        -13    1    5    5    0    0 -0.88035950410E+02 -0.37446607137E+03  0.11762220320E+04  0.12375271454E+04  0.00000000000E+00 0. -1.
          5    1    6    6  503    0 -0.81864815912E+02  0.25258100313E+01  0.30362719972E+03  0.31451517326E+03  0.47000000000E+01 0. -1.
         -5    1    6    6    0  503 -0.11786327889E+03  0.89555579106E+02  0.30756217077E+03  0.34136275888E+03  0.47000000000E+01 0.  1.
<mgrwt>
<rscale>  0 0.65680852E+03</rscale>
<asrwt>0</asrwt>
<pdfrwt beam="1">  1        2 0.33283474E-01 0.65680852E+03</pdfrwt>
<pdfrwt beam="2">  1       -2 0.44078489E+00 0.65680852E+03</pdfrwt>
<totfact> 0.68442940E-01</totfact>
</mgrwt>
</event>
<event>
12    1  0.3127365E-008  0.5941496E+03  0.7818608E-02  0.9917619E-01
         -1   -1    0    0    0  501 -0.00000000000E+00  0.00000000000E+00  0.37304910929E+03  0.37304910929E+03  0.00000000000E+00 0.  1.
          1   -1    0    0  501    0  0.00000000000E+00 -0.00000000000E+00 -0.13609084987E+04  0.13609084987E+04  0.00000000000E+00 0. -1.
         23    2    1    2    0    0  0.44093903063E+03 -0.10003618956E+03 -0.85406801920E+03  0.97086069184E+03  0.93294338419E+02 0.  0.
    5000000    2    1    2    0    0 -0.44093903063E+03  0.10003618956E+03 -0.13379137019E+03  0.76309691612E+03  0.59998525374E+03 0.  0.
         23    2    4    4    0    0 -0.47116766803E+03  0.26093100115E+03 -0.23276740749E+02  0.54592034348E+03  0.86042175749E+02 0.  0.
         23    2    4    4    0    0  0.30228637407E+02 -0.16089481159E+03 -0.11051462944E+03  0.21717657264E+03  0.90284381087E+02 0.  0.
          3    1    3    3  502    0  0.22699189420E+03 -0.40186365331E+01 -0.43191030019E+03  0.48794259589E+03  0.00000000000E+00 0. -1.
         -3    1    3    3    0  502  0.21394713642E+03 -0.96017553024E+02 -0.42215771901E+03  0.48291809595E+03  0.00000000000E+00 0.  1.
         13    1    5    5    0    0 -0.22524972672E+03  0.17313375485E+03 -0.46817847083E+01  0.28413844436E+03  0.00000000000E+00 0. -1.
        -13    1    5    5    0    0 -0.24591794131E+03  0.87797246297E+02 -0.18594956041E+02  0.26178189912E+03  0.00000000000E+00 0.  1.
          5    1    6    6  503    0  0.56802728339E+02 -0.11346120153E+03 -0.99945276769E+02  0.16158942585E+03  0.47000000000E+01 0. -1.
         -5    1    6    6    0  503 -0.26574090931E+02 -0.47433610057E+02 -0.10569352669E+02  0.55587146785E+02  0.47000000000E+01 0.  1.
<mgrwt>
<rscale>  0 0.59414957E+03</rscale>
<asrwt>0</asrwt>
<pdfrwt beam="1">  1        1 0.20937054E+00 0.59414957E+03</pdfrwt>
<pdfrwt beam="2">  1       -1 0.57392170E-01 0.59414957E+03</pdfrwt>
<totfact> 0.26523566E+01</totfact>
</mgrwt>
</event>
<event>
12    1  0.3127365E-008  0.1020500E+04  0.7818608E-02  0.9286343E-01
          2   -1    0    0  501    0  0.00000000000E+00  0.00000000000E+00  0.12506670441E+04  0.12506670441E+04  0.00000000000E+00 0.  1.
         -2   -1    0    0    0  501 -0.00000000000E+00 -0.00000000000E+00 -0.93615295513E+03  0.93615295513E+03  0.00000000000E+00 0. -1.
         23    2    1    2    0    0  0.98761763367E+03  0.80559605062E+02  0.43722127106E+02  0.99727638159E+03  0.10377917216E+03 0.  0.
    5000000    2    1    2    0    0 -0.98761763367E+03 -0.80559605062E+02  0.27079196186E+03  0.11895436176E+04  0.59983938798E+03 0.  0.
         23    2    4    4    0    0 -0.61176387269E+02  0.40474248103E+02 -0.12453040591E+03  0.17085856142E+03  0.91126894481E+02 0.  0.
         23    2    4    4    0    0 -0.92644124640E+03 -0.12103385316E+03  0.39532236777E+03  0.10186850562E+04  0.92178591169E+02 0.  0.
          3    1    3    3  502    0  0.66242952554E+03  0.75480629187E+02 -0.14523339577E+02  0.66687414786E+03  0.00000000000E+00 0. -1.
         -3    1    3    3    0  502  0.32518810813E+03  0.50789758745E+01  0.58245466683E+02  0.33040223373E+03  0.00000000000E+00 0.  1.
         13    1    5    5    0    0  0.14091124775E+02  0.32541810260E+02 -0.16902430623E+02  0.39283856396E+02  0.00000000000E+00 0.  1.
        -13    1    5    5    0    0 -0.75267512044E+02  0.79324378432E+01 -0.10762797528E+03  0.13157470503E+03  0.00000000000E+00 0. -1.
          5    1    6    6  503    0 -0.45194697051E+03 -0.17971999567E+02  0.16788584802E+03  0.48247984920E+03  0.47000000000E+01 0. -1.
         -5    1    6    6    0  503 -0.47449427589E+03 -0.10306185360E+03  0.22743651975E+03  0.53620520703E+03  0.47000000000E+01 0.  1.
<mgrwt>
<rscale>  0 0.10204995E+04</rscale>
<asrwt>0</asrwt>
<pdfrwt beam="1">  1        2 0.19241031E+00 0.10204995E+04</pdfrwt>
<pdfrwt beam="2">  1       -2 0.14402353E+00 0.10204995E+04</pdfrwt>
<totfact> 0.58328349E+00</totfact>
</mgrwt>
</event>
<event>
12    1  0.3127365E-008  0.4817245E+03  0.7818608E-02  0.1018662E+00
         -2   -1    0    0    0  501 -0.00000000000E+00  0.00000000000E+00  0.20049348741E+03  0.20049348741E+03  0.00000000000E+00 0.  1.
          2   -1    0    0  501    0  0.00000000000E+00 -0.00000000000E+00 -0.12047420434E+04  0.12047420434E+04  0.00000000000E+00 0. -1.
         23    2    1    2    0    0  0.83875824357E+02 -0.28487571651E+03 -0.36842757838E+03  0.48192963014E+03  0.91257657905E+02 0.  0.
    5000000    2    1    2    0    0 -0.83875824357E+02  0.28487571651E+03 -0.63582097757E+03  0.92330590063E+03  0.60003011830E+03 0.  0.
         23    2    4    4    0    0 -0.30142182206E+03  0.29389580172E+03 -0.36980031893E+03  0.56783231777E+03  0.91931540533E+02 0.  0.
         23    2    4    4    0    0  0.21754599770E+03 -0.90200852169E+01 -0.26602065864E+03  0.35547358286E+03  0.90481236942E+02 0.  0.
          2    1    3    3  502    0  0.30334733080E+02 -0.18570312932E+03 -0.28580960100E+03  0.34218850988E+03  0.00000000000E+00 0. -1.
         -2    1    3    3    0  502  0.53541091277E+02 -0.99172587183E+02 -0.82617977380E+02  0.13974112025E+03  0.00000000000E+00 0.  1.
         11    1    5    5    0    0 -0.23616757374E+02 -0.35537332023E+01 -0.21805714476E+02  0.32339904644E+02  0.00000000000E+00 0.  1.
        -11    1    5    5    0    0 -0.27780506468E+03  0.29744953493E+03 -0.34799460445E+03  0.53549241313E+03  0.00000000000E+00 0. -1.
          5    1    6    6  503    0  0.19760201183E+03  0.17216388750E+02 -0.20101368162E+03  0.28243857619E+03  0.47000000000E+01 0. -1.
         -5    1    6    6    0  503  0.19943985865E+02 -0.26236473967E+02 -0.65006977019E+02  0.73035006672E+02  0.47000000000E+01 0.  1.
<mgrwt>
<rscale>  0 0.48172453E+03</rscale>
<asrwt>0</asrwt>
<pdfrwt beam="1">  1        2 0.18534493E+00 0.48172453E+03</pdfrwt>
<pdfrwt beam="2">  1       -2 0.30845152E-01 0.48172453E+03</pdfrwt>
<totfact> 0.18947926E+02</totfact>
</mgrwt>
</event>
<event>
12    1  0.3127365E-008  0.6165197E+03  0.7818608E-02  0.9871713E-01
         -2   -1    0    0    0  501 -0.00000000000E+00  0.00000000000E+00  0.66682773444E+03  0.66682773444E+03  0.00000000000E+00 0.  1.
          2   -1    0    0  501    0  0.00000000000E+00 -0.00000000000E+00 -0.76421865820E+03  0.76421865820E+03  0.00000000000E+00 0. -1.
         23    2    1    2    0    0  0.26744804413E+03 -0.44618826294E+03 -0.30528408822E+03  0.61019790828E+03  0.92361736992E+02 0.  0.
    5000000    2    1    2    0    0 -0.26744804413E+03  0.44618826294E+03  0.20789316446E+03  0.82084848435E+03  0.59996686921E+03 0.  0.
         23    2    4    4    0    0  0.98447888579E+02 -0.37363422856E+00 -0.91168969489E+02  0.16390261387E+03  0.94128420084E+02 0.  0.
         23    2    4    4    0    0 -0.36589593271E+03  0.44656189717E+03  0.29906213394E+03  0.65694587048E+03  0.94033798242E+02 0.  0.
          1    1    3    3  502    0  0.73392555587E+02 -0.20902585291E+03 -0.11690926629E+03  0.25049161851E+03  0.00000000000E+00 0. -1.
         -1    1    3    3    0  502  0.19405548854E+03 -0.23716241003E+03 -0.18837482193E+03  0.35970628977E+03  0.00000000000E+00 0.  1.
         13    1    5    5    0    0  0.88103875369E+02  0.29435980683E+02 -0.34594524790E+02  0.99123917191E+02  0.00000000000E+00 0. -1.
        -13    1    5    5    0    0  0.10344013210E+02 -0.29809614912E+02 -0.56574444699E+02  0.64778696679E+02  0.00000000000E+00 0.  1.
          5    1    6    6  503    0 -0.83994956375E+02  0.14612656691E+03  0.12393906873E+03  0.20926325289E+03  0.47000000000E+01 0. -1.
         -5    1    6    6    0  503 -0.28190097633E+03  0.30043533026E+03  0.17512306522E+03  0.44768261760E+03  0.47000000000E+01 0.  1.
<mgrwt>
<rscale>  0 0.61651970E+03</rscale>
<asrwt>0</asrwt>
<pdfrwt beam="1">  1        2 0.11757210E+00 0.61651970E+03</pdfrwt>
<pdfrwt beam="2">  1       -2 0.10258888E+00 0.61651970E+03</pdfrwt>
<totfact> 0.29212046E+01</totfact>
</mgrwt>
</event>
<event>
12    1  0.3127365E-008  0.1195673E+04  0.7818608E-02  0.9116652E-01
         -2   -1    0    0    0  501 -0.00000000000E+00  0.00000000000E+00  0.93264855554E+03  0.93264855554E+03  0.00000000000E+00 0.  1.
          2   -1    0    0  501    0  0.00000000000E+00 -0.00000000000E+00 -0.16263840522E+04  0.16263840522E+04  0.00000000000E+00 0. -1.
         23    2    1    2    0    0  0.12274919835E+02  0.11216648100E+04 -0.61867060592E+03  0.12845546596E+04  0.95103811872E+02 0.  0.
    5000000    2    1    2    0    0 -0.12274919835E+02 -0.11216648100E+04 -0.75064890745E+02  0.12744779482E+04  0.60031382028E+03 0.  0.
         23    2    4    4    0    0 -0.13850996274E+03 -0.33997821611E+02 -0.95150813521E+01  0.17370806027E+03  0.98707100951E+02 0.  0.
         23    2    4    4    0    0  0.12623504291E+03 -0.10876669884E+04 -0.65549809393E+02  0.11007698879E+04  0.91884736564E+02 0.  0.
          1    1    3    3  502    0  0.51461709715E+02  0.63740131210E+03 -0.36921065212E+03  0.73840723579E+03  0.00000000000E+00 0. -1.
         -1    1    3    3    0  502 -0.39186789880E+02  0.48426349795E+03 -0.24945995380E+03  0.54614742377E+03  0.00000000000E+00 0.  1.
         11    1    5    5    0    0 -0.61585102286E+02 -0.63157261135E+02 -0.20907298183E+02  0.90656933408E+02  0.00000000000E+00 0.  1.
        -11    1    5    5    0    0 -0.76924860455E+02  0.29159439524E+02  0.11392216831E+02  0.83051126866E+02  0.00000000000E+00 0. -1.
          5    1    6    6  503    0  0.99672633213E+02 -0.71878429380E+03 -0.32037674793E+01  0.72568440038E+03  0.47000000000E+01 0. -1.
         -5    1    6    6    0  503  0.26562409693E+02 -0.36888269463E+03 -0.62346041913E+02  0.37508548752E+03  0.47000000000E+01 0.  1.
<mgrwt>
<rscale>  0 0.11956730E+04</rscale>
<asrwt>0</asrwt>
<pdfrwt beam="1">  1        2 0.25021293E+00 0.11956730E+04</pdfrwt>
<pdfrwt beam="2">  1       -2 0.14348440E+00 0.11956730E+04</pdfrwt>
<totfact> 0.35328153E+00</totfact>
</mgrwt>
</event>
<event>
12    1  0.3127365E-008  0.1557262E+04  0.7818608E-02  0.8847242E-01
         -1   -1    0    0    0  501 -0.00000000000E+00  0.00000000000E+00  0.99339733885E+03  0.99339733885E+03  0.00000000000E+00 0.  1.
          1   -1    0    0  501    0  0.00000000000E+00 -0.00000000000E+00 -0.31662449416E+04  0.31662449416E+04  0.00000000000E+00 0. -1.
         23    2    1    2    0    0  0.15361797541E+04 -0.24758027166E+02 -0.14597506271E+03  0.15464733378E+04  0.99044781572E+02 0.  0.
    5000000    2    1    2    0    0 -0.15361797541E+04  0.24758027166E+02 -0.20268725400E+04  0.26131689426E+04  0.59998202656E+03 0.  0.
         23    2    4    4    0    0 -0.13512002074E+04  0.10848930636E+03 -0.19525678686E+04  0.23787261986E+04  0.91132409523E+02 0.  0.
         23    2    4    4    0    0 -0.18497954671E+03 -0.83731279189E+02 -0.74304671401E+02  0.23444274404E+03  0.90630327284E+02 0.  0.
          1    1    3    3  502    0  0.11078600798E+04 -0.59193752063E+02 -0.88875543096E+02  0.11129944829E+04  0.00000000000E+00 0.  1.
         -1    1    3    3    0  502  0.42831967433E+03  0.34435724896E+02 -0.57099519613E+02  0.43347885497E+03  0.00000000000E+00 0. -1.
         11    1    5    5    0    0 -0.71875406441E+03  0.25892207989E+02 -0.97762901976E+03  0.12136870733E+04  0.00000000000E+00 0. -1.
        -11    1    5    5    0    0 -0.63244614302E+03  0.82597098366E+02 -0.97493884885E+03  0.11650391253E+04  0.00000000000E+00 0.  1.
          5    1    6    6  503    0 -0.18373349588E+03 -0.58838094642E+02 -0.50090879166E+02  0.19937679169E+03  0.47000000000E+01 0. -1.
         -5    1    6    6    0  503 -0.12460508306E+01 -0.24893184546E+02 -0.24213792235E+02  0.35065952346E+02  0.47000000000E+01 0.  1.
<mgrwt>
<rscale>  0 0.15572624E+04</rscale>
<asrwt>0</asrwt>
<pdfrwt beam="1">  1        1 0.48711459E+00 0.15572624E+04</pdfrwt>
<pdfrwt beam="2">  1       -1 0.15283036E+00 0.15572624E+04</pdfrwt>
<totfact> 0.14135933E-01</totfact>
</mgrwt>
</event>
<event>
12    1  0.3127365E-008  0.1140221E+04  0.7818608E-02  0.9166852E-01
          2   -1    0    0  501    0  0.00000000000E+00  0.00000000000E+00  0.16064095571E+04  0.16064095571E+04  0.00000000000E+00 0. -1.
         -2   -1    0    0    0  501 -0.00000000000E+00 -0.00000000000E+00 -0.12398357401E+04  0.12398357401E+04  0.00000000000E+00 0.  1.
         23    2    1    2    0    0  0.10728976218E+04 -0.31957012504E+03 -0.57780456789E+03  0.12634094476E+04  0.95451253750E+02 0.  0.
    5000000    2    1    2    0    0 -0.10728976218E+04  0.31957012504E+03  0.94437838489E+03  0.15828358495E+04  0.60023697070E+03 0.  0.
         23    2    4    4    0    0 -0.19989937274E+03  0.15612021700E+03  0.53878241195E+03  0.60222470808E+03  0.89748705917E+02 0.  0.
         23    2    4    4    0    0 -0.87299824909E+03  0.16344990804E+03  0.40559597294E+03  0.98061114146E+03  0.90820163756E+02 0.  0.
          2    1    3    3  502    0  0.50845511713E+02 -0.10883575726E+02 -0.51114095760E+02  0.72913435437E+02  0.00000000000E+00 0. -1.
         -2    1    3    3    0  502  0.10220521101E+04 -0.30868654931E+03 -0.52669047213E+03  0.11904960122E+04  0.00000000000E+00 0.  1.
         13    1    5    5    0    0 -0.77825388559E+02  0.11764080412E+03  0.28352439260E+03  0.31667369814E+03  0.00000000000E+00 0. -1.
        -13    1    5    5    0    0 -0.12207398419E+03  0.38479412878E+02  0.25525801936E+03  0.28555100994E+03  0.00000000000E+00 0.  1.
          5    1    6    6  503    0 -0.48110034817E+03  0.49908672528E+02  0.24368293355E+03  0.54161968456E+03  0.47000000000E+01 0. -1.
         -5    1    6    6    0  503 -0.39189790092E+03  0.11354123551E+03  0.16191303939E+03  0.43899145690E+03  0.47000000000E+01 0.  1.
<mgrwt>
<rscale>  0 0.11402215E+04</rscale>
<asrwt>0</asrwt>
<pdfrwt beam="1">  1        2 0.24713993E+00 0.11402215E+04</pdfrwt>
<pdfrwt beam="2">  1       -2 0.19074396E+00 0.11402215E+04</pdfrwt>
<totfact> 0.16553243E+00</totfact>
</mgrwt>
</event>
<event>
12    1  0.3127365E-008  0.1028243E+04  0.7818608E-02  0.9278100E-01
         -2   -1    0    0    0  501 -0.00000000000E+00  0.00000000000E+00  0.11868569027E+04  0.11868569027E+04  0.00000000000E+00 0. -1.
          2   -1    0    0  501    0  0.00000000000E+00 -0.00000000000E+00 -0.98953330839E+03  0.98953330839E+03  0.00000000000E+00 0.  1.
         23    2    1    2    0    0 -0.83839537653E+02 -0.96720923167E+03  0.32516441711E+03  0.10279747613E+04  0.92073046505E+02 0.  0.
    5000000    2    1    2    0    0  0.83839537653E+02  0.96720923167E+03 -0.12784082275E+03  0.11484154498E+04  0.59999333617E+03 0.  0.
         23    2    4    4    0    0 -0.11133090240E+03  0.81422173384E+03  0.53244844162E+02  0.82848761536E+03  0.90582082582E+02 0.  0.
         23    2    4    4    0    0  0.19517044005E+03  0.15298749783E+03 -0.18108566691E+03  0.31992783443E+03  0.89806042776E+02 0.  0.
          3    1    3    3  502    0  0.10340729720E+02 -0.40443860761E+03  0.13128955965E+03  0.42534041248E+03  0.00000000000E+00 0. -1.
         -3    1    3    3    0  502 -0.94180267372E+02 -0.56277062406E+03  0.19387485747E+03  0.60263434886E+03  0.00000000000E+00 0.  1.
         11    1    5    5    0    0 -0.53926918662E+02  0.57668133826E+03  0.70651067325E+02  0.58349040418E+03  0.00000000000E+00 0. -1.
        -11    1    5    5    0    0 -0.57403983735E+02  0.23754039559E+03 -0.17406223163E+02  0.24499721118E+03  0.00000000000E+00 0.  1.
          5    1    6    6  503    0  0.19325494077E+03  0.15869344279E+03 -0.18523975536E+03  0.31123453838E+03  0.47000000000E+01 0. -1.
         -5    1    6    6    0  503  0.19154992837E+01 -0.57059449588E+01  0.41540884460E+01  0.86932960490E+01  0.47000000000E+01 0.  1.
<mgrwt>
<rscale>  0 0.10282429E+04</rscale>
<asrwt>0</asrwt>
<pdfrwt beam="1">  1        2 0.15223589E+00 0.10282429E+04</pdfrwt>
<pdfrwt beam="2">  1       -2 0.18259337E+00 0.10282429E+04</pdfrwt>
<totfact> 0.44011468E+00</totfact>
</mgrwt>
</event>
<event>
12    1  0.3127365E-008  0.9258152E+03  0.7818608E-02  0.9393874E-01
          2   -1    0    0  501    0  0.00000000000E+00  0.00000000000E+00  0.22562056082E+04  0.22562056082E+04  0.00000000000E+00 0. -1.
         -2   -1    0    0    0  501 -0.00000000000E+00 -0.00000000000E+00 -0.46397913221E+03  0.46397913221E+03  0.00000000000E+00 0.  1.
         23    2    1    2    0    0 -0.77157136365E+03 -0.30624832179E+03  0.25536997795E+03  0.87336192202E+03  0.91852149637E+02 0.  0.
    5000000    2    1    2    0    0  0.77157136365E+03  0.30624832179E+03  0.15368564980E+04  0.18468228184E+04  0.59976347264E+03 0.  0.
         23    2    4    4    0    0  0.71052108037E+03  0.21890061762E+02  0.11281888086E+04  0.13365387151E+04  0.90589009494E+02 0.  0.
         23    2    4    4    0    0  0.61050283281E+02  0.28435826003E+03  0.40866768938E+03  0.51028410324E+03  0.93775415408E+02 0.  0.
          3    1    3    3  502    0 -0.38645308067E+03 -0.10645053161E+03  0.10775982162E+03  0.41507815939E+03  0.00000000000E+00 0. -1.
         -3    1    3    3    0  502 -0.38511828297E+03 -0.19979779019E+03  0.14761015632E+03  0.45828376263E+03  0.00000000000E+00 0.  1.
         11    1    5    5    0    0  0.62726905497E+03 -0.79591065497E+01  0.96638301154E+03  0.11521397223E+04  0.00000000000E+00 0. -1.
        -11    1    5    5    0    0  0.83252025397E+02  0.29849168311E+02  0.16180579709E+03  0.18439899283E+03  0.00000000000E+00 0.  1.
          5    1    6    6  503    0 -0.18664324365E+02  0.50233314621E+02  0.11022519431E+03  0.12265164639E+03  0.47000000000E+01 0.  1.
         -5    1    6    6    0  503  0.79714607646E+02  0.23412494541E+03  0.29844249507E+03  0.38763245685E+03  0.47000000000E+01 0. -1.
<mgrwt>
<rscale>  0 0.92581525E+03</rscale>
<asrwt>0</asrwt>
<pdfrwt beam="1">  1        2 0.34710855E+00 0.92581525E+03</pdfrwt>
<pdfrwt beam="2">  1       -2 0.71381406E-01 0.92581525E+03</pdfrwt>
<totfact> 0.86857817E+00</totfact>
</mgrwt>
</event>
<event>
12    1  0.3127365E-008  0.4326042E+03  0.7818608E-02  0.1033040E+00
         -1   -1    0    0    0  501 -0.00000000000E+00  0.00000000000E+00  0.44764448887E+03  0.44764448887E+03  0.00000000000E+00 0.  1.
          1   -1    0    0  501    0  0.00000000000E+00 -0.00000000000E+00 -0.83280056574E+03  0.83280056574E+03  0.00000000000E+00 0. -1.
         23    2    1    2    0    0  0.14144071769E+03  0.37863721996E+03 -0.37025837397E+03  0.55689891571E+03  0.98354043439E+02 0.  0.
    5000000    2    1    2    0    0 -0.14144071769E+03 -0.37863721996E+03 -0.14897702907E+02  0.72354613890E+03  0.59993787396E+03 0.  0.
         23    2    4    4    0    0 -0.12411435483E+03 -0.32890351825E+03 -0.26681872535E+03  0.45117162567E+03  0.93710758328E+02 0.  0.
         23    2    4    4    0    0 -0.17326362856E+02 -0.49733701712E+02  0.25192102244E+03  0.27237451323E+03  0.89162940579E+02 0.  0.
          3    1    3    3  502    0  0.22251532768E+02  0.18198994021E+02 -0.60298589610E+02  0.66800104812E+02  0.00000000000E+00 0. -1.
         -3    1    3    3    0  502  0.11918918492E+03  0.36043822594E+03 -0.30995978436E+03  0.49009881089E+03  0.00000000000E+00 0.  1.
         11    1    5    5    0    0 -0.35110156036E+02 -0.20854928998E+02 -0.47761723374E+02  0.62839743316E+02  0.00000000000E+00 0. -1.
        -11    1    5    5    0    0 -0.89004198794E+02 -0.30804858925E+03 -0.21905700197E+03  0.38833188236E+03  0.00000000000E+00 0.  1.
          5    1    6    6  503    0  0.20778383690E+02  0.10626636655E+02  0.11967695120E+03  0.12202183937E+03  0.47000000000E+01 0. -1.
         -5    1    6    6    0  503 -0.38104746547E+02 -0.60360338367E+02  0.13224407124E+03  0.15035267386E+03  0.47000000000E+01 0.  1.
<mgrwt>
<rscale>  0 0.43260419E+03</rscale>
<asrwt>0</asrwt>
<pdfrwt beam="1">  1        1 0.12812316E+00 0.43260419E+03</pdfrwt>
<pdfrwt beam="2">  1       -1 0.68868384E-01 0.43260419E+03</pdfrwt>
<totfact> 0.47071836E+01</totfact>
</mgrwt>
</event>
<event>
12    1  0.3127365E-008  0.7377958E+03  0.7818608E-02  0.9654694E-01
         -1   -1    0    0    0  501 -0.00000000000E+00  0.00000000000E+00  0.48828273708E+03  0.48828273708E+03  0.00000000000E+00 0.  1.
          1   -1    0    0  501    0  0.00000000000E+00 -0.00000000000E+00 -0.12697640562E+04  0.12697640562E+04  0.00000000000E+00 0. -1.
         23    2    1    2    0    0  0.18764761899E+03 -0.60564590996E+03 -0.57565344419E+03  0.86116580270E+03  0.90614870516E+02 0.  0.
    5000000    2    1    2    0    0 -0.18764761899E+03  0.60564590996E+03 -0.20582787489E+03  0.89688099054E+03  0.60000983321E+03 0.  0.
         23    2    4    4    0    0  0.61229146598E+02 -0.79501962981E+02 -0.98900083644E+01  0.13665444458E+03  0.92233694755E+02 0.  0.
         23    2    4    4    0    0 -0.24887676559E+03  0.68514787295E+03 -0.19593786653E+03  0.76022654596E+03  0.90473760786E+02 0.  0.
          2    1    3    3  502    0  0.12976970197E+03 -0.49810408045E+03 -0.42706920640E+03  0.66883178569E+03  0.00000000000E+00 0. -1.
         -2    1    3    3    0  502  0.57877917022E+02 -0.10754182952E+03 -0.14858423780E+03  0.19233401700E+03  0.00000000000E+00 0.  1.
         13    1    5    5    0    0 -0.30828965332E+01 -0.25966410321E+01 -0.33433022858E+02  0.33675121576E+02  0.00000000000E+00 0.  1.
        -13    1    5    5    0    0  0.64312043131E+02 -0.76905321949E+02  0.23543014494E+02  0.10297932301E+03  0.00000000000E+00 0. -1.
          5    1    6    6  503    0 -0.65078807299E+02  0.30848844490E+03 -0.78169736583E+02  0.32485838378E+03  0.47000000000E+01 0. -1.
         -5    1    6    6    0  503 -0.18379795829E+03  0.37665942804E+03 -0.11776812994E+03  0.43536816218E+03  0.47000000000E+01 0.  1.
<mgrwt>
<rscale>  0 0.73779580E+03</rscale>
<asrwt>0</asrwt>
<pdfrwt beam="1">  1        1 0.19534832E+00 0.73779580E+03</pdfrwt>
<pdfrwt beam="2">  1       -1 0.75120421E-01 0.73779580E+03</pdfrwt>
<totfact> 0.17525165E+01</totfact>
</mgrwt>
</event>
<event>
12    1  0.3127365E-008  0.5076414E+03  0.7818608E-02  0.1011803E+00
          1   -1    0    0  501    0  0.00000000000E+00  0.00000000000E+00  0.61280510573E+03  0.61280510573E+03  0.00000000000E+00 0. -1.
         -1   -1    0    0    0  501 -0.00000000000E+00 -0.00000000000E+00 -0.50136774784E+03  0.50136774784E+03  0.00000000000E+00 0.  1.
         23    2    1    2    0    0  0.37866924194E+03  0.15391111844E+02  0.10527678089E+03  0.40433557044E+03  0.93684426737E+02 0.  0.
    5000000    2    1    2    0    0 -0.37866924194E+03 -0.15391111844E+02  0.61605769984E+01  0.70983728313E+03  0.60016975490E+03 0.  0.
         23    2    4    4    0    0 -0.39043674019E+03  0.16516015724E+03  0.15258342007E+03  0.45966292747E+03  0.91047137105E+02 0.  0.
         23    2    4    4    0    0  0.11767498253E+02 -0.18055126909E+03 -0.14642284307E+03  0.25017435566E+03  0.91707821225E+02 0.  0.
          2    1    3    3  502    0  0.33432254852E+03  0.37088533299E+02  0.11195634905E+03  0.35451565529E+03  0.00000000000E+00 0. -1.
         -2    1    3    3    0  502  0.44346693415E+02 -0.21697421454E+02 -0.66795681583E+01  0.49819915148E+02  0.00000000000E+00 0.  1.
         13    1    5    5    0    0 -0.11310046444E+03  0.72946569321E+02  0.11349395010E+02  0.13506193320E+03  0.00000000000E+00 0.  1.
        -13    1    5    5    0    0 -0.27733627575E+03  0.92213587922E+02  0.14123402506E+03  0.32460099426E+03  0.00000000000E+00 0. -1.
          5    1    6    6  503    0 -0.19362162724E+02 -0.16738281659E+03 -0.12539751116E+03  0.21009170960E+03  0.47000000000E+01 0. -1.
         -5    1    6    6    0  503  0.31129660977E+02 -0.13168452493E+02 -0.21025331916E+02  0.40082646068E+02  0.47000000000E+01 0.  1.
<mgrwt>
<rscale>  0 0.50764138E+03</rscale>
<asrwt>0</asrwt>
<pdfrwt beam="1">  1        1 0.94277709E-01 0.50764138E+03</pdfrwt>
<pdfrwt beam="2">  1       -1 0.77133500E-01 0.50764138E+03</pdfrwt>
<totfact> 0.58591870E+01</totfact>
</mgrwt>
</event>
<event>
12    1  0.3127365E-008  0.9985173E+03  0.7818608E-02  0.9310172E-01
          2   -1    0    0  501    0  0.00000000000E+00  0.00000000000E+00  0.16029243711E+04  0.16029243711E+04  0.00000000000E+00 0.  1.
         -2   -1    0    0    0  501 -0.00000000000E+00 -0.00000000000E+00 -0.71856841159E+03  0.71856841159E+03  0.00000000000E+00 0. -1.
         23    2    1    2    0    0  0.71334828118E+03  0.65961223179E+03  0.59669976854E+03  0.11439085666E+04  0.92315374641E+02 0.  0.
    5000000    2    1    2    0    0 -0.71334828118E+03 -0.65961223179E+03  0.28765619093E+03  0.11775842160E+04  0.60000369590E+03 0.  0.
         23    2    4    4    0    0 -0.45533138623E+03 -0.56764753752E+03  0.43326891827E+03  0.85188803417E+03  0.91874202454E+02 0.  0.
         23    2    4    4    0    0 -0.25801689494E+03 -0.91964694276E+02 -0.14561272734E+03  0.32569618187E+03  0.99220529384E+02 0.  0.
          4    1    3    3  502    0  0.16805730260E+03  0.20143300179E+03  0.18805942587E+03  0.32277679412E+03  0.00000000000E+00 0. -1.
         -4    1    3    3    0  502  0.54529097858E+03  0.45817923000E+03  0.40864034268E+03  0.82113177249E+03  0.00000000000E+00 0.  1.
         13    1    5    5    0    0 -0.25202584373E+03 -0.25050793408E+03  0.23683479620E+03  0.42703860673E+03  0.00000000000E+00 0.  1.
        -13    1    5    5    0    0 -0.20330554250E+03 -0.31713960343E+03  0.19643412207E+03  0.42484942744E+03  0.00000000000E+00 0. -1.
          5    1    6    6  503    0 -0.11510831203E+03 -0.91997364018E+02 -0.61001267760E+02  0.15955150627E+03  0.47000000000E+01 0. -1.
         -5    1    6    6    0  503 -0.14290858291E+03  0.32669742537E-01 -0.84611459585E+02  0.16614467560E+03  0.47000000000E+01 0.  1.
<mgrwt>
<rscale>  0 0.99851731E+03</rscale>
<asrwt>0</asrwt>
<pdfrwt beam="1">  1        2 0.24660375E+00 0.99851731E+03</pdfrwt>
<pdfrwt beam="2">  1       -2 0.11054899E+00 0.99851731E+03</pdfrwt>
<totfact> 0.71801872E+00</totfact>
</mgrwt>
</event>
<event>
12    1  0.3127365E-008  0.3656369E+03  0.7818608E-02  0.1056374E+00
          1   -1    0    0  501    0  0.00000000000E+00  0.00000000000E+00  0.10900307627E+04  0.10900307627E+04  0.00000000000E+00 0. -1.
         -1   -1    0    0    0  501 -0.00000000000E+00 -0.00000000000E+00 -0.20329094435E+03  0.20329094435E+03  0.00000000000E+00 0.  1.
         23    2    1    2    0    0 -0.17376853946E+03  0.14665748936E+03  0.47474478909E+03  0.53097875785E+03  0.69655595823E+02 0.  0.
    5000000    2    1    2    0    0  0.17376853946E+03 -0.14665748936E+03  0.41199502925E+03  0.76234294920E+03  0.59976907520E+03 0.  0.
         23    2    4    4    0    0  0.30687613785E+03 -0.12899729519E+03  0.29514362872E+02  0.34657615144E+03  0.91818652710E+02 0.  0.
         23    2    4    4    0    0 -0.13310759838E+03 -0.17660194176E+02  0.38248066638E+03  0.41576679776E+03  0.92417827044E+02 0.  0.
          1    1    3    3  502    0 -0.11935796377E+03  0.59143994556E+02  0.29736988677E+03  0.32584227038E+03  0.00000000000E+00 0. -1.
         -1    1    3    3    0  502 -0.54410575694E+02  0.87513494807E+02  0.17737490232E+03  0.20513648747E+03  0.00000000000E+00 0.  1.
         13    1    5    5    0    0  0.70485344287E+01 -0.96138187945E+01 -0.16746516642E+02  0.20556098098E+02  0.00000000000E+00 0. -1.
        -13    1    5    5    0    0  0.29982760342E+03 -0.11938347639E+03  0.46260879514E+02  0.32602005334E+03  0.00000000000E+00 0.  1.
          5    1    6    6  503    0 -0.35434157070E+02 -0.46288879664E+02  0.17698592825E+03  0.18639836015E+03  0.47000000000E+01 0. -1.
         -5    1    6    6    0  503 -0.97673441312E+02  0.28628685488E+02  0.20549473813E+03  0.22936843761E+03  0.47000000000E+01 0.  1.
<mgrwt>
<rscale>  0 0.36563690E+03</rscale>
<asrwt>0</asrwt>
<pdfrwt beam="1">  1        1 0.16769704E+00 0.36563690E+03</pdfrwt>
<pdfrwt beam="2">  1       -1 0.31275530E-01 0.36563690E+03</pdfrwt>
<totfact> 0.12974677E+02</totfact>
</mgrwt>
</event>
<event>
12    1  0.3127365E-008  0.1199143E+04  0.7818608E-02  0.9113607E-01
         -1   -1    0    0    0  501 -0.00000000000E+00  0.00000000000E+00  0.15080177697E+04  0.15080177697E+04  0.00000000000E+00 0.  1.
          1   -1    0    0  501    0  0.00000000000E+00 -0.00000000000E+00 -0.12114644392E+04  0.12114644392E+04  0.00000000000E+00 0. -1.
         23    2    1    2    0    0 -0.11247546814E+04  0.11467437196E+03  0.75278477743E+03  0.13606862867E+04  0.80987312306E+02 0.  0.
    5000000    2    1    2    0    0  0.11247546814E+04 -0.11467437196E+03 -0.45623144695E+03  0.13587959222E+04  0.59996326576E+03 0.  0.
         23    2    4    4    0    0  0.11054591417E+04  0.22123085426E+02 -0.44070860957E+03  0.11935540930E+04  0.88419168535E+02 0.  0.
         23    2    4    4    0    0  0.19295539631E+02 -0.13679745739E+03 -0.15522837380E+02  0.16524182926E+03  0.89319882775E+02 0.  0.
          1    1    3    3  502    0 -0.89945221051E+02  0.29171773594E+02  0.75301981742E+02  0.12087813540E+03  0.00000000000E+00 0. -1.
         -1    1    3    3    0  502 -0.10348094603E+04  0.85502598368E+02  0.67748279569E+03  0.12398081513E+04  0.00000000000E+00 0.  1.
         13    1    5    5    0    0  0.75707133191E+03 -0.22276150572E+02 -0.31935272022E+03  0.82197286354E+03  0.00000000000E+00 0. -1.
        -13    1    5    5    0    0  0.34838780982E+03  0.44399235998E+02 -0.12135588935E+03  0.37158122944E+03  0.00000000000E+00 0.  1.
          5    1    6    6  503    0 -0.28300076892E+02 -0.47608200545E+02 -0.29748081245E+02  0.63043425105E+02  0.47000000000E+01 0. -1.
         -5    1    6    6    0  503  0.47595616523E+02 -0.89189256844E+02  0.14225243865E+02  0.10219840415E+03  0.47000000000E+01 0.  1.
<mgrwt>
<rscale>  0 0.11991425E+04</rscale>
<asrwt>0</asrwt>
<pdfrwt beam="1">  1        1 0.18637914E+00 0.11991425E+04</pdfrwt>
<pdfrwt beam="2">  1       -1 0.23200273E+00 0.11991425E+04</pdfrwt>
<totfact> 0.94106389E-01</totfact>
</mgrwt>
</event>
<event>
12    1  0.3127365E-008  0.9134422E+03  0.7818608E-02  0.9408932E-01
         -2   -1    0    0    0  501 -0.00000000000E+00  0.00000000000E+00  0.71412609595E+03  0.71412609595E+03  0.00000000000E+00 0.  1.
          2   -1    0    0  501    0  0.00000000000E+00 -0.00000000000E+00 -0.18909445530E+04  0.18909445530E+04  0.00000000000E+00 0. -1.
         23    2    1    2    0    0  0.83068027101E+03 -0.34951640221E+02  0.22745069279E+03  0.86633291967E+03  0.86876810840E+02 0.  0.
    5000000    2    1    2    0    0 -0.83068027101E+03  0.34951640221E+02 -0.14042691498E+04  0.17387377292E+04  0.59998809671E+03 0.  0.
         23    2    4    4    0    0 -0.14309976644E+03 -0.19958740282E+03 -0.57757120818E+03  0.63435099858E+03  0.92195522504E+02 0.  0.
         23    2    4    4    0    0 -0.68758050456E+03  0.23453904304E+03 -0.82669794164E+03  0.11043867307E+04  0.92005712827E+02 0.  0.
          2    1    3    3  502    0  0.33777453074E+03  0.14304648468E+02  0.12529514501E+03  0.36054837394E+03  0.00000000000E+00 0. -1.
         -2    1    3    3    0  502  0.49290574026E+03 -0.49256288689E+02  0.10215554778E+03  0.50578454573E+03  0.00000000000E+00 0.  1.
         11    1    5    5    0    0 -0.15360491315E+03 -0.16424737908E+03 -0.48071728107E+03  0.53071722715E+03  0.00000000000E+00 0. -1.
        -11    1    5    5    0    0  0.10505146702E+02 -0.35340023741E+02 -0.96853927108E+02  0.10363377143E+03  0.00000000000E+00 0.  1.
          5    1    6    6  503    0 -0.22486800101E+03  0.34397053905E+02 -0.27780885967E+03  0.35909417665E+03  0.47000000000E+01 0. -1.
         -5    1    6    6    0  503 -0.46271250356E+03  0.20014198913E+03 -0.54888908197E+03  0.74529255401E+03  0.47000000000E+01 0.  1.
<mgrwt>
<rscale>  0 0.91344219E+03</rscale>
<asrwt>0</asrwt>
<pdfrwt beam="1">  1        2 0.29091454E+00 0.91344219E+03</pdfrwt>
<pdfrwt beam="2">  1       -2 0.10986556E+00 0.91344219E+03</pdfrwt>
<totfact> 0.51089365E+00</totfact>
</mgrwt>
</event>
<event>
12    1  0.3127365E-008  0.6935175E+03  0.7818608E-02  0.9728383E-01
          1   -1    0    0  501    0  0.00000000000E+00  0.00000000000E+00  0.22060833311E+04  0.22060833311E+04  0.00000000000E+00 0. -1.
         -1   -1    0    0    0  501 -0.00000000000E+00 -0.00000000000E+00 -0.70669302927E+03  0.70669302927E+03  0.00000000000E+00 0.  1.
         23    2    1    2    0    0  0.75777198669E+02 -0.61847343768E+03 -0.45407378899E+03  0.77630419397E+03  0.90629017223E+02 0.  0.
    5000000    2    1    2    0    0 -0.75777198669E+02  0.61847343768E+03  0.19534640908E+04  0.21364721664E+04  0.60019978904E+03 0.  0.
         23    2    4    4    0    0 -0.66335811560E+02 -0.27103373564E+02  0.83153870086E+03  0.83955742969E+03  0.90912232196E+02 0.  0.
         23    2    4    4    0    0 -0.94413871089E+01  0.64557681125E+03  0.11219253900E+04  0.12969147367E+04  0.80079302422E+02 0.  0.
          4    1    3    3  502    0  0.84305666922E+02 -0.57028294460E+03 -0.39143995568E+03  0.69681799724E+03  0.00000000000E+00 0. -1.
         -4    1    3    3    0  502 -0.85284682531E+01 -0.48190493079E+02 -0.62633833312E+02  0.79486196721E+02  0.00000000000E+00 0.  1.
         11    1    5    5    0    0 -0.26072338189E+02 -0.58454282433E+02  0.41550967875E+03  0.42041046976E+03  0.00000000000E+00 0. -1.
        -11    1    5    5    0    0 -0.40263473372E+02  0.31350908868E+02  0.41602902211E+03  0.41914695992E+03  0.00000000000E+00 0.  1.
          5    1    6    6  503    0  0.97955751661E+01  0.41858033294E+03  0.65576659600E+03  0.77804714950E+03  0.47000000000E+01 0. -1.
         -5    1    6    6    0  503 -0.19236962275E+02  0.22699647831E+03  0.46615879396E+03  0.51886758722E+03  0.47000000000E+01 0.  1.
<mgrwt>
<rscale>  0 0.69351747E+03</rscale>
<asrwt>0</asrwt>
<pdfrwt beam="1">  1        1 0.33939743E+00 0.69351747E+03</pdfrwt>
<pdfrwt beam="2">  1       -1 0.10872201E+00 0.69351747E+03</pdfrwt>
<totfact> 0.18141337E+00</totfact>
</mgrwt>
</event>
<event>
12    1  0.3127365E-008  0.7954323E+03  0.7818608E-02  0.9566652E-01
         -2   -1    0    0    0  501 -0.00000000000E+00  0.00000000000E+00  0.43848421331E+03  0.43848421331E+03  0.00000000000E+00 0.  1.
          2   -1    0    0  501    0  0.00000000000E+00 -0.00000000000E+00 -0.16170805074E+04  0.16170805074E+04  0.00000000000E+00 0. -1.
         23    2    1    2    0    0  0.52176910551E+03 -0.47267655410E+03 -0.27118559373E+03  0.75984785835E+03  0.90338349167E+02 0.  0.
    5000000    2    1    2    0    0 -0.52176910551E+03  0.47267655410E+03 -0.90741070033E+03  0.12957168623E+04  0.59985155164E+03 0.  0.
         23    2    4    4    0    0 -0.15396512077E+03 -0.11148821402E+03 -0.11196576484E+03  0.23885759974E+03  0.91551844213E+02 0.  0.
         23    2    4    4    0    0 -0.36780398474E+03  0.58416476812E+03 -0.79544493549E+03  0.10568592626E+04  0.87696111790E+02 0.  0.
          3    1    3    3  502    0  0.38087607124E+03 -0.38546600744E+03 -0.23264928821E+03  0.58972562759E+03  0.00000000000E+00 0. -1.
         -3    1    3    3    0  502  0.14089303427E+03 -0.87210546661E+02 -0.38536305517E+02  0.17012223075E+03  0.00000000000E+00 0.  1.
         13    1    5    5    0    0 -0.46835816253E+02 -0.31381571826E+02  0.10674854082E+02  0.57378996541E+02  0.00000000000E+00 0.  1.
        -13    1    5    5    0    0 -0.10712930451E+03 -0.80106642197E+02 -0.12264061892E+03  0.18147860320E+03  0.00000000000E+00 0. -1.
          5    1    6    6  503    0 -0.14909763804E+03  0.18208018003E+03 -0.22678782378E+03  0.32686098672E+03  0.47000000000E+01 0. -1.
         -5    1    6    6    0  503 -0.21870634670E+03  0.40208458809E+03 -0.56865711171E+03  0.72999827587E+03  0.47000000000E+01 0.  1.
<mgrwt>
<rscale>  0 0.79543228E+03</rscale>
<asrwt>0</asrwt>
<pdfrwt beam="1">  1        2 0.24878162E+00 0.79543228E+03</pdfrwt>
<pdfrwt beam="2">  1       -2 0.67459110E-01 0.79543228E+03</pdfrwt>
<totfact> 0.22427171E+01</totfact>
</mgrwt>
</event>
<event>
12    1  0.3127365E-008  0.5646314E+03  0.7818608E-02  0.9981629E-01
          2   -1    0    0  501    0  0.00000000000E+00  0.00000000000E+00  0.22735087205E+04  0.22735087205E+04  0.00000000000E+00 0. -1.
         -2   -1    0    0    0  501 -0.00000000000E+00 -0.00000000000E+00 -0.26478561719E+03  0.26478561719E+03  0.00000000000E+00 0.  1.
         23    2    1    2    0    0 -0.40894384266E+03 -0.26037139116E+03  0.15806797081E+04  0.16559070059E+04  0.91931196465E+02 0.  0.
    5000000    2    1    2    0    0  0.40894384266E+03  0.26037139116E+03  0.42804339518E+03  0.88238733173E+03  0.60029819861E+03 0.  0.
         23    2    4    4    0    0  0.27580609980E+03 -0.61510886854E+02  0.42958505753E+03  0.52203256228E+03  0.90122586160E+02 0.  0.
         23    2    4    4    0    0  0.13313774286E+03  0.32188227802E+03 -0.15416623499E+01  0.36035476945E+03  0.92300182405E+02 0.  0.
          1    1    3    3  502    0 -0.37328516235E+02 -0.55214648736E+02  0.16485257993E+03  0.17781577171E+03  0.00000000000E+00 0. -1.
         -1    1    3    3    0  502 -0.37161532643E+03 -0.20515674243E+03  0.14158271282E+04  0.14780912342E+04  0.00000000000E+00 0.  1.
         11    1    5    5    0    0  0.56257096694E+02 -0.37060096789E+02  0.15928791328E+03  0.17294782745E+03  0.00000000000E+00 0.  1.
        -11    1    5    5    0    0  0.21954900311E+03 -0.24450790065E+02  0.27029714425E+03  0.34908473483E+03  0.00000000000E+00 0. -1.
          5    1    6    6  503    0  0.94558865726E+02  0.18869690283E+03 -0.43210079318E+02  0.21549269403E+03  0.47000000000E+01 0. -1.
         -5    1    6    6    0  503  0.38578877132E+02  0.13318537518E+03  0.41668416968E+02  0.14486207542E+03  0.47000000000E+01 0.  1.
<mgrwt>
<rscale>  0 0.56463143E+03</rscale>
<asrwt>0</asrwt>
<pdfrwt beam="1">  1        2 0.34977056E+00 0.56463143E+03</pdfrwt>
<pdfrwt beam="2">  1       -2 0.40736250E-01 0.56463143E+03</pdfrwt>
<totfact> 0.28660897E+01</totfact>
</mgrwt>
</event>
<event>
12    1  0.3127365E-008  0.7323843E+03  0.7818608E-02  0.9663399E-01
         -1   -1    0    0    0  501 -0.00000000000E+00  0.00000000000E+00  0.64889555027E+03  0.64889555027E+03  0.00000000000E+00 0.  1.
          1   -1    0    0  501    0  0.00000000000E+00 -0.00000000000E+00 -0.88465356702E+03  0.88465356702E+03  0.00000000000E+00 0. -1.
         23    2    1    2    0    0 -0.26672670666E+03 -0.57581175345E+03 -0.81521580653E+02  0.64658774712E+03  0.93421813089E+02 0.  0.
    5000000    2    1    2    0    0  0.26672670666E+03  0.57581175345E+03 -0.15423643610E+03  0.88696137017E+03  0.60017437674E+03 0.  0.
         23    2    4    4    0    0  0.65078516995E+02  0.60087996147E+03 -0.22717576729E+03  0.65229837433E+03  0.92695190985E+02 0.  0.
         23    2    4    4    0    0  0.20164818967E+03 -0.25068208023E+02  0.72939331191E+02  0.23466299585E+03  0.91957425665E+02 0.  0.
          4    1    3    3  502    0 -0.53582623000E+02 -0.14928550486E+03  0.17575859233E+02  0.15958123410E+03  0.00000000000E+00 0. -1.
         -4    1    3    3    0  502 -0.21314408366E+03 -0.42652624859E+03 -0.99097439886E+02  0.48700651303E+03  0.00000000000E+00 0.  1.
         11    1    5    5    0    0  0.56653856283E+02  0.59055281489E+03 -0.20744243628E+03  0.62848599903E+03  0.00000000000E+00 0.  1.
        -11    1    5    5    0    0  0.84246607113E+01  0.10327146581E+02 -0.19733331004E+02  0.23812375293E+02  0.00000000000E+00 0. -1.
          5    1    6    6  503    0  0.51408299922E+02 -0.48246908323E+02  0.17597864401E+02  0.72817252729E+02  0.47000000000E+01 0. -1.
         -5    1    6    6    0  503  0.15023988975E+03  0.23178700300E+02  0.55341466790E+02  0.16184574312E+03  0.47000000000E+01 0.  1.
<mgrwt>
<rscale>  0 0.73238426E+03</rscale>
<asrwt>0</asrwt>
<pdfrwt beam="1">  1        1 0.13610055E+00 0.73238426E+03</pdfrwt>
<pdfrwt beam="2">  1       -1 0.99830085E-01 0.73238426E+03</pdfrwt>
<totfact> 0.18477330E+01</totfact>
</mgrwt>
</event>
<event>
12    1  0.3127365E-008  0.7620610E+03  0.7818608E-02  0.9616616E-01
         -2   -1    0    0    0  501 -0.00000000000E+00  0.00000000000E+00  0.31912434062E+03  0.31912434062E+03  0.00000000000E+00 0.  1.
          2   -1    0    0  501    0  0.00000000000E+00 -0.00000000000E+00 -0.18761413968E+04  0.18761413968E+04  0.00000000000E+00 0. -1.
         23    2    1    2    0    0 -0.61684002014E+03  0.20497794608E+03 -0.56263053186E+03  0.86431481070E+03  0.89327530947E+02 0.  0.
    5000000    2    1    2    0    0  0.61684002014E+03 -0.20497794608E+03 -0.99438652436E+03  0.13309509267E+04  0.60009852588E+03 0.  0.
         23    2    4    4    0    0  0.42552270402E+03  0.15161487167E+03 -0.42020444336E+03  0.62353570216E+03  0.90378961634E+02 0.  0.
         23    2    4    4    0    0  0.19131731612E+03 -0.35659281775E+03 -0.57418208100E+03  0.70741522459E+03  0.83609118623E+02 0.  0.
          1    1    3    3  502    0 -0.29671888247E+03  0.14330278713E+03 -0.30122220907E+03  0.44644440108E+03  0.00000000000E+00 0. -1.
         -1    1    3    3    0  502 -0.32012113767E+03  0.61675158943E+02 -0.26140832279E+03  0.41787040962E+03  0.00000000000E+00 0.  1.
         13    1    5    5    0    0  0.38179213149E+03  0.10375673591E+03 -0.35434781644E+03  0.53112434225E+03  0.00000000000E+00 0. -1.
        -13    1    5    5    0    0  0.43730572534E+02  0.47858135760E+02 -0.65856626915E+02  0.92411359914E+02  0.00000000000E+00 0.  1.
          5    1    6    6  503    0  0.13683856609E+03 -0.20092311305E+03 -0.39504446395E+03  0.46387186704E+03  0.47000000000E+01 0. -1.
         -5    1    6    6    0  503  0.54478750034E+02 -0.15566970470E+03 -0.17913761705E+03  0.24354335755E+03  0.47000000000E+01 0.  1.
<mgrwt>
<rscale>  0 0.76206101E+03</rscale>
<asrwt>0</asrwt>
<pdfrwt beam="1">  1        2 0.28863713E+00 0.76206101E+03</pdfrwt>
<pdfrwt beam="2">  1       -2 0.49096053E-01 0.76206101E+03</pdfrwt>
<totfact> 0.31619913E+01</totfact>
</mgrwt>
</event>
<event>
12    1  0.3127365E-008  0.4900526E+03  0.7818608E-02  0.1016408E+00
         -2   -1    0    0    0  501 -0.00000000000E+00  0.00000000000E+00  0.16351686375E+03  0.16351686375E+03  0.00000000000E+00 0. -1.
          2   -1    0    0  501    0  0.00000000000E+00 -0.00000000000E+00 -0.18572289811E+04  0.18572289811E+04  0.00000000000E+00 0.  1.
         23    2    1    2    0    0  0.11431576144E+03 -0.36154183922E+03 -0.53363644116E+03  0.66073487246E+03  0.89566319188E+02 0.  0.
    5000000    2    1    2    0    0 -0.11431576144E+03  0.36154183922E+03 -0.11600756762E+04  0.13600109724E+04  0.60006139330E+03 0.  0.
         23    2    4    4    0    0 -0.87996357400E+02 -0.86420064989E+02 -0.53259813875E+02  0.16220327274E+03  0.90892834515E+02 0.  0.
         23    2    4    4    0    0 -0.26319404041E+02  0.44796190420E+03 -0.11068158623E+04  0.11978076996E+04  0.91320061464E+02 0.  0.
          1    1    3    3  502    0  0.50031742383E+02 -0.18494919397E+03 -0.34396859428E+03  0.39373058485E+03  0.00000000000E+00 0. -1.
         -1    1    3    3    0  502  0.64284019058E+02 -0.17659264525E+03 -0.18966784688E+03  0.26700428761E+03  0.00000000000E+00 0.  1.
         11    1    5    5    0    0 -0.52031062719E+02  0.28294148802E+01 -0.38649227008E+02  0.64876804981E+02  0.00000000000E+00 0. -1.
        -11    1    5    5    0    0 -0.35965294681E+02 -0.89249479869E+02 -0.14610586867E+02  0.97326467762E+02  0.00000000000E+00 0.  1.
          5    1    6    6  503    0 -0.41335594936E+02  0.38914011803E+03 -0.88269384413E+03  0.96556158547E+03  0.47000000000E+01 0. -1.
         -5    1    6    6    0  503  0.15016190895E+02  0.58821786175E+02 -0.22412201818E+03  0.23224611418E+03  0.47000000000E+01 0.  1.
<mgrwt>
<rscale>  0 0.49005255E+03</rscale>
<asrwt>0</asrwt>
<pdfrwt beam="1">  1        2 0.28572752E+00 0.49005255E+03</pdfrwt>
<pdfrwt beam="2">  1       -2 0.25156442E-01 0.49005255E+03</pdfrwt>
<totfact> 0.11994849E+02</totfact>
</mgrwt>
</event>
<event>
12    1  0.5559436E-008  0.1090430E+04  0.7818608E-02  0.9214570E-01
         -1   -1    0    0    0  501 -0.00000000000E+00  0.00000000000E+00  0.12863773530E+04  0.12863773530E+04  0.00000000000E+00 0.  1.
          1   -1    0    0  501    0  0.00000000000E+00 -0.00000000000E+00 -0.11219559863E+04  0.11219559863E+04  0.00000000000E+00 0. -1.
         23    2    1    2    0    0 -0.10174709611E+04  0.14967370096E+03 -0.37885908954E+03  0.10997139258E+04  0.90482790971E+02 0.  0.
    5000000    2    1    2    0    0  0.10174709611E+04 -0.14967370096E+03  0.54328045629E+03  0.13086194135E+04  0.59973472617E+03 0.  0.
         23    2    4    4    0    0  0.37500661080E+03 -0.31140198471E+03  0.36690513471E+03  0.61696959561E+03  0.91820203678E+02 0.  0.
         23    2    4    4    0    0  0.64246435029E+03  0.16172828376E+03  0.17637532158E+03  0.69164981788E+03  0.91404252402E+02 0.  0.
          3    1    3    3  502    0 -0.81934512255E+03  0.12594236903E+03 -0.26671725382E+03  0.87081915668E+03  0.00000000000E+00 0. -1.
         -3    1    3    3    0  502 -0.19812583854E+03  0.23731331923E+02 -0.11214183572E+03  0.22889476912E+03  0.00000000000E+00 0.  1.
         13    1    5    5    0    0  0.24544179068E+03 -0.22393375030E+03  0.29732211002E+03  0.44585696613E+03  0.00000000000E+00 0. -1.
        -13    1    5    5    0    0  0.12956482012E+03 -0.87468234411E+02  0.69583024692E+02  0.17111262948E+03  0.00000000000E+00 0.  1.
          5    1    6    6  503    0  0.30548644305E+03  0.97483538355E+02  0.12746850437E+03  0.34510189327E+03  0.47000000000E+01 0. -1.
         -5    1    6    6    0  503  0.33697790724E+03  0.64244745401E+02  0.48906817207E+02  0.34654792461E+03  0.47000000000E+01 0.  1.
<mgrwt>
<rscale>  0 0.10904300E+04</rscale>
<asrwt>0</asrwt>
<pdfrwt beam="1">  1        1 0.17260861E+00 0.10904300E+04</pdfrwt>
<pdfrwt beam="2">  1       -1 0.19790421E+00 0.10904300E+04</pdfrwt>
<totfact> 0.18861725E+00</totfact>
</mgrwt>
</event>
<event>
12    1  0.3127365E-008  0.9703290E+03  0.7818608E-02  0.9341700E-01
          1   -1    0    0  501    0  0.00000000000E+00  0.00000000000E+00  0.21356210892E+04  0.21356210892E+04  0.00000000000E+00 0. -1.
         -1   -1    0    0    0  501 -0.00000000000E+00 -0.00000000000E+00 -0.90722528985E+03  0.90722528985E+03  0.00000000000E+00 0.  1.
         23    2    1    2    0    0  0.69555690989E+03 -0.58056012952E+03 -0.47142501720E+03  0.10253625260E+04  0.90979580557E+02 0.  0.
    5000000    2    1    2    0    0 -0.69555690989E+03  0.58056012952E+03  0.16998208166E+04  0.20174838530E+04  0.60000067496E+03 0.  0.
         23    2    4    4    0    0 -0.74701948401E+03  0.51991450904E+03  0.16495015506E+04  0.18860791515E+04  0.89944393015E+02 0.  0.
         23    2    4    4    0    0  0.51462574116E+02  0.60645620478E+02  0.50319265942E+02  0.13140470159E+03  0.91699941418E+02 0.  0.
          3    1    3    3  502    0  0.45431332111E+02 -0.71816721066E+02 -0.47557858557E+02  0.97382736009E+02  0.00000000000E+00 0. -1.
         -3    1    3    3    0  502  0.65012557778E+03 -0.50874340846E+03 -0.42386715864E+03  0.92797979003E+03  0.00000000000E+00 0.  1.
         11    1    5    5    0    0 -0.37750036641E+03  0.21538933639E+03  0.83139871329E+03  0.93814866271E+03  0.00000000000E+00 0.  1.
        -11    1    5    5    0    0 -0.36951911759E+03  0.30452517265E+03  0.81810283734E+03  0.94793048875E+03  0.00000000000E+00 0. -1.
          5    1    6    6  503    0  0.73619467880E+02  0.58112932382E+02  0.53984788556E+02  0.10832075681E+03  0.47000000000E+01 0. -1.
         -5    1    6    6    0  503 -0.22156893764E+02  0.25326880955E+01 -0.36655226136E+01  0.23083944773E+02  0.47000000000E+01 0.  1.
<mgrwt>
<rscale>  0 0.97032902E+03</rscale>
<asrwt>0</asrwt>
<pdfrwt beam="1">  1        1 0.32855709E+00 0.97032902E+03</pdfrwt>
<pdfrwt beam="2">  1       -1 0.13957312E+00 0.97032902E+03</pdfrwt>
<totfact> 0.10363234E+00</totfact>
</mgrwt>
</event>
<event>
12    1  0.3127365E-008  0.8853393E+03  0.7818608E-02  0.9444096E-01
          2   -1    0    0  501    0  0.00000000000E+00  0.00000000000E+00  0.19682344804E+04  0.19682344804E+04  0.00000000000E+00 0.  1.
         -2   -1    0    0    0  501 -0.00000000000E+00 -0.00000000000E+00 -0.66285611860E+03  0.66285611860E+03  0.00000000000E+00 0. -1.
         23    2    1    2    0    0 -0.75700519662E+03 -0.35318427329E+03 -0.14524686483E+03  0.85285841909E+03  0.92058854301E+02 0.  0.
    5000000    2    1    2    0    0  0.75700519662E+03  0.35318427329E+03  0.14506252266E+04  0.17782321799E+04  0.60000011578E+03 0.  0.
         23    2    4    4    0    0  0.49598884379E+02  0.17465937711E+03  0.69773894005E+03  0.72597025512E+03  0.85013149033E+02 0.  0.
         23    2    4    4    0    0  0.70740631224E+03  0.17852489618E+03  0.75288628656E+03  0.10522619248E+04  0.90125294427E+02 0.  0.
          1    1    3    3  502    0 -0.16664986767E+03 -0.12058784589E+03 -0.28140924898E+02  0.20761868564E+03  0.00000000000E+00 0. -1.
         -1    1    3    3    0  502 -0.59035532895E+03 -0.23259642741E+03 -0.11710593993E+03  0.64523973345E+03  0.00000000000E+00 0.  1.
         13    1    5    5    0    0 -0.16691890591E+02  0.36680745968E+01  0.59962753882E+02  0.62350668287E+02  0.00000000000E+00 0. -1.
        -13    1    5    5    0    0  0.66290774970E+02  0.17099130251E+03  0.63777618617E+03  0.66361958683E+03  0.00000000000E+00 0.  1.
          5    1    6    6  503    0  0.26291172796E+03  0.77148789353E+02  0.22365621311E+03  0.35372122365E+03  0.47000000000E+01 0. -1.
         -5    1    6    6    0  503  0.44449458428E+03  0.10137610683E+03  0.52923007345E+03  0.69854070113E+03  0.47000000000E+01 0.  1.
<mgrwt>
<rscale>  0 0.88533934E+03</rscale>
<asrwt>0</asrwt>
<pdfrwt beam="1">  1        2 0.30280530E+00 0.88533934E+03</pdfrwt>
<pdfrwt beam="2">  1       -2 0.10197787E+00 0.88533934E+03</pdfrwt>
<totfact> 0.55661518E+00</totfact>
</mgrwt>
</event>
<event>
12    1  0.3127365E-008  0.4960897E+03  0.7818608E-02  0.1014805E+00
          2   -1    0    0  501    0  0.00000000000E+00  0.00000000000E+00  0.19243465908E+04  0.19243465908E+04  0.00000000000E+00 0. -1.
         -2   -1    0    0    0  501 -0.00000000000E+00 -0.00000000000E+00 -0.15287402853E+03  0.15287402853E+03  0.00000000000E+00 0.  1.
         23    2    1    2    0    0  0.24527011662E+03 -0.26401440169E+03  0.77395623132E+03  0.85856538419E+03  0.90913346256E+02 0.  0.
    5000000    2    1    2    0    0 -0.24527011662E+03  0.26401440169E+03  0.99751633096E+03  0.12186552351E+04  0.60018390281E+03 0.  0.
         23    2    4    4    0    0 -0.40135608001E+03  0.14366516395E+03  0.85065803408E+03  0.95583017101E+03  0.90916679292E+02 0.  0.
         23    2    4    4    0    0  0.15608596339E+03  0.12034923774E+03  0.14685829688E+03  0.26282506413E+03  0.93074636612E+02 0.  0.
          3    1    3    3  502    0  0.16963456674E+03 -0.22719729583E+03  0.64535256257E+03  0.70489320289E+03  0.00000000000E+00 0. -1.
         -3    1    3    3    0  502  0.75635549887E+02 -0.36817105858E+02  0.12860366875E+03  0.15367218130E+03  0.00000000000E+00 0.  1.
         13    1    5    5    0    0 -0.37682086316E+03  0.13657586025E+03  0.83407428335E+03  0.92537929448E+03  0.00000000000E+00 0. -1.
        -13    1    5    5    0    0 -0.24535216852E+02  0.70893037047E+01  0.16583750733E+02  0.30450876529E+02  0.00000000000E+00 0.  1.
          5    1    6    6  503    0  0.14808472143E+03  0.11363617683E+03  0.15964127489E+03  0.24566174316E+03  0.47000000000E+01 0. -1.
         -5    1    6    6    0  503  0.80012419607E+01  0.67130609092E+01 -0.12782978012E+02  0.17163320965E+02  0.47000000000E+01 0.  1.
<mgrwt>
<rscale>  0 0.49608975E+03</rscale>
<asrwt>0</asrwt>
<pdfrwt beam="1">  1        2 0.29605330E+00 0.49608975E+03</pdfrwt>
<pdfrwt beam="2">  1       -2 0.23519083E-01 0.49608975E+03</pdfrwt>
<totfact> 0.12436524E+02</totfact>
</mgrwt>
</event>
<event>
12    1  0.3127365E-008  0.9509230E+03  0.7818608E-02  0.9364072E-01
          2   -1    0    0  501    0  0.00000000000E+00  0.00000000000E+00  0.19116319937E+04  0.19116319937E+04  0.00000000000E+00 0. -1.
         -2   -1    0    0    0  501 -0.00000000000E+00 -0.00000000000E+00 -0.13737184766E+04  0.13737184766E+04  0.00000000000E+00 0.  1.
         23    2    1    2    0    0 -0.29290351043E+03  0.83955243349E+03 -0.10437906840E+04  0.13742263286E+04  0.91423495057E+02 0.  0.
    5000000    2    1    2    0    0  0.29290351043E+03 -0.83955243349E+03  0.15817042011E+04  0.19111241417E+04  0.59997212444E+03 0.  0.
         23    2    4    4    0    0 -0.11051042016E+03 -0.29530445525E+03  0.24343552959E+03  0.40849973303E+03  0.90520166611E+02 0.  0.
         23    2    4    4    0    0  0.40341393060E+03 -0.54424797824E+03  0.13382686715E+04  0.15026244086E+04  0.89265979431E+02 0.  0.
          1    1    3    3  502    0 -0.74453503169E+02  0.12014730787E+03 -0.18530858893E+03  0.23306216522E+03  0.00000000000E+00 0. -1.
         -1    1    3    3    0  502 -0.21845000727E+03  0.71940512561E+03 -0.85848209502E+03  0.11411641634E+04  0.00000000000E+00 0.  1.
         13    1    5    5    0    0 -0.92320963520E+02 -0.29412222714E+03  0.21958786627E+03  0.37848365330E+03  0.00000000000E+00 0. -1.
        -13    1    5    5    0    0 -0.18189456644E+02 -0.11822281079E+01  0.23847663325E+02  0.30016079730E+02  0.00000000000E+00 0.  1.
          5    1    6    6  503    0  0.17563835501E+03 -0.30360385928E+03  0.64449215649E+03  0.73376860447E+03  0.47000000000E+01 0. -1.
         -5    1    6    6    0  503  0.22777557559E+03 -0.24064411895E+03  0.69377651502E+03  0.76885580418E+03  0.47000000000E+01 0.  1.
<mgrwt>
<rscale>  0 0.95092296E+03</rscale>
<asrwt>0</asrwt>
<pdfrwt beam="1">  1        2 0.29409723E+00 0.95092296E+03</pdfrwt>
<pdfrwt beam="2">  1       -2 0.21134130E+00 0.95092296E+03</pdfrwt>
<totfact> 0.84485795E-01</totfact>
</mgrwt>
</event>
<event>
12    1  0.3127365E-008  0.7526859E+03  0.7818608E-02  0.9631146E-01
         -1   -1    0    0    0  501 -0.00000000000E+00  0.00000000000E+00  0.11561065445E+04  0.11561065445E+04  0.00000000000E+00 0.  1.
          1   -1    0    0  501    0  0.00000000000E+00 -0.00000000000E+00 -0.54379735831E+03  0.54379735831E+03  0.00000000000E+00 0. -1.
         23    2    1    2    0    0  0.17898947837E+03  0.61300126153E+03  0.26030236948E+02  0.64567066448E+03  0.91680170875E+02 0.  0.
    5000000    2    1    2    0    0 -0.17898947837E+03 -0.61300126153E+03  0.58627894919E+03  0.10542332383E+04  0.59989743660E+03 0.  0.
         23    2    4    4    0    0  0.20096262577E+03 -0.29175159225E+03  0.30051601013E+03  0.47339398311E+03  0.91033083866E+02 0.  0.
         23    2    4    4    0    0 -0.37995210414E+03 -0.32124966927E+03  0.28576293906E+03  0.58083925518E+03  0.90270878874E+02 0.  0.
          4    1    3    3  502    0  0.40615707807E+02  0.26800443199E+03 -0.16308818396E+02  0.27155476214E+03  0.00000000000E+00 0. -1.
         -4    1    3    3    0  502  0.13837377056E+03  0.34499682954E+03  0.42339055344E+02  0.37411590233E+03  0.00000000000E+00 0.  1.
         13    1    5    5    0    0  0.14683650299E+02 -0.56191389645E+02  0.88213229732E+02  0.10561560375E+03  0.00000000000E+00 0.  1.
        -13    1    5    5    0    0  0.18627897547E+03 -0.23556020261E+03  0.21230278040E+03  0.36777837935E+03  0.00000000000E+00 0. -1.
          5    1    6    6  503    0 -0.31206489126E+03 -0.21858514168E+03  0.19643544427E+03  0.42868745525E+03  0.47000000000E+01 0. -1.
         -5    1    6    6    0  503 -0.67887212878E+02 -0.10266452759E+03  0.89327494786E+02  0.15215179993E+03  0.47000000000E+01 0.  1.
<mgrwt>
<rscale>  0 0.75268586E+03</rscale>
<asrwt>0</asrwt>
<pdfrwt beam="1">  1        1 0.83661132E-01 0.75268586E+03</pdfrwt>
<pdfrwt beam="2">  1       -1 0.17786255E+00 0.75268586E+03</pdfrwt>
<totfact> 0.87651901E+00</totfact>
</mgrwt>
</event>
<event>
12    1  0.3127365E-008  0.8464093E+03  0.7818608E-02  0.9495169E-01
         -2   -1    0    0    0  501 -0.00000000000E+00  0.00000000000E+00  0.27188012730E+03  0.27188012730E+03  0.00000000000E+00 0.  1.
          2   -1    0    0  501    0  0.00000000000E+00 -0.00000000000E+00 -0.28011011603E+04  0.28011011603E+04  0.00000000000E+00 0. -1.
         23    2    1    2    0    0 -0.14740653328E+03  0.74988475377E+03 -0.10173554775E+04  0.12757734645E+04  0.92357647664E+02 0.  0.
    5000000    2    1    2    0    0  0.14740653328E+03 -0.74988475377E+03 -0.15118655555E+04  0.17972078231E+04  0.60013554432E+03 0.  0.
         23    2    4    4    0    0 -0.19137398590E+03 -0.20813850384E+03 -0.69843515837E+03  0.75910564101E+03  0.92108981657E+02 0.  0.
         23    2    4    4    0    0  0.33878051918E+03 -0.54174624994E+03 -0.81343039714E+03  0.10381021821E+04  0.87897042161E+02 0.  0.
          1    1    3    3  502    0 -0.10074041715E+02  0.16431399952E+03 -0.16987842258E+03  0.23655708658E+03  0.00000000000E+00 0. -1.
         -1    1    3    3    0  502 -0.13733249156E+03  0.58557075425E+03 -0.84747705489E+03  0.10392163779E+04  0.00000000000E+00 0.  1.
         13    1    5    5    0    0 -0.63408911383E+02 -0.41107633969E+02 -0.28964764388E+03  0.29934308947E+03  0.00000000000E+00 0.  1.
        -13    1    5    5    0    0 -0.12796507452E+03 -0.16703086987E+03 -0.40878751450E+03  0.45976255153E+03  0.00000000000E+00 0. -1.
          5    1    6    6  503    0  0.10684162636E+03 -0.21371928065E+03 -0.36207100866E+03  0.43383011578E+03  0.47000000000E+01 0. -1.
         -5    1    6    6    0  503  0.23193889282E+03 -0.32802696929E+03 -0.45135938848E+03  0.60427206633E+03  0.47000000000E+01 0.  1.
<mgrwt>
<rscale>  0 0.84640930E+03</rscale>
<asrwt>0</asrwt>
<pdfrwt beam="1">  1        2 0.43093864E+00 0.84640930E+03</pdfrwt>
<pdfrwt beam="2">  1       -2 0.41827712E-01 0.84640930E+03</pdfrwt>
<totfact> 0.13004275E+01</totfact>
</mgrwt>
</event>
<event>
12    1  0.3127365E-008  0.6914853E+03  0.7818608E-02  0.9731905E-01
          2   -1    0    0  501    0  0.00000000000E+00  0.00000000000E+00  0.25952822287E+03  0.25952822287E+03  0.00000000000E+00 0. -1.
         -2   -1    0    0    0  501 -0.00000000000E+00 -0.00000000000E+00 -0.20233448873E+04  0.20233448873E+04  0.00000000000E+00 0.  1.
         23    2    1    2    0    0  0.49258886074E+03  0.33631755721E+03 -0.72865690213E+03  0.94601163990E+03  0.90795687099E+02 0.  0.
    5000000    2    1    2    0    0 -0.49258886074E+03 -0.33631755721E+03 -0.10351597623E+04  0.13368614703E+04  0.59990796978E+03 0.  0.
         23    2    4    4    0    0  0.12395593637E+02 -0.24823957892E+03 -0.13576956729E+03  0.29760844895E+03  0.91437816047E+02 0.  0.
         23    2    4    4    0    0 -0.50498445438E+03 -0.88077978291E+02 -0.89939019500E+03  0.10392530213E+04  0.91526444445E+02 0.  0.
          3    1    3    3  502    0  0.16667610982E+03  0.64915117715E+02 -0.20202217014E+03  0.26982930775E+03  0.00000000000E+00 0. -1.
         -3    1    3    3    0  502  0.32591275092E+03  0.27140243949E+03 -0.52663473200E+03  0.67618233216E+03  0.00000000000E+00 0.  1.
         11    1    5    5    0    0  0.37460924364E+02 -0.23063084216E+03 -0.11366780241E+03  0.25983509292E+03  0.00000000000E+00 0. -1.
        -11    1    5    5    0    0 -0.25065330728E+02 -0.17608736751E+02 -0.22101764889E+02  0.37773356029E+02  0.00000000000E+00 0.  1.
          5    1    6    6  503    0 -0.23012770338E+02  0.67931080998E+01 -0.82360489587E+02  0.85913178042E+02  0.47000000000E+01 0. -1.
         -5    1    6    6    0  503 -0.48197168404E+03 -0.94871086391E+02 -0.81702970541E+03  0.95333984327E+03  0.47000000000E+01 0.  1.
<mgrwt>
<rscale>  0 0.69148534E+03</rscale>
<asrwt>0</asrwt>
<pdfrwt beam="1">  1        2 0.39927416E-01 0.69148534E+03</pdfrwt>
<pdfrwt beam="2">  1       -2 0.31128385E+00 0.69148534E+03</pdfrwt>
<totfact> 0.36744195E+00</totfact>
</mgrwt>
</event>
<event>
12    1  0.3127365E-008  0.1552990E+04  0.7818608E-02  0.8849960E-01
         -2   -1    0    0    0  501 -0.00000000000E+00  0.00000000000E+00  0.17099417019E+04  0.17099417019E+04  0.00000000000E+00 0.  1.
          2   -1    0    0  501    0  0.00000000000E+00 -0.00000000000E+00 -0.23453737677E+04  0.23453737677E+04  0.00000000000E+00 0. -1.
         23    2    1    2    0    0 -0.35115216317E+03 -0.14584315944E+04  0.96113871034E+03  0.17837847552E+04  0.88146894866E+02 0.  0.
    5000000    2    1    2    0    0  0.35115216317E+03  0.14584315944E+04 -0.15965707761E+04  0.22715307144E+04  0.60040235354E+03 0.  0.
         23    2    4    4    0    0 -0.38070540915E+02  0.99060909024E+03 -0.90703120180E+03  0.13466399008E+04  0.89317890902E+02 0.  0.
         23    2    4    4    0    0  0.38922270409E+03  0.46782250417E+03 -0.68953957434E+03  0.92489081364E+03  0.98010120835E+02 0.  0.
          1    1    3    3  502    0 -0.26430711827E+03 -0.97228400371E+03  0.61005890141E+03  0.11778651450E+04  0.00000000000E+00 0. -1.
         -1    1    3    3    0  502 -0.86845044902E+02 -0.48614759069E+03  0.35107980893E+03  0.60591961018E+03  0.00000000000E+00 0.  1.
         11    1    5    5    0    0  0.23264403991E+02  0.32920767169E+03 -0.33105104707E+03  0.46745451047E+03  0.00000000000E+00 0. -1.
        -11    1    5    5    0    0 -0.61334944906E+02  0.66140141855E+03 -0.57598015473E+03  0.87918539033E+03  0.00000000000E+00 0.  1.
          5    1    6    6  503    0  0.20824240946E+03  0.28502789296E+03 -0.46194178549E+03  0.58139324390E+03  0.47000000000E+01 0. -1.
         -5    1    6    6    0  503  0.18098029463E+03  0.18279461121E+03 -0.22759778885E+03  0.34349756974E+03  0.47000000000E+01 0.  1.
<mgrwt>
<rscale>  0 0.15529904E+04</rscale>
<asrwt>0</asrwt>
<pdfrwt beam="1">  1        2 0.36082673E+00 0.15529904E+04</pdfrwt>
<pdfrwt beam="2">  1       -2 0.26306795E+00 0.15529904E+04</pdfrwt>
<totfact> 0.21262498E-01</totfact>
</mgrwt>
</event>
<event>
12    1  0.3127365E-008  0.8296586E+03  0.7818608E-02  0.9518053E-01
          2   -1    0    0  501    0  0.00000000000E+00  0.00000000000E+00  0.17875016557E+04  0.17875016557E+04  0.00000000000E+00 0.  1.
         -2   -1    0    0    0  501 -0.00000000000E+00 -0.00000000000E+00 -0.45321548163E+03  0.45321548163E+03  0.00000000000E+00 0. -1.
         23    2    1    2    0    0 -0.40159053032E+03  0.63790136442E+03  0.91813961360E+03  0.11913757152E+04  0.90568426155E+02 0.  0.
    5000000    2    1    2    0    0  0.40159053032E+03 -0.63790136442E+03  0.41614656045E+03  0.10493414222E+04  0.59978859251E+03 0.  0.
         23    2    4    4    0    0  0.37760642291E+03 -0.69084537883E+03  0.21527802409E+03  0.82125241476E+03  0.90867777683E+02 0.  0.
         23    2    4    4    0    0  0.23984107406E+02  0.52944014404E+02  0.20086853636E+03  0.22808900739E+03  0.91094019164E+02 0.  0.
          1    1    3    3  502    0 -0.20344197328E+03  0.40586978827E+03  0.54067168742E+03  0.70600622880E+03  0.00000000000E+00 0. -1.
         -1    1    3    3    0  502 -0.19814855704E+03  0.23203157615E+03  0.37746792617E+03  0.48536948635E+03  0.00000000000E+00 0.  1.
         13    1    5    5    0    0  0.27101109939E+03 -0.40386619201E+03  0.13552346321E+03  0.50489754022E+03  0.00000000000E+00 0. -1.
        -13    1    5    5    0    0  0.10659532352E+03 -0.28697918681E+03  0.79754560885E+02  0.31635487454E+03  0.00000000000E+00 0.  1.
          5    1    6    6  503    0  0.58621168017E+02  0.32676592495E+02  0.13451351464E+03  0.15040005538E+03  0.47000000000E+01 0. -1.
         -5    1    6    6    0  503 -0.34637060611E+02  0.20267421909E+02  0.66355021716E+02  0.77688952018E+02  0.47000000000E+01 0.  1.
<mgrwt>
<rscale>  0 0.82965864E+03</rscale>
<asrwt>0</asrwt>
<pdfrwt beam="1">  1        2 0.27500025E+00 0.82965864E+03</pdfrwt>
<pdfrwt beam="2">  1       -2 0.69725460E-01 0.82965864E+03</pdfrwt>
<totfact> 0.16757836E+01</totfact>
</mgrwt>
</event>
<event>
12    1  0.3127365E-008  0.1466299E+04  0.7818608E-02  0.8907178E-01
         -2   -1    0    0    0  501 -0.00000000000E+00  0.00000000000E+00  0.13139563059E+04  0.13139563059E+04  0.00000000000E+00 0.  1.
          2   -1    0    0  501    0  0.00000000000E+00 -0.00000000000E+00 -0.16447826722E+04  0.16447826722E+04  0.00000000000E+00 0. -1.
         23    2    1    2    0    0  0.14054973309E+04 -0.54098519962E+02 -0.20825753022E+03  0.14246884431E+04  0.89535266581E+02 0.  0.
    5000000    2    1    2    0    0 -0.14054973309E+04  0.54098519962E+02 -0.12256883612E+03  0.15340505349E+04  0.59994877034E+03 0.  0.
         23    2    4    4    0    0 -0.12825213391E+04  0.21516545635E+03 -0.13733052676E+03  0.13112510655E+04  0.96760137580E+02 0.  0.
         23    2    4    4    0    0 -0.12297599181E+03 -0.16106693638E+03  0.14761690636E+02  0.22279946945E+03  0.91411397111E+02 0.  0.
          3    1    3    3  502    0  0.36223274982E+03  0.24529828376E+02 -0.46266482202E+02  0.36599844931E+03  0.00000000000E+00 0.  1.
         -3    1    3    3    0  502  0.10432645811E+04 -0.78628348338E+02 -0.16199104802E+03  0.10586899938E+04  0.00000000000E+00 0. -1.
         11    1    5    5    0    0 -0.12707458084E+04  0.21812383620E+03 -0.12748192145E+03  0.12956174427E+04  0.00000000000E+00 0.  1.
        -11    1    5    5    0    0 -0.11775530708E+02 -0.29583798532E+01 -0.98486053034E+01  0.15633622780E+02  0.00000000000E+00 0. -1.
          5    1    6    6  503    0  0.61192471576E+01 -0.52594015654E+02 -0.26299591837E+01  0.53222010049E+02  0.47000000000E+01 0. -1.
         -5    1    6    6    0  503 -0.12909523896E+03 -0.10847292073E+03  0.17391649819E+02  0.16957745940E+03  0.47000000000E+01 0.  1.
<mgrwt>
<rscale>  0 0.14662989E+04</rscale>
<asrwt>0</asrwt>
<pdfrwt beam="1">  1        2 0.25304349E+00 0.14662989E+04</pdfrwt>
<pdfrwt beam="2">  1       -2 0.20214712E+00 0.14662989E+04</pdfrwt>
<totfact> 0.12794047E+00</totfact>
</mgrwt>
</event>
<event>
12    1  0.3127365E-008  0.7740591E+03  0.7818608E-02  0.9598344E-01
          1   -1    0    0  501    0  0.00000000000E+00  0.00000000000E+00  0.60741552495E+03  0.60741552495E+03  0.00000000000E+00 0. -1.
         -1   -1    0    0    0  501 -0.00000000000E+00 -0.00000000000E+00 -0.10401278227E+04  0.10401278227E+04  0.00000000000E+00 0.  1.
         23    2    1    2    0    0  0.61749751322E+03 -0.26992518270E+03 -0.26348823571E+03  0.72933752273E+03  0.91347625157E+02 0.  0.
    5000000    2    1    2    0    0 -0.61749751322E+03  0.26992518270E+03 -0.16922406205E+03  0.91820582491E+03  0.60025192264E+03 0.  0.
         23    2    4    4    0    0 -0.59031951048E+03  0.41011172992E+03 -0.86982611381E+02  0.72921470747E+03  0.86714240116E+02 0.  0.
         23    2    4    4    0    0 -0.27178002743E+02 -0.14018654723E+03 -0.82241450666E+02  0.18899111744E+03  0.92536881333E+02 0.  0.
          1    1    3    3  502    0  0.12104456855E+03 -0.93260024607E+02 -0.68705380185E+02  0.16753999233E+03  0.00000000000E+00 0. -1.
         -1    1    3    3    0  502  0.49645294468E+03 -0.17666515809E+03 -0.19478285552E+03  0.56179753040E+03  0.00000000000E+00 0.  1.
         11    1    5    5    0    0 -0.38814295325E+03  0.23216443426E+03 -0.83126062235E+02  0.45985347549E+03  0.00000000000E+00 0.  1.
        -11    1    5    5    0    0 -0.20217655723E+03  0.17794729566E+03 -0.38565491465E+01  0.26936123199E+03  0.00000000000E+00 0. -1.
          5    1    6    6  503    0 -0.30186854653E+02 -0.70400305926E+02 -0.90315980615E+02  0.11851799704E+03  0.47000000000E+01 0. -1.
         -5    1    6    6    0  503  0.30088519103E+01 -0.69786241301E+02  0.80745299492E+01  0.70473120398E+02  0.47000000000E+01 0.  1.
<mgrwt>
<rscale>  0 0.77405909E+03</rscale>
<asrwt>0</asrwt>
<pdfrwt beam="1">  1        1 0.93448543E-01 0.77405909E+03</pdfrwt>
<pdfrwt beam="2">  1       -1 0.16001966E+00 0.77405909E+03</pdfrwt>
<totfact> 0.10097947E+01</totfact>
</mgrwt>
</event>
<event>
12    1  0.3127365E-008  0.8197296E+03  0.7818608E-02  0.9531890E-01
         -1   -1    0    0    0  501 -0.00000000000E+00  0.00000000000E+00  0.10668652776E+04  0.10668652776E+04  0.00000000000E+00 0.  1.
          1   -1    0    0  501    0  0.00000000000E+00 -0.00000000000E+00 -0.84570001390E+03  0.84570001390E+03  0.00000000000E+00 0. -1.
         23    2    1    2    0    0 -0.94748384219E+02 -0.80503546739E+03  0.36499669241E+03  0.89369071894E+03  0.91657817875E+02 0.  0.
    5000000    2    1    2    0    0  0.94748384219E+02  0.80503546739E+03 -0.14383142867E+03  0.10188745726E+04  0.60029872127E+03 0.  0.
         23    2    4    4    0    0  0.72053893301E+02  0.68759019915E+03 -0.33694625196E+03  0.77447542671E+03  0.91144744045E+02 0.  0.
         23    2    4    4    0    0  0.22694490918E+02  0.11744526825E+03  0.19311482329E+03  0.24439914589E+03  0.90161946441E+02 0.  0.
          1    1    3    3  502    0 -0.60695098538E+02 -0.45075017706E+03  0.25362549996E+03  0.52075475162E+03  0.00000000000E+00 0. -1.
         -1    1    3    3    0  502 -0.34053285680E+02 -0.35428529033E+03  0.11137119244E+03  0.37293596732E+03  0.00000000000E+00 0.  1.
         11    1    5    5    0    0  0.85386490260E+01  0.43150114118E+02 -0.48798719420E+02  0.65697457277E+02  0.00000000000E+00 0.  1.
        -11    1    5    5    0    0  0.63515244275E+02  0.64444008503E+03 -0.28814753254E+03  0.70877796944E+03  0.00000000000E+00 0. -1.
          5    1    6    6  503    0 -0.21649985859E+02  0.63091664283E+02  0.45451092545E+02  0.80852778574E+02  0.47000000000E+01 0. -1.
         -5    1    6    6    0  503  0.44344476777E+02  0.54353603963E+02  0.14766373075E+03  0.16354636732E+03  0.47000000000E+01 0.  1.
<mgrwt>
<rscale>  0 0.81972964E+03</rscale>
<asrwt>0</asrwt>
<pdfrwt beam="1">  1        1 0.13010769E+00 0.81972964E+03</pdfrwt>
<pdfrwt beam="2">  1       -1 0.16413312E+00 0.81972964E+03</pdfrwt>
<totfact> 0.56301314E+00</totfact>
</mgrwt>
</event>
<event>
12    1  0.3127365E-008  0.4818858E+03  0.7818608E-02  0.1018618E+00
         -2   -1    0    0    0  501 -0.00000000000E+00  0.00000000000E+00  0.25151986444E+03  0.25151986444E+03  0.00000000000E+00 0. -1.
          2   -1    0    0  501    0  0.00000000000E+00 -0.00000000000E+00 -0.99447180304E+03  0.99447180304E+03  0.00000000000E+00 0.  1.
         23    2    1    2    0    0  0.10321924376E+03 -0.29163052867E+03 -0.28522120715E+03  0.43048342778E+03  0.90897013394E+02 0.  0.
    5000000    2    1    2    0    0 -0.10321924376E+03  0.29163052867E+03 -0.45773073145E+03  0.81550823971E+03  0.59986139148E+03 0.  0.
         23    2    4    4    0    0  0.17447579151E+03  0.30880940656E+03 -0.16346001438E+03  0.40053033031E+03  0.88883731928E+02 0.  0.
         23    2    4    4    0    0 -0.27769503527E+03 -0.17178877884E+02 -0.29427071707E+03  0.41497790939E+03  0.90563590381E+02 0.  0.
          1    1    3    3  502    0  0.55345706439E-01 -0.92466788130E+02 -0.48646322125E+02  0.10448241300E+03  0.00000000000E+00 0. -1.
         -1    1    3    3    0  502  0.10316389805E+03 -0.19916374054E+03 -0.23657488503E+03  0.32600101477E+03  0.00000000000E+00 0.  1.
         11    1    5    5    0    0  0.35138611628E+02  0.13585275543E+03 -0.89511720523E+02  0.16644230621E+03  0.00000000000E+00 0. -1.
        -11    1    5    5    0    0  0.13933717988E+03  0.17295665113E+03 -0.73948293854E+02  0.23408802411E+03  0.00000000000E+00 0.  1.
          5    1    6    6  503    0 -0.62673354133E+02  0.20761742340E+02 -0.11387395619E+03  0.13171320041E+03  0.47000000000E+01 0. -1.
         -5    1    6    6    0  503 -0.21502168113E+03 -0.37940620223E+02 -0.18039676088E+03  0.28326470899E+03  0.47000000000E+01 0.  1.
<mgrwt>
<rscale>  0 0.48188585E+03</rscale>
<asrwt>0</asrwt>
<pdfrwt beam="1">  1        2 0.15299566E+00 0.48188585E+03</pdfrwt>
<pdfrwt beam="2">  1       -2 0.38695364E-01 0.48188585E+03</pdfrwt>
<totfact> 0.16545678E+02</totfact>
</mgrwt>
</event>
<event>
12    1  0.3127365E-008  0.1585588E+04  0.7818608E-02  0.8829451E-01
          2   -1    0    0  501    0  0.00000000000E+00  0.00000000000E+00  0.12499674394E+04  0.12499674394E+04  0.00000000000E+00 0. -1.
         -2   -1    0    0    0  501 -0.00000000000E+00 -0.00000000000E+00 -0.20717233852E+04  0.20717233852E+04  0.00000000000E+00 0.  1.
         23    2    1    2    0    0 -0.15292697411E+04 -0.12828319585E+03 -0.15805360555E+03  0.15453310058E+04  0.89131676621E+02 0.  0.
    5000000    2    1    2    0    0  0.15292697411E+04  0.12828319585E+03 -0.66370234023E+03  0.17763598188E+04  0.59985905852E+03 0.  0.
         23    2    4    4    0    0  0.24807587351E+03 -0.18759747077E+03 -0.16729158296E+03  0.36334993947E+03  0.85453231202E+02 0.  0.
         23    2    4    4    0    0  0.12811938676E+04  0.31588066662E+03 -0.49641075727E+03  0.14130098794E+04  0.94524903077E+02 0.  0.
          1    1    3    3  502    0 -0.18841502491E+03 -0.35640341112E+02  0.21293347130E+01  0.19176806198E+03  0.00000000000E+00 0. -1.
         -1    1    3    3    0  502 -0.13408547162E+04 -0.92642854740E+02 -0.16018294027E+03  0.13535629438E+04  0.00000000000E+00 0.  1.
         13    1    5    5    0    0  0.75385471773E+02 -0.80632253341E+02 -0.10114892756E+03  0.14971851983E+03  0.00000000000E+00 0. -1.
        -13    1    5    5    0    0  0.17269040174E+03 -0.10696521743E+03 -0.66142655398E+02  0.21363141964E+03  0.00000000000E+00 0.  1.
          5    1    6    6  503    0  0.72927373082E+03  0.14035696038E+03 -0.25038379204E+03  0.78374382556E+03  0.47000000000E+01 0. -1.
         -5    1    6    6    0  503  0.55192013680E+03  0.17552370624E+03 -0.24602696524E+03  0.62926605381E+03  0.47000000000E+01 0.  1.
<mgrwt>
<rscale>  0 0.15855876E+04</rscale>
<asrwt>0</asrwt>
<pdfrwt beam="1">  1        2 0.19230268E+00 0.15855876E+04</pdfrwt>
<pdfrwt beam="2">  1       -2 0.31872668E+00 0.15855876E+04</pdfrwt>
<totfact> 0.40375547E-01</totfact>
</mgrwt>
</event>
<event>
12    1  0.3127365E-008  0.5119839E+03  0.7818608E-02  0.1010697E+00
          2   -1    0    0  501    0  0.00000000000E+00  0.00000000000E+00  0.10081717088E+04  0.10081717088E+04  0.00000000000E+00 0. -1.
         -2   -1    0    0    0  501 -0.00000000000E+00 -0.00000000000E+00 -0.34706267730E+03  0.34706267730E+03  0.00000000000E+00 0.  1.
         23    2    1    2    0    0 -0.30482542353E+03 -0.17362774381E+03  0.53921535384E+03  0.64956833976E+03  0.90114915299E+02 0.  0.
    5000000    2    1    2    0    0  0.30482542353E+03  0.17362774381E+03  0.12189367765E+03  0.70566604632E+03  0.60003447237E+03 0.  0.
         23    2    4    4    0    0  0.21522119756E+02  0.33207506367E+03  0.12845270370E+03  0.36841778496E+03  0.92165707456E+02 0.  0.
         23    2    4    4    0    0  0.28330330378E+03 -0.15844731987E+03 -0.65590260463E+01  0.33724826137E+03  0.91252692385E+02 0.  0.
          4    1    3    3  502    0 -0.53933459383E+02 -0.74868299774E+02  0.14910867814E+03  0.17534958867E+03  0.00000000000E+00 0. -1.
         -4    1    3    3    0  502 -0.25089196415E+03 -0.98759444032E+02  0.39010667570E+03  0.47421875109E+03  0.00000000000E+00 0.  1.
         13    1    5    5    0    0  0.29610332396E+02  0.15815944614E+03  0.17246237807E+02  0.16182896807E+03  0.00000000000E+00 0.  1.
        -13    1    5    5    0    0 -0.80882126397E+01  0.17391561753E+03  0.11120646589E+03  0.20658881688E+03  0.00000000000E+00 0. -1.
          5    1    6    6  503    0  0.16038986547E+03 -0.11151022278E+03 -0.44161526955E+02  0.20032915213E+03  0.47000000000E+01 0. -1.
         -5    1    6    6    0  503  0.12291343831E+03 -0.46937097086E+02  0.37602500909E+02  0.13691910923E+03  0.47000000000E+01 0.  1.
<mgrwt>
<rscale>  0 0.51198394E+03</rscale>
<asrwt>0</asrwt>
<pdfrwt beam="1">  1        2 0.15510334E+00 0.51198394E+03</pdfrwt>
<pdfrwt beam="2">  1       -2 0.53394259E-01 0.51198394E+03</pdfrwt>
<totfact> 0.85309567E+01</totfact>
</mgrwt>
</event>
<event>
12    1  0.3127365E-008  0.6349604E+03  0.7818608E-02  0.9835416E-01
         -2   -1    0    0    0  501 -0.00000000000E+00  0.00000000000E+00  0.28273181598E+03  0.28273181598E+03  0.00000000000E+00 0.  1.
          2   -1    0    0  501    0  0.00000000000E+00 -0.00000000000E+00 -0.18598469280E+04  0.18598469280E+04  0.00000000000E+00 0. -1.
         23    2    1    2    0    0  0.54937051416E+03  0.23263282260E+03 -0.69085140820E+03  0.91734999923E+03  0.91265332348E+02 0.  0.
    5000000    2    1    2    0    0 -0.54937051416E+03 -0.23263282260E+03 -0.88626370378E+03  0.12252287447E+04  0.59983008616E+03 0.  0.
         23    2    4    4    0    0 -0.53164006712E+03 -0.22067778434E+03 -0.95075164159E+03  0.11156540130E+04  0.97032711878E+02 0.  0.
         23    2    4    4    0    0 -0.17730447048E+02 -0.11955038259E+02  0.64487937816E+02  0.10957473176E+03  0.85968808432E+02 0.  0.
          4    1    3    3  502    0  0.22469117953E+03  0.59982988785E+02 -0.22217340220E+03  0.32162883227E+03  0.00000000000E+00 0.  1.
         -4    1    3    3    0  502  0.32467933464E+03  0.17264983382E+03 -0.46867800600E+03  0.59572116696E+03  0.00000000000E+00 0. -1.
         13    1    5    5    0    0 -0.23274467687E+03 -0.14061440533E+03 -0.49523504967E+03  0.56497809694E+03  0.00000000000E+00 0. -1.
        -13    1    5    5    0    0 -0.29889539025E+03 -0.80063379015E+02 -0.45551659192E+03  0.55067591602E+03  0.00000000000E+00 0.  1.
          5    1    6    6  503    0 -0.40700737129E+02 -0.36109876899E+02  0.44312810582E+02  0.70329143277E+02  0.47000000000E+01 0. -1.
         -5    1    6    6    0  503  0.22970290080E+02  0.24154838639E+02  0.20175127235E+02  0.39245588478E+02  0.47000000000E+01 0.  1.
<mgrwt>
<rscale>  0 0.63496044E+03</rscale>
<asrwt>0</asrwt>
<pdfrwt beam="1">  1        2 0.28613029E+00 0.63496044E+03</pdfrwt>
<pdfrwt beam="2">  1       -2 0.43497204E-01 0.63496044E+03</pdfrwt>
<totfact> 0.41821634E+01</totfact>
</mgrwt>
</event>
<event>
12    1  0.3127365E-008  0.6151302E+03  0.7818608E-02  0.9874504E-01
         -2   -1    0    0    0  501 -0.00000000000E+00  0.00000000000E+00  0.14944493888E+03  0.14944493888E+03  0.00000000000E+00 0.  1.
          2   -1    0    0  501    0  0.00000000000E+00 -0.00000000000E+00 -0.39848100666E+04  0.39848100666E+04  0.00000000000E+00 0. -1.
         23    2    1    2    0    0 -0.25844638952E+03 -0.45332407946E+03 -0.26789675960E+04  0.27308623536E+04  0.91894268585E+02 0.  0.
    5000000    2    1    2    0    0  0.25844638952E+03  0.45332407946E+03 -0.11563975317E+04  0.14033926518E+04  0.59996535457E+03 0.  0.
         23    2    4    4    0    0  0.70993736171E+02 -0.84567572103E+02 -0.43892720906E+02  0.15008996181E+03  0.91698641540E+02 0.  0.
         23    2    4    4    0    0  0.18745265335E+03  0.53789165156E+03 -0.11125048108E+04  0.12533026900E+04  0.92923370413E+02 0.  0.
          3    1    3    3  502    0 -0.47998953873E+02 -0.79997618504E+02 -0.32166501779E+03  0.33492074019E+03  0.00000000000E+00 0. -1.
         -3    1    3    3    0  502 -0.21044743565E+03 -0.37332646095E+03 -0.23573025782E+04  0.23959416134E+04  0.00000000000E+00 0.  1.
         11    1    5    5    0    0  0.57457581734E+02 -0.99142430508E+02 -0.55219728957E+02  0.12719989659E+03  0.00000000000E+00 0.  1.
        -11    1    5    5    0    0  0.13536154437E+02  0.14574858404E+02  0.11327008052E+02  0.22890065222E+02  0.00000000000E+00 0. -1.
          5    1    6    6  503    0  0.31023778243E+02  0.33864619899E+02 -0.58264813469E+02  0.74338185248E+02  0.47000000000E+01 0.  1.
         -5    1    6    6    0  503  0.15642887511E+03  0.50402703166E+03 -0.10542399973E+04  0.11789645048E+04  0.47000000000E+01 0.  1.
<mgrwt>
<rscale>  0 0.61513022E+03</rscale>
<asrwt>0</asrwt>
<pdfrwt beam="1">  1        2 0.61304768E+00 0.61513022E+03</pdfrwt>
<pdfrwt beam="2">  1       -2 0.22991530E-01 0.61513022E+03</pdfrwt>
<totfact> 0.66748738E+00</totfact>
</mgrwt>
</event>
<event>
12    1  0.3127365E-008  0.4738451E+03  0.7818608E-02  0.1020841E+00
          2   -1    0    0  501    0  0.00000000000E+00  0.00000000000E+00  0.13190441511E+04  0.13190441511E+04  0.00000000000E+00 0. -1.
         -2   -1    0    0    0  501 -0.00000000000E+00 -0.00000000000E+00 -0.29933855421E+03  0.29933855421E+03  0.00000000000E+00 0.  1.
         23    2    1    2    0    0 -0.24990942301E+03  0.15680364060E+03 -0.91778702400E+02  0.32122400080E+03  0.87860270102E+02 0.  0.
    5000000    2    1    2    0    0  0.24990942301E+03 -0.15680364060E+03  0.11114842993E+04  0.12971587045E+04  0.60015102739E+03 0.  0.
         23    2    4    4    0    0  0.28621261290E+03  0.14947160990E+03  0.68763858051E+03  0.76494646374E+03  0.89648497078E+02 0.  0.
         23    2    4    4    0    0 -0.36303189889E+02 -0.30627525050E+03  0.42384571878E+03  0.53221224076E+03  0.92098996860E+02 0.  0.
          1    1    3    3  502    0 -0.93657141664E+02  0.96563959039E+02 -0.72053864158E+02  0.15260412088E+03  0.00000000000E+00 0. -1.
         -1    1    3    3    0  502 -0.15625228135E+03  0.60239681560E+02 -0.19724838243E+02  0.16861987992E+03  0.00000000000E+00 0.  1.
         13    1    5    5    0    0  0.23541476214E+03  0.79819495999E+02  0.52486522266E+03  0.58075361741E+03  0.00000000000E+00 0.  1.
        -13    1    5    5    0    0  0.50797850765E+02  0.69652113906E+02  0.16277335785E+03  0.18419284633E+03  0.00000000000E+00 0. -1.
          5    1    6    6  503    0 -0.34476716284E+02 -0.13013494017E+03  0.11725754006E+03  0.17859218158E+03  0.47000000000E+01 0. -1.
         -5    1    6    6    0  503 -0.18264736051E+01 -0.17614031034E+03  0.30658817872E+03  0.35362005919E+03  0.47000000000E+01 0.  1.
<mgrwt>
<rscale>  0 0.47384505E+03</rscale>
<asrwt>0</asrwt>
<pdfrwt beam="1">  1        2 0.20292987E+00 0.47384505E+03</pdfrwt>
<pdfrwt beam="2">  1       -2 0.46052086E-01 0.47384505E+03</pdfrwt>
<totfact> 0.75656423E+01</totfact>
</mgrwt>
</event>
<event>
12    1  0.3127365E-008  0.1290107E+04  0.7818608E-02  0.9037447E-01
          1   -1    0    0  501    0  0.00000000000E+00  0.00000000000E+00  0.13730629621E+04  0.13730629621E+04  0.00000000000E+00 0. -1.
         -1   -1    0    0    0  501 -0.00000000000E+00 -0.00000000000E+00 -0.13850975295E+04  0.13850975295E+04  0.00000000000E+00 0.  1.
         23    2    1    2    0    0 -0.12829018283E+04  0.72592726713E+02 -0.27093981630E+03  0.13163918619E+04  0.91500518553E+02 0.  0.
    5000000    2    1    2    0    0  0.12829018283E+04 -0.72592726713E+02  0.25890524893E+03  0.14417686296E+04  0.60046486023E+03 0.  0.
         23    2    4    4    0    0  0.73016882341E+03 -0.18577421063E+02 -0.14356736662E+03  0.74966693505E+03  0.88866717605E+02 0.  0.
         23    2    4    4    0    0  0.55273300493E+03 -0.54015305650E+02  0.40247261556E+03  0.69210169460E+03  0.92677512934E+02 0.  0.
          4    1    3    3  502    0 -0.44394453412E+03 -0.14869024973E+02 -0.11110684716E+03  0.45787833402E+03  0.00000000000E+00 0.  1.
         -4    1    3    3    0  502 -0.83895729421E+03  0.87461751685E+02 -0.15983296913E+03  0.85851352788E+03  0.00000000000E+00 0. -1.
         11    1    5    5    0    0  0.47091739803E+03  0.30193636596E+02 -0.98240973830E+02  0.48200222032E+03  0.00000000000E+00 0.  1.
        -11    1    5    5    0    0  0.25925142538E+03 -0.48771057659E+02 -0.45326392791E+02  0.26766471472E+03  0.00000000000E+00 0. -1.
          5    1    6    6  503    0  0.12091477821E+03  0.42276883066E+01  0.13252028176E+03  0.17950479663E+03  0.47000000000E+01 0. -1.
         -5    1    6    6    0  503  0.43181822673E+03 -0.58242993957E+02  0.26995233380E+03  0.51259689796E+03  0.47000000000E+01 0.  1.
<mgrwt>
<rscale>  0 0.12901072E+04</rscale>
<asrwt>0</asrwt>
<pdfrwt beam="1">  1        1 0.21124046E+00 0.12901072E+04</pdfrwt>
<pdfrwt beam="2">  1       -1 0.21309193E+00 0.12901072E+04</pdfrwt>
<totfact> 0.95312315E-01</totfact>
</mgrwt>
</event>
<event>
12    1  0.3127365E-008  0.1818721E+04  0.7818608E-02  0.8696407E-01
         -2   -1    0    0    0  501 -0.00000000000E+00  0.00000000000E+00  0.24500686891E+04  0.24500686891E+04  0.00000000000E+00 0. -1.
          2   -1    0    0  501    0  0.00000000000E+00 -0.00000000000E+00 -0.14090954806E+04  0.14090954806E+04  0.00000000000E+00 0.  1.
         23    2    1    2    0    0 -0.61900589344E+03  0.16692465100E+04  0.83677332966E+03  0.19693653968E+04  0.93049736132E+02 0.  0.
    5000000    2    1    2    0    0  0.61900589344E+03 -0.16692465100E+04  0.20419987888E+03  0.18897987729E+04  0.60007466546E+03 0.  0.
         23    2    4    4    0    0  0.10185985247E+03 -0.10016160446E+04 -0.19795481723E+02  0.10109615813E+04  0.89673449485E+02 0.  0.
         23    2    4    4    0    0  0.51714604097E+03 -0.66763046547E+03  0.22399536060E+03  0.87883719157E+03  0.94923240555E+02 0.  0.
          3    1    3    3  502    0 -0.45763397851E+03  0.12219039263E+04  0.56747752789E+03  0.14228523493E+04  0.00000000000E+00 0. -1.
         -3    1    3    3    0  502 -0.16137191493E+03  0.44734258376E+03  0.26929580177E+03  0.54651304745E+03  0.00000000000E+00 0.  1.
         11    1    5    5    0    0  0.55846140105E+02 -0.23494755759E+03 -0.25993840904E+02  0.24288850517E+03  0.00000000000E+00 0.  1.
        -11    1    5    5    0    0  0.46013712361E+02 -0.76666848698E+03  0.61983591810E+01  0.76807307615E+03  0.00000000000E+00 0. -1.
          5    1    6    6  503    0  0.42447882701E+03 -0.58835815489E+03  0.21386884517E+03  0.75637924743E+03  0.47000000000E+01 0. -1.
         -5    1    6    6    0  503  0.92667213967E+02 -0.79272310575E+02  0.10126515432E+02  0.12245794414E+03  0.47000000000E+01 0.  1.
<mgrwt>
<rscale>  0 0.18187215E+04</rscale>
<asrwt>0</asrwt>
<pdfrwt beam="1">  1        2 0.21678392E+00 0.18187215E+04</pdfrwt>
<pdfrwt beam="2">  1       -2 0.37693364E+00 0.18187215E+04</pdfrwt>
<totfact> 0.13662799E-01</totfact>
</mgrwt>
</event>
<event>
12    1  0.3127365E-008  0.1352363E+04  0.7818608E-02  0.8989041E-01
          1   -1    0    0  501    0  0.00000000000E+00  0.00000000000E+00  0.21399530426E+04  0.21399530426E+04  0.00000000000E+00 0. -1.
         -1   -1    0    0    0  501 -0.00000000000E+00 -0.00000000000E+00 -0.90172119106E+03  0.90172119106E+03  0.00000000000E+00 0.  1.
         23    2    1    2    0    0 -0.11830201882E+04  0.57686722797E+03  0.44766854574E+03  0.13932099949E+04  0.91183324089E+02 0.  0.
    5000000    2    1    2    0    0  0.11830201882E+04 -0.57686722797E+03  0.79056330583E+03  0.16484642388E+04  0.60010952460E+03 0.  0.
         23    2    4    4    0    0  0.20141747549E+02 -0.12280859750E+03  0.22971655313E+03  0.27662941411E+03  0.90920274695E+02 0.  0.
         23    2    4    4    0    0  0.11628784407E+04 -0.45405863047E+03  0.56084675269E+03  0.13718348247E+04  0.94478560749E+02 0.  0.
          4    1    3    3  502    0 -0.29967949289E+03  0.16851150432E+03  0.15383638447E+03  0.37665575627E+03  0.00000000000E+00 0. -1.
         -4    1    3    3    0  502 -0.88334069535E+03  0.40835572365E+03  0.29383216127E+03  0.10165542386E+04  0.00000000000E+00 0.  1.
         11    1    5    5    0    0  0.15753643997E+02 -0.12995547742E+03  0.16146368960E+03  0.20786323982E+03  0.00000000000E+00 0.  1.
        -11    1    5    5    0    0  0.43881035519E+01  0.71468799142E+01  0.68252863534E+02  0.68766174285E+02  0.00000000000E+00 0. -1.
          5    1    6    6  503    0  0.14572763037E+03 -0.57344679411E+02  0.37527884319E+02  0.16110675532E+03  0.47000000000E+01 0. -1.
         -5    1    6    6    0  503  0.10171508103E+04 -0.39671395106E+03  0.52331886837E+03  0.12107280693E+04  0.47000000000E+01 0.  1.
<mgrwt>
<rscale>  0 0.13523631E+04</rscale>
<asrwt>0</asrwt>
<pdfrwt beam="1">  1        1 0.32922355E+00 0.13523631E+04</pdfrwt>
<pdfrwt beam="2">  1       -1 0.13872634E+00 0.13523631E+04</pdfrwt>
<totfact> 0.99303791E-01</totfact>
</mgrwt>
</event>
<event>
12    1  0.3127365E-008  0.5989086E+03  0.7818608E-02  0.9907673E-01
          1   -1    0    0  501    0  0.00000000000E+00  0.00000000000E+00  0.10775645469E+04  0.10775645469E+04  0.00000000000E+00 0. -1.
         -1   -1    0    0    0  501 -0.00000000000E+00 -0.00000000000E+00 -0.50635865720E+03  0.50635865720E+03  0.00000000000E+00 0.  1.
         23    2    1    2    0    0  0.45440646993E+03 -0.33749724377E+03 -0.12786625025E+02  0.57332397694E+03  0.90262147637E+02 0.  0.
    5000000    2    1    2    0    0 -0.45440646993E+03  0.33749724377E+03  0.58399251474E+03  0.10105992272E+04  0.59989491682E+03 0.  0.
         23    2    4    4    0    0 -0.15036790595E+03  0.93975915800E+01 -0.89970568445E+02  0.19658795473E+03  0.88618840493E+02 0.  0.
         23    2    4    4    0    0 -0.30403856398E+03  0.32809965219E+03  0.67396308318E+03  0.81401127244E+03  0.91100406233E+02 0.  0.
          1    1    3    3  502    0  0.38268133524E+02 -0.58525334676E+02  0.15156470227E+02  0.71549866751E+02  0.00000000000E+00 0. -1.
         -1    1    3    3    0  502  0.41613833641E+03 -0.27897190909E+03 -0.27943095252E+02  0.50177411019E+03  0.00000000000E+00 0.  1.
         13    1    5    5    0    0  0.11588675942E+02 -0.40011500393E+01 -0.55275828284E+01  0.13448449117E+02  0.00000000000E+00 0.  1.
        -13    1    5    5    0    0 -0.16195658190E+03  0.13398741619E+02 -0.84442985616E+02  0.18313950561E+03  0.00000000000E+00 0. -1.
          5    1    6    6  503    0 -0.20547051294E+03  0.26352998172E+03  0.44562782645E+03  0.55702103431E+03  0.47000000000E+01 0. -1.
         -5    1    6    6    0  503 -0.98568051036E+02  0.64569670471E+02  0.22833525673E+03  0.25699023813E+03  0.47000000000E+01 0.  1.
<mgrwt>
<rscale>  0 0.59890865E+03</rscale>
<asrwt>0</asrwt>
<pdfrwt beam="1">  1        1 0.16577916E+00 0.59890865E+03</pdfrwt>
<pdfrwt beam="2">  1       -1 0.77901332E-01 0.59890865E+03</pdfrwt>
<totfact> 0.22858171E+01</totfact>
</mgrwt>
</event>
<event>
12    1  0.3127365E-008  0.1440341E+04  0.7818608E-02  0.8925125E-01
          2   -1    0    0  501    0  0.00000000000E+00  0.00000000000E+00  0.12695985031E+04  0.12695985031E+04  0.00000000000E+00 0. -1.
         -2   -1    0    0    0  501 -0.00000000000E+00 -0.00000000000E+00 -0.17219757511E+04  0.17219757511E+04  0.00000000000E+00 0.  1.
         23    2    1    2    0    0  0.12736003093E+04 -0.61932834015E+03 -0.20819303581E+03  0.14343078547E+04  0.90935918253E+02 0.  0.
    5000000    2    1    2    0    0 -0.12736003093E+04  0.61932834015E+03 -0.24418421210E+03  0.15572663995E+04  0.59985612342E+03 0.  0.
         23    2    4    4    0    0 -0.25159070121E+03  0.14589357959E+01 -0.24025732717E+03  0.35913293688E+03  0.89178885753E+02 0.  0.
         23    2    4    4    0    0 -0.10220096081E+04  0.61786940435E+03 -0.39268849307E+01  0.11981334626E+04  0.96136018009E+02 0.  0.
          4    1    3    3  502    0  0.58484820638E+03 -0.28673392647E+03 -0.14154660748E+03  0.66655773282E+03  0.00000000000E+00 0. -1.
         -4    1    3    3    0  502  0.68875210291E+03 -0.33259441367E+03 -0.66646428336E+02  0.76775012190E+03  0.00000000000E+00 0.  1.
         13    1    5    5    0    0 -0.11599720731E+03 -0.43101196165E+02 -0.10110542721E+03  0.15979791183E+03  0.00000000000E+00 0.  1.
        -13    1    5    5    0    0 -0.13559349390E+03  0.44560131961E+02 -0.13915189996E+03  0.19933502505E+03  0.00000000000E+00 0. -1.
          5    1    6    6  503    0 -0.10698057727E+03  0.10032640305E+03 -0.61890774317E+01  0.14686941731E+03  0.47000000000E+01 0. -1.
         -5    1    6    6    0  503 -0.91502903080E+03  0.51754300130E+03  0.22621925010E+01  0.10512640453E+04  0.47000000000E+01 0.  1.
<mgrwt>
<rscale>  0 0.14403408E+04</rscale>
<asrwt>0</asrwt>
<pdfrwt beam="1">  1        2 0.19532285E+00 0.14403408E+04</pdfrwt>
<pdfrwt beam="2">  1       -2 0.26491934E+00 0.14403408E+04</pdfrwt>
<totfact> 0.85046802E-01</totfact>
</mgrwt>
</event>
<event>
12    1  0.3127365E-008  0.1395949E+04  0.7818608E-02  0.8956756E-01
          2   -1    0    0  501    0  0.00000000000E+00  0.00000000000E+00  0.12516738412E+04  0.12516738412E+04  0.00000000000E+00 0. -1.
         -2   -1    0    0    0  501 -0.00000000000E+00 -0.00000000000E+00 -0.17416114593E+04  0.17416114593E+04  0.00000000000E+00 0.  1.
         23    2    1    2    0    0 -0.67066449529E+03 -0.11980500959E+04  0.10737260111E+03  0.13802656953E+04  0.92139116681E+02 0.  0.
    5000000    2    1    2    0    0  0.67066449529E+03  0.11980500959E+04 -0.59731021922E+03  0.16130196051E+04  0.59994820703E+03 0.  0.
         23    2    4    4    0    0  0.38356413661E+02  0.32670976334E+03 -0.37959489400E+03  0.51059514984E+03  0.91676821251E+02 0.  0.
         23    2    4    4    0    0  0.63230808163E+03  0.87134033252E+03 -0.21771532522E+03  0.11024244553E+04  0.94298630019E+02 0.  0.
          3    1    3    3  502    0 -0.53213561903E+03 -0.88035738750E+03  0.10089579831E+03  0.10336234367E+04  0.00000000000E+00 0. -1.
         -3    1    3    3    0  502 -0.13852887626E+03 -0.31769270835E+03  0.64768028056E+01  0.34664225864E+03  0.00000000000E+00 0.  1.
         11    1    5    5    0    0  0.25755522534E+02  0.32524456574E+02 -0.82269543228E+02  0.92138292579E+02  0.00000000000E+00 0.  1.
        -11    1    5    5    0    0  0.12600891127E+02  0.29418530676E+03 -0.29732535078E+03  0.41845685726E+03  0.00000000000E+00 0. -1.
          5    1    6    6  503    0  0.13717103514E+03  0.25969972058E+03 -0.55723327933E+02  0.29897661618E+03  0.47000000000E+01 0. -1.
         -5    1    6    6    0  503  0.49513704649E+03  0.61164061194E+03 -0.16199199729E+03  0.80344783911E+03  0.47000000000E+01 0.  1.
<mgrwt>
<rscale>  0 0.13959485E+04</rscale>
<asrwt>0</asrwt>
<pdfrwt beam="1">  1        2 0.19256521E+00 0.13959485E+04</pdfrwt>
<pdfrwt beam="2">  1       -2 0.26794023E+00 0.13959485E+04</pdfrwt>
<totfact> 0.83906933E-01</totfact>
</mgrwt>
</event>
<event>
12    1  0.3127365E-008  0.7420685E+03  0.7818608E-02  0.9647876E-01
          1   -1    0    0  501    0  0.00000000000E+00  0.00000000000E+00  0.95880283670E+03  0.95880283670E+03  0.00000000000E+00 0. -1.
         -1   -1    0    0    0  501 -0.00000000000E+00 -0.00000000000E+00 -0.76797909531E+03  0.76797909531E+03  0.00000000000E+00 0.  1.
         23    2    1    2    0    0  0.94811573073E+02 -0.62023365115E+03  0.49846229329E+03  0.80568304415E+03  0.83555331251E+02 0.  0.
    5000000    2    1    2    0    0 -0.94811573073E+02  0.62023365115E+03 -0.30763855190E+03  0.92109888786E+03  0.60008554906E+03 0.  0.
         23    2    4    4    0    0  0.51503923965E+02 -0.87998656418E+02 -0.81729544549E+02  0.15873672814E+03  0.90117771248E+02 0.  0.
         23    2    4    4    0    0 -0.14631549704E+03  0.70823230757E+03 -0.22590900736E+03  0.76236215971E+03  0.84616527953E+02 0.  0.
          3    1    3    3  502    0  0.41840975041E+02 -0.16459054659E+03  0.93900657072E+02  0.19405681802E+03  0.00000000000E+00 0. -1.
         -3    1    3    3    0  502  0.52970598032E+02 -0.45564310456E+03  0.40456163622E+03  0.61162622613E+03  0.00000000000E+00 0.  1.
         13    1    5    5    0    0 -0.89136102383E+01 -0.62662592393E+02 -0.65827004012E+02  0.91319479795E+02  0.00000000000E+00 0.  1.
        -13    1    5    5    0    0  0.60417534203E+02 -0.25336064025E+02 -0.15902540537E+02  0.67417248349E+02  0.00000000000E+00 0. -1.
          5    1    6    6  503    0 -0.89592399788E+02  0.57431824497E+03 -0.16198202784E+03  0.60343061900E+03  0.47000000000E+01 0. -1.
         -5    1    6    6    0  503 -0.56723097250E+02  0.13391406260E+03 -0.63926979520E+02  0.15893154071E+03  0.47000000000E+01 0.  1.
<mgrwt>
<rscale>  0 0.74206846E+03</rscale>
<asrwt>0</asrwt>
<pdfrwt beam="1">  1        1 0.14750813E+00 0.74206846E+03</pdfrwt>
<pdfrwt beam="2">  1       -1 0.11815063E+00 0.74206846E+03</pdfrwt>
<totfact> 0.10832386E+01</totfact>
</mgrwt>
</event>
<event>
12    1  0.4075858E-008  0.6045522E+03  0.7818608E-02  0.9896006E-01
         -2   -1    0    0    0  501 -0.00000000000E+00  0.00000000000E+00  0.29352135409E+03  0.29352135409E+03  0.00000000000E+00 0.  1.
          2   -1    0    0  501    0  0.00000000000E+00 -0.00000000000E+00 -0.12980014011E+04  0.12980014011E+04  0.00000000000E+00 0. -1.
         23    2    1    2    0    0  0.26095009910E+03 -0.38491938691E+03 -0.34905570089E+03  0.58860769152E+03  0.91439835654E+02 0.  0.
    5000000    2    1    2    0    0 -0.26095009910E+03  0.38491938691E+03 -0.65542434614E+03  0.10029150637E+04  0.59999971904E+03 0.  0.
         23    2    4    4    0    0 -0.11912945066E+02  0.46976945761E+03 -0.45422396319E+03  0.65997511875E+03  0.91774108926E+02 0.  0.
         23    2    4    4    0    0 -0.24903715403E+03 -0.84850070698E+02 -0.20120038295E+03  0.34293994495E+03  0.88922287181E+02 0.  0.
          4    1    3    3  502    0  0.60032370449E+02 -0.16601286449E+03 -0.13980752510E+03  0.22518947744E+03  0.00000000000E+00 0. -1.
         -4    1    3    3    0  502  0.20091772865E+03 -0.21890652242E+03 -0.20924817580E+03  0.36341821407E+03  0.00000000000E+00 0.  1.
         11    1    5    5    0    0  0.19043666142E+01  0.15944298427E+03 -0.21615667126E+03  0.26860640047E+03  0.00000000000E+00 0.  1.
        -11    1    5    5    0    0 -0.13817311680E+02  0.31032647334E+03 -0.23806729193E+03  0.39136871828E+03  0.00000000000E+00 0. -1.
          5    1    6    6  503    0 -0.13838625259E+03 -0.29651383966E+02 -0.56288124371E+02  0.15238242163E+03  0.47000000000E+01 0. -1.
         -5    1    6    6    0  503 -0.11065090144E+03 -0.55198686731E+02 -0.14491225858E+03  0.19055752332E+03  0.47000000000E+01 0.  1.
<mgrwt>
<rscale>  0 0.60455218E+03</rscale>
<asrwt>0</asrwt>
<pdfrwt beam="1">  1        2 0.19969252E+00 0.60455218E+03</pdfrwt>
<pdfrwt beam="2">  1       -2 0.45157132E-01 0.60455218E+03</pdfrwt>
<totfact> 0.79549747E+01</totfact>
</mgrwt>
</event>
<event>
12    1  0.3127365E-008  0.1069506E+04  0.7818608E-02  0.9235433E-01
          2   -1    0    0  501    0  0.00000000000E+00  0.00000000000E+00  0.15630989595E+04  0.15630989595E+04  0.00000000000E+00 0. -1.
         -2   -1    0    0    0  501 -0.00000000000E+00 -0.00000000000E+00 -0.84152617439E+03  0.84152617439E+03  0.00000000000E+00 0.  1.
         23    2    1    2    0    0  0.91410768257E+03 -0.40436291082E+03  0.72609174327E+03  0.12387918679E+04  0.91070595670E+02 0.  0.
    5000000    2    1    2    0    0 -0.91410768257E+03  0.40436291082E+03 -0.45189581128E+01  0.11658332660E+04  0.60003713568E+03 0.  0.
         23    2    4    4    0    0 -0.31479158150E+03  0.42551981733E+03  0.11070503079E+03  0.54847399608E+03  0.91691143564E+02 0.  0.
         23    2    4    4    0    0 -0.59931610107E+03 -0.21156906510E+02 -0.11522398890E+03  0.61735926994E+03  0.90711062567E+02 0.  0.
          3    1    3    3  502    0  0.33882292741E+03 -0.14555247989E+03  0.21461331971E+03  0.42666776014E+03  0.00000000000E+00 0. -1.
         -3    1    3    3    0  502  0.57528475516E+03 -0.25881043093E+03  0.51147842356E+03  0.81212410778E+03  0.00000000000E+00 0.  1.
         13    1    5    5    0    0 -0.53025680300E+02  0.12287201207E+03  0.54086275202E+02  0.14434188335E+03  0.00000000000E+00 0.  1.
        -13    1    5    5    0    0 -0.26176590120E+03  0.30264780526E+03  0.56618755584E+02  0.40413211273E+03  0.00000000000E+00 0. -1.
          5    1    6    6  503    0 -0.57426892055E+03 -0.32281646090E+01 -0.10101575516E+03  0.58311361410E+03  0.47000000000E+01 0. -1.
         -5    1    6    6    0  503 -0.25047180512E+02 -0.17928741901E+02 -0.14208233737E+02  0.34245655836E+02  0.47000000000E+01 0.  1.
<mgrwt>
<rscale>  0 0.10695064E+04</rscale>
<asrwt>0</asrwt>
<pdfrwt beam="1">  1        2 0.24047676E+00 0.10695064E+04</pdfrwt>
<pdfrwt beam="2">  1       -2 0.12946557E+00 0.10695064E+04</pdfrwt>
<totfact> 0.50634912E+00</totfact>
</mgrwt>
</event>
<event>
12    1  0.3127365E-008  0.6102144E+03  0.7818608E-02  0.9884438E-01
          1   -1    0    0  501    0  0.00000000000E+00  0.00000000000E+00  0.10911230011E+04  0.10911230011E+04  0.00000000000E+00 0. -1.
         -1   -1    0    0    0  501 -0.00000000000E+00 -0.00000000000E+00 -0.42755102659E+03  0.42755102659E+03  0.00000000000E+00 0.  1.
         23    2    1    2    0    0 -0.40783048365E+03 -0.32832325134E+03  0.44866284767E+03  0.69382665162E+03  0.77299488016E+02 0.  0.
    5000000    2    1    2    0    0  0.40783048365E+03  0.32832325134E+03  0.21490912684E+03  0.82484737607E+03  0.60005449773E+03 0.  0.
         23    2    4    4    0    0 -0.19870735010E+02 -0.87676304762E+02  0.17936449037E+03  0.21960444201E+03  0.89288913190E+02 0.  0.
         23    2    4    4    0    0  0.42770121866E+03  0.41599955611E+03  0.35544636463E+02  0.60524293406E+03  0.95245078204E+02 0.  0.
          1    1    3    3  502    0 -0.11459571541E+03 -0.13858377282E+03  0.16029965217E+03  0.24090167821E+03  0.00000000000E+00 0. -1.
         -1    1    3    3    0  502 -0.29323476825E+03 -0.18973947853E+03  0.28836319550E+03  0.45292497341E+03  0.00000000000E+00 0.  1.
         13    1    5    5    0    0 -0.18871972682E+02 -0.81140942969E+02  0.66626688249E+02  0.10667295611E+03  0.00000000000E+00 0.  1.
        -13    1    5    5    0    0 -0.99876232810E+00 -0.65353617930E+01  0.11273780212E+03  0.11293148590E+03  0.00000000000E+00 0. -1.
          5    1    6    6  503    0  0.72897505085E+02  0.11435135355E+03  0.32404369162E+02  0.13950774690E+03  0.47000000000E+01 0. -1.
         -5    1    6    6    0  503  0.35480371358E+03  0.30164820256E+03  0.31402673016E+01  0.46573518716E+03  0.47000000000E+01 0.  1.
<mgrwt>
<rscale>  0 0.61021439E+03</rscale>
<asrwt>0</asrwt>
<pdfrwt beam="1">  1        1 0.16786508E+00 0.61021439E+03</pdfrwt>
<pdfrwt beam="2">  1       -1 0.65777082E-01 0.61021439E+03</pdfrwt>
<totfact> 0.31542435E+01</totfact>
</mgrwt>
</event>
<event>
12    1  0.3127365E-008  0.9001145E+03  0.7818608E-02  0.9425438E-01
         -1   -1    0    0    0  501 -0.00000000000E+00  0.00000000000E+00  0.56558887579E+03  0.56558887579E+03  0.00000000000E+00 0.  1.
          1   -1    0    0  501    0  0.00000000000E+00 -0.00000000000E+00 -0.15719018650E+04  0.15719018650E+04  0.00000000000E+00 0. -1.
         23    2    1    2    0    0 -0.32750801660E+03  0.76717229228E+03 -0.60507970659E+03  0.10344068700E+04  0.89784710872E+02 0.  0.
    5000000    2    1    2    0    0  0.32750801660E+03 -0.76717229228E+03 -0.40123328259E+03  0.11030838708E+04  0.59999254327E+03 0.  0.
         23    2    4    4    0    0 -0.60451569553E+02 -0.43624219275E+03 -0.20711992158E+01  0.44978826820E+03  0.91343053092E+02 0.  0.
         23    2    4    4    0    0  0.38795958616E+03 -0.33093009953E+03 -0.39916208338E+03  0.65329560260E+03  0.86240386723E+02 0.  0.
          4    1    3    3  502    0 -0.18647709690E+03  0.43150310737E+03 -0.28569198535E+03  0.55008049396E+03  0.00000000000E+00 0. -1.
         -4    1    3    3    0  502 -0.14103091970E+03  0.33566918491E+03 -0.31938772124E+03  0.48432637600E+03  0.00000000000E+00 0.  1.
         11    1    5    5    0    0 -0.84602581702E+02 -0.33351299591E+03  0.37678985541E+01  0.34409695194E+03  0.00000000000E+00 0. -1.
        -11    1    5    5    0    0  0.24151012149E+02 -0.10272919684E+03 -0.58390977699E+01  0.10569131626E+03  0.00000000000E+00 0.  1.
          5    1    6    6  503    0  0.15001022320E+03 -0.77936319963E+02 -0.11479959533E+03  0.20439709910E+03  0.47000000000E+01 0. -1.
         -5    1    6    6    0  503  0.23794936295E+03 -0.25299377956E+03 -0.28436248805E+03  0.44889850349E+03  0.47000000000E+01 0.  1.
<mgrwt>
<rscale>  0 0.90011451E+03</rscale>
<asrwt>0</asrwt>
<pdfrwt beam="1">  1        1 0.24183106E+00 0.90011451E+03</pdfrwt>
<pdfrwt beam="2">  1       -1 0.87013673E-01 0.90011451E+03</pdfrwt>
<totfact> 0.77324181E+00</totfact>
</mgrwt>
</event>
<event>
12    1  0.3127365E-008  0.5123171E+03  0.7818608E-02  0.1010613E+00
          2   -1    0    0  501    0  0.00000000000E+00  0.00000000000E+00  0.66414727776E+03  0.66414727776E+03  0.00000000000E+00 0. -1.
         -2   -1    0    0    0  501 -0.00000000000E+00 -0.00000000000E+00 -0.61063071027E+03  0.61063071027E+03  0.00000000000E+00 0.  1.
         23    2    1    2    0    0 -0.59161664702E+02 -0.36047965947E+03  0.34852374848E+03  0.51312990260E+03  0.91584967225E+02 0.  0.
    5000000    2    1    2    0    0  0.59161664702E+02  0.36047965947E+03 -0.29500718099E+03  0.76164808543E+03  0.59969399008E+03 0.  0.
         23    2    4    4    0    0 -0.17992997025E+03  0.36812720828E+03 -0.77429518620E+02  0.42621815948E+03  0.88171159939E+02 0.  0.
         23    2    4    4    0    0  0.23909163495E+03 -0.76475488105E+01 -0.21757766237E+03  0.33542992595E+03  0.89162218187E+02 0.  0.
          1    1    3    3  502    0 -0.44401792787E+01 -0.24852401027E+03  0.26371988667E+03  0.36239767866E+03  0.00000000000E+00 0. -1.
         -1    1    3    3    0  502 -0.54721485423E+02 -0.11195564921E+03  0.84803861811E+02  0.15073222394E+03  0.00000000000E+00 0.  1.
         13    1    5    5    0    0 -0.12745731180E+03  0.22268204771E+03 -0.79446633145E+01  0.25670173038E+03  0.00000000000E+00 0. -1.
        -13    1    5    5    0    0 -0.52472658447E+02  0.14544516057E+03 -0.69484855306E+02  0.16951642910E+03  0.00000000000E+00 0.  1.
          5    1    6    6  503    0  0.12714332053E+03 -0.14193308735E+02 -0.58523625315E+02  0.14076213514E+03  0.47000000000E+01 0. -1.
         -5    1    6    6    0  503  0.11194831442E+03  0.65457599242E+01 -0.15905403706E+03  0.19466779081E+03  0.47000000000E+01 0.  1.
<mgrwt>
<rscale>  0 0.51231715E+03</rscale>
<asrwt>0</asrwt>
<pdfrwt beam="1">  1        2 0.10217650E+00 0.51231715E+03</pdfrwt>
<pdfrwt beam="2">  1       -2 0.93943186E-01 0.51231715E+03</pdfrwt>
<totfact> 0.43354349E+01</totfact>
</mgrwt>
</event>
<event>
12    1  0.3127365E-008  0.1049764E+04  0.7818608E-02  0.9255588E-01
          1   -1    0    0  501    0  0.00000000000E+00  0.00000000000E+00  0.15507783958E+04  0.15507783958E+04  0.00000000000E+00 0. -1.
         -1   -1    0    0    0  501 -0.00000000000E+00 -0.00000000000E+00 -0.78088168752E+03  0.78088168752E+03  0.00000000000E+00 0.  1.
         23    2    1    2    0    0 -0.10070986293E+04  0.64654276374E+02  0.23057617159E+03  0.10396478027E+04  0.96303468480E+02 0.  0.
    5000000    2    1    2    0    0  0.10070986293E+04 -0.64654276374E+02  0.53932053668E+03  0.12920122806E+04  0.60000105615E+03 0.  0.
         23    2    4    4    0    0  0.79813572772E+03  0.10524916398E+03  0.17372642849E+03  0.82897549947E+03  0.94453588447E+02 0.  0.
         23    2    4    4    0    0  0.20896290161E+03 -0.16990344035E+03  0.36559410819E+03  0.46303678118E+03  0.90616419535E+02 0.  0.
          4    1    3    3  502    0 -0.27068962952E+03  0.10475904330E+02  0.19113191522E+02  0.27156570879E+03  0.00000000000E+00 0. -1.
         -4    1    3    3    0  502 -0.73640899981E+03  0.54178372044E+02  0.21146298007E+03  0.76808209388E+03  0.00000000000E+00 0.  1.
         11    1    5    5    0    0  0.69340504277E+03  0.76800503979E+02  0.17926387349E+03  0.72030854992E+03  0.00000000000E+00 0.  1.
        -11    1    5    5    0    0  0.10473068495E+03  0.28448659996E+02 -0.55374449940E+01  0.10866694954E+03  0.00000000000E+00 0. -1.
          5    1    6    6  503    0  0.39849806260E+02 -0.86695026493E+02  0.11746890267E+03  0.15141026310E+03  0.47000000000E+01 0. -1.
         -5    1    6    6    0  503  0.16911309535E+03 -0.83208413856E+02  0.24812520551E+03  0.31162651807E+03  0.47000000000E+01 0.  1.
<mgrwt>
<rscale>  0 0.10497635E+04</rscale>
<asrwt>0</asrwt>
<pdfrwt beam="1">  1        1 0.23858129E+00 0.10497635E+04</pdfrwt>
<pdfrwt beam="2">  1       -1 0.12013564E+00 0.10497635E+04</pdfrwt>
<totfact> 0.37233034E+00</totfact>
</mgrwt>
</event>
<event>
12    1  0.3127365E-008  0.6987471E+03  0.7818608E-02  0.9719377E-01
         -2   -1    0    0    0  501 -0.00000000000E+00  0.00000000000E+00  0.51351492734E+03  0.51351492734E+03  0.00000000000E+00 0.  1.
          2   -1    0    0  501    0  0.00000000000E+00 -0.00000000000E+00 -0.11883581184E+04  0.11883581184E+04  0.00000000000E+00 0. -1.
         23    2    1    2    0    0 -0.58728950723E+03  0.12615038943E+03  0.15130892224E+02  0.60783169451E+03  0.91692632751E+02 0.  0.
    5000000    2    1    2    0    0  0.58728950723E+03 -0.12615038943E+03 -0.68997408330E+03  0.10940413512E+04  0.60003279622E+03 0.  0.
         23    2    4    4    0    0 -0.62645311138E+02 -0.11170584347E+03 -0.27897693672E+03  0.32028767900E+03  0.91397131367E+02 0.  0.
         23    2    4    4    0    0  0.64993481836E+03 -0.14444545968E+02 -0.41099714657E+03  0.77375367224E+03  0.84570549135E+02 0.  0.
          4    1    3    3  502    0 -0.43751482465E+03  0.69871681181E+02  0.44037704640E+02  0.44524217349E+03  0.00000000000E+00 0. -1.
         -4    1    3    3    0  502 -0.14977468257E+03  0.56278708254E+02 -0.28906812416E+02  0.16258952102E+03  0.00000000000E+00 0.  1.
         11    1    5    5    0    0  0.35892395342E+01 -0.52576797512E+02 -0.17890661037E+03  0.18650677604E+03  0.00000000000E+00 0. -1.
        -11    1    5    5    0    0 -0.66234550672E+02 -0.59129045955E+02 -0.10007032636E+03  0.13378090295E+03  0.00000000000E+00 0.  1.
          5    1    6    6  503    0  0.34472229466E+03  0.22418933528E+02 -0.18284556354E+03  0.39088445751E+03  0.47000000000E+01 0. -1.
         -5    1    6    6    0  503  0.30521252370E+03 -0.36863479496E+02 -0.22815158304E+03  0.38286921473E+03  0.47000000000E+01 0.  1.
<mgrwt>
<rscale>  0 0.69874709E+03</rscale>
<asrwt>0</asrwt>
<pdfrwt beam="1">  1        2 0.18282432E+00 0.69874709E+03</pdfrwt>
<pdfrwt beam="2">  1       -2 0.79002297E-01 0.69874709E+03</pdfrwt>
<totfact> 0.28032270E+01</totfact>
</mgrwt>
</event>
<event>
12    1  0.3127365E-008  0.1322435E+04  0.7818608E-02  0.9011961E-01
         -2   -1    0    0    0  501 -0.00000000000E+00  0.00000000000E+00  0.78022891499E+03  0.78022891499E+03  0.00000000000E+00 0.  1.
          2   -1    0    0  501    0  0.00000000000E+00 -0.00000000000E+00 -0.24682840263E+04  0.24682840263E+04  0.00000000000E+00 0. -1.
         23    2    1    2    0    0  0.85322138192E+03 -0.10023385747E+04 -0.93926006699E+03  0.16196165627E+04  0.90988965278E+02 0.  0.
    5000000    2    1    2    0    0 -0.85322138192E+03  0.10023385747E+04 -0.74879504434E+03  0.16288963786E+04  0.59995003871E+03 0.  0.
         23    2    4    4    0    0 -0.71553409121E+03  0.87282489855E+03 -0.36201891111E+03  0.11887112267E+04  0.90356788218E+02 0.  0.
         23    2    4    4    0    0 -0.13768729070E+03  0.12951367615E+03 -0.38677613324E+03  0.44018515196E+03  0.91845568375E+02 0.  0.
          4    1    3    3  502    0  0.13474494324E+03 -0.18379780206E+03 -0.12654848801E+03  0.26067671854E+03  0.00000000000E+00 0. -1.
         -4    1    3    3    0  502  0.71847643868E+03 -0.81854077264E+03 -0.81271157898E+03  0.13589398442E+04  0.00000000000E+00 0.  1.
         11    1    5    5    0    0 -0.63719606636E+03  0.78009989649E+03 -0.29270443368E+03  0.10489282916E+04  0.00000000000E+00 0.  1.
        -11    1    5    5    0    0 -0.78338024849E+02  0.92725002056E+02 -0.69314477426E+02  0.13978293503E+03  0.00000000000E+00 0. -1.
          5    1    6    6  503    0 -0.74233774992E+02  0.28197004545E+02 -0.22732242082E+03  0.24083873738E+03  0.47000000000E+01 0. -1.
         -5    1    6    6    0  503 -0.63453515713E+02  0.10131667161E+03 -0.15945371242E+03  0.19934641458E+03  0.47000000000E+01 0.  1.
<mgrwt>
<rscale>  0 0.13224346E+04</rscale>
<asrwt>0</asrwt>
<pdfrwt beam="1">  1        2 0.37973601E+00 0.13224346E+04</pdfrwt>
<pdfrwt beam="2">  1       -2 0.12003522E+00 0.13224346E+04</pdfrwt>
<totfact> 0.18629905E+00</totfact>
</mgrwt>
</event>
<event>
12    1  0.3127365E-008  0.1410642E+04  0.7818608E-02  0.8946151E-01
          2   -1    0    0  501    0  0.00000000000E+00  0.00000000000E+00  0.24025391665E+04  0.24025391665E+04  0.00000000000E+00 0. -1.
         -2   -1    0    0    0  501 -0.00000000000E+00 -0.00000000000E+00 -0.91712090760E+03  0.91712090760E+03  0.00000000000E+00 0.  1.
         23    2    1    2    0    0 -0.58921053328E+03 -0.12738565697E+04  0.97565508357E+03  0.17103977616E+04  0.60646915316E+02 0.  0.
    5000000    2    1    2    0    0  0.58921053328E+03  0.12738565697E+04  0.50976317532E+03  0.16092623124E+04  0.59998923549E+03 0.  0.
         23    2    4    4    0    0  0.25319330474E+03  0.37393415270E+03  0.44832141612E+03  0.64280651842E+03  0.90964431788E+02 0.  0.
         23    2    4    4    0    0  0.33601722854E+03  0.89992241697E+03  0.61441759203E+02  0.96645579402E+03  0.86566607797E+02 0.  0.
          1    1    3    3  502    0 -0.33754350778E+02 -0.63830287711E+02  0.66619321810E+02  0.98243553804E+02  0.00000000000E+00 0. -1.
         -1    1    3    3    0  502 -0.55545618250E+03 -0.12100262820E+04  0.90903576176E+03  0.16121542078E+04  0.00000000000E+00 0.  1.
         13    1    5    5    0    0  0.12321261861E+03  0.21629452745E+03  0.30269156315E+03  0.39190158763E+03  0.00000000000E+00 0. -1.
        -13    1    5    5    0    0  0.12998068613E+03  0.15763962526E+03  0.14562985297E+03  0.25090493079E+03  0.00000000000E+00 0.  1.
          5    1    6    6  503    0  0.87543824599E+02  0.35214300101E+03  0.16688496912E+02  0.36327566711E+03  0.47000000000E+01 0. -1.
         -5    1    6    6    0  503  0.24847340394E+03  0.54777941595E+03  0.44753262292E+02  0.60318012691E+03  0.47000000000E+01 0.  1.
<mgrwt>
<rscale>  0 0.14106425E+04</rscale>
<asrwt>0</asrwt>
<pdfrwt beam="1">  1        2 0.36962141E+00 0.14106425E+04</pdfrwt>
<pdfrwt beam="2">  1       -2 0.14109553E+00 0.14106425E+04</pdfrwt>
<totfact> 0.13309907E+00</totfact>
</mgrwt>
</event>
<event>
12    1  0.3127365E-008  0.1001856E+04  0.7818608E-02  0.9306511E-01
         -2   -1    0    0    0  501 -0.00000000000E+00  0.00000000000E+00  0.10783318431E+04  0.10783318431E+04  0.00000000000E+00 0.  1.
          2   -1    0    0  501    0  0.00000000000E+00 -0.00000000000E+00 -0.10048834569E+04  0.10048834569E+04  0.00000000000E+00 0. -1.
         23    2    1    2    0    0 -0.85430823330E+03 -0.38367284767E+03 -0.13866545603E+03  0.95099761129E+03  0.90116238657E+02 0.  0.
    5000000    2    1    2    0    0  0.85430823330E+03  0.38367284767E+03  0.21211384222E+03  0.11322176888E+04  0.59989765893E+03 0.  0.
         23    2    4    4    0    0  0.29176892061E+03 -0.94007383551E+02  0.22024080090E+03  0.38838544143E+03  0.91491800406E+02 0.  0.
         23    2    4    4    0    0  0.56253931269E+03  0.47768023122E+03 -0.81269586808E+01  0.74383224734E+03  0.92690253588E+02 0.  0.
          1    1    3    3  502    0 -0.60515697765E+03 -0.22624107056E+03 -0.99620597223E+02  0.65370043062E+03  0.00000000000E+00 0. -1.
         -1    1    3    3    0  502 -0.24915125566E+03 -0.15743177711E+03 -0.39044858803E+02  0.29729718068E+03  0.00000000000E+00 0.  1.
         11    1    5    5    0    0  0.16052518934E+03 -0.97608068687E+02  0.11658168284E+03  0.22110395803E+03  0.00000000000E+00 0. -1.
        -11    1    5    5    0    0  0.13124373127E+03  0.36006851366E+01  0.10365911805E+03  0.16728148340E+03  0.00000000000E+00 0.  1.
          5    1    6    6  503    0  0.19509887124E+03  0.22476765951E+03 -0.17266774009E+00  0.29766791922E+03  0.47000000000E+01 0. -1.
         -5    1    6    6    0  503  0.36744044145E+03  0.25291257171E+03 -0.79542909407E+01  0.44616432812E+03  0.47000000000E+01 0.  1.
<mgrwt>
<rscale>  0 0.10018565E+04</rscale>
<asrwt>0</asrwt>
<pdfrwt beam="1">  1        2 0.15459745E+00 0.10018565E+04</pdfrwt>
<pdfrwt beam="2">  1       -2 0.16589721E+00 0.10018565E+04</pdfrwt>
<totfact> 0.56520518E+00</totfact>
</mgrwt>
</event>
<event>
12    1  0.3127365E-008  0.1668266E+04  0.7818608E-02  0.8779674E-01
          1   -1    0    0  501    0  0.00000000000E+00  0.00000000000E+00  0.35640521058E+04  0.35640521058E+04  0.00000000000E+00 0. -1.
         -1   -1    0    0    0  501 -0.00000000000E+00 -0.00000000000E+00 -0.92090767663E+03  0.92090767663E+03  0.00000000000E+00 0.  1.
         23    2    1    2    0    0  0.14944262006E+04 -0.71492162193E+03  0.54749792570E+03  0.17470135976E+04  0.88769008955E+02 0.  0.
    5000000    2    1    2    0    0 -0.14944262006E+04  0.71492162193E+03  0.20956465035E+04  0.27379461849E+04  0.60016035294E+03 0.  0.
         23    2    4    4    0    0 -0.13467031547E+04  0.62233823404E+03  0.15054883521E+04  0.21155853969E+04  0.91061127147E+02 0.  0.
         23    2    4    4    0    0 -0.14772304593E+03  0.92583387889E+02  0.59015815138E+03  0.62236078800E+03  0.93018948537E+02 0.  0.
          2    1    3    3  502    0  0.39352393814E+03 -0.22882071997E+03  0.16626105372E+03  0.48462640225E+03  0.00000000000E+00 0. -1.
         -2    1    3    3    0  502  0.11009022624E+04 -0.48610090196E+03  0.38123687199E+03  0.12623871953E+04  0.00000000000E+00 0.  1.
         11    1    5    5    0    0 -0.11142559970E+04  0.48233236053E+03  0.12570310641E+04  0.17476664525E+04  0.00000000000E+00 0. -1.
        -11    1    5    5    0    0 -0.23244715762E+03  0.14000587350E+03  0.24845728800E+03  0.36791894442E+03  0.00000000000E+00 0.  1.
          5    1    6    6  503    0 -0.15554432592E+03  0.75465950450E+02  0.56314858090E+03  0.58910742753E+03  0.47000000000E+01 0. -1.
         -5    1    6    6    0  503  0.78212799811E+01  0.17117437440E+02  0.27009570482E+02  0.33253360472E+02  0.47000000000E+01 0.  1.
<mgrwt>
<rscale>  0 0.16682655E+04</rscale>
<asrwt>0</asrwt>
<pdfrwt beam="1">  1        1 0.54831570E+00 0.16682655E+04</pdfrwt>
<pdfrwt beam="2">  1       -1 0.14167811E+00 0.16682655E+04</pdfrwt>
<totfact> 0.84665023E-02</totfact>
</mgrwt>
</event>
<event>
12    1  0.3127365E-008  0.4529807E+03  0.7818608E-02  0.1026837E+00
         -2   -1    0    0    0  501 -0.00000000000E+00  0.00000000000E+00  0.20648497391E+03  0.20648497391E+03  0.00000000000E+00 0.  1.
          2   -1    0    0  501    0  0.00000000000E+00 -0.00000000000E+00 -0.10976234766E+04  0.10976234766E+04  0.00000000000E+00 0. -1.
         23    2    1    2    0    0 -0.56070617211E+02 -0.26942382379E+03 -0.31439642501E+03  0.42750253687E+03  0.90444436141E+02 0.  0.
    5000000    2    1    2    0    0  0.56070617211E+02  0.26942382379E+03 -0.57674207768E+03  0.87660591364E+03  0.60006115749E+03 0.  0.
         23    2    4    4    0    0  0.28508876363E+03  0.42738320697E+02 -0.39046386661E+03  0.49353717764E+03  0.89525121499E+02 0.  0.
         23    2    4    4    0    0 -0.22901814642E+03  0.22668550309E+03 -0.18627821107E+03  0.38306873601E+03  0.90589491038E+02 0.  0.
          1    1    3    3  502    0  0.15368782895E+02 -0.12770357942E+03 -0.16800116877E+03  0.21158638045E+03  0.00000000000E+00 0. -1.
         -1    1    3    3    0  502 -0.71439400106E+02 -0.14172024437E+03 -0.14639525624E+03  0.21591615642E+03  0.00000000000E+00 0.  1.
         11    1    5    5    0    0  0.68982744076E+02 -0.11617200845E+02 -0.15107329942E+03  0.16648339296E+03  0.00000000000E+00 0.  1.
        -11    1    5    5    0    0  0.21610601955E+03  0.54355521542E+02 -0.23939056719E+03  0.32705378467E+03  0.00000000000E+00 0. -1.
          5    1    6    6  503    0 -0.14685375902E+03  0.17564424936E+03 -0.88648466427E+02  0.24555563416E+03  0.47000000000E+01 0. -1.
         -5    1    6    6    0  503 -0.82164387399E+02  0.51041253736E+02 -0.97629744644E+02  0.13751310184E+03  0.47000000000E+01 0.  1.
<mgrwt>
<rscale>  0 0.45298068E+03</rscale>
<asrwt>0</asrwt>
<pdfrwt beam="1">  1        2 0.16886515E+00 0.45298068E+03</pdfrwt>
<pdfrwt beam="2">  1       -2 0.31766919E-01 0.45298068E+03</pdfrwt>
<totfact> 0.20818539E+02</totfact>
</mgrwt>
</event>
<event>
12    1  0.3127365E-008  0.6593336E+03  0.7818608E-02  0.9789421E-01
         -1   -1    0    0    0  501 -0.00000000000E+00  0.00000000000E+00  0.43197920480E+03  0.43197920480E+03  0.00000000000E+00 0.  1.
          1   -1    0    0  501    0  0.00000000000E+00 -0.00000000000E+00 -0.11588382464E+04  0.11588382464E+04  0.00000000000E+00 0. -1.
         23    2    1    2    0    0  0.48375033008E+02 -0.56351117991E+03 -0.17708634624E+03  0.59968939274E+03  0.91557632355E+02 0.  0.
    5000000    2    1    2    0    0 -0.48375033008E+02  0.56351117991E+03 -0.54977269540E+03  0.99112805850E+03  0.60016649193E+03 0.  0.
         23    2    4    4    0    0  0.19294911978E+03  0.94182531284E+02 -0.34820957585E+03  0.41988646563E+03  0.94630984776E+02 0.  0.
         23    2    4    4    0    0 -0.24132415279E+03  0.46932864863E+03 -0.20156311955E+03  0.57124159287E+03  0.84749862069E+02 0.  0.
          4    1    3    3  502    0  0.62610398942E+02 -0.45889818530E+03 -0.17177763024E+03  0.49397890722E+03  0.00000000000E+00 0. -1.
         -4    1    3    3    0  502 -0.14235365934E+02 -0.10461299461E+03 -0.53087160071E+01  0.10571048552E+03  0.00000000000E+00 0.  1.
         13    1    5    5    0    0  0.43601275714E+02 -0.32829197828E+01 -0.24034673197E+02  0.49895033038E+02  0.00000000000E+00 0. -1.
        -13    1    5    5    0    0  0.14934784407E+03  0.97465451067E+02 -0.32417490266E+03  0.36999143259E+03  0.00000000000E+00 0.  1.
          5    1    6    6  503    0 -0.88827311567E+02  0.16518595903E+03 -0.29405106799E+02  0.18990377207E+03  0.47000000000E+01 0. -1.
         -5    1    6    6    0  503 -0.15249684123E+03  0.30414268960E+03 -0.17215801275E+03  0.38133782080E+03  0.47000000000E+01 0.  1.
<mgrwt>
<rscale>  0 0.65933362E+03</rscale>
<asrwt>0</asrwt>
<pdfrwt beam="1">  1        1 0.17828280E+00 0.65933362E+03</pdfrwt>
<pdfrwt beam="2">  1       -1 0.66458340E-01 0.65933362E+03</pdfrwt>
<totfact> 0.27360232E+01</totfact>
</mgrwt>
</event>
<event>
12    1  0.3127365E-008  0.1390659E+04  0.7818608E-02  0.8960608E-01
          2   -1    0    0  501    0  0.00000000000E+00  0.00000000000E+00  0.10109753078E+04  0.10109753078E+04  0.00000000000E+00 0. -1.
         -2   -1    0    0    0  501 -0.00000000000E+00 -0.00000000000E+00 -0.22534317148E+04  0.22534317148E+04  0.00000000000E+00 0.  1.
         23    2    1    2    0    0 -0.13204579515E+04 -0.15903958485E+03  0.22980737506E+02  0.13330434868E+04  0.87028916616E+02 0.  0.
    5000000    2    1    2    0    0  0.13204579515E+04  0.15903958485E+03 -0.12654371445E+04  0.19313635358E+04  0.59994262175E+03 0.  0.
         23    2    4    4    0    0  0.95996334364E+03 -0.14955345220E+03 -0.82182235219E+03  0.12757007093E+04  0.90135814403E+02 0.  0.
         23    2    4    4    0    0  0.36049460781E+03  0.30859303705E+03 -0.44361479235E+03  0.65566282643E+03  0.88958603814E+02 0.  0.
          2    1    3    3  502    0 -0.40071804111E+03 -0.47637279147E+02  0.47018589010E+02  0.40626962297E+03  0.00000000000E+00 0. -1.
         -2    1    3    3    0  502 -0.91973991034E+03 -0.11140230570E+03 -0.24037851504E+02  0.92677386384E+03  0.00000000000E+00 0.  1.
         13    1    5    5    0    0  0.71974200240E+03 -0.14574788163E+03 -0.64502245220E+03  0.97740726356E+03  0.00000000000E+00 0.  1.
        -13    1    5    5    0    0  0.24022134124E+03 -0.38055705690E+01 -0.17679989998E+03  0.29829344577E+03  0.00000000000E+00 0. -1.
          5    1    6    6  503    0  0.26437821188E+03  0.19945597685E+03 -0.35395773854E+03  0.48475426381E+03  0.47000000000E+01 0. -1.
         -5    1    6    6    0  503  0.96116395936E+02  0.10913706020E+03 -0.89657053811E+02  0.17090856261E+03  0.47000000000E+01 0.  1.
<mgrwt>
<rscale>  0 0.13906593E+04</rscale>
<asrwt>0</asrwt>
<pdfrwt beam="1">  1        2 0.15553467E+00 0.13906593E+04</pdfrwt>
<pdfrwt beam="2">  1       -2 0.34668180E+00 0.13906593E+04</pdfrwt>
<totfact> 0.38847735E-01</totfact>
</mgrwt>
</event>
<event>
12    1  0.3127365E-008  0.1463274E+04  0.7818608E-02  0.8909250E-01
          1   -1    0    0  501    0  0.00000000000E+00  0.00000000000E+00  0.26701103674E+04  0.26701103674E+04  0.00000000000E+00 0. -1.
         -1   -1    0    0    0  501 -0.00000000000E+00 -0.00000000000E+00 -0.90503913496E+03  0.90503913496E+03  0.00000000000E+00 0.  1.
         23    2    1    2    0    0 -0.14369763429E+04  0.62433083767E+02  0.38094533785E+03  0.14907113284E+04  0.91115390037E+02 0.  0.
    5000000    2    1    2    0    0  0.14369763429E+04 -0.62433083767E+02  0.13841258946E+04  0.20844381739E+04  0.60023254563E+03 0.  0.
         23    2    4    4    0    0  0.94616110426E+03 -0.21070644217E+03  0.11682924882E+04  0.15207381367E+04  0.90106061713E+02 0.  0.
         23    2    4    4    0    0  0.49081523863E+03  0.14827335840E+03  0.21583340634E+03  0.56370003721E+03  0.91044414303E+02 0.  0.
          1    1    3    3  502    0 -0.12942000184E+03 -0.62660189303E+01  0.58887581444E+02  0.14232549707E+03  0.00000000000E+00 0. -1.
         -1    1    3    3    0  502 -0.13075563410E+04  0.68699102697E+02  0.32205775640E+03  0.13483858313E+04  0.00000000000E+00 0.  1.
         13    1    5    5    0    0  0.69758176245E+03 -0.18755483309E+03  0.83036631675E+03  0.11005931813E+04  0.00000000000E+00 0. -1.
        -13    1    5    5    0    0  0.24857934181E+03 -0.23151609078E+02  0.33792617147E+03  0.42014495539E+03  0.00000000000E+00 0.  1.
          5    1    6    6  503    0  0.29835574898E+03  0.62611964797E+02  0.88397397298E+02  0.31744700492E+03  0.47000000000E+01 0. -1.
         -5    1    6    6    0  503  0.19245948965E+03  0.85661393608E+02  0.12743600904E+03  0.24625303229E+03  0.47000000000E+01 0.  1.
<mgrwt>
<rscale>  0 0.14632737E+04</rscale>
<asrwt>0</asrwt>
<pdfrwt beam="1">  1        1 0.41078621E+00 0.14632737E+04</pdfrwt>
<pdfrwt beam="2">  1       -1 0.13923679E+00 0.14632737E+04</pdfrwt>
<totfact> 0.41867842E-01</totfact>
</mgrwt>
</event>
<event>
12    1  0.3127365E-008  0.4627372E+03  0.7818608E-02  0.1023990E+00
          2   -1    0    0  501    0  0.00000000000E+00  0.00000000000E+00  0.95082585065E+03  0.95082585065E+03  0.00000000000E+00 0. -1.
         -2   -1    0    0    0  501 -0.00000000000E+00 -0.00000000000E+00 -0.31322842527E+03  0.31322842527E+03  0.00000000000E+00 0.  1.
         23    2    1    2    0    0  0.34538580163E+03 -0.62709964778E+02  0.78498182371E+02  0.37199475496E+03  0.94837974642E+02 0.  0.
    5000000    2    1    2    0    0 -0.34538580163E+03  0.62709964778E+02  0.55909924301E+03  0.89205952096E+03  0.59996194359E+03 0.  0.
         23    2    4    4    0    0  0.87804950800E+02  0.79208375030E+02 -0.33639451718E+02  0.15210220643E+03  0.89553293798E+02 0.  0.
         23    2    4    4    0    0 -0.43319075243E+03 -0.16498410252E+02  0.59273869473E+03  0.73995731453E+03  0.90946366457E+02 0.  0.
          4    1    3    3  502    0  0.29308386963E+03 -0.22365972564E+02  0.43177776180E+02  0.29709041001E+03  0.00000000000E+00 0. -1.
         -4    1    3    3    0  502  0.52301931997E+02 -0.40343992215E+02  0.35320406191E+02  0.74904344947E+02  0.00000000000E+00 0.  1.
         11    1    5    5    0    0  0.67288803091E+02  0.86676059134E+02 -0.53957134674E+02  0.12227794008E+03  0.00000000000E+00 0. -1.
        -11    1    5    5    0    0  0.20516147709E+02 -0.74676841043E+01  0.20317682956E+02  0.29824266351E+02  0.00000000000E+00 0.  1.
          5    1    6    6  503    0 -0.22414866321E+03 -0.26772873047E+00  0.23161149716E+03  0.32234867848E+03  0.47000000000E+01 0. -1.
         -5    1    6    6    0  503 -0.20904208922E+03 -0.16230681521E+02  0.36112719756E+03  0.41760863606E+03  0.47000000000E+01 0.  1.
<mgrwt>
<rscale>  0 0.46273716E+03</rscale>
<asrwt>0</asrwt>
<pdfrwt beam="1">  1        2 0.14628090E+00 0.46273716E+03</pdfrwt>
<pdfrwt beam="2">  1       -2 0.48188989E-01 0.46273716E+03</pdfrwt>
<totfact> 0.11485196E+02</totfact>
</mgrwt>
</event>
<event>
12    1  0.3127365E-008  0.1741623E+04  0.7818608E-02  0.8737975E-01
         -1   -1    0    0    0  501 -0.00000000000E+00  0.00000000000E+00  0.20645919162E+04  0.20645919162E+04  0.00000000000E+00 0.  1.
          1   -1    0    0  501    0  0.00000000000E+00 -0.00000000000E+00 -0.15290035819E+04  0.15290035819E+04  0.00000000000E+00 0. -1.
         23    2    1    2    0    0 -0.65174228857E+03  0.15838555465E+04  0.53640996513E+02  0.17159358952E+04  0.90510977430E+02 0.  0.
    5000000    2    1    2    0    0  0.65174228857E+03 -0.15838555465E+04  0.48194733787E+03  0.18776596029E+04  0.59997162006E+03 0.  0.
         23    2    4    4    0    0  0.62935502415E+03 -0.15512136200E+04  0.35343063987E+03  0.17136543341E+04  0.96677393376E+02 0.  0.
         23    2    4    4    0    0  0.22387264420E+02 -0.32641926520E+02  0.12851669800E+03  0.16400526875E+03  0.93885576846E+02 0.  0.
          4    1    3    3  502    0 -0.36944181857E+03  0.99864316674E+03  0.54665348884E+02  0.10661912268E+04  0.00000000000E+00 0. -1.
         -4    1    3    3    0  502 -0.28230047000E+03  0.58521237979E+03 -0.10243523702E+01  0.64974466840E+03  0.00000000000E+00 0.  1.
         11    1    5    5    0    0  0.14722622701E+03 -0.37459214059E+03  0.12728229115E+03  0.42213222496E+03  0.00000000000E+00 0.  1.
        -11    1    5    5    0    0  0.48212879714E+03 -0.11766214794E+04  0.22614834872E+03  0.12915221092E+04  0.00000000000E+00 0. -1.
          5    1    6    6  503    0 -0.57109294846E+01  0.27303833804E+02  0.70083632136E+02  0.75577242272E+02  0.47000000000E+01 0. -1.
         -5    1    6    6    0  503  0.28098193904E+02 -0.59945760325E+02  0.58433065861E+02  0.88428026482E+02  0.47000000000E+01 0.  1.
<mgrwt>
<rscale>  0 0.17416229E+04</rscale>
<asrwt>0</asrwt>
<pdfrwt beam="1">  1        1 0.23523132E+00 0.17416229E+04</pdfrwt>
<pdfrwt beam="2">  1       -1 0.31762953E+00 0.17416229E+04</pdfrwt>
<totfact> 0.14581084E-01</totfact>
</mgrwt>
</event>
<event>
12    1  0.3127365E-008  0.6746620E+03  0.7818608E-02  0.9761572E-01
          2   -1    0    0  501    0  0.00000000000E+00  0.00000000000E+00  0.18019477379E+04  0.18019477379E+04  0.00000000000E+00 0. -1.
         -2   -1    0    0    0  501 -0.00000000000E+00 -0.00000000000E+00 -0.46071766448E+03  0.46071766448E+03  0.00000000000E+00 0.  1.
         23    2    1    2    0    0 -0.50025171771E+03  0.31853885241E+03  0.12836958518E+04  0.14171194390E+04  0.92917613560E+02 0.  0.
    5000000    2    1    2    0    0  0.50025171771E+03 -0.31853885241E+03  0.57534221647E+02  0.84554596341E+03  0.59993250287E+03 0.  0.
         23    2    4    4    0    0 -0.76518595883E+02 -0.92140032936E+02 -0.12232415852E+03  0.19394545427E+03  0.91141419176E+02 0.  0.
         23    2    4    4    0    0  0.57677031360E+03 -0.22639881948E+03  0.17985838017E+03  0.65160050913E+03  0.91179857846E+02 0.  0.
          3    1    3    3  502    0 -0.39662380602E+03  0.24237128373E+03  0.10857587130E+04  0.11810699664E+04  0.00000000000E+00 0. -1.
         -3    1    3    3    0  502 -0.10362791169E+03  0.76167568688E+02  0.19793713880E+03  0.23604947261E+03  0.00000000000E+00 0.  1.
         11    1    5    5    0    0 -0.51314791047E+02 -0.97633842510E+02 -0.57948202014E+02  0.12459361581E+03  0.00000000000E+00 0. -1.
        -11    1    5    5    0    0 -0.25203804836E+02  0.54938095744E+01 -0.64375956511E+02  0.69351838466E+02  0.00000000000E+00 0.  1.
          5    1    6    6  503    0  0.40514380339E+03 -0.16465608162E+03  0.16885190967E+03  0.46881359200E+03  0.47000000000E+01 0. -1.
         -5    1    6    6    0  503  0.17162651020E+03 -0.61742737861E+02  0.11006470500E+02  0.18278691714E+03  0.47000000000E+01 0.  1.
<mgrwt>
<rscale>  0 0.67466201E+03</rscale>
<asrwt>0</asrwt>
<pdfrwt beam="1">  1        2 0.27722273E+00 0.67466201E+03</pdfrwt>
<pdfrwt beam="2">  1       -2 0.70879641E-01 0.67466201E+03</pdfrwt>
<totfact> 0.16214554E+01</totfact>
</mgrwt>
</event>
<event>
12    1  0.3127365E-008  0.7711533E+03  0.7818608E-02  0.9602736E-01
         -1   -1    0    0    0  501 -0.00000000000E+00  0.00000000000E+00  0.69753837330E+03  0.69753837330E+03  0.00000000000E+00 0.  1.
          1   -1    0    0  501    0  0.00000000000E+00 -0.00000000000E+00 -0.10834177815E+04  0.10834177815E+04  0.00000000000E+00 0. -1.
         23    2    1    2    0    0 -0.64629183122E+03 -0.14467525974E+03 -0.55813678711E+03  0.87079603491E+03  0.90249650467E+02 0.  0.
    5000000    2    1    2    0    0  0.64629183122E+03  0.14467525974E+03  0.17225737896E+03  0.91016011984E+03  0.60007897584E+03 0.  0.
         23    2    4    4    0    0  0.27788747885E+03  0.34102721592E+03  0.17720210341E+03  0.48268320455E+03  0.89785731636E+02 0.  0.
         23    2    4    4    0    0  0.36840435238E+03 -0.19635195618E+03 -0.49447244505E+01  0.42747691529E+03  0.91848817402E+02 0.  0.
          1    1    3    3  502    0 -0.61215688997E+03 -0.15393086241E+03 -0.51258560478E+03  0.81312654031E+03  0.00000000000E+00 0. -1.
         -1    1    3    3    0  502 -0.34134941257E+02  0.92556026778E+01 -0.45551182332E+02  0.57669494600E+02  0.00000000000E+00 0.  1.
         13    1    5    5    0    0  0.28169482838E+02  0.90797988626E+02  0.45928802820E+02  0.10558053528E+03  0.00000000000E+00 0. -1.
        -13    1    5    5    0    0  0.24971799601E+03  0.25022922729E+03  0.13127330059E+03  0.37710266927E+03  0.00000000000E+00 0.  1.
          5    1    6    6  503    0  0.11684698889E+03 -0.11160628170E+03  0.59775353537E+01  0.16176217684E+03  0.47000000000E+01 0. -1.
         -5    1    6    6    0  503  0.25155736349E+03 -0.84745674479E+02 -0.10922259804E+02  0.26571473845E+03  0.47000000000E+01 0.  1.
<mgrwt>
<rscale>  0 0.77115333E+03</rscale>
<asrwt>0</asrwt>
<pdfrwt beam="1">  1        1 0.16667966E+00 0.77115333E+03</pdfrwt>
<pdfrwt beam="2">  1       -1 0.10731360E+00 0.77115333E+03</pdfrwt>
<totfact> 0.10874608E+01</totfact>
</mgrwt>
</event>
<event>
12    1  0.3127365E-008  0.1036880E+04  0.7818608E-02  0.9268995E-01
         -2   -1    0    0    0  501 -0.00000000000E+00  0.00000000000E+00  0.23941383095E+04  0.23941383095E+04  0.00000000000E+00 0.  1.
          2   -1    0    0  501    0  0.00000000000E+00 -0.00000000000E+00 -0.52381850449E+03  0.52381850449E+03  0.00000000000E+00 0. -1.
         23    2    1    2    0    0 -0.69945476495E+03  0.71064041110E+03  0.49707661976E+03  0.11179590821E+04  0.92198597246E+02 0.  0.
    5000000    2    1    2    0    0  0.69945476495E+03 -0.71064041110E+03  0.13732431852E+04  0.17999977318E+04  0.59995685401E+03 0.  0.
         23    2    4    4    0    0  0.63991116043E+03 -0.75247116398E+03  0.99916508997E+03  0.14083028348E+04  0.96368312995E+02 0.  0.
         23    2    4    4    0    0  0.59543604517E+02  0.41830752875E+02  0.37407809525E+03  0.39169489697E+03  0.90527444685E+02 0.  0.
          1    1    3    3  502    0 -0.28373459975E+03  0.29482599141E+03  0.15396752980E+03  0.43718839022E+03  0.00000000000E+00 0. -1.
         -1    1    3    3    0  502 -0.41572016520E+03  0.41581441970E+03  0.34310908995E+03  0.68077069193E+03  0.00000000000E+00 0.  1.
         11    1    5    5    0    0  0.55724123877E+03 -0.61164883107E+03  0.86431451176E+03  0.11965248288E+04  0.00000000000E+00 0. -1.
        -11    1    5    5    0    0  0.82669921661E+02 -0.14082233291E+03  0.13485057822E+03  0.21177800603E+03  0.00000000000E+00 0.  1.
          5    1    6    6  503    0 -0.69064744773E+01  0.54509663575E+01  0.21710398698E+03  0.21733302461E+03  0.47000000000E+01 0. -1.
         -5    1    6    6    0  503  0.66450078994E+02  0.36379786517E+02  0.15697410828E+03  0.17436187236E+03  0.47000000000E+01 0.  1.
<mgrwt>
<rscale>  0 0.10368803E+04</rscale>
<asrwt>0</asrwt>
<pdfrwt beam="1">  1        2 0.80587464E-01 0.10368803E+04</pdfrwt>
<pdfrwt beam="2">  1       -2 0.36832896E+00 0.10368803E+04</pdfrwt>
<totfact> 0.70202882E-01</totfact>
</mgrwt>
</event>
<event>
12    1  0.3127365E-008  0.1566016E+04  0.7818608E-02  0.8841702E-01
          2   -1    0    0  501    0  0.00000000000E+00  0.00000000000E+00  0.20940571675E+04  0.20940571675E+04  0.00000000000E+00 0. -1.
         -2   -1    0    0    0  501 -0.00000000000E+00 -0.00000000000E+00 -0.12590305763E+04  0.12590305763E+04  0.00000000000E+00 0.  1.
         23    2    1    2    0    0 -0.14076563288E+04  0.67837462494E+03  0.52336001740E+03  0.16505108753E+04  0.92692879323E+02 0.  0.
    5000000    2    1    2    0    0  0.14076563288E+04 -0.67837462494E+03  0.31166657383E+03  0.17025768684E+04  0.59995288808E+03 0.  0.
         23    2    4    4    0    0  0.42320466097E+03 -0.22717875234E+03 -0.16450693702E+03  0.51586721573E+03  0.91345943301E+02 0.  0.
         23    2    4    4    0    0  0.98445166784E+03 -0.45119587260E+03  0.47617351085E+03  0.11867096527E+04  0.93892415278E+02 0.  0.
          3    1    3    3  502    0 -0.30175085572E+03  0.13243080410E+03  0.72890724437E+02  0.33749748815E+03  0.00000000000E+00 0. -1.
         -3    1    3    3    0  502 -0.11059054731E+04  0.54594382084E+03  0.45046929296E+03  0.13130133872E+04  0.00000000000E+00 0.  1.
         11    1    5    5    0    0  0.78814821438E+02 -0.64845413556E+02 -0.69444612989E+02  0.12344738965E+03  0.00000000000E+00 0.  1.
        -11    1    5    5    0    0  0.34438983953E+03 -0.16233333879E+03 -0.95062324027E+02  0.39241982609E+03  0.00000000000E+00 0. -1.
          5    1    6    6  503    0  0.10608975412E+03 -0.20715787046E+02  0.59460439464E+02  0.12345774023E+03  0.47000000000E+01 0. -1.
         -5    1    6    6    0  503  0.87836191372E+03 -0.43048008555E+03  0.41671307138E+03  0.10632519125E+04  0.47000000000E+01 0.  1.
<mgrwt>
<rscale>  0 0.15660162E+04</rscale>
<asrwt>0</asrwt>
<pdfrwt beam="1">  1        2 0.32216264E+00 0.15660162E+04</pdfrwt>
<pdfrwt beam="2">  1       -2 0.19369701E+00 0.15660162E+04</pdfrwt>
<totfact> 0.80938929E-01</totfact>
</mgrwt>
</event>
<event>
12    1  0.3127365E-008  0.1051373E+04  0.7818608E-02  0.9253927E-01
         -1   -1    0    0    0  501 -0.00000000000E+00  0.00000000000E+00  0.71470840519E+03  0.71470840519E+03  0.00000000000E+00 0.  1.
          1   -1    0    0  501    0  0.00000000000E+00 -0.00000000000E+00 -0.24294943392E+04  0.24294943392E+04  0.00000000000E+00 0. -1.
         23    2    1    2    0    0  0.20073637668E+03 -0.96575496640E+03  0.97284668730E+02  0.99557408660E+03  0.93411493324E+02 0.  0.
    5000000    2    1    2    0    0 -0.20073637668E+03  0.96575496640E+03 -0.18120706028E+04  0.21486286578E+04  0.60002290938E+03 0.  0.
         23    2    4    4    0    0 -0.37283464691E+03  0.54923935625E+03 -0.12864926221E+04  0.14506336553E+04  0.92764167626E+02 0.  0.
         23    2    4    4    0    0  0.17209827023E+03  0.41651561014E+03 -0.52557798064E+03  0.69799500250E+03  0.88666463061E+02 0.  0.
          4    1    3    3  502    0  0.91121904719E+02 -0.47470828362E+03  0.94006240268E+02  0.49243104011E+03  0.00000000000E+00 0. -1.
         -4    1    3    3    0  502  0.10961447196E+03 -0.49104668278E+03  0.32784284618E+01  0.50314304649E+03  0.00000000000E+00 0.  1.
         11    1    5    5    0    0 -0.11854525055E+03  0.18266598048E+03 -0.33229911195E+03  0.39729401790E+03  0.00000000000E+00 0. -1.
        -11    1    5    5    0    0 -0.25428939635E+03  0.36657337577E+03 -0.95419351017E+03  0.10533396374E+04  0.00000000000E+00 0.  1.
          5    1    6    6  503    0  0.14474286439E+02  0.69923225843E+02 -0.43774097370E+02  0.83886972056E+02  0.47000000000E+01 0. -1.
         -5    1    6    6    0  503  0.15762398379E+03  0.34659238430E+03 -0.48180388327E+03  0.61410803045E+03  0.47000000000E+01 0.  1.
<mgrwt>
<rscale>  0 0.10513733E+04</rscale>
<asrwt>0</asrwt>
<pdfrwt beam="1">  1        1 0.37376836E+00 0.10513733E+04</pdfrwt>
<pdfrwt beam="2">  1       -1 0.10995514E+00 0.10513733E+04</pdfrwt>
<totfact> 0.11688202E+00</totfact>
</mgrwt>
</event>
<event>
12    1  0.3127365E-008  0.2011130E+04  0.7818608E-02  0.8601435E-01
          2   -1    0    0  501    0  0.00000000000E+00  0.00000000000E+00  0.24517396012E+04  0.24517396012E+04  0.00000000000E+00 0. -1.
         -2   -1    0    0    0  501 -0.00000000000E+00 -0.00000000000E+00 -0.20458158472E+04  0.20458158472E+04  0.00000000000E+00 0.  1.
         23    2    1    2    0    0 -0.12525803154E+04  0.15352283295E+04 -0.75693541495E+03  0.21230853250E+04  0.93040876947E+02 0.  0.
    5000000    2    1    2    0    0  0.12525803154E+04 -0.15352283295E+04  0.11628591690E+04  0.23744701234E+04  0.59998620814E+03 0.  0.
         23    2    4    4    0    0  0.12387704192E+03 -0.15602703573E+02  0.18792168863E+03  0.24300781174E+03  0.90273305210E+02 0.  0.
         23    2    4    4    0    0  0.11287032735E+04 -0.15196256259E+04  0.97493748033E+03  0.21314623117E+04  0.96929732533E+02 0.  0.
          4    1    3    3  502    0 -0.93258812370E+03  0.11834802799E+04 -0.54255560567E+03  0.16014720624E+04  0.00000000000E+00 0. -1.
         -4    1    3    3    0  502 -0.31999219174E+03  0.35174804960E+03 -0.21437980928E+03  0.52161326267E+03  0.00000000000E+00 0.  1.
         13    1    5    5    0    0  0.62004308067E+02 -0.46474899682E+02  0.61563960903E+02  0.98967529025E+02  0.00000000000E+00 0. -1.
        -13    1    5    5    0    0  0.61872733856E+02  0.30872196109E+02  0.12635772773E+03  0.14404028271E+03  0.00000000000E+00 0.  1.
          5    1    6    6  503    0  0.72106651157E+03 -0.94058770899E+03  0.65842938507E+03  0.13557999475E+04  0.47000000000E+01 0. -1.
         -5    1    6    6    0  503  0.40763676194E+03 -0.57903791692E+03  0.31650809525E+03  0.77566236422E+03  0.47000000000E+01 0.  1.
<mgrwt>
<rscale>  0 0.20111295E+04</rscale>
<asrwt>0</asrwt>
<pdfrwt beam="1">  1        2 0.37719071E+00 0.20111295E+04</pdfrwt>
<pdfrwt beam="2">  1       -2 0.31474090E+00 0.20111295E+04</pdfrwt>
<totfact> 0.84781552E-02</totfact>
</mgrwt>
</event>
<event>
12    1  0.3127365E-008  0.2869481E+03  0.7818608E-02  0.1091953E+00
          2   -1    0    0  501    0  0.00000000000E+00  0.00000000000E+00  0.37489041164E+04  0.37489041164E+04  0.00000000000E+00 0. -1.
         -2   -1    0    0    0  501 -0.00000000000E+00 -0.00000000000E+00 -0.10332159686E+03  0.10332159686E+03  0.00000000000E+00 0.  1.
         23    2    1    2    0    0 -0.23021768267E+03  0.57827004746E+02  0.26698727655E+04  0.26820735362E+04  0.94624129973E+02 0.  0.
    5000000    2    1    2    0    0  0.23021768267E+03 -0.57827004746E+02  0.97570975405E+03  0.11701521770E+04  0.60075157042E+03 0.  0.
         23    2    4    4    0    0  0.31406193733E+02  0.19254140358E+02 -0.55439401892E+02  0.11323373863E+03  0.91603937456E+02 0.  0.
         23    2    4    4    0    0  0.19881148894E+03 -0.77081145103E+02  0.10311491559E+04  0.10569184384E+04  0.91326297168E+02 0.  0.
          1    1    3    3  502    0 -0.77057102324E+02 -0.16724116569E+02  0.59160520804E+03  0.59683684142E+03  0.00000000000E+00 0. -1.
         -1    1    3    3    0  502 -0.15316058035E+03  0.74551121315E+02  0.20782675575E+04  0.20852366948E+04  0.00000000000E+00 0.  1.
         13    1    5    5    0    0 -0.28599850801E+02 -0.39449068840E+01 -0.35753878887E+02  0.45954908461E+02  0.00000000000E+00 0. -1.
        -13    1    5    5    0    0  0.60006044534E+02  0.23199047242E+02 -0.19685523004E+02  0.67278830174E+02  0.00000000000E+00 0.  1.
          5    1    6    6  503    0  0.33431860309E+02 -0.55070126311E+02  0.25857197241E+03  0.26651822266E+03  0.47000000000E+01 0. -1.
         -5    1    6    6    0  503  0.16537962863E+03 -0.22011018792E+02  0.77257718353E+03  0.79040021573E+03  0.47000000000E+01 0. -1.
<mgrwt>
<rscale>  0 0.28694807E+03</rscale>
<asrwt>0</asrwt>
<pdfrwt beam="1">  1        2 0.57675437E+00 0.28694807E+03</pdfrwt>
<pdfrwt beam="2">  1       -2 0.15895633E-01 0.28694807E+03</pdfrwt>
<totfact> 0.21224669E+01</totfact>
</mgrwt>
</event>
<event>
12    1  0.3127365E-008  0.1246229E+04  0.7818608E-02  0.9073328E-01
          1   -1    0    0  501    0  0.00000000000E+00  0.00000000000E+00  0.15378611532E+04  0.15378611532E+04  0.00000000000E+00 0. -1.
         -1   -1    0    0    0  501 -0.00000000000E+00 -0.00000000000E+00 -0.12264419519E+04  0.12264419519E+04  0.00000000000E+00 0.  1.
         23    2    1    2    0    0  0.74630104436E+03  0.93792426391E+03  0.67074817311E+03  0.13765499096E+04  0.91210570531E+02 0.  0.
    5000000    2    1    2    0    0 -0.74630104436E+03 -0.93792426391E+03 -0.35932897180E+03  0.13877531955E+04  0.60006203684E+03 0.  0.
         23    2    4    4    0    0 -0.32401354670E+03 -0.86933120508E+02  0.47135292529E+02  0.35064423913E+03  0.90484809487E+02 0.  0.
         23    2    4    4    0    0 -0.42228749766E+03 -0.85099114340E+03 -0.40646426432E+03  0.10371089564E+04  0.88708130527E+02 0.  0.
          4    1    3    3  502    0  0.16555576846E+03  0.27263345042E+03  0.17605795938E+03  0.36432693534E+03  0.00000000000E+00 0. -1.
         -4    1    3    3    0  502  0.58074527591E+03  0.66529081349E+03  0.49469021373E+03  0.10122229742E+04  0.00000000000E+00 0.  1.
         13    1    5    5    0    0 -0.10083290399E+03 -0.70822047975E+01 -0.22573496396E+02  0.10357120686E+03  0.00000000000E+00 0.  1.
        -13    1    5    5    0    0 -0.22318064271E+03 -0.79850915711E+02  0.69708788924E+02  0.24707303227E+03  0.00000000000E+00 0. -1.
          5    1    6    6  503    0 -0.25887154689E+03 -0.58990912589E+03 -0.30505408176E+03  0.71280245328E+03  0.47000000000E+01 0. -1.
         -5    1    6    6    0  503 -0.16341595077E+03 -0.26108201751E+03 -0.10141018256E+03  0.32430650311E+03  0.47000000000E+01 0.  1.
<mgrwt>
<rscale>  0 0.12462288E+04</rscale>
<asrwt>0</asrwt>
<pdfrwt beam="1">  1        1 0.23659402E+00 0.12462288E+04</pdfrwt>
<pdfrwt beam="2">  1       -1 0.18868338E+00 0.12462288E+04</pdfrwt>
<totfact> 0.10832578E+00</totfact>
</mgrwt>
</event>
<event>
12    1  0.3127365E-008  0.8104998E+03  0.7818608E-02  0.9544942E-01
         -2   -1    0    0    0  501 -0.00000000000E+00  0.00000000000E+00  0.39872714594E+03  0.39872714594E+03  0.00000000000E+00 0.  1.
          2   -1    0    0  501    0  0.00000000000E+00 -0.00000000000E+00 -0.20364284783E+04  0.20364284783E+04  0.00000000000E+00 0. -1.
         23    2    1    2    0    0  0.58435919958E+02 -0.70499420896E+03 -0.12309954597E+04  0.14221734671E+04  0.82437597611E+02 0.  0.
    5000000    2    1    2    0    0 -0.58435919958E+02  0.70499420896E+03 -0.40670587268E+03  0.10129821571E+04  0.60024294440E+03 0.  0.
         23    2    4    4    0    0  0.16629388245E+03  0.63936600550E+03 -0.22371229863E+03  0.70309162132E+03  0.88589452440E+02 0.  0.
         23    2    4    4    0    0 -0.22472980241E+03  0.65628203454E+02 -0.18299357405E+03  0.30989053577E+03  0.87948569261E+02 0.  0.
          4    1    3    3  502    0  0.49840248252E+02 -0.37876322773E+03 -0.58997434196E+03  0.70286226047E+03  0.00000000000E+00 0. -1.
         -4    1    3    3    0  502  0.85956717058E+01 -0.32623098123E+03 -0.64102111772E+03  0.71931120667E+03  0.00000000000E+00 0.  1.
         11    1    5    5    0    0  0.10637625408E+03  0.25601374361E+03 -0.11502917753E+03  0.30015105536E+03  0.00000000000E+00 0.  1.
        -11    1    5    5    0    0  0.59917628365E+02  0.38335226189E+03 -0.10868312110E+03  0.40294056596E+03  0.00000000000E+00 0. -1.
          5    1    6    6  503    0 -0.16331512998E+03  0.88618484439E+01 -0.14193490993E+03  0.21660556940E+03  0.47000000000E+01 0. -1.
         -5    1    6    6    0  503 -0.61414672424E+02  0.56766355010E+02 -0.41058664120E+02  0.93284966363E+02  0.47000000000E+01 0.  1.
<mgrwt>
<rscale>  0 0.81049980E+03</rscale>
<asrwt>0</asrwt>
<pdfrwt beam="1">  1        2 0.31329670E+00 0.81049980E+03</pdfrwt>
<pdfrwt beam="2">  1       -2 0.61342637E-01 0.81049980E+03</pdfrwt>
<totfact> 0.16179089E+01</totfact>
</mgrwt>
</event>
<event>
12    1  0.3127365E-008  0.5551114E+03  0.7818608E-02  0.1000318E+00
         -2   -1    0    0    0  501 -0.00000000000E+00  0.00000000000E+00  0.27321023348E+03  0.27321023348E+03  0.00000000000E+00 0.  1.
          2   -1    0    0  501    0  0.00000000000E+00 -0.00000000000E+00 -0.13889293872E+04  0.13889293872E+04  0.00000000000E+00 0. -1.
         23    2    1    2    0    0 -0.44424805047E+02  0.40353798289E+03 -0.73295093257E+03  0.84275359845E+03  0.90554354936E+02 0.  0.
    5000000    2    1    2    0    0  0.44424805047E+02 -0.40353798289E+03 -0.38276822117E+03  0.81938602225E+03  0.60005456034E+03 0.  0.
         23    2    4    4    0    0  0.12008155208E+03 -0.52219983113E+03 -0.22548429390E+03  0.58865094769E+03  0.92490694847E+02 0.  0.
         23    2    4    4    0    0 -0.75656747032E+02  0.11866184824E+03 -0.15728392727E+03  0.23073507456E+03  0.93251612621E+02 0.  0.
          4    1    3    3  502    0 -0.13331602831E+02  0.17215867468E+03 -0.40422581773E+03  0.43956211464E+03  0.00000000000E+00 0. -1.
         -4    1    3    3    0  502 -0.31093202216E+02  0.23137930821E+03 -0.32872511484E+03  0.40319148381E+03  0.00000000000E+00 0.  1.
         13    1    5    5    0    0  0.20993110423E+02 -0.84068823352E+02 -0.13948905777E+01  0.86661545479E+02  0.00000000000E+00 0.  1.
        -13    1    5    5    0    0  0.99088441656E+02 -0.43813100778E+03 -0.22408940332E+03  0.50198940221E+03  0.00000000000E+00 0. -1.
          5    1    6    6  503    0 -0.84348006069E+02  0.48545528667E+02 -0.10042004780E+03  0.13991972871E+03  0.47000000000E+01 0. -1.
         -5    1    6    6    0  503  0.86912590370E+01  0.70116319577E+02 -0.56863879467E+02  0.90815345854E+02  0.47000000000E+01 0.  1.
<mgrwt>
<rscale>  0 0.55511136E+03</rscale>
<asrwt>0</asrwt>
<pdfrwt beam="1">  1        2 0.21368144E+00 0.55511136E+03</pdfrwt>
<pdfrwt beam="2">  1       -2 0.42032344E-01 0.55511136E+03</pdfrwt>
<totfact> 0.81869167E+01</totfact>
</mgrwt>
</event>
<event>
12    1  0.3127365E-008  0.1008969E+04  0.7818608E-02  0.9298762E-01
          3   -1    0    0  501    0  0.00000000000E+00  0.00000000000E+00  0.99227285050E+03  0.99227285050E+03  0.00000000000E+00 0. -1.
         -3   -1    0    0    0  501 -0.00000000000E+00 -0.00000000000E+00 -0.25094359497E+04  0.25094359497E+04  0.00000000000E+00 0.  1.
         23    2    1    2    0    0  0.72732704063E+03 -0.67498728522E+03 -0.20087080772E+04  0.22422039613E+04  0.89207652875E+02 0.  0.
    5000000    2    1    2    0    0 -0.72732704063E+03  0.67498728522E+03  0.49154497799E+03  0.12595048389E+04  0.60010292002E+03 0.  0.
         23    2    4    4    0    0 -0.60070758901E+03  0.46315858710E+03  0.75342409529E+02  0.76786287338E+03  0.92582014149E+02 0.  0.
         23    2    4    4    0    0 -0.12661945162E+03  0.21182869812E+03  0.41620256846E+03  0.49164196554E+03  0.87082497684E+02 0.  0.
          2    1    3    3  502    0  0.42026031448E+03 -0.37261728307E+03 -0.12309256461E+04  0.13530115734E+04  0.00000000000E+00 0. -1.
         -2    1    3    3    0  502  0.30706672615E+03 -0.30237000215E+03 -0.77778243110E+03  0.88919238787E+03  0.00000000000E+00 0.  1.
         13    1    5    5    0    0 -0.32349636688E+03  0.30542138958E+03  0.33002600931E+02  0.44611802953E+03  0.00000000000E+00 0.  1.
        -13    1    5    5    0    0 -0.27721122213E+03  0.15773719752E+03  0.42339808598E+02  0.32174484385E+03  0.00000000000E+00 0. -1.
          5    1    6    6  503    0 -0.39085972372E+02  0.14774610002E+03  0.25311485524E+03  0.29571243338E+03  0.47000000000E+01 0. -1.
         -5    1    6    6    0  503 -0.87533479252E+02  0.64082598101E+02  0.16308771322E+03  0.19592953216E+03  0.47000000000E+01 0.  1.
<mgrwt>
<rscale>  0 0.10089694E+04</rscale>
<asrwt>0</asrwt>
<pdfrwt beam="1">  1        3 0.15265736E+00 0.10089694E+04</pdfrwt>
<pdfrwt beam="2">  1       -3 0.38606707E+00 0.10089694E+04</pdfrwt>
<totfact> 0.99865104E-03</totfact>
</mgrwt>
</event>
<event>
12    1  0.3127365E-008  0.6637882E+03  0.7818608E-02  0.9781245E-01
          2   -1    0    0  501    0  0.00000000000E+00  0.00000000000E+00  0.33482800151E+03  0.33482800151E+03  0.00000000000E+00 0. -1.
         -2   -1    0    0    0  501 -0.00000000000E+00 -0.00000000000E+00 -0.18499094559E+04  0.18499094559E+04  0.00000000000E+00 0.  1.
         23    2    1    2    0    0  0.15104432088E+03  0.62563319984E+03 -0.39547570296E+03  0.76075565256E+03  0.90093527280E+02 0.  0.
    5000000    2    1    2    0    0 -0.15104432088E+03 -0.62563319984E+03 -0.11196057514E+04  0.14239818048E+04  0.59997987822E+03 0.  0.
         23    2    4    4    0    0 -0.16454406560E+03 -0.31367041896E+03 -0.14016952667E+03  0.39189260472E+03  0.92024106494E+02 0.  0.
         23    2    4    4    0    0  0.13499744723E+02 -0.31196278088E+03 -0.97943622472E+03  0.10320892001E+04  0.91704846518E+02 0.  0.
          2    1    3    3  502    0  0.12878437778E+03  0.60210698453E+03 -0.38710900968E+03  0.72730435318E+03  0.00000000000E+00 0. -1.
         -2    1    3    3    0  502  0.22259943105E+02  0.23526215313E+02 -0.83666932820E+01  0.33451299384E+02  0.00000000000E+00 0.  1.
         11    1    5    5    0    0 -0.16790266960E+03 -0.24610988516E+03 -0.10706239519E+03  0.31658132999E+03  0.00000000000E+00 0.  1.
        -11    1    5    5    0    0  0.33586039955E+01 -0.67560533799E+02 -0.33107131480E+02  0.75311274739E+02  0.00000000000E+00 0. -1.
          5    1    6    6  503    0  0.10424655844E+02 -0.34018809536E+02 -0.47263385321E+02  0.59345348965E+02  0.47000000000E+01 0.  1.
         -5    1    6    6    0  503  0.30750888789E+01 -0.27794397135E+03 -0.93217283940E+03  0.97274385112E+03  0.47000000000E+01 0.  1.
<mgrwt>
<rscale>  0 0.66378817E+03</rscale>
<asrwt>0</asrwt>
<pdfrwt beam="1">  1        2 0.51511999E-01 0.66378817E+03</pdfrwt>
<pdfrwt beam="2">  1       -2 0.28460146E+00 0.66378817E+03</pdfrwt>
<totfact> 0.40209399E+00</totfact>
</mgrwt>
</event>
<event>
12    1  0.3127365E-008  0.6792732E+03  0.7818608E-02  0.9753349E-01
         -1   -1    0    0    0  501 -0.00000000000E+00  0.00000000000E+00  0.35615198437E+03  0.35615198437E+03  0.00000000000E+00 0.  1.
          1   -1    0    0  501    0  0.00000000000E+00 -0.00000000000E+00 -0.13462233709E+04  0.13462233709E+04  0.00000000000E+00 0. -1.
         23    2    1    2    0    0  0.20909414733E+03 -0.51131313246E+03 -0.31070368461E+03  0.64097241417E+03  0.95641906188E+02 0.  0.
    5000000    2    1    2    0    0 -0.20909414733E+03  0.51131313246E+03 -0.67936770188E+03  0.10614029411E+04  0.59989519674E+03 0.  0.
         23    2    4    4    0    0 -0.33563727768E+03  0.89742684817E+02 -0.23363295918E+03  0.42842259177E+03  0.90859374188E+02 0.  0.
         23    2    4    4    0    0  0.12654313035E+03  0.42157044764E+03 -0.44573474270E+03  0.63298034930E+03  0.90828715633E+02 0.  0.
          4    1    3    3  502    0  0.33812382892E+02 -0.20243499225E+03 -0.10468028118E+03  0.23039349945E+03  0.00000000000E+00 0. -1.
         -4    1    3    3    0  502  0.17528176444E+03 -0.30887814021E+03 -0.20602340344E+03  0.41057891472E+03  0.00000000000E+00 0.  1.
         13    1    5    5    0    0 -0.18758520504E+03  0.78433262102E+02 -0.91805799155E+02  0.22308807793E+03  0.00000000000E+00 0. -1.
        -13    1    5    5    0    0 -0.14805207263E+03  0.11309422715E+02 -0.14182716003E+03  0.20533451384E+03  0.00000000000E+00 0.  1.
          5    1    6    6  503    0  0.79468216675E+01  0.14623594244E+03 -0.18209767509E+03  0.23373009243E+03  0.47000000000E+01 0. -1.
         -5    1    6    6    0  503  0.11859630868E+03  0.27533450520E+03 -0.26363706761E+03  0.39925025686E+03  0.47000000000E+01 0.  1.
<mgrwt>
<rscale>  0 0.67927316E+03</rscale>
<asrwt>0</asrwt>
<pdfrwt beam="1">  1        1 0.20711129E+00 0.67927316E+03</pdfrwt>
<pdfrwt beam="2">  1       -1 0.54792613E-01 0.67927316E+03</pdfrwt>
<totfact> 0.29341850E+01</totfact>
</mgrwt>
</event>
<event>
12    1  0.3127365E-008  0.5873818E+03  0.7818608E-02  0.9931936E-01
         -3   -1    0    0    0  501 -0.00000000000E+00  0.00000000000E+00  0.44436730854E+03  0.44436730854E+03  0.00000000000E+00 0.  1.
          3   -1    0    0  501    0  0.00000000000E+00 -0.00000000000E+00 -0.12152619792E+04  0.12152619792E+04  0.00000000000E+00 0. -1.
         23    2    1    2    0    0  0.37945148444E+03  0.21138088170E+03 -0.80384201894E+03  0.91826167357E+03  0.91527064584E+02 0.  0.
    5000000    2    1    2    0    0 -0.37945148444E+03 -0.21138088170E+03  0.32947348292E+02  0.74136761415E+03  0.59989591211E+03 0.  0.
         23    2    4    4    0    0 -0.51638530118E+03 -0.24085630195E+03  0.49602195636E+02  0.57893880590E+03  0.89689607579E+02 0.  0.
         23    2    4    4    0    0  0.13693381674E+03  0.29475420250E+02 -0.16654847344E+02  0.16242880825E+03  0.80536099003E+02 0.  0.
          1    1    3    3  502    0  0.29785329551E+03  0.11944936651E+03 -0.57435538530E+03  0.65792769012E+03  0.00000000000E+00 0. -1.
         -1    1    3    3    0  502  0.81598188930E+02  0.91931515185E+02 -0.22948663364E+03  0.26033398345E+03  0.00000000000E+00 0.  1.
         11    1    5    5    0    0 -0.79479235778E+02 -0.45121846560E+02  0.40858726110E+02  0.10011176482E+03  0.00000000000E+00 0. -1.
        -11    1    5    5    0    0 -0.43690606540E+03 -0.19573445539E+03  0.87434695262E+01  0.47882704108E+03  0.00000000000E+00 0.  1.
          5    1    6    6  503    0  0.10437942952E+03 -0.14910316513E+02 -0.33118241157E+01  0.10559564870E+03  0.47000000000E+01 0. -1.
         -5    1    6    6    0  503  0.32554387222E+02  0.44385736763E+02 -0.13343023228E+02  0.56833159548E+02  0.47000000000E+01 0.  1.
<mgrwt>
<rscale>  0 0.58738183E+03</rscale>
<asrwt>0</asrwt>
<pdfrwt beam="1">  1        3 0.18696338E+00 0.58738183E+03</pdfrwt>
<pdfrwt beam="2">  1       -3 0.68364201E-01 0.58738183E+03</pdfrwt>
<totfact> 0.96514628E-01</totfact>
</mgrwt>
</event>
<event>
12    1  0.3127365E-008  0.9025150E+03  0.7818608E-02  0.9422443E-01
          1   -1    0    0  501    0  0.00000000000E+00  0.00000000000E+00  0.84527874713E+03  0.84527874713E+03  0.00000000000E+00 0. -1.
         -1   -1    0    0    0  501 -0.00000000000E+00 -0.00000000000E+00 -0.10426992704E+04  0.10426992704E+04  0.00000000000E+00 0.  1.
         23    2    1    2    0    0  0.74581081088E+03  0.30906051945E+03 -0.31522213488E+03  0.87515519513E+03  0.12157076515E+03 0.  0.
    5000000    2    1    2    0    0 -0.74581081088E+03 -0.30906051945E+03  0.11780161159E+03  0.10128228224E+04  0.60015054747E+03 0.  0.
         23    2    4    4    0    0 -0.82470876196E+03 -0.31174561286E+03  0.10194879752E+03  0.89116893470E+03  0.80365687137E+02 0.  0.
         23    2    4    4    0    0  0.78897951081E+02  0.26850934042E+01  0.15852814071E+02  0.12165388773E+03  0.91193531974E+02 0.  0.
          2    1    3    3  502    0  0.21698320808E+03  0.86446465304E+02 -0.15179542210E+03  0.27856158048E+03  0.00000000000E+00 0. -1.
         -2    1    3    3    0  502  0.52882760280E+03  0.22261405415E+03 -0.16342671278E+03  0.59659361465E+03  0.00000000000E+00 0.  1.
         11    1    5    5    0    0 -0.19768339414E+03 -0.11146820627E+03  0.33059668887E+02  0.22933998132E+03  0.00000000000E+00 0.  1.
        -11    1    5    5    0    0 -0.62702536782E+03 -0.20027740658E+03  0.68889128634E+02  0.66182895337E+03  0.00000000000E+00 0. -1.
          5    1    6    6  503    0  0.52422962801E+02 -0.37167460303E+02  0.30651208410E+02  0.71352461143E+02  0.47000000000E+01 0.  1.
         -5    1    6    6    0  503  0.26474988280E+02  0.39852553707E+02 -0.14798394338E+02  0.50301426584E+02  0.47000000000E+01 0. -1.
<mgrwt>
<rscale>  0 0.90251505E+03</rscale>
<asrwt>0</asrwt>
<pdfrwt beam="1">  1        1 0.13004288E+00 0.90251505E+03</pdfrwt>
<pdfrwt beam="2">  1       -1 0.16041527E+00 0.90251505E+03</pdfrwt>
<totfact> 0.59451018E+00</totfact>
</mgrwt>
</event>
<event>
12    1  0.3127365E-008  0.1312837E+04  0.7818608E-02  0.9019446E-01
         -2   -1    0    0    0  501 -0.00000000000E+00  0.00000000000E+00  0.53152586507E+03  0.53152586507E+03  0.00000000000E+00 0.  1.
          2   -1    0    0  501    0  0.00000000000E+00 -0.00000000000E+00 -0.36786029515E+04  0.36786029515E+04  0.00000000000E+00 0. -1.
         23    2    1    2    0    0  0.12343618297E+04 -0.24050633179E+03 -0.21652097581E+04  0.25055513879E+04  0.90344001967E+02 0.  0.
    5000000    2    1    2    0    0 -0.12343618297E+04  0.24050633179E+03 -0.98186732834E+03  0.17045774287E+04  0.60002361418E+03 0.  0.
         23    2    4    4    0    0 -0.11214785703E+04  0.36645513101E+03 -0.93020917658E+03  0.15052023315E+04  0.91331264170E+02 0.  0.
         23    2    4    4    0    0 -0.11288325943E+03 -0.12594879922E+03 -0.51658151753E+02  0.19937509720E+03  0.92065924513E+02 0.  0.
          3    1    3    3  502    0  0.46520197783E+03 -0.11520217493E+03 -0.75258870418E+03  0.89222989131E+03  0.00000000000E+00 0. -1.
         -3    1    3    3    0  502  0.76915985187E+03 -0.12530415686E+03 -0.14126210539E+04  0.16133214966E+04  0.00000000000E+00 0.  1.
         13    1    5    5    0    0 -0.10140824137E+04  0.34203305039E+03 -0.81010678754E+03  0.13422454159E+04  0.00000000000E+00 0.  1.
        -13    1    5    5    0    0 -0.10739615654E+03  0.24422080611E+02 -0.12010238905E+03  0.16295691552E+03  0.00000000000E+00 0. -1.
          5    1    6    6  503    0 -0.21077373002E+02 -0.82159344967E+02 -0.47809224445E+02  0.97479359662E+02  0.47000000000E+01 0. -1.
         -5    1    6    6    0  503 -0.91805886431E+02 -0.43789454249E+02 -0.38489273081E+01  0.10189573754E+03  0.47000000000E+01 0.  1.
<mgrwt>
<rscale>  0 0.13128374E+04</rscale>
<asrwt>0</asrwt>
<pdfrwt beam="1">  1        2 0.56593890E+00 0.13128374E+04</pdfrwt>
<pdfrwt beam="2">  1       -2 0.81773213E-01 0.13128374E+04</pdfrwt>
<totfact> 0.78956790E-01</totfact>
</mgrwt>
</event>
<event>
12    1  0.3127365E-008  0.9559808E+03  0.7818608E-02  0.9358187E-01
         -2   -1    0    0    0  501 -0.00000000000E+00  0.00000000000E+00  0.14063577748E+04  0.14063577748E+04  0.00000000000E+00 0.  1.
          2   -1    0    0  501    0  0.00000000000E+00 -0.00000000000E+00 -0.83555607870E+03  0.83555607870E+03  0.00000000000E+00 0. -1.
         23    2    1    2    0    0  0.88371617212E+03  0.33838961861E+03  0.59492837491E+03  0.11212272471E+04  0.88028186016E+02 0.  0.
    5000000    2    1    2    0    0 -0.88371617212E+03 -0.33838961861E+03 -0.24126678796E+02  0.11206866064E+04  0.59991213214E+03 0.  0.
         23    2    4    4    0    0 -0.14298044189E+03 -0.10758453362E+02 -0.22487988725E+03  0.28125250721E+03  0.89290862025E+02 0.  0.
         23    2    4    4    0    0 -0.74073573023E+03 -0.32763116524E+03  0.20075320845E+03  0.83943409919E+03  0.91192947643E+02 0.  0.
          4    1    3    3  502    0  0.76942470676E+03  0.30403689204E+03  0.55122754192E+03  0.99413510855E+03  0.00000000000E+00 0. -1.
         -4    1    3    3    0  502  0.11429146537E+03  0.34352726565E+02  0.43700832988E+02  0.12709213855E+03  0.00000000000E+00 0.  1.
         11    1    5    5    0    0 -0.10852917096E+03  0.12865466292E+02 -0.94955685738E+02  0.14477804884E+03  0.00000000000E+00 0.  1.
        -11    1    5    5    0    0 -0.34451270926E+02 -0.23623919654E+02 -0.12992420151E+03  0.13647445836E+03  0.00000000000E+00 0. -1.
          5    1    6    6  503    0 -0.71622395998E+03 -0.33105610484E+03  0.18772256418E+03  0.81107136339E+03  0.47000000000E+01 0. -1.
         -5    1    6    6    0  503 -0.24511770250E+02  0.34249396005E+01  0.13030644272E+02  0.28362735802E+02  0.47000000000E+01 0.  1.
<mgrwt>
<rscale>  0 0.95598079E+03</rscale>
<asrwt>0</asrwt>
<pdfrwt beam="1">  1        2 0.12854709E+00 0.95598079E+03</pdfrwt>
<pdfrwt beam="2">  1       -2 0.21636273E+00 0.95598079E+03</pdfrwt>
<totfact> 0.33821025E+00</totfact>
</mgrwt>
</event>
<event>
12    1  0.3127365E-008  0.9846773E+03  0.7818608E-02  0.9325512E-01
         -1   -1    0    0    0  501 -0.00000000000E+00  0.00000000000E+00  0.69606729945E+03  0.69606729945E+03  0.00000000000E+00 0.  1.
          1   -1    0    0  501    0  0.00000000000E+00 -0.00000000000E+00 -0.16145049406E+04  0.16145049406E+04  0.00000000000E+00 0. -1.
         23    2    1    2    0    0 -0.24076286858E+03 -0.86199456172E+03 -0.83890636302E+03  0.12301770228E+04  0.92575581634E+02 0.  0.
    5000000    2    1    2    0    0  0.24076286858E+03  0.86199456172E+03 -0.79531278166E+02  0.10803952172E+04  0.59993934520E+03 0.  0.
         23    2    4    4    0    0 -0.13962645325E+03  0.51962344925E+02  0.13088826384E+02  0.17602919422E+03  0.92840336634E+02 0.  0.
         23    2    4    4    0    0  0.38038932182E+03  0.81003221679E+03 -0.92620104550E+02  0.90436602302E+03  0.91930361813E+02 0.  0.
          4    1    3    3  502    0 -0.11308929815E+03 -0.30640515734E+03 -0.35532082146E+03  0.48262428033E+03  0.00000000000E+00 0. -1.
         -4    1    3    3    0  502 -0.12767357042E+03 -0.55558940438E+03 -0.48358554156E+03  0.74755274252E+03  0.00000000000E+00 0.  1.
         13    1    5    5    0    0 -0.95803728698E+02 -0.12232876185E+02 -0.31130754846E+01  0.96631718039E+02  0.00000000000E+00 0.  1.
        -13    1    5    5    0    0 -0.43822724548E+02  0.64195221110E+02  0.16201901869E+02  0.79397476183E+02  0.00000000000E+00 0. -1.
          5    1    6    6  503    0  0.22383424081E+03  0.56282040051E+03 -0.40121392989E+02  0.60704232699E+03  0.47000000000E+01 0. -1.
         -5    1    6    6    0  503  0.15655508101E+03  0.24721181629E+03 -0.52498711561E+02  0.29732369603E+03  0.47000000000E+01 0.  1.
<mgrwt>
<rscale>  0 0.98467729E+03</rscale>
<asrwt>0</asrwt>
<pdfrwt beam="1">  1        1 0.24838537E+00 0.98467729E+03</pdfrwt>
<pdfrwt beam="2">  1       -1 0.10708728E+00 0.98467729E+03</pdfrwt>
<totfact> 0.44720215E+00</totfact>
</mgrwt>
</event>
<event>
12    1  0.3127365E-008  0.8089439E+03  0.7818608E-02  0.9547161E-01
          1   -1    0    0  501    0  0.00000000000E+00  0.00000000000E+00  0.24883587272E+04  0.24883587272E+04  0.00000000000E+00 0. -1.
         -1   -1    0    0    0  501 -0.00000000000E+00 -0.00000000000E+00 -0.43900886177E+03  0.43900886177E+03  0.00000000000E+00 0.  1.
         23    2    1    2    0    0 -0.29282823657E+03 -0.71042831485E+03  0.17403783478E+04  0.19046273165E+04  0.90728466680E+02 0.  0.
    5000000    2    1    2    0    0  0.29282823657E+03  0.71042831485E+03  0.30897151765E+03  0.10227402725E+04  0.60006457948E+03 0.  0.
         23    2    4    4    0    0  0.19293568828E+03  0.87216712854E+02  0.30815125304E+03  0.38443637411E+03  0.89460584473E+02 0.  0.
         23    2    4    4    0    0  0.99892548293E+02  0.62321160199E+03  0.82026461120E+00  0.63830389836E+03  0.95183883974E+02 0.  0.
          3    1    3    3  502    0 -0.27159829277E+01 -0.76226263336E+02  0.16420696251E+03  0.18105730121E+03  0.00000000000E+00 0. -1.
         -3    1    3    3    0  502 -0.29011225365E+03 -0.63420205151E+03  0.15761713853E+04  0.17235700153E+04  0.00000000000E+00 0.  1.
         13    1    5    5    0    0  0.15553335976E+03  0.63538567367E+02  0.29280709772E+03  0.33758520705E+03  0.00000000000E+00 0.  1.
        -13    1    5    5    0    0  0.37402328517E+02  0.23678145487E+02  0.15344155315E+02  0.46851167056E+02  0.00000000000E+00 0. -1.
          5    1    6    6  503    0  0.77757828701E+02  0.54391177797E+03  0.31383072333E+02  0.55035741966E+03  0.47000000000E+01 0. -1.
         -5    1    6    6    0  503  0.22134719593E+02  0.79299824018E+02 -0.30562807721E+02  0.87946478705E+02  0.47000000000E+01 0.  1.
<mgrwt>
<rscale>  0 0.80894388E+03</rscale>
<asrwt>0</asrwt>
<pdfrwt beam="1">  1        1 0.38282441E+00 0.80894388E+03</pdfrwt>
<pdfrwt beam="2">  1       -1 0.67539827E-01 0.80894388E+03</pdfrwt>
<totfact> 0.32166407E+00</totfact>
</mgrwt>
</event>
<event>
12    1  0.3127365E-008  0.5991460E+03  0.7818608E-02  0.9907179E-01
         -2   -1    0    0    0  501 -0.00000000000E+00  0.00000000000E+00  0.89142660561E+03  0.89142660561E+03  0.00000000000E+00 0. -1.
          2   -1    0    0  501    0  0.00000000000E+00 -0.00000000000E+00 -0.64175228121E+03  0.64175228121E+03  0.00000000000E+00 0.  1.
         23    2    1    2    0    0 -0.24551427196E+01  0.45829168796E+03  0.54888208699E+03  0.72109371876E+03  0.93098371848E+02 0.  0.
    5000000    2    1    2    0    0  0.24551427196E+01 -0.45829168796E+03 -0.29920776259E+03  0.81208516806E+03  0.59993310961E+03 0.  0.
         23    2    4    4    0    0  0.25571806972E+03 -0.39474681698E+03 -0.16944826977E+03  0.50816108016E+03  0.91094382746E+02 0.  0.
         23    2    4    4    0    0 -0.25326292700E+03 -0.63544870981E+02 -0.12975949281E+03  0.30392408790E+03  0.85745346287E+02 0.  0.
          1    1    3    3  502    0  0.14760355845E+01  0.18393484473E+03  0.15210624954E+03  0.23868497426E+03  0.00000000000E+00 0. -1.
         -1    1    3    3    0  502 -0.39311783042E+01  0.27435684322E+03  0.39677583745E+03  0.48240874450E+03  0.00000000000E+00 0.  1.
         11    1    5    5    0    0  0.23178871588E+02 -0.27140649491E+02 -0.41532381239E+02  0.54761424692E+02  0.00000000000E+00 0. -1.
        -11    1    5    5    0    0  0.23253919813E+03 -0.36760616749E+03 -0.12791588853E+03  0.45339965547E+03  0.00000000000E+00 0.  1.
          5    1    6    6  503    0 -0.17141341157E+03 -0.73772669269E+02 -0.60856076446E+02  0.19634285431E+03  0.47000000000E+01 0. -1.
         -5    1    6    6    0  503 -0.81849515424E+02  0.10227798288E+02 -0.68903416368E+02  0.10758123359E+03  0.47000000000E+01 0.  1.
<mgrwt>
<rscale>  0 0.59914601E+03</rscale>
<asrwt>0</asrwt>
<pdfrwt beam="1">  1        2 0.98731121E-01 0.59914601E+03</pdfrwt>
<pdfrwt beam="2">  1       -2 0.13714255E+00 0.59914601E+03</pdfrwt>
<totfact> 0.17830448E+01</totfact>
</mgrwt>
</event>
<event>
12    1  0.3127365E-008  0.4960403E+03  0.7818608E-02  0.1014818E+00
          2   -1    0    0  501    0  0.00000000000E+00  0.00000000000E+00  0.15948192508E+04  0.15948192508E+04  0.00000000000E+00 0. -1.
         -2   -1    0    0    0  501 -0.00000000000E+00 -0.00000000000E+00 -0.18445732066E+03  0.18445732066E+03  0.00000000000E+00 0.  1.
         23    2    1    2    0    0 -0.11449443907E+03  0.31877449233E+03  0.73668978743E+03  0.81560145452E+03  0.88134761458E+02 0.  0.
    5000000    2    1    2    0    0  0.11449443907E+03 -0.31877449233E+03  0.67367214271E+03  0.96367511693E+03  0.60009117773E+03 0.  0.
         23    2    4    4    0    0 -0.15076836924E+03 -0.32699662116E+03  0.53533017752E+03  0.65133232018E+03  0.89428747838E+02 0.  0.
         23    2    4    4    0    0  0.26526280832E+03  0.82221288283E+01  0.13834196519E+03  0.31234279675E+03  0.89373164144E+02 0.  0.
          1    1    3    3  502    0 -0.75113486793E+02  0.11008034511E+03  0.22369413193E+03  0.26038199427E+03  0.00000000000E+00 0. -1.
         -1    1    3    3    0  502 -0.39380952279E+02  0.20869414721E+03  0.51299565550E+03  0.55521946025E+03  0.00000000000E+00 0.  1.
         13    1    5    5    0    0  0.91306672948E+01 -0.51201125798E+02  0.83003524069E+02  0.97951566481E+02  0.00000000000E+00 0.  1.
        -13    1    5    5    0    0 -0.15989903654E+03 -0.27579549536E+03  0.45232665345E+03  0.55338075370E+03  0.00000000000E+00 0. -1.
          5    1    6    6  503    0  0.26516102624E+03  0.16924228368E+02  0.14258755530E+03  0.30157934324E+03  0.47000000000E+01 0. -1.
         -5    1    6    6    0  503  0.10178207269E+00 -0.87020995397E+01 -0.42455901086E+01  0.10763453505E+02  0.47000000000E+01 0.  1.
<mgrwt>
<rscale>  0 0.49604030E+03</rscale>
<asrwt>0</asrwt>
<pdfrwt beam="1">  1        2 0.24535680E+00 0.49604030E+03</pdfrwt>
<pdfrwt beam="2">  1       -2 0.28378050E-01 0.49604030E+03</pdfrwt>
<totfact> 0.13348659E+02</totfact>
</mgrwt>
</event>
<event>
12    1  0.3127365E-008  0.4763364E+03  0.7818608E-02  0.1020147E+00
         -2   -1    0    0    0  501 -0.00000000000E+00  0.00000000000E+00  0.15846548754E+03  0.15846548754E+03  0.00000000000E+00 0. -1.
          2   -1    0    0  501    0  0.00000000000E+00 -0.00000000000E+00 -0.16164749299E+04  0.16164749299E+04  0.00000000000E+00 0.  1.
         23    2    1    2    0    0  0.90599937126E+01  0.30419701451E+03 -0.65509103089E+03  0.72741324145E+03  0.85836227530E+02 0.  0.
    5000000    2    1    2    0    0 -0.90599937126E+01 -0.30419701451E+03 -0.80291841146E+03  0.10475271760E+04  0.60001441803E+03 0.  0.
         23    2    4    4    0    0  0.37137020721E+02 -0.45465517543E+03 -0.69395859881E+03  0.83474858193E+03  0.84475862370E+02 0.  0.
         23    2    4    4    0    0 -0.46197014434E+02  0.15045816092E+03 -0.10895981265E+03  0.21277859405E+03  0.92901383109E+02 0.  0.
          3    1    3    3  502    0  0.41587368303E+02  0.12581913641E+03 -0.32130098129E+03  0.34755472212E+03  0.00000000000E+00 0. -1.
         -3    1    3    3    0  502 -0.32527374590E+02  0.17837787811E+03 -0.33379004959E+03  0.37985851933E+03  0.00000000000E+00 0.  1.
         13    1    5    5    0    0  0.31627225412E+02 -0.33865900204E+03 -0.44558141244E+03  0.56056489023E+03  0.00000000000E+00 0. -1.
        -13    1    5    5    0    0  0.55097953094E+01 -0.11599617339E+03 -0.24837718637E+03  0.27418369170E+03  0.00000000000E+00 0.  1.
          5    1    6    6  503    0 -0.30672756656E+02 -0.21976732777E+00 -0.15007969785E+02  0.34470211134E+02  0.47000000000E+01 0. -1.
         -5    1    6    6    0  503 -0.15524257777E+02  0.15067792825E+03 -0.93951842864E+02  0.17830838292E+03  0.47000000000E+01 0.  1.
<mgrwt>
<rscale>  0 0.47633645E+03</rscale>
<asrwt>0</asrwt>
<pdfrwt beam="1">  1        2 0.24868844E+00 0.47633645E+03</pdfrwt>
<pdfrwt beam="2">  1       -2 0.24379306E-01 0.47633645E+03</pdfrwt>
<totfact> 0.17134194E+02</totfact>
</mgrwt>
</event>
<event>
12    1  0.3127365E-008  0.4615485E+03  0.7818608E-02  0.1024333E+00
         -1   -1    0    0    0  501 -0.00000000000E+00  0.00000000000E+00  0.25669282602E+03  0.25669282602E+03  0.00000000000E+00 0.  1.
          1   -1    0    0  501    0  0.00000000000E+00 -0.00000000000E+00 -0.12047039072E+04  0.12047039072E+04  0.00000000000E+00 0. -1.
         23    2    1    2    0    0  0.37872525885E+03 -0.36800704269E+02 -0.24348437634E+03  0.46087952104E+03  0.91313623658E+02 0.  0.
    5000000    2    1    2    0    0 -0.37872525885E+03  0.36800704269E+02 -0.70452670479E+03  0.10005172121E+04  0.59990807668E+03 0.  0.
         23    2    4    4    0    0  0.49667951305E+02  0.58801084862E+02 -0.50262179403E+03  0.51702856361E+03  0.93623687066E+02 0.  0.
         23    2    4    4    0    0 -0.42839321016E+03 -0.22000380593E+02 -0.20190491076E+03  0.48348864852E+03  0.94820467233E+02 0.  0.
          4    1    3    3  502    0  0.98186485674E+02  0.24167957494E+02 -0.89846151250E+02  0.13526642981E+03  0.00000000000E+00 0. -1.
         -4    1    3    3    0  502  0.28053877318E+03 -0.60968661763E+02 -0.15363822509E+03  0.32561309123E+03  0.00000000000E+00 0.  1.
         11    1    5    5    0    0 -0.17599288482E+02  0.20823148554E+01 -0.21197907723E+02  0.27630097396E+02  0.00000000000E+00 0.  1.
        -11    1    5    5    0    0  0.67267239787E+02  0.56718770007E+02 -0.48142388631E+03  0.48939846621E+03  0.00000000000E+00 0. -1.
          5    1    6    6  503    0 -0.35148001876E+03 -0.15523725351E+02 -0.20287905747E+03  0.40615414758E+03  0.47000000000E+01 0. -1.
         -5    1    6    6    0  503 -0.76913191399E+02 -0.64766552422E+01  0.97414671218E+00  0.77334500944E+02  0.47000000000E+01 0.  1.
<mgrwt>
<rscale>  0 0.46154855E+03</rscale>
<asrwt>0</asrwt>
<pdfrwt beam="1">  1        1 0.18533906E+00 0.46154855E+03</pdfrwt>
<pdfrwt beam="2">  1       -1 0.39491204E-01 0.46154855E+03</pdfrwt>
<totfact> 0.70036292E+01</totfact>
</mgrwt>
</event>
<event>
12    1  0.3127365E-008  0.8995673E+03  0.7818608E-02  0.9426123E-01
          1   -1    0    0  501    0  0.00000000000E+00  0.00000000000E+00  0.60729878067E+03  0.60729878067E+03  0.00000000000E+00 0. -1.
         -1   -1    0    0    0  501 -0.00000000000E+00 -0.00000000000E+00 -0.15216030967E+04  0.15216030967E+04  0.00000000000E+00 0.  1.
         23    2    1    2    0    0 -0.48739898008E+03 -0.64507776295E+03 -0.72743112984E+02  0.81667176835E+03  0.89320382304E+02 0.  0.
    5000000    2    1    2    0    0  0.48739898008E+03  0.64507776295E+03 -0.84156120309E+03  0.13122301091E+04  0.60003292791E+03 0.  0.
         23    2    4    4    0    0  0.37283134058E+03  0.45626416039E+02 -0.27456825631E+03  0.47451140366E+03  0.93211407386E+02 0.  0.
         23    2    4    4    0    0  0.11456763950E+03  0.59945134691E+03 -0.56699294678E+03  0.83771870542E+03  0.88453187502E+02 0.  0.
          2    1    3    3  502    0 -0.37528513274E+03 -0.47626786779E+03 -0.91227672066E+02  0.61318227379E+03  0.00000000000E+00 0. -1.
         -2    1    3    3    0  502 -0.11211384734E+03 -0.16880989516E+03  0.18484559082E+02  0.20348949456E+03  0.00000000000E+00 0.  1.
         13    1    5    5    0    0  0.13429833483E+02 -0.88354229779E+01 -0.36780026259E+02  0.40139699279E+02  0.00000000000E+00 0.  1.
        -13    1    5    5    0    0  0.35940150710E+03  0.54461839017E+02 -0.23778823006E+03  0.43437170438E+03  0.00000000000E+00 0. -1.
          5    1    6    6  503    0  0.38085283665E+02  0.16618064657E+03 -0.10787194607E+03  0.20180421917E+03  0.47000000000E+01 0. -1.
         -5    1    6    6    0  503  0.76482355838E+02  0.43327070034E+03 -0.45912100071E+03  0.63591448625E+03  0.47000000000E+01 0.  1.
<mgrwt>
<rscale>  0 0.89956728E+03</rscale>
<asrwt>0</asrwt>
<pdfrwt beam="1">  1        1 0.93430584E-01 0.89956728E+03</pdfrwt>
<pdfrwt beam="2">  1       -1 0.23409278E+00 0.89956728E+03</pdfrwt>
<totfact> 0.30420602E+00</totfact>
</mgrwt>
</event>
<event>
12    1  0.3127365E-008  0.3683999E+03  0.7818608E-02  0.1055306E+00
          1   -1    0    0  501    0  0.00000000000E+00  0.00000000000E+00  0.61604599682E+03  0.61604599682E+03  0.00000000000E+00 0. -1.
         -1   -1    0    0    0  501 -0.00000000000E+00 -0.00000000000E+00 -0.38592657577E+03  0.38592657577E+03  0.00000000000E+00 0.  1.
         23    2    1    2    0    0  0.20632401505E+03  0.20965854618E+03  0.72077034944E+02  0.31550512252E+03  0.88442513525E+02 0.  0.
    5000000    2    1    2    0    0 -0.20632401505E+03 -0.20965854618E+03  0.15804238611E+03  0.68646745007E+03  0.59977817485E+03 0.  0.
         23    2    4    4    0    0 -0.22389043245E+03 -0.25311279825E+03  0.33364653324E+03  0.48357503540E+03  0.91278646711E+02 0.  0.
         23    2    4    4    0    0  0.17566417394E+02  0.43454252070E+02 -0.17560414713E+03  0.20289241467E+03  0.90175741730E+02 0.  0.
          2    1    3    3  502    0  0.16562049105E+03  0.14466361313E+03  0.88557734821E+02  0.23706577234E+03  0.00000000000E+00 0. -1.
         -2    1    3    3    0  502  0.40703524001E+02  0.64994933052E+02 -0.16480699877E+02  0.78439350181E+02  0.00000000000E+00 0.  1.
         11    1    5    5    0    0 -0.13831439193E+03 -0.17518461408E+03  0.15895567726E+03  0.27402085205E+03  0.00000000000E+00 0.  1.
        -11    1    5    5    0    0 -0.85576040519E+02 -0.77928184169E+02  0.17469085598E+03  0.20955418335E+03  0.00000000000E+00 0. -1.
          5    1    6    6  503    0  0.76893469127E+01 -0.27773099233E+02 -0.58728231245E+02  0.65586326640E+02  0.47000000000E+01 0. -1.
         -5    1    6    6    0  503  0.98770704814E+01  0.71227351304E+02 -0.11687591589E+03  0.13730608803E+03  0.47000000000E+01 0.  1.
<mgrwt>
<rscale>  0 0.36839988E+03</rscale>
<asrwt>0</asrwt>
<pdfrwt beam="1">  1        1 0.94776307E-01 0.36839988E+03</pdfrwt>
<pdfrwt beam="2">  1       -1 0.59373319E-01 0.36839988E+03</pdfrwt>
<totfact> 0.10020937E+02</totfact>
</mgrwt>
</event>
<event>
12    1  0.3127365E-008  0.4273592E+03  0.7818608E-02  0.1034697E+00
         -1   -1    0    0    0  501 -0.00000000000E+00  0.00000000000E+00  0.53825705159E+03  0.53825705159E+03  0.00000000000E+00 0.  1.
          1   -1    0    0  501    0  0.00000000000E+00 -0.00000000000E+00 -0.66158436553E+03  0.66158436553E+03  0.00000000000E+00 0. -1.
         23    2    1    2    0    0 -0.32640901509E+03 -0.22451918529E+03  0.14630975779E+03  0.43202026923E+03  0.91012406327E+02 0.  0.
    5000000    2    1    2    0    0  0.32640901509E+03  0.22451918529E+03 -0.26963707173E+03  0.76782114789E+03  0.59991120593E+03 0.  0.
         23    2    4    4    0    0  0.18435555634E+03  0.19465383532E+03  0.14509046917E+03  0.31875485259E+03  0.93146793015E+02 0.  0.
         23    2    4    4    0    0  0.14205345875E+03  0.29865349968E+02 -0.41472754089E+03  0.44906629530E+03  0.92684843027E+02 0.  0.
          3    1    3    3  502    0 -0.12220061953E+03 -0.44085668920E+02  0.19164543537E+02  0.13131571630E+03  0.00000000000E+00 0. -1.
         -3    1    3    3    0  502 -0.20420839556E+03 -0.18043351637E+03  0.12714521425E+03  0.30070455293E+03  0.00000000000E+00 0.  1.
         11    1    5    5    0    0  0.34734727566E+02 -0.15686526919E+01  0.32235118625E+02  0.47413762171E+02  0.00000000000E+00 0. -1.
        -11    1    5    5    0    0  0.14962082877E+03  0.19622248801E+03  0.11285535054E+03  0.27134109042E+03  0.00000000000E+00 0.  1.
          5    1    6    6  503    0  0.14977946492E+03  0.11483739003E+02 -0.38143088904E+03  0.40997241064E+03  0.47000000000E+01 0. -1.
         -5    1    6    6    0  503 -0.77260061698E+01  0.18381610965E+02 -0.33296651851E+02  0.39093884656E+02  0.47000000000E+01 0.  1.
<mgrwt>
<rscale>  0 0.42735920E+03</rscale>
<asrwt>0</asrwt>
<pdfrwt beam="1">  1        1 0.10178221E+00 0.42735920E+03</pdfrwt>
<pdfrwt beam="2">  1       -1 0.82808777E-01 0.42735920E+03</pdfrwt>
<totfact> 0.45700252E+01</totfact>
</mgrwt>
</event>
<event>
12    1  0.3754834E-008  0.1113288E+04  0.7818608E-02  0.9192336E-01
         -1   -1    0    0    0  501 -0.00000000000E+00  0.00000000000E+00  0.15466020734E+04  0.15466020734E+04  0.00000000000E+00 0.  1.
          1   -1    0    0  501    0  0.00000000000E+00 -0.00000000000E+00 -0.15988450330E+04  0.15988450330E+04  0.00000000000E+00 0. -1.
         23    2    1    2    0    0 -0.47442496880E+03 -0.97683243926E+03 -0.10801880269E+04  0.15342806055E+04  0.89051320578E+02 0.  0.
    5000000    2    1    2    0    0  0.47442496880E+03  0.97683243926E+03  0.10279450673E+04  0.16111665008E+04  0.59992146713E+03 0.  0.
         23    2    4    4    0    0  0.43569584723E+03  0.54837335144E+03  0.31502644392E+03  0.77362888119E+03  0.93358350381E+02 0.  0.
         23    2    4    4    0    0  0.38729121572E+02  0.42845908782E+03  0.71291862334E+03  0.83753761966E+03  0.90217326681E+02 0.  0.
          3    1    3    3  502    0 -0.25072367499E+03 -0.57937437340E+03 -0.57859685120E+03  0.85633599829E+03  0.00000000000E+00 0. -1.
         -3    1    3    3    0  502 -0.22370129381E+03 -0.39745806585E+03 -0.50159117568E+03  0.67794460724E+03  0.00000000000E+00 0.  1.
         11    1    5    5    0    0  0.17178302485E+03  0.25841451749E+03  0.97552517674E+02  0.32527521298E+03  0.00000000000E+00 0.  1.
        -11    1    5    5    0    0  0.26391282237E+03  0.28995883395E+03  0.21747392625E+03  0.44835366821E+03  0.00000000000E+00 0. -1.
          5    1    6    6  503    0  0.56947616892E+02  0.21302430750E+03  0.40672601537E+03  0.46267756400E+03  0.47000000000E+01 0. -1.
         -5    1    6    6    0  503 -0.18218495320E+02  0.21543478032E+03  0.30619260797E+03  0.37486005565E+03  0.47000000000E+01 0.  1.
<mgrwt>
<rscale>  0 0.11132879E+04</rscale>
<asrwt>0</asrwt>
<pdfrwt beam="1">  1        1 0.24597616E+00 0.11132879E+04</pdfrwt>
<pdfrwt beam="2">  1       -1 0.23793878E+00 0.11132879E+04</pdfrwt>
<totfact> 0.46433799E-01</totfact>
</mgrwt>
</event>
<event>
12    1  0.3127365E-008  0.7191811E+03  0.7818608E-02  0.9684981E-01
         -2   -1    0    0    0  501 -0.00000000000E+00  0.00000000000E+00  0.39218847624E+03  0.39218847624E+03  0.00000000000E+00 0.  1.
          2   -1    0    0  501    0  0.00000000000E+00 -0.00000000000E+00 -0.27897035322E+04  0.27897035322E+04  0.00000000000E+00 0. -1.
         23    2    1    2    0    0  0.52220248641E+03 -0.29770373143E+03  0.30989355777E+02  0.60918885390E+03  0.93956218612E+02 0.  0.
    5000000    2    1    2    0    0 -0.52220248641E+03  0.29770373143E+03 -0.24285044118E+04  0.25727031546E+04  0.59987073196E+03 0.  0.
         23    2    4    4    0    0  0.84565205562E+02  0.17222815988E+03 -0.45525490829E+03  0.50245287937E+03  0.91586305888E+02 0.  0.
         23    2    4    4    0    0 -0.60676769198E+03  0.12547557156E+03 -0.19732495035E+04  0.20702502752E+04  0.91167142626E+02 0.  0.
          1    1    3    3  502    0  0.29070206920E+03 -0.11173083885E+03  0.13575415602E+02  0.31173027652E+03  0.00000000000E+00 0. -1.
         -1    1    3    3    0  502  0.23150041721E+03 -0.18597289258E+03  0.17413940175E+02  0.29745857738E+03  0.00000000000E+00 0.  1.
         11    1    5    5    0    0  0.74017974214E+02  0.67915462488E+02 -0.28837678164E+03  0.30537245904E+03  0.00000000000E+00 0. -1.
        -11    1    5    5    0    0  0.10547231348E+02  0.10431269739E+03 -0.16687812665E+03  0.19708042033E+03  0.00000000000E+00 0.  1.
          5    1    6    6  503    0 -0.10145083497E+03 -0.84059588090E+01 -0.27058387250E+03  0.28913777705E+03  0.47000000000E+01 0. -1.
         -5    1    6    6    0  503 -0.50531685701E+03  0.13388153037E+03 -0.17026656310E+04  0.17811124981E+04  0.47000000000E+01 0.  1.
<mgrwt>
<rscale>  0 0.71918107E+03</rscale>
<asrwt>0</asrwt>
<pdfrwt beam="1">  1        2 0.42918512E+00 0.71918107E+03</pdfrwt>
<pdfrwt beam="2">  1       -2 0.60336694E-01 0.71918107E+03</pdfrwt>
<totfact> 0.63911391E+00</totfact>
</mgrwt>
</event>
<event>
12    1  0.3127365E-008  0.1362720E+04  0.7818608E-02  0.8981255E-01
          1   -1    0    0  501    0  0.00000000000E+00  0.00000000000E+00  0.98790991797E+03  0.98790991797E+03  0.00000000000E+00 0. -1.
         -1   -1    0    0    0  501 -0.00000000000E+00 -0.00000000000E+00 -0.26543896657E+04  0.26543896657E+04  0.00000000000E+00 0.  1.
         23    2    1    2    0    0 -0.23356609460E+03 -0.13390686671E+04 -0.16717992377E+04  0.21564632377E+04  0.88107825421E+02 0.  0.
    5000000    2    1    2    0    0  0.23356609460E+03  0.13390686671E+04  0.53194899749E+01  0.14858363459E+04  0.60001944483E+03 0.  0.
         23    2    4    4    0    0  0.99067141222E+02  0.57519223164E+03  0.28505108001E+03  0.65626655142E+03  0.93655039804E+02 0.  0.
         23    2    4    4    0    0  0.13449895338E+03  0.76387643543E+03 -0.27973159004E+03  0.82956979449E+03  0.91318696937E+02 0.  0.
          4    1    3    3  502    0 -0.30506839837E+02 -0.28923613354E+03 -0.31087222361E+03  0.42571087329E+03  0.00000000000E+00 0. -1.
         -4    1    3    3    0  502 -0.20305925476E+03 -0.10498325335E+04 -0.13609270141E+04  0.17307523644E+04  0.00000000000E+00 0.  1.
         11    1    5    5    0    0  0.66989804162E+02  0.16380063072E+03  0.64300924201E+02  0.18828937660E+03  0.00000000000E+00 0. -1.
        -11    1    5    5    0    0  0.32077337061E+02  0.41139160092E+03  0.22075015581E+03  0.46797717482E+03  0.00000000000E+00 0.  1.
          5    1    6    6  503    0  0.35903290147E+02  0.20376932754E+03 -0.11820424380E+03  0.23833866313E+03  0.47000000000E+01 0. -1.
         -5    1    6    6    0  503  0.98595663229E+02  0.56010710789E+03 -0.16152734624E+03  0.59123113137E+03  0.47000000000E+01 0.  1.
<mgrwt>
<rscale>  0 0.13627202E+04</rscale>
<asrwt>0</asrwt>
<pdfrwt beam="1">  1        1 0.15198614E+00 0.13627202E+04</pdfrwt>
<pdfrwt beam="2">  1       -1 0.40836764E+00 0.13627202E+04</pdfrwt>
<totfact> 0.94006625E-02</totfact>
</mgrwt>
</event>
<event>
12    1  0.3127365E-008  0.6351267E+03  0.7818608E-02  0.9835095E-01
         -2   -1    0    0    0  501 -0.00000000000E+00  0.00000000000E+00  0.10371566863E+04  0.10371566863E+04  0.00000000000E+00 0.  1.
          2   -1    0    0  501    0  0.00000000000E+00 -0.00000000000E+00 -0.49891085380E+03  0.49891085380E+03  0.00000000000E+00 0. -1.
         23    2    1    2    0    0 -0.57647588158E+03  0.11877928371E+03  0.24691310112E+03  0.64648431197E+03  0.10267875068E+03 0.  0.
    5000000    2    1    2    0    0  0.57647588158E+03 -0.11877928371E+03  0.29133273136E+03  0.88958322810E+03  0.60004216442E+03 0.  0.
         23    2    4    4    0    0  0.73806102847E+01 -0.88342666611E+02  0.28561046105E+03  0.31163405921E+03  0.87655868302E+02 0.  0.
         23    2    4    4    0    0  0.56909527129E+03 -0.30436617099E+02  0.57222703101E+01  0.57794916889E+03  0.95899332503E+02 0.  0.
          1    1    3    3  502    0 -0.10752870647E+03  0.64222653377E+02  0.46591624790E+02  0.13363289798E+03  0.00000000000E+00 0. -1.
         -1    1    3    3    0  502 -0.46894717510E+03  0.54556630333E+02  0.20032147633E+03  0.51285141399E+03  0.00000000000E+00 0.  1.
         13    1    5    5    0    0 -0.72702447955E+01  0.36164116971E+01  0.13026018003E+03  0.13051302385E+03  0.00000000000E+00 0. -1.
        -13    1    5    5    0    0  0.14650855080E+02 -0.91959078308E+02  0.15535028102E+03  0.18112103536E+03  0.00000000000E+00 0.  1.
          5    1    6    6  503    0  0.31475563363E+03  0.49146271704E+01  0.45362523578E+02  0.31808035307E+03  0.47000000000E+01 0. -1.
         -5    1    6    6    0  503  0.25433963766E+03 -0.35351244269E+02 -0.39640253268E+02  0.25986881582E+03  0.47000000000E+01 0.  1.
<mgrwt>
<rscale>  0 0.63512665E+03</rscale>
<asrwt>0</asrwt>
<pdfrwt beam="1">  1        2 0.76755516E-01 0.63512665E+03</pdfrwt>
<pdfrwt beam="2">  1       -2 0.15956257E+00 0.63512665E+03</pdfrwt>
<totfact> 0.16077696E+01</totfact>
</mgrwt>
</event>
<event>
12    1  0.3127365E-008  0.6120929E+03  0.7818608E-02  0.9880630E-01
          2   -1    0    0  501    0  0.00000000000E+00  0.00000000000E+00  0.10281957961E+04  0.10281957961E+04  0.00000000000E+00 0. -1.
         -2   -1    0    0    0  501 -0.00000000000E+00 -0.00000000000E+00 -0.49180376511E+03  0.49180376511E+03  0.00000000000E+00 0.  1.
         23    2    1    2    0    0 -0.34837114351E+02  0.56545901724E+03  0.35769404552E+03  0.67619950238E+03  0.91341185161E+02 0.  0.
    5000000    2    1    2    0    0  0.34837114351E+02 -0.56545901724E+03  0.17869798546E+03  0.84380005881E+03  0.59925624280E+03 0.  0.
         23    2    4    4    0    0 -0.12127862869E+03 -0.35689382102E+03  0.34687400679E+03  0.52013252498E+03  0.90191805030E+02 0.  0.
         23    2    4    4    0    0  0.15611574304E+03 -0.20856519622E+03 -0.16817602133E+03  0.32366753384E+03  0.92768162696E+02 0.  0.
          1    1    3    3  502    0 -0.43328090578E+02  0.34758833365E+03  0.26524065493E+03  0.43937179945E+03  0.00000000000E+00 0. -1.
         -1    1    3    3    0  502  0.84909762266E+01  0.21787068359E+03  0.92453390590E+02  0.23682770293E+03  0.00000000000E+00 0.  1.
         11    1    5    5    0    0 -0.14067716304E+02 -0.12904846214E+02  0.49170125373E+02  0.52745965979E+02  0.00000000000E+00 0.  1.
        -11    1    5    5    0    0 -0.10721091238E+03 -0.34398897480E+03  0.29770388142E+03  0.46738655900E+03  0.00000000000E+00 0. -1.
          5    1    6    6  503    0  0.10868725292E+02 -0.84699107363E+02 -0.55491768845E+02  0.10194848889E+03  0.47000000000E+01 0. -1.
         -5    1    6    6    0  503  0.14524701775E+03 -0.12386608886E+03 -0.11268425248E+03  0.22171904495E+03  0.47000000000E+01 0.  1.
<mgrwt>
<rscale>  0 0.61209288E+03</rscale>
<asrwt>0</asrwt>
<pdfrwt beam="1">  1        2 0.15818397E+00 0.61209288E+03</pdfrwt>
<pdfrwt beam="2">  1       -2 0.75662118E-01 0.61209288E+03</pdfrwt>
<totfact> 0.39000087E+01</totfact>
</mgrwt>
</event>
<event>
12    1  0.3127365E-008  0.8094499E+03  0.7818608E-02  0.9546439E-01
         -2   -1    0    0    0  501 -0.00000000000E+00  0.00000000000E+00  0.20419089256E+04  0.20419089256E+04  0.00000000000E+00 0.  1.
          2   -1    0    0  501    0  0.00000000000E+00 -0.00000000000E+00 -0.38604545404E+03  0.38604545404E+03  0.00000000000E+00 0. -1.
         23    2    1    2    0    0 -0.65578224570E+03 -0.29164150893E+03  0.11652773375E+04  0.13716668736E+04  0.92160813505E+02 0.  0.
    5000000    2    1    2    0    0  0.65578224570E+03  0.29164150893E+03  0.49058613410E+03  0.10562875060E+04  0.59996951326E+03 0.  0.
         23    2    4    4    0    0 -0.78300170420E+02  0.35135329254E+02 -0.16250734291E+02  0.12335809244E+03  0.87107545922E+02 0.  0.
         23    2    4    4    0    0  0.73408241612E+03  0.25650617968E+03  0.50683686839E+03  0.93292941355E+03  0.93815060839E+02 0.  0.
          1    1    3    3  502    0 -0.47942729177E+03 -0.16724009955E+03  0.81247233445E+03  0.95808719501E+03  0.00000000000E+00 0. -1.
         -1    1    3    3    0  502 -0.17635495394E+03 -0.12440140938E+03  0.35280500300E+03  0.41357967863E+03  0.00000000000E+00 0.  1.
         11    1    5    5    0    0 -0.69332784090E+02  0.57096800796E+02 -0.31473854575E+02  0.95171861033E+02  0.00000000000E+00 0. -1.
        -11    1    5    5    0    0 -0.89673863303E+01 -0.21961471542E+02  0.15223120283E+02  0.28186231409E+02  0.00000000000E+00 0.  1.
          5    1    6    6  503    0  0.39030236789E+03  0.17863175066E+03  0.24986474755E+03  0.49668875848E+03  0.47000000000E+01 0. -1.
         -5    1    6    6    0  503  0.34378004823E+03  0.77874429023E+02  0.25697212084E+03  0.43624065508E+03  0.47000000000E+01 0.  1.
<mgrwt>
<rscale>  0 0.80944986E+03</rscale>
<asrwt>0</asrwt>
<pdfrwt beam="1">  1        2 0.59391610E-01 0.80944986E+03</pdfrwt>
<pdfrwt beam="2">  1       -2 0.31413983E+00 0.80944986E+03</pdfrwt>
<totfact> 0.22296508E+00</totfact>
</mgrwt>
</event>
<event>
12    1  0.3127365E-008  0.7109733E+03  0.7818608E-02  0.9698648E-01
          2   -1    0    0  501    0  0.00000000000E+00  0.00000000000E+00  0.16738881013E+04  0.16738881013E+04  0.00000000000E+00 0. -1.
         -2   -1    0    0    0  501 -0.00000000000E+00 -0.00000000000E+00 -0.57533833886E+03  0.57533833886E+03  0.00000000000E+00 0.  1.
         23    2    1    2    0    0 -0.44085208563E+03 -0.42864237717E+03  0.12317637618E+04  0.13795504652E+04  0.88502385201E+02 0.  0.
    5000000    2    1    2    0    0  0.44085208563E+03  0.42864237717E+03 -0.13321399938E+03  0.86967597495E+03  0.60042108795E+03 0.  0.
         23    2    4    4    0    0  0.55056756535E+03  0.28342456829E+03 -0.14338376408E+01  0.62586154246E+03  0.90810156400E+02 0.  0.
         23    2    4    4    0    0 -0.10971547972E+03  0.14521780888E+03 -0.13178016174E+03  0.24381443249E+03  0.94624351811E+02 0.  0.
          3    1    3    3  502    0 -0.17123613658E+03 -0.17280660410E+03  0.39424976123E+03  0.46326753730E+03  0.00000000000E+00 0. -1.
         -3    1    3    3    0  502 -0.26961594906E+03 -0.25583577308E+03  0.83751400061E+03  0.91628292792E+03  0.00000000000E+00 0.  1.
         13    1    5    5    0    0  0.23476596948E+03  0.16669915813E+03 -0.20344581372E+02  0.28864783342E+03  0.00000000000E+00 0. -1.
        -13    1    5    5    0    0  0.31580159588E+03  0.11672541016E+03  0.18910743731E+02  0.33721370904E+03  0.00000000000E+00 0.  1.
          5    1    6    6  503    0 -0.22318133585E+02  0.29558026947E+02 -0.82624500043E+02  0.90667932871E+02  0.47000000000E+01 0.  1.
         -5    1    6    6    0  503 -0.87397346137E+02  0.11565978194E+03 -0.49155661699E+02  0.15314649962E+03  0.47000000000E+01 0. -1.
<mgrwt>
<rscale>  0 0.71097329E+03</rscale>
<asrwt>0</asrwt>
<pdfrwt beam="1">  1        2 0.25752124E+00 0.71097329E+03</pdfrwt>
<pdfrwt beam="2">  1       -2 0.88513591E-01 0.71097329E+03</pdfrwt>
<totfact> 0.11511292E+01</totfact>
</mgrwt>
</event>
<event>
12    1  0.3127365E-008  0.3237754E+03  0.7818608E-02  0.1073925E+00
          2   -1    0    0  501    0  0.00000000000E+00  0.00000000000E+00  0.21837897829E+04  0.21837897829E+04  0.00000000000E+00 0. -1.
         -2   -1    0    0    0  501 -0.00000000000E+00 -0.00000000000E+00 -0.22418706273E+03  0.22418706273E+03  0.00000000000E+00 0.  1.
         23    2    1    2    0    0  0.24057672755E+03  0.10381365766E+03 -0.61612327180E+02  0.28343461335E+03  0.88795629544E+02 0.  0.
    5000000    2    1    2    0    0 -0.24057672755E+03 -0.10381365766E+03  0.20212150474E+04  0.21245422323E+04  0.59976244610E+03 0.  0.
         23    2    4    4    0    0  0.21547978805E+02  0.36334868297E+01  0.10792671240E+02  0.92215147915E+02  0.88936123906E+02 0.  0.
         23    2    4    4    0    0 -0.26212470636E+03 -0.10744714449E+03  0.20104223761E+04  0.20323270844E+04  0.91109806982E+02 0.  0.
          1    1    3    3  502    0  0.68897900331E+01 -0.53186951832E+01  0.12364971053E+02  0.15121184950E+02  0.00000000000E+00 0.  1.
         -1    1    3    3    0  502  0.23368693752E+03  0.10913235285E+03 -0.73977298233E+02  0.26831342840E+03  0.00000000000E+00 0. -1.
         13    1    5    5    0    0 -0.22204231597E+02  0.32226876140E+02  0.74737249145E+01  0.39842891595E+02  0.00000000000E+00 0. -1.
        -13    1    5    5    0    0  0.43752210403E+02 -0.28593389310E+02  0.33189463254E+01  0.52372256320E+02  0.00000000000E+00 0.  1.
          5    1    6    6  503    0 -0.11487047752E+03 -0.15863296184E+02  0.58613402600E+03  0.59751322764E+03  0.47000000000E+01 0. -1.
         -5    1    6    6    0  503 -0.14725422884E+03 -0.91583848309E+02  0.14242883501E+04  0.14348138568E+04  0.47000000000E+01 0.  1.
<mgrwt>
<rscale>  0 0.32377541E+03</rscale>
<asrwt>0</asrwt>
<pdfrwt beam="1">  1        2 0.33596764E+00 0.32377541E+03</pdfrwt>
<pdfrwt beam="2">  1       -2 0.34490319E-01 0.32377541E+03</pdfrwt>
<totfact> 0.46638109E+01</totfact>
</mgrwt>
</event>
<event>
12    1  0.3127365E-008  0.7266311E+03  0.7818608E-02  0.9672743E-01
         -2   -1    0    0    0  501 -0.00000000000E+00  0.00000000000E+00  0.53403174275E+03  0.53403174275E+03  0.00000000000E+00 0. -1.
          2   -1    0    0  501    0  0.00000000000E+00 -0.00000000000E+00 -0.10258538164E+04  0.10258538164E+04  0.00000000000E+00 0.  1.
         23    2    1    2    0    0 -0.33327131148E+02 -0.61040079315E+03 -0.27389640581E+03  0.67603594223E+03  0.91134670266E+02 0.  0.
    5000000    2    1    2    0    0  0.33327131148E+02  0.61040079315E+03 -0.21792566783E+03  0.88384961691E+03  0.59999893556E+03 0.  0.
         23    2    4    4    0    0  0.29724516756E+03  0.30308070050E+03 -0.16634326031E+03  0.46512506490E+03  0.91970892673E+02 0.  0.
         23    2    4    4    0    0 -0.26391803641E+03  0.30732009265E+03 -0.51582407518E+02  0.41872455201E+03  0.92580432068E+02 0.  0.
          4    1    3    3  502    0 -0.53351916154E+02 -0.39576442016E+03 -0.21001772073E+03  0.45120211241E+03  0.00000000000E+00 0. -1.
         -4    1    3    3    0  502  0.20024785006E+02 -0.21463637299E+03 -0.63878685079E+02  0.22483382982E+03  0.00000000000E+00 0.  1.
         13    1    5    5    0    0  0.26332259152E+03  0.29949820728E+03 -0.14243110792E+03  0.42346733507E+03  0.00000000000E+00 0. -1.
        -13    1    5    5    0    0  0.33922576039E+02  0.35824932163E+01 -0.23912152390E+02  0.41657729831E+02  0.00000000000E+00 0.  1.
          5    1    6    6  503    0 -0.10563768394E+03  0.11269044298E+03 -0.64566657861E+02  0.16747954954E+03  0.47000000000E+01 0. -1.
         -5    1    6    6    0  503 -0.15828035247E+03  0.19462964967E+03  0.12984250342E+02  0.25124500247E+03  0.47000000000E+01 0.  1.
<mgrwt>
<rscale>  0 0.72663113E+03</rscale>
<asrwt>0</asrwt>
<pdfrwt beam="1">  1        2 0.15782366E+00 0.72663113E+03</pdfrwt>
<pdfrwt beam="2">  1       -2 0.82158731E-01 0.72663113E+03</pdfrwt>
<totfact> 0.32150693E+01</totfact>
</mgrwt>
</event>
<event>
12    1  0.3127365E-008  0.5473561E+03  0.7818608E-02  0.1002108E+00
          1   -1    0    0  501    0  0.00000000000E+00  0.00000000000E+00  0.21569793915E+04  0.21569793915E+04  0.00000000000E+00 0. -1.
         -1   -1    0    0    0  501 -0.00000000000E+00 -0.00000000000E+00 -0.14431696641E+03  0.14431696641E+03  0.00000000000E+00 0.  1.
         23    2    1    2    0    0 -0.10671032827E+03  0.37028933309E+03  0.83430602265E+03  0.92392430467E+03  0.95227606104E+02 0.  0.
    5000000    2    1    2    0    0  0.10671032827E+03 -0.37028933309E+03  0.11783564024E+04  0.13773720532E+04  0.60010722167E+03 0.  0.
         23    2    4    4    0    0  0.18095595895E+03 -0.49409315057E+03  0.78401330895E+03  0.94859600261E+03  0.91018718099E+02 0.  0.
         23    2    4    4    0    0 -0.74245630677E+02  0.12380381748E+03  0.39434309344E+03  0.42877605058E+03  0.86617707829E+02 0.  0.
          4    1    3    3  502    0 -0.10943324052E+03  0.21640660657E+03  0.48662745456E+03  0.54370371806E+03  0.00000000000E+00 0. -1.
         -4    1    3    3    0  502  0.27229122520E+01  0.15388272652E+03  0.34767856809E+03  0.38022058661E+03  0.00000000000E+00 0.  1.
         11    1    5    5    0    0  0.67568223517E+02 -0.81728056553E+02  0.14357253823E+03  0.17848813347E+03  0.00000000000E+00 0. -1.
        -11    1    5    5    0    0  0.11338773543E+03 -0.41236509402E+03  0.64044077072E+03  0.77010786914E+03  0.00000000000E+00 0.  1.
          5    1    6    6  503    0  0.96115897339E+01  0.54961858666E+02  0.17974825729E+03  0.18826766734E+03  0.47000000000E+01 0. -1.
         -5    1    6    6    0  503 -0.83857220411E+02  0.68841958813E+02  0.21459483615E+03  0.24050838325E+03  0.47000000000E+01 0.  1.
<mgrwt>
<rscale>  0 0.54735615E+03</rscale>
<asrwt>0</asrwt>
<pdfrwt beam="1">  1        1 0.33184296E+00 0.54735615E+03</pdfrwt>
<pdfrwt beam="2">  1       -1 0.22202612E-01 0.54735615E+03</pdfrwt>
<totfact> 0.42692708E+01</totfact>
</mgrwt>
</event>
<event>
12    1  0.3127365E-008  0.1482864E+04  0.7818608E-02  0.8895929E-01
         -2   -1    0    0    0  501 -0.00000000000E+00  0.00000000000E+00  0.18269763089E+04  0.18269763089E+04  0.00000000000E+00 0. -1.
          2   -1    0    0  501    0  0.00000000000E+00 -0.00000000000E+00 -0.24758359797E+04  0.24758359797E+04  0.00000000000E+00 0.  1.
         23    2    1    2    0    0  0.48540536981E+03  0.13400837659E+04 -0.18552841543E+04  0.23413910734E+04  0.92682213890E+02 0.  0.
    5000000    2    1    2    0    0 -0.48540536981E+03 -0.13400837659E+04  0.12064244835E+04  0.19614212152E+04  0.60022518796E+03 0.  0.
         23    2    4    4    0    0 -0.56932514150E+02 -0.96045434074E+03  0.76983840709E+03  0.12356162588E+04  0.91556070647E+02 0.  0.
         23    2    4    4    0    0 -0.42847285567E+03 -0.37962942516E+03  0.43658607638E+03  0.72580495639E+03  0.92075752214E+02 0.  0.
          3    1    3    3  502    0  0.25369215147E+03  0.76569267106E+03 -0.98317071587E+03  0.12717191635E+04  0.00000000000E+00 0. -1.
         -3    1    3    3    0  502  0.23171321835E+03  0.57439109483E+03 -0.87211343847E+03  0.10696719099E+04  0.00000000000E+00 0.  1.
         11    1    5    5    0    0 -0.21699848922E+02 -0.57602666057E+03  0.40529714328E+03  0.70465833670E+03  0.00000000000E+00 0. -1.
        -11    1    5    5    0    0 -0.35232665227E+02 -0.38442768017E+03  0.36454126381E+03  0.53095792206E+03  0.00000000000E+00 0.  1.
          5    1    6    6  503    0 -0.10573874565E+03 -0.54206938785E+02  0.63478694499E+02  0.13479877299E+03  0.47000000000E+01 0. -1.
         -5    1    6    6    0  503 -0.32273411001E+03 -0.32542248638E+03  0.37310738188E+03  0.59100618340E+03  0.47000000000E+01 0.  1.
<mgrwt>
<rscale>  0 0.14828639E+04</rscale>
<asrwt>0</asrwt>
<pdfrwt beam="1">  1        2 0.38089784E+00 0.14828639E+04</pdfrwt>
<pdfrwt beam="2">  1       -2 0.28107328E+00 0.14828639E+04</pdfrwt>
<totfact> 0.14017748E-01</totfact>
</mgrwt>
</event>
<event>
12    1  0.3127365E-008  0.8123593E+03  0.7818608E-02  0.9542298E-01
          1   -1    0    0  501    0  0.00000000000E+00  0.00000000000E+00  0.24771448242E+04  0.24771448242E+04  0.00000000000E+00 0. -1.
         -1   -1    0    0    0  501 -0.00000000000E+00 -0.00000000000E+00 -0.47900694125E+03  0.47900694125E+03  0.00000000000E+00 0.  1.
         23    2    1    2    0    0 -0.66222502256E+03  0.37702855188E+03  0.37052846887E+02  0.76835253024E+03  0.91105366644E+02 0.  0.
    5000000    2    1    2    0    0  0.66222502256E+03 -0.37702855188E+03  0.19610850361E+04  0.21877992352E+04  0.59993205073E+03 0.  0.
         23    2    4    4    0    0  0.41487218525E+03 -0.43247402195E+03  0.84690692695E+03  0.10414889273E+04  0.91077621115E+02 0.  0.
         23    2    4    4    0    0  0.24735283731E+03  0.55445470068E+02  0.11141781091E+04  0.11463103079E+04  0.91525061477E+02 0.  0.
          4    1    3    3  502    0 -0.18621172735E+03  0.12648797667E+03 -0.26614055837E+02  0.22667669403E+03  0.00000000000E+00 0. -1.
         -4    1    3    3    0  502 -0.47601329521E+03  0.25054057521E+03  0.63666902723E+02  0.54167583622E+03  0.00000000000E+00 0.  1.
         13    1    5    5    0    0  0.27445219390E+03 -0.23454246964E+03  0.45968353480E+03  0.58450246275E+03  0.00000000000E+00 0. -1.
        -13    1    5    5    0    0  0.14041999135E+03 -0.19793155231E+03  0.38722339216E+03  0.45698646457E+03  0.00000000000E+00 0.  1.
          5    1    6    6  503    0  0.86398788670E+02  0.42624888538E+02  0.26744722600E+03  0.28430923393E+03  0.47000000000E+01 0. -1.
         -5    1    6    6    0  503  0.16095404864E+03  0.12820581530E+02  0.84673088311E+03  0.86200107395E+03  0.47000000000E+01 0.  1.
<mgrwt>
<rscale>  0 0.81235933E+03</rscale>
<asrwt>0</asrwt>
<pdfrwt beam="1">  1        1 0.38109920E+00 0.81235933E+03</pdfrwt>
<pdfrwt beam="2">  1       -1 0.73693377E-01 0.81235933E+03</pdfrwt>
<totfact> 0.27354154E+00</totfact>
</mgrwt>
</event>
<event>
12    1  0.3127365E-008  0.7231912E+03  0.7818608E-02  0.9678374E-01
          1   -1    0    0  501    0  0.00000000000E+00  0.00000000000E+00  0.99267385324E+03  0.99267385324E+03  0.00000000000E+00 0. -1.
         -1   -1    0    0    0  501 -0.00000000000E+00 -0.00000000000E+00 -0.98774644144E+03  0.98774644144E+03  0.00000000000E+00 0.  1.
         23    2    1    2    0    0  0.65945156792E+03  0.22470271447E+03 -0.56326080481E+03  0.89956793612E+03  0.81191484400E+02 0.  0.
    5000000    2    1    2    0    0 -0.65945156792E+03 -0.22470271447E+03  0.56818821661E+03  0.10808523586E+04  0.60003024189E+03 0.  0.
         23    2    4    4    0    0 -0.56679736819E+02  0.54735927802E+01 -0.99996847355E+02  0.14738488446E+03  0.92088989039E+02 0.  0.
         23    2    4    4    0    0 -0.60277183110E+03 -0.23017630725E+03  0.66818506397E+03  0.93346747410E+03  0.92602552363E+02 0.  0.
          1    1    3    3  502    0  0.54370004934E+03  0.18162719381E+03 -0.50071697894E+03  0.76112789608E+03  0.00000000000E+00 0. -1.
         -1    1    3    3    0  502  0.11575151858E+03  0.43075520658E+02 -0.62543825868E+02  0.13844004004E+03  0.00000000000E+00 0.  1.
         11    1    5    5    0    0  0.23405374444E+02  0.59850510705E+01 -0.42181840103E+02  0.48610081502E+02  0.00000000000E+00 0.  1.
        -11    1    5    5    0    0 -0.80085111263E+02 -0.51145829027E+00 -0.57815007252E+02  0.98774802956E+02  0.00000000000E+00 0. -1.
          5    1    6    6  503    0 -0.36225079193E+03 -0.13237946585E+03  0.33383309115E+03  0.51011428326E+03  0.47000000000E+01 0. -1.
         -5    1    6    6    0  503 -0.24052103917E+03 -0.97796841398E+02  0.33435197282E+03  0.42335319084E+03  0.47000000000E+01 0.  1.
<mgrwt>
<rscale>  0 0.72319117E+03</rscale>
<asrwt>0</asrwt>
<pdfrwt beam="1">  1        1 0.15271905E+00 0.72319117E+03</pdfrwt>
<pdfrwt beam="2">  1       -1 0.15196099E+00 0.72319117E+03</pdfrwt>
<totfact> 0.53734813E+00</totfact>
</mgrwt>
</event>
<event>
12    1  0.3127365E-008  0.5731555E+03  0.7818608E-02  0.9962720E-01
          2   -1    0    0  501    0  0.00000000000E+00  0.00000000000E+00  0.42369601460E+04  0.42369601460E+04  0.00000000000E+00 0. -1.
         -2   -1    0    0    0  501 -0.00000000000E+00 -0.00000000000E+00 -0.91153430264E+02  0.91153430264E+02  0.00000000000E+00 0.  1.
         23    2    1    2    0    0 -0.36053501667E+03  0.29481185531E+03  0.13545386534E+04  0.14353483587E+04  0.92468475745E+02 0.  0.
    5000000    2    1    2    0    0  0.36053501667E+03 -0.29481185531E+03  0.27912680623E+04  0.28927652176E+04  0.60001139973E+03 0.  0.
         23    2    4    4    0    0  0.26422110500E+03  0.89440089905E+02  0.17586667642E+04  0.17830255031E+04  0.91971926446E+02 0.  0.
         23    2    4    4    0    0  0.96313911669E+02 -0.38425194521E+03  0.10326012982E+04  0.11097397145E+04  0.91273577297E+02 0.  0.
          1    1    3    3  502    0 -0.17352731844E+03  0.13001321199E+03  0.49522469469E+03  0.54061322937E+03  0.00000000000E+00 0. -1.
         -1    1    3    3    0  502 -0.18700769823E+03  0.16479864332E+03  0.85931395868E+03  0.89473512931E+03  0.00000000000E+00 0.  1.
         11    1    5    5    0    0  0.26653205112E+02 -0.67423884280E+01  0.36158708830E+03  0.36263077031E+03  0.00000000000E+00 0. -1.
        -11    1    5    5    0    0  0.23756789989E+03  0.96182478333E+02  0.13970796759E+04  0.14203947328E+04  0.00000000000E+00 0.  1.
          5    1    6    6  503    0  0.28038724784E+02 -0.13437254802E+03  0.48274195450E+03  0.50190042477E+03  0.47000000000E+01 0. -1.
         -5    1    6    6    0  503  0.68275186885E+02 -0.24987939719E+03  0.54985934366E+03  0.60783928969E+03  0.47000000000E+01 0.  1.
<mgrwt>
<rscale>  0 0.57315552E+03</rscale>
<asrwt>0</asrwt>
<pdfrwt beam="1">  1        2 0.65183987E+00 0.57315552E+03</pdfrwt>
<pdfrwt beam="2">  1       -2 0.14023608E-01 0.57315552E+03</pdfrwt>
<totfact> 0.98526831E+00</totfact>
</mgrwt>
</event>
<event>
12    1  0.3127365E-008  0.7307583E+03  0.7818608E-02  0.9666031E-01
         -1   -1    0    0    0  501 -0.00000000000E+00  0.00000000000E+00  0.24035031097E+03  0.24035031097E+03  0.00000000000E+00 0.  1.
          1   -1    0    0  501    0  0.00000000000E+00 -0.00000000000E+00 -0.34351126892E+04  0.34351126892E+04  0.00000000000E+00 0. -1.
         23    2    1    2    0    0 -0.33703288949E+03  0.61978331846E+03 -0.63583941724E+03  0.95405206356E+03  0.90559621394E+02 0.  0.
    5000000    2    1    2    0    0  0.33703288949E+03 -0.61978331846E+03 -0.25589229610E+04  0.27214109366E+04  0.60022348771E+03 0.  0.
         23    2    4    4    0    0  0.31983163322E+03 -0.44767776779E+03 -0.95656621284E+03  0.11072502906E+04  0.90975981101E+02 0.  0.
         23    2    4    4    0    0  0.17201256264E+02 -0.17210555067E+03 -0.16023567481E+04  0.16141606460E+04  0.89728696409E+02 0.  0.
          1    1    3    3  502    0 -0.18359885657E+03  0.24438718603E+03 -0.26656660686E+03  0.40557538476E+03  0.00000000000E+00 0. -1.
         -1    1    3    3    0  502 -0.15343403291E+03  0.37539613243E+03 -0.36927281037E+03  0.54847667880E+03  0.00000000000E+00 0.  1.
         13    1    5    5    0    0  0.13089751687E+03 -0.11304686095E+03 -0.31705354317E+03  0.36116021643E+03  0.00000000000E+00 0. -1.
        -13    1    5    5    0    0  0.18893411636E+03 -0.33463090683E+03 -0.63951266967E+03  0.74609007419E+03  0.00000000000E+00 0.  1.
          5    1    6    6  503    0 -0.29619044022E+02 -0.26412699663E+02 -0.25146751670E+03  0.25462309484E+03  0.47000000000E+01 0. -1.
         -5    1    6    6    0  503  0.46820300285E+02 -0.14569285101E+03 -0.13508892314E+04  0.13595375511E+04  0.47000000000E+01 0.  1.
<mgrwt>
<rscale>  0 0.73075832E+03</rscale>
<asrwt>0</asrwt>
<pdfrwt beam="1">  1        1 0.52847882E+00 0.73075832E+03</pdfrwt>
<pdfrwt beam="2">  1       -1 0.36976974E-01 0.73075832E+03</pdfrwt>
<totfact> 0.21488665E+00</totfact>
</mgrwt>
</event>
<event>
12    1  0.3127365E-008  0.5430939E+03  0.7818608E-02  0.1003105E+00
          2   -1    0    0  501    0  0.00000000000E+00  0.00000000000E+00  0.79143334518E+03  0.79143334518E+03  0.00000000000E+00 0. -1.
         -2   -1    0    0    0  501 -0.00000000000E+00 -0.00000000000E+00 -0.46083902587E+03  0.46083902587E+03  0.00000000000E+00 0.  1.
         23    2    1    2    0    0 -0.23629625582E+03  0.30956162529E+03 -0.10594445807E+03  0.41400997591E+03  0.92280613316E+02 0.  0.
    5000000    2    1    2    0    0  0.23629625582E+03 -0.30956162529E+03  0.43653877738E+03  0.83826239514E+03  0.60037772992E+03 0.  0.
         23    2    4    4    0    0  0.11681123659E+02 -0.43054467490E+03  0.23526070005E+03  0.49904643082E+03  0.90523905093E+02 0.  0.
         23    2    4    4    0    0  0.22461513216E+03  0.12098304961E+03  0.20127807733E+03  0.33921596432E+03  0.97292086767E+02 0.  0.
          3    1    3    3  502    0 -0.17042841017E+03  0.16525136203E+03 -0.33948607191E+02  0.23980484477E+03  0.00000000000E+00 0. -1.
         -3    1    3    3    0  502 -0.65867845652E+02  0.14431026326E+03 -0.71995850880E+02  0.17420513114E+03  0.00000000000E+00 0.  1.
         11    1    5    5    0    0  0.18223567141E+02 -0.26604887452E+03  0.19269473846E+03  0.32900663256E+03  0.00000000000E+00 0. -1.
        -11    1    5    5    0    0 -0.65424434813E+01 -0.16449580038E+03  0.42565961585E+02  0.17003979826E+03  0.00000000000E+00 0.  1.
          5    1    6    6  503    0  0.14429019168E+03  0.10030299057E+03  0.18377623638E+03  0.25431504948E+03  0.47000000000E+01 0. -1.
         -5    1    6    6    0  503  0.80324940474E+02  0.20680059047E+02  0.17501840951E+02  0.84900914842E+02  0.47000000000E+01 0.  1.
<mgrwt>
<rscale>  0 0.54309390E+03</rscale>
<asrwt>0</asrwt>
<pdfrwt beam="1">  1        2 0.12175898E+00 0.54309390E+03</pdfrwt>
<pdfrwt beam="2">  1       -2 0.70898312E-01 0.54309390E+03</pdfrwt>
<totfact> 0.65158448E+01</totfact>
</mgrwt>
</event>
<event>
12    1  0.3127365E-008  0.6515169E+03  0.7818608E-02  0.9803937E-01
          2   -1    0    0  501    0  0.00000000000E+00  0.00000000000E+00  0.89245196879E+03  0.89245196879E+03  0.00000000000E+00 0.  1.
         -2   -1    0    0    0  501 -0.00000000000E+00 -0.00000000000E+00 -0.55388680441E+03  0.55388680441E+03  0.00000000000E+00 0. -1.
         23    2    1    2    0    0 -0.19351001823E+03 -0.47546614261E+03  0.38946246485E+03  0.65500788908E+03  0.11764413846E+03 0.  0.
    5000000    2    1    2    0    0  0.19351001823E+03  0.47546614261E+03 -0.50897300470E+02  0.79133088412E+03  0.60008320511E+03 0.  0.
         23    2    4    4    0    0  0.21095063024E+03  0.59321318810E+03 -0.55365187110E+00  0.63541662074E+03  0.85743340565E+02 0.  0.
         23    2    4    4    0    0 -0.17440612012E+02 -0.11774704549E+03 -0.50343648599E+02  0.15591426338E+03  0.87213719692E+02 0.  0.
          3    1    3    3  502    0 -0.80198308089E+02 -0.76479599409E+02  0.65607034676E+02  0.12878346456E+03  0.00000000000E+00 0. -1.
         -3    1    3    3    0  502 -0.11331171014E+03 -0.39898654320E+03  0.32385543017E+03  0.52622442452E+03  0.00000000000E+00 0.  1.
         13    1    5    5    0    0  0.10771031612E+03  0.26042776931E+03 -0.40439052916E+02  0.28470941717E+03  0.00000000000E+00 0. -1.
        -13    1    5    5    0    0  0.10324031412E+03  0.33278541879E+03  0.39885401045E+02  0.35070720357E+03  0.00000000000E+00 0.  1.
          5    1    6    6  503    0  0.34072956964E+02 -0.63638004258E+02 -0.30241896354E+02  0.78405511779E+02  0.47000000000E+01 0. -1.
         -5    1    6    6    0  503 -0.51513568976E+02 -0.54109041233E+02 -0.20101752245E+02  0.77508751604E+02  0.47000000000E+01 0.  1.
<mgrwt>
<rscale>  0 0.65151689E+03</rscale>
<asrwt>0</asrwt>
<pdfrwt beam="1">  1        2 0.13730030E+00 0.65151689E+03</pdfrwt>
<pdfrwt beam="2">  1       -2 0.85213355E-01 0.65151689E+03</pdfrwt>
<totfact> 0.36413284E+01</totfact>
</mgrwt>
</event>
<event>
12    1  0.3127365E-008  0.6726723E+03  0.7818608E-02  0.9765142E-01
         -2   -1    0    0    0  501 -0.00000000000E+00  0.00000000000E+00  0.65497362506E+03  0.65497362506E+03  0.00000000000E+00 0.  1.
          2   -1    0    0  501    0  0.00000000000E+00 -0.00000000000E+00 -0.98565125624E+03  0.98565125624E+03  0.00000000000E+00 0. -1.
         23    2    1    2    0    0  0.51554033785E+03 -0.25493779173E+03 -0.52815767716E+03  0.78615272528E+03  0.91161713010E+02 0.  0.
    5000000    2    1    2    0    0 -0.51554033785E+03  0.25493779173E+03  0.19748004598E+03  0.85447215602E+03  0.60029091218E+03 0.  0.
         23    2    4    4    0    0 -0.47823269630E+03  0.39466773628E+03  0.50407613913E+02  0.62873422476E+03  0.91086025148E+02 0.  0.
         23    2    4    4    0    0 -0.37307641550E+02 -0.13972994455E+03  0.14707243206E+03  0.22573793125E+03  0.91711481357E+02 0.  0.
          4    1    3    3  502    0  0.15974975352E+03 -0.46311768213E+02 -0.19234738107E+03  0.25428778702E+03  0.00000000000E+00 0. -1.
         -4    1    3    3    0  502  0.35579058433E+03 -0.20862602352E+03 -0.33581029609E+03  0.53186493825E+03  0.00000000000E+00 0.  1.
         11    1    5    5    0    0 -0.31094674669E+03  0.23229704615E+03 -0.86838114094E+01  0.38823344203E+03  0.00000000000E+00 0. -1.
        -11    1    5    5    0    0 -0.16728594961E+03  0.16237069013E+03  0.59091425323E+02  0.24050078273E+03  0.00000000000E+00 0.  1.
          5    1    6    6  503    0 -0.22719076331E+02 -0.64874070766E+02  0.13047275416E+03  0.14754670808E+03  0.47000000000E+01 0.  1.
         -5    1    6    6    0  503 -0.14588565219E+02 -0.74855873782E+02  0.16599677901E+02  0.78191223172E+02  0.47000000000E+01 0. -1.
<mgrwt>
<rscale>  0 0.67267229E+03</rscale>
<asrwt>0</asrwt>
<pdfrwt beam="1">  1        2 0.15163865E+00 0.67267229E+03</pdfrwt>
<pdfrwt beam="2">  1       -2 0.10076517E+00 0.67267229E+03</pdfrwt>
<totfact> 0.21392138E+01</totfact>
</mgrwt>
</event>
<event>
12    1  0.3127365E-008  0.9650338E+03  0.7818608E-02  0.9347749E-01
         -2   -1    0    0    0  501 -0.00000000000E+00  0.00000000000E+00  0.28698492922E+04  0.28698492922E+04  0.00000000000E+00 0.  1.
          2   -1    0    0  501    0  0.00000000000E+00 -0.00000000000E+00 -0.91860199753E+03  0.91860199753E+03  0.00000000000E+00 0. -1.
         23    2    1    2    0    0  0.36395148303E+03  0.80715720546E+03  0.24512343202E+04  0.26077660874E+04  0.89055252369E+02 0.  0.
    5000000    2    1    2    0    0 -0.36395148303E+03 -0.80715720546E+03 -0.49998702552E+03  0.11806852023E+04  0.60005590149E+03 0.  0.
         23    2    4    4    0    0 -0.45915479825E+03 -0.80669199203E+03 -0.47589618623E+03  0.10471408974E+04  0.91933563878E+02 0.  0.
         23    2    4    4    0    0  0.95203315224E+02 -0.46521342870E+00 -0.24090839290E+02  0.13354430490E+03  0.90497652900E+02 0.  0.
          1    1    3    3  502    0  0.26328051875E+03  0.58875096123E+03  0.16637797806E+04  0.17844067597E+04  0.00000000000E+00 0. -1.
         -1    1    3    3    0  502  0.10067096428E+03  0.21840624423E+03  0.78745453958E+03  0.82335932767E+03  0.00000000000E+00 0.  1.
         13    1    5    5    0    0 -0.14522128969E+03 -0.33415127218E+03 -0.21094211820E+03  0.42100222435E+03  0.00000000000E+00 0. -1.
        -13    1    5    5    0    0 -0.31393350857E+03 -0.47254071985E+03 -0.26495406803E+03  0.62613867304E+03  0.00000000000E+00 0.  1.
          5    1    6    6  503    0  0.33813362817E+01 -0.18411891708E+02 -0.34253844224E+02  0.39317261291E+02  0.47000000000E+01 0. -1.
         -5    1    6    6    0  503  0.91821978942E+02  0.17946678279E+02  0.10163004933E+02  0.94227043609E+02  0.47000000000E+01 0.  1.
<mgrwt>
<rscale>  0 0.96503383E+03</rscale>
<asrwt>0</asrwt>
<pdfrwt beam="1">  1        2 0.14132339E+00 0.96503383E+03</pdfrwt>
<pdfrwt beam="2">  1       -2 0.44151527E+00 0.96503383E+03</pdfrwt>
<totfact> 0.11527720E-01</totfact>
</mgrwt>
</event>
<event>
12    1  0.3127365E-008  0.5656615E+03  0.7818608E-02  0.9979325E-01
         -1   -1    0    0    0  501 -0.00000000000E+00  0.00000000000E+00  0.90959459527E+03  0.90959459527E+03  0.00000000000E+00 0.  1.
          1   -1    0    0  501    0  0.00000000000E+00 -0.00000000000E+00 -0.95534379186E+03  0.95534379186E+03  0.00000000000E+00 0. -1.
         23    2    1    2    0    0  0.47573047825E+03 -0.17670710765E+03 -0.68106807220E+03  0.85441859533E+03  0.92911394603E+02 0.  0.
    5000000    2    1    2    0    0 -0.47573047825E+03  0.17670710765E+03  0.63531887562E+03  0.10105197918E+04  0.59997940470E+03 0.  0.
         23    2    4    4    0    0 -0.46136814509E+03  0.22996468103E+03  0.19706714955E+03  0.55950839458E+03  0.92031855064E+02 0.  0.
         23    2    4    4    0    0 -0.14362333159E+02 -0.53257573382E+02  0.43825172607E+03  0.45101139722E+03  0.91126611290E+02 0.  0.
          1    1    3    3  502    0  0.30494286040E+03 -0.72208270579E+02 -0.37533787028E+03  0.48896083618E+03  0.00000000000E+00 0. -1.
         -1    1    3    3    0  502  0.17078761785E+03 -0.10449883707E+03 -0.30573020192E+03  0.36545775915E+03  0.00000000000E+00 0.  1.
         13    1    5    5    0    0 -0.22913477582E+03  0.73891040502E+02  0.12151260435E+03  0.26968119025E+03  0.00000000000E+00 0. -1.
        -13    1    5    5    0    0 -0.23223336926E+03  0.15607364053E+03  0.75554545200E+02  0.28982720433E+03  0.00000000000E+00 0.  1.
          5    1    6    6  503    0 -0.46515322648E+02 -0.41791699960E+02  0.36123598117E+03  0.36663843978E+03  0.47000000000E+01 0. -1.
         -5    1    6    6    0  503  0.32152989489E+02 -0.11465873422E+02  0.77015744892E+02  0.84372957443E+02  0.47000000000E+01 0.  1.
<mgrwt>
<rscale>  0 0.56566147E+03</rscale>
<asrwt>0</asrwt>
<pdfrwt beam="1">  1        1 0.14697597E+00 0.56566147E+03</pdfrwt>
<pdfrwt beam="2">  1       -1 0.13993763E+00 0.56566147E+03</pdfrwt>
<totfact> 0.73465475E+00</totfact>
</mgrwt>
</event>
<event>
12    1  0.3127365E-008  0.2598779E+03  0.7818608E-02  0.1107217E+00
         -1   -1    0    0    0  501 -0.00000000000E+00  0.00000000000E+00  0.53246813455E+03  0.53246813455E+03  0.00000000000E+00 0.  1.
          1   -1    0    0  501    0  0.00000000000E+00 -0.00000000000E+00 -0.25846103464E+03  0.25846103464E+03  0.00000000000E+00 0. -1.
         23    2    1    2    0    0  0.35916839163E+02  0.65135462784E+02  0.11469047340E+03  0.16572114462E+03  0.93685352306E+02 0.  0.
    5000000    2    1    2    0    0 -0.35916839163E+02 -0.65135462784E+02  0.15931662651E+03  0.62520802458E+03  0.59997553172E+03 0.  0.
         23    2    4    4    0    0  0.13344296981E+03  0.95485759231E+02  0.28888395648E+03  0.34342987008E+03  0.86980336525E+02 0.  0.
         23    2    4    4    0    0 -0.16935980897E+03 -0.16062122202E+03 -0.12956732997E+03  0.28177815450E+03  0.90162705697E+02 0.  0.
          4    1    3    3  502    0 -0.10028052594E+02 -0.13268057072E+02 -0.31336876809E+01  0.16924041355E+02  0.00000000000E+00 0. -1.
         -4    1    3    3    0  502  0.45944891757E+02  0.78403519856E+02  0.11782416108E+03  0.14879710326E+03  0.00000000000E+00 0.  1.
         11    1    5    5    0    0  0.23953348993E+02  0.55468642515E+02  0.53247406109E+02  0.80534585662E+02  0.00000000000E+00 0. -1.
        -11    1    5    5    0    0  0.10948962082E+03  0.40017116717E+02  0.23563655037E+03  0.26289528442E+03  0.00000000000E+00 0.  1.
          5    1    6    6  503    0 -0.39740688237E+02 -0.54832284846E+02 -0.84600505921E+02  0.10846767890E+03  0.47000000000E+01 0. -1.
         -5    1    6    6    0  503 -0.12961912074E+03 -0.10578893717E+03 -0.44966824051E+02  0.17331047560E+03  0.47000000000E+01 0.  1.
<mgrwt>
<rscale>  0 0.25987785E+03</rscale>
<asrwt>0</asrwt>
<pdfrwt beam="1">  1        1 0.39763236E-01 0.25987785E+03</pdfrwt>
<pdfrwt beam="2">  1       -1 0.81918174E-01 0.25987785E+03</pdfrwt>
<totfact> 0.16591471E+02</totfact>
</mgrwt>
</event>
<event>
12    1  0.3127365E-008  0.3828063E+03  0.7818608E-02  0.1049901E+00
         -1   -1    0    0    0  501 -0.00000000000E+00  0.00000000000E+00  0.49769999368E+03  0.49769999368E+03  0.00000000000E+00 0.  1.
          1   -1    0    0  501    0  0.00000000000E+00 -0.00000000000E+00 -0.58364555937E+03  0.58364555937E+03  0.00000000000E+00 0. -1.
         23    2    1    2    0    0  0.92318477626E+02 -0.10296714904E+03 -0.36885909120E+03  0.40373515851E+03  0.88431408255E+02 0.  0.
    5000000    2    1    2    0    0 -0.92318477626E+02  0.10296714904E+03  0.28291352551E+03  0.67761039454E+03  0.59999237394E+03 0.  0.
         23    2    4    4    0    0 -0.17970275285E+03  0.31161316359E+03  0.18693781246E+03  0.41551181093E+03  0.91150843080E+02 0.  0.
         23    2    4    4    0    0  0.87384275220E+02 -0.20864601455E+03  0.95975713050E+02  0.26209858361E+03  0.91187494152E+02 0.  0.
          3    1    3    3  502    0  0.28904025063E+02  0.11655879575E+02 -0.98489816563E+02  0.10330317594E+03  0.00000000000E+00 0. -1.
         -3    1    3    3    0  502  0.63414452563E+02 -0.11462302861E+03 -0.27036927464E+03  0.30043198257E+03  0.00000000000E+00 0.  1.
         13    1    5    5    0    0 -0.10856656542E+03  0.15835778688E+03  0.51005965910E+02  0.19865924682E+03  0.00000000000E+00 0.  1.
        -13    1    5    5    0    0 -0.71136187428E+02  0.15325537672E+03  0.13593184655E+03  0.21685256411E+03  0.00000000000E+00 0. -1.
          5    1    6    6  503    0  0.92389181052E+02 -0.11052595786E+03  0.43155974194E+02  0.15045356840E+03  0.47000000000E+01 0. -1.
         -5    1    6    6    0  503 -0.50049058316E+01 -0.98120056691E+02  0.52819738855E+02  0.11164501521E+03  0.47000000000E+01 0.  1.
<mgrwt>
<rscale>  0 0.38280626E+03</rscale>
<asrwt>0</asrwt>
<pdfrwt beam="1">  1        1 0.89791625E-01 0.38280626E+03</pdfrwt>
<pdfrwt beam="2">  1       -1 0.76569230E-01 0.38280626E+03</pdfrwt>
<totfact> 0.64863603E+01</totfact>
</mgrwt>
</event>
<event>
12    1  0.3127365E-008  0.9716478E+03  0.7818608E-02  0.9340199E-01
          1   -1    0    0  501    0  0.00000000000E+00  0.00000000000E+00  0.17708867570E+04  0.17708867570E+04  0.00000000000E+00 0. -1.
         -1   -1    0    0    0  501 -0.00000000000E+00 -0.00000000000E+00 -0.69419496921E+03  0.69419496921E+03  0.00000000000E+00 0.  1.
         23    2    1    2    0    0  0.94308368925E+03  0.22278284078E+03  0.12693821269E+03  0.98144852838E+03  0.89938117379E+02 0.  0.
    5000000    2    1    2    0    0 -0.94308368925E+03 -0.22278284078E+03  0.94975357508E+03  0.14836331978E+04  0.60008047224E+03 0.  0.
         23    2    4    4    0    0 -0.35102888486E+03 -0.10205413680E+03  0.75151309075E+03  0.84059892852E+03  0.90544509588E+02 0.  0.
         23    2    4    4    0    0 -0.59205480439E+03 -0.12072870399E+03  0.19824048432E+03  0.64303426927E+03  0.95338714447E+02 0.  0.
          1    1    3    3  502    0  0.58991753138E+03  0.17990131539E+03  0.62474981699E+02  0.61989539476E+03  0.00000000000E+00 0. -1.
         -1    1    3    3    0  502  0.35316615787E+03  0.42881525389E+02  0.64463230994E+02  0.36155313362E+03  0.00000000000E+00 0.  1.
         11    1    5    5    0    0 -0.27425349741E+03 -0.75655939395E+02  0.48812493562E+03  0.56498208359E+03  0.00000000000E+00 0. -1.
        -11    1    5    5    0    0 -0.76775387451E+02 -0.26398197401E+02  0.26338815514E+03  0.27561684493E+03  0.00000000000E+00 0.  1.
          5    1    6    6  503    0 -0.13643561124E+03 -0.14792123993E+02  0.65060381284E+01  0.13746963839E+03  0.47000000000E+01 0. -1.
         -5    1    6    6    0  503 -0.45561919315E+03 -0.10593657999E+03  0.19173444619E+03  0.50556463088E+03  0.47000000000E+01 0.  1.
<mgrwt>
<rscale>  0 0.97164779E+03</rscale>
<asrwt>0</asrwt>
<pdfrwt beam="1">  1        1 0.27244411E+00 0.97164779E+03</pdfrwt>
<pdfrwt beam="2">  1       -1 0.10679923E+00 0.97164779E+03</pdfrwt>
<totfact> 0.35312151E+00</totfact>
</mgrwt>
</event>
<event>
12    1  0.3127365E-008  0.6631208E+03  0.7818608E-02  0.9782466E-01
         -1   -1    0    0    0  501 -0.00000000000E+00  0.00000000000E+00  0.33842778731E+03  0.33842778731E+03  0.00000000000E+00 0.  1.
          1   -1    0    0  501    0  0.00000000000E+00 -0.00000000000E+00 -0.24725010240E+04  0.24725010240E+04  0.00000000000E+00 0. -1.
         23    2    1    2    0    0 -0.61080201491E+02 -0.65162545185E+03 -0.21223390339E+03  0.69391548706E+03  0.90160706153E+02 0.  0.
    5000000    2    1    2    0    0  0.61080201491E+02  0.65162545185E+03 -0.19218393333E+04  0.21170133243E+04  0.59994372361E+03 0.  0.
         23    2    4    4    0    0  0.86336965489E+01  0.33730206798E+03 -0.29697449716E+03  0.45871539253E+03  0.91535422652E+02 0.  0.
         23    2    4    4    0    0  0.52446504942E+02  0.31432338387E+03 -0.16248648362E+04  0.16582979318E+04  0.90644740977E+02 0.  0.
          1    1    3    3  502    0 -0.66031689670E+01 -0.26761231155E+03 -0.44609427151E+02  0.27138524670E+03  0.00000000000E+00 0. -1.
         -1    1    3    3    0  502 -0.54477032524E+02 -0.38401314029E+03 -0.16762447623E+03  0.42253024037E+03  0.00000000000E+00 0.  1.
         11    1    5    5    0    0  0.45539670210E+02  0.19505695249E+03 -0.19723609078E+03  0.28111056861E+03  0.00000000000E+00 0. -1.
        -11    1    5    5    0    0 -0.36905973661E+02  0.14224511549E+03 -0.99738406382E+02  0.17760482392E+03  0.00000000000E+00 0.  1.
          5    1    6    6  503    0  0.53934285698E+02  0.31384418593E+03 -0.15048830743E+04  0.15382139765E+04  0.47000000000E+01 0. -1.
         -5    1    6    6    0  503 -0.14877807560E+01  0.47919793624E+00 -0.11998176189E+03  0.12008395525E+03  0.47000000000E+01 0.  1.
<mgrwt>
<rscale>  0 0.66312082E+03</rscale>
<asrwt>0</asrwt>
<pdfrwt beam="1">  1        1 0.38038478E+00 0.66312082E+03</pdfrwt>
<pdfrwt beam="2">  1       -1 0.52065813E-01 0.66312082E+03</pdfrwt>
<totfact> 0.56531771E+00</totfact>
</mgrwt>
</event>
<event>
12    1  0.3127365E-008  0.4138293E+03  0.7818608E-02  0.1039094E+00
          1   -1    0    0  501    0  0.00000000000E+00  0.00000000000E+00  0.38153519057E+04  0.38153519057E+04  0.00000000000E+00 0. -1.
         -1   -1    0    0    0  501 -0.00000000000E+00 -0.00000000000E+00 -0.80028198577E+02  0.80028198577E+02  0.00000000000E+00 0.  1.
         23    2    1    2    0    0  0.40376755898E+02  0.35384330210E+03  0.83892951115E+03  0.91613198987E+03  0.93057688189E+02 0.  0.
    5000000    2    1    2    0    0 -0.40376755898E+02 -0.35384330210E+03  0.28963941960E+04  0.29792481144E+04  0.59998718643E+03 0.  0.
         23    2    4    4    0    0 -0.15142478250E+03 -0.26525853051E+03  0.27104536744E+04  0.27293098542E+04  0.96341093528E+02 0.  0.
         23    2    4    4    0    0  0.11104802660E+03 -0.88584771591E+02  0.18594052163E+03  0.24993826028E+03  0.87842645670E+02 0.  0.
          2    1    3    3  502    0  0.19165818828E+02  0.12691912986E+03  0.19878055798E+03  0.23662101421E+03  0.00000000000E+00 0.  1.
         -2    1    3    3    0  502  0.21210937070E+02  0.22692417224E+03  0.64014895317E+03  0.67951097566E+03  0.00000000000E+00 0. -1.
         11    1    5    5    0    0 -0.91811648601E+02 -0.15889387001E+03  0.12009822856E+04  0.12149218456E+04  0.00000000000E+00 0. -1.
        -11    1    5    5    0    0 -0.59613133900E+02 -0.10636466049E+03  0.15094713888E+04  0.15143880085E+04  0.00000000000E+00 0.  1.
          5    1    6    6  503    0  0.29409374866E+02 -0.77994585307E+02  0.10769301015E+03  0.13626423266E+03  0.47000000000E+01 0. -1.
         -5    1    6    6    0  503  0.81638651737E+02 -0.10590186284E+02  0.78247511482E+02  0.11367402762E+03  0.47000000000E+01 0.  1.
<mgrwt>
<rscale>  0 0.41382927E+03</rscale>
<asrwt>0</asrwt>
<pdfrwt beam="1">  1        1 0.58697708E+00 0.41382927E+03</pdfrwt>
<pdfrwt beam="2">  1       -1 0.12312033E-01 0.41382927E+03</pdfrwt>
<totfact> 0.74013117E+00</totfact>
</mgrwt>
</event>
<event>
12    1  0.3127365E-008  0.5068695E+03  0.7818608E-02  0.1012001E+00
          2   -1    0    0  501    0  0.00000000000E+00  0.00000000000E+00  0.17695519645E+04  0.17695519645E+04  0.00000000000E+00 0. -1.
         -2   -1    0    0    0  501 -0.00000000000E+00 -0.00000000000E+00 -0.28680075407E+03  0.28680075407E+03  0.00000000000E+00 0.  1.
         23    2    1    2    0    0  0.30860614887E+03  0.15477146327E+03 -0.63400516045E+02  0.36233339174E+03  0.89854885072E+02 0.  0.
    5000000    2    1    2    0    0 -0.30860614887E+03 -0.15477146327E+03  0.15461517265E+04  0.16940193269E+04  0.59993696119E+03 0.  0.
         23    2    4    4    0    0 -0.40299569476E+02 -0.31858641449E+03  0.52732591433E+03  0.62390855091E+03  0.89821496193E+02 0.  0.
         23    2    4    4    0    0 -0.26830657940E+03  0.16381495122E+03  0.10188258122E+04  0.10701107760E+04  0.91144272650E+02 0.  0.
          1    1    3    3  502    0  0.28713405978E+03  0.11103636629E+03 -0.50917019425E+02  0.31203779546E+03  0.00000000000E+00 0. -1.
         -1    1    3    3    0  502  0.21472089090E+02  0.43735096981E+02 -0.12483496620E+02  0.50295596286E+02  0.00000000000E+00 0.  1.
         11    1    5    5    0    0  0.23291594787E+02 -0.62144456548E+02  0.14148410325E+03  0.15627598453E+03  0.00000000000E+00 0. -1.
        -11    1    5    5    0    0 -0.63591164263E+02 -0.25644195794E+03  0.38584181108E+03  0.46763256638E+03  0.00000000000E+00 0.  1.
          5    1    6    6  503    0 -0.66979574755E+02  0.89596970602E+02  0.38371275758E+03  0.39971421154E+03  0.47000000000E+01 0. -1.
         -5    1    6    6    0  503 -0.20132700464E+03  0.74217980617E+02  0.63511305462E+03  0.67039656442E+03  0.47000000000E+01 0.  1.
<mgrwt>
<rscale>  0 0.50686952E+03</rscale>
<asrwt>0</asrwt>
<pdfrwt beam="1">  1        2 0.27223876E+00 0.50686952E+03</pdfrwt>
<pdfrwt beam="2">  1       -2 0.44123194E-01 0.50686952E+03</pdfrwt>
<totfact> 0.46408070E+01</totfact>
</mgrwt>
</event>
<event>
12    1  0.3127365E-008  0.1237227E+04  0.7818608E-02  0.9080882E-01
         -1   -1    0    0    0  501 -0.00000000000E+00  0.00000000000E+00  0.11306130168E+04  0.11306130168E+04  0.00000000000E+00 0.  1.
          1   -1    0    0  501    0  0.00000000000E+00 -0.00000000000E+00 -0.14649628066E+04  0.14649628066E+04  0.00000000000E+00 0. -1.
         23    2    1    2    0    0 -0.94216913452E+03 -0.76126102321E+03 -0.59302908096E+02  0.12161141383E+04  0.90640713883E+02 0.  0.
    5000000    2    1    2    0    0  0.94216913452E+03  0.76126102321E+03 -0.27504688175E+03  0.13794616851E+04  0.60005227266E+03 0.  0.
         23    2    4    4    0    0  0.52079613945E+03  0.62378654910E+03  0.55700710015E+02  0.81934936344E+03  0.88839926626E+02 0.  0.
         23    2    4    4    0    0  0.42137299507E+03  0.13747447410E+03 -0.33074759177E+03  0.56011232163E+03  0.88754782295E+02 0.  0.
          3    1    3    3  502    0 -0.63996855943E+03 -0.47693044277E+03 -0.68580468544E+02  0.80107782703E+03  0.00000000000E+00 0. -1.
         -3    1    3    3    0  502 -0.30220057509E+03 -0.28433058044E+03  0.92775604477E+01  0.41503631129E+03  0.00000000000E+00 0.  1.
         11    1    5    5    0    0  0.49366735126E+03  0.61489923595E+03  0.49266891564E+02  0.79008591348E+03  0.00000000000E+00 0.  1.
        -11    1    5    5    0    0  0.27128788191E+02  0.88873131542E+01  0.64338184510E+01  0.29263449962E+02  0.00000000000E+00 0. -1.
          5    1    6    6  503    0  0.13060692425E+03  0.28696522142E+02 -0.14935170486E+03  0.20052351680E+03  0.47000000000E+01 0. -1.
         -5    1    6    6    0  503  0.29076607082E+03  0.10877795196E+03 -0.18139588690E+03  0.35958880483E+03  0.47000000000E+01 0.  1.
<mgrwt>
<rscale>  0 0.12372265E+04</rscale>
<asrwt>0</asrwt>
<pdfrwt beam="1">  1        1 0.22537889E+00 0.12372265E+04</pdfrwt>
<pdfrwt beam="2">  1       -1 0.17394047E+00 0.12372265E+04</pdfrwt>
<totfact> 0.15547772E+00</totfact>
</mgrwt>
</event>
<event>
12    1  0.3127365E-008  0.5362877E+03  0.7818608E-02  0.1004719E+00
          1   -1    0    0  501    0  0.00000000000E+00  0.00000000000E+00  0.12510490947E+04  0.12510490947E+04  0.00000000000E+00 0. -1.
         -1   -1    0    0    0  501 -0.00000000000E+00 -0.00000000000E+00 -0.30188390507E+03  0.30188390507E+03  0.00000000000E+00 0.  1.
         23    2    1    2    0    0  0.36462409040E+03 -0.10579552417E+03  0.30927864329E+02  0.39221948037E+03  0.93467468951E+02 0.  0.
    5000000    2    1    2    0    0 -0.36462409040E+03  0.10579552417E+03  0.91823732528E+03  0.11607135194E+04  0.59996055562E+03 0.  0.
         23    2    4    4    0    0  0.13994888964E+03 -0.90827193064E+01  0.34422882588E+03  0.38276918544E+03  0.91381492956E+02 0.  0.
         23    2    4    4    0    0 -0.50457298003E+03  0.11487824348E+03  0.57400849940E+03  0.77794433394E+03  0.88998462469E+02 0.  0.
          1    1    3    3  502    0  0.13860416423E+03 -0.85632057839E+02 -0.19347514695E+01  0.16293467076E+03  0.00000000000E+00 0. -1.
         -1    1    3    3    0  502  0.22601992617E+03 -0.20163466333E+02  0.32862615798E+02  0.22928480961E+03  0.00000000000E+00 0.  1.
         11    1    5    5    0    0  0.12311129928E+03  0.25198027600E+02  0.29350059228E+03  0.31927093553E+03  0.00000000000E+00 0.  1.
        -11    1    5    5    0    0  0.16837590358E+02 -0.34280746907E+02  0.50728233603E+02  0.63498249913E+02  0.00000000000E+00 0. -1.
          5    1    6    6  503    0 -0.22592973713E+03  0.32703898731E+02  0.31259824310E+03  0.38710921289E+03  0.47000000000E+01 0. -1.
         -5    1    6    6    0  503 -0.27864324290E+03  0.82174344747E+02  0.26141025630E+03  0.39083512105E+03  0.47000000000E+01 0.  1.
<mgrwt>
<rscale>  0 0.53628768E+03</rscale>
<asrwt>0</asrwt>
<pdfrwt beam="1">  1        1 0.19246909E+00 0.53628768E+03</pdfrwt>
<pdfrwt beam="2">  1       -1 0.46443678E-01 0.53628768E+03</pdfrwt>
<totfact> 0.47733755E+01</totfact>
</mgrwt>
</event>
<event>
12    1  0.3127365E-008  0.3809223E+03  0.7818608E-02  0.1050593E+00
         -1   -1    0    0    0  501 -0.00000000000E+00  0.00000000000E+00  0.23576350639E+03  0.23576350639E+03  0.00000000000E+00 0.  1.
          1   -1    0    0  501    0  0.00000000000E+00 -0.00000000000E+00 -0.22261537870E+04  0.22261537870E+04  0.00000000000E+00 0. -1.
         23    2    1    2    0    0  0.25340149002E+03  0.10507951531E+03  0.70590152208E+02  0.29792777039E+03  0.92325332917E+02 0.  0.
    5000000    2    1    2    0    0 -0.25340149002E+03 -0.10507951531E+03 -0.20609804328E+04  0.21639895230E+04  0.59996357515E+03 0.  0.
         23    2    4    4    0    0  0.71806496744E+02 -0.11887739399E+03 -0.15405907849E+03  0.22738361178E+03  0.93172417945E+02 0.  0.
         23    2    4    4    0    0 -0.32520798677E+03  0.13797878673E+02 -0.19069213543E+04  0.19366059112E+04  0.90237396170E+02 0.  0.
          1    1    3    3  502    0  0.11272968365E+03  0.72276019142E+02 -0.67503695260E+01  0.13407972258E+03  0.00000000000E+00 0. -1.
         -1    1    3    3    0  502  0.14067180637E+03  0.32803496169E+02  0.77340521734E+02  0.16384804781E+03  0.00000000000E+00 0.  1.
         11    1    5    5    0    0 -0.11144424204E+02 -0.25855913051E+01  0.59456331143E+01  0.12893177513E+02  0.00000000000E+00 0. -1.
        -11    1    5    5    0    0  0.82950920949E+02 -0.11629180268E+03 -0.16000471161E+03  0.21449043427E+03  0.00000000000E+00 0.  1.
          5    1    6    6  503    0 -0.10347098023E+03  0.26953098416E+02 -0.43288006219E+03  0.44591473569E+03  0.47000000000E+01 0. -1.
         -5    1    6    6    0  503 -0.22173700654E+03 -0.13155219743E+02 -0.14740412921E+04  0.14906911755E+04  0.47000000000E+01 0.  1.
<mgrwt>
<rscale>  0 0.38092229E+03</rscale>
<asrwt>0</asrwt>
<pdfrwt beam="1">  1        1 0.34248519E+00 0.38092229E+03</pdfrwt>
<pdfrwt beam="2">  1       -1 0.36271310E-01 0.38092229E+03</pdfrwt>
<totfact> 0.17183812E+01</totfact>
</mgrwt>
</event>
<event>
12    1  0.3127365E-008  0.5817217E+03  0.7818608E-02  0.9944071E-01
         -2   -1    0    0    0  501 -0.00000000000E+00  0.00000000000E+00  0.21749289498E+03  0.21749289498E+03  0.00000000000E+00 0.  1.
          2   -1    0    0  501    0  0.00000000000E+00 -0.00000000000E+00 -0.24261210835E+04  0.24261210835E+04  0.00000000000E+00 0. -1.
         23    2    1    2    0    0  0.25432739611E+03 -0.51371810769E+03 -0.60449959597E+03  0.83755057255E+03  0.86501337996E+02 0.  0.
    5000000    2    1    2    0    0 -0.25432739611E+03  0.51371810769E+03 -0.16041285926E+04  0.18060634059E+04  0.60003980386E+03 0.  0.
         23    2    4    4    0    0 -0.18717843023E+03  0.29876860791E+03 -0.27629887018E+03  0.45641649892E+03  0.87615689257E+02 0.  0.
         23    2    4    4    0    0 -0.67148965881E+02  0.21494949978E+03 -0.13278297224E+04  0.13496469070E+04  0.87765203362E+02 0.  0.
          4    1    3    3  502    0  0.96267655736E+02 -0.20272933234E+03 -0.29889724827E+03  0.37377293743E+03  0.00000000000E+00 0. -1.
         -4    1    3    3    0  502  0.15805974038E+03 -0.31098877535E+03 -0.30560234770E+03  0.46377763512E+03  0.00000000000E+00 0.  1.
         11    1    5    5    0    0 -0.98290775319E+02  0.23029829954E+03 -0.20356245967E+03  0.32270119037E+03  0.00000000000E+00 0.  1.
        -11    1    5    5    0    0 -0.88887654914E+02  0.68470308375E+02 -0.72736410512E+02  0.13371530854E+03  0.00000000000E+00 0. -1.
          5    1    6    6  503    0 -0.21980800831E+02  0.12277134865E+03 -0.49460998710E+03  0.51011478021E+03  0.47000000000E+01 0. -1.
         -5    1    6    6    0  503 -0.45168165050E+02  0.92178151130E+02 -0.83321973528E+03  0.83953212681E+03  0.47000000000E+01 0.  1.
<mgrwt>
<rscale>  0 0.58172169E+03</rscale>
<asrwt>0</asrwt>
<pdfrwt beam="1">  1        2 0.37324943E+00 0.58172169E+03</pdfrwt>
<pdfrwt beam="2">  1       -2 0.33460443E-01 0.58172169E+03</pdfrwt>
<totfact> 0.34279931E+01</totfact>
</mgrwt>
</event>
<event>
12    1  0.3127365E-008  0.6800767E+03  0.7818608E-02  0.9751924E-01
          2   -1    0    0  501    0  0.00000000000E+00  0.00000000000E+00  0.12500844728E+04  0.12500844728E+04  0.00000000000E+00 0.  1.
         -2   -1    0    0    0  501 -0.00000000000E+00 -0.00000000000E+00 -0.57008611464E+03  0.57008611464E+03  0.00000000000E+00 0. -1.
         23    2    1    2    0    0 -0.44374135475E+03 -0.32493658251E+03  0.82252366797E+03  0.99370747140E+03  0.91756099482E+02 0.  0.
    5000000    2    1    2    0    0  0.44374135475E+03  0.32493658251E+03 -0.14252530985E+03  0.82646311599E+03  0.60019800531E+03 0.  0.
         23    2    4    4    0    0 -0.12738552271E+03  0.35084114814E+02  0.11158374953E+02  0.16116205263E+03  0.91600935411E+02 0.  0.
         23    2    4    4    0    0  0.57112687746E+03  0.28985246769E+03 -0.15368368480E+03  0.66530106336E+03  0.93842776787E+02 0.  0.
          2    1    3    3  502    0 -0.39807852060E+03 -0.31908899665E+03  0.77208692194E+03  0.92542018099E+03  0.00000000000E+00 0. -1.
         -2    1    3    3    0  502 -0.45662834145E+02 -0.58475858574E+01  0.50436746025E+02  0.68287290414E+02  0.00000000000E+00 0.  1.
         11    1    5    5    0    0 -0.24425022802E+02 -0.27535194711E+02 -0.11460754518E+02  0.38550195599E+02  0.00000000000E+00 0.  1.
        -11    1    5    5    0    0 -0.10296049990E+03  0.62619309525E+02  0.22619129471E+02  0.12261185703E+03  0.00000000000E+00 0. -1.
          5    1    6    6  503    0  0.35870224566E+03  0.22903588049E+03 -0.86590503533E+02  0.43433252341E+03  0.47000000000E+01 0. -1.
         -5    1    6    6    0  503  0.21242463180E+03  0.60816587206E+02 -0.67093181269E+02  0.23096853995E+03  0.47000000000E+01 0.  1.
<mgrwt>
<rscale>  0 0.68007673E+03</rscale>
<asrwt>0</asrwt>
<pdfrwt beam="1">  1        2 0.19232069E+00 0.68007673E+03</pdfrwt>
<pdfrwt beam="2">  1       -2 0.87705556E-01 0.68007673E+03</pdfrwt>
<totfact> 0.20398382E+01</totfact>
</mgrwt>
</event>
<event>
12    1  0.3790802E-008  0.1651479E+04  0.7818608E-02  0.8789532E-01
          2   -1    0    0  501    0  0.00000000000E+00  0.00000000000E+00  0.24129126646E+04  0.24129126646E+04  0.00000000000E+00 0. -1.
         -2   -1    0    0    0  501 -0.00000000000E+00 -0.00000000000E+00 -0.12413078301E+04  0.12413078301E+04  0.00000000000E+00 0.  1.
         23    2    1    2    0    0  0.15925968249E+04 -0.24154787684E+03  0.10632672573E+04  0.19322094898E+04  0.90477778355E+02 0.  0.
    5000000    2    1    2    0    0 -0.15925968249E+04  0.24154787684E+03  0.10833757717E+03  0.17220110050E+04  0.59906163876E+03 0.  0.
         23    2    4    4    0    0 -0.36431990501E+03  0.27282763066E+03  0.15572056130E+03  0.48935277409E+03  0.89740375876E+02 0.  0.
         23    2    4    4    0    0 -0.12282769199E+04 -0.31279753825E+02 -0.47382984128E+02  0.12326582309E+04  0.86939933010E+02 0.  0.
          2    1    3    3  502    0  0.59048215757E+03 -0.46511373176E+02  0.37902556272E+03  0.70320186535E+03  0.00000000000E+00 0. -1.
         -2    1    3    3    0  502  0.10021146674E+04 -0.19503650366E+03  0.68424169459E+03  0.12290076244E+04  0.00000000000E+00 0.  1.
         13    1    5    5    0    0 -0.18478145164E+03  0.10294034147E+03  0.35453328393E+02  0.21447106393E+03  0.00000000000E+00 0. -1.
        -13    1    5    5    0    0 -0.17953845337E+03  0.16988728919E+03  0.12026723291E+03  0.27488171016E+03  0.00000000000E+00 0.  1.
          5    1    6    6  503    0 -0.73725990780E+03  0.18259572352E+02 -0.48949735054E+02  0.73912363661E+03  0.47000000000E+01 0. -1.
         -5    1    6    6    0  503 -0.49101701213E+03 -0.49539326177E+02  0.15667509262E+01  0.49353459427E+03  0.47000000000E+01 0.  1.
<mgrwt>
<rscale>  0 0.16514790E+04</rscale>
<asrwt>0</asrwt>
<pdfrwt beam="1">  1        2 0.37121733E+00 0.16514790E+04</pdfrwt>
<pdfrwt beam="2">  1       -2 0.19097044E+00 0.16514790E+04</pdfrwt>
<totfact> 0.55242674E-01</totfact>
</mgrwt>
</event>
<event>
12    1  0.3127365E-008  0.4016684E+03  0.7818608E-02  0.1043203E+00
          2   -1    0    0  501    0  0.00000000000E+00  0.00000000000E+00  0.21143363238E+04  0.21143363238E+04  0.00000000000E+00 0. -1.
         -2   -1    0    0    0  501 -0.00000000000E+00 -0.00000000000E+00 -0.97640126424E+02  0.97640126424E+02  0.00000000000E+00 0.  1.
         23    2    1    2    0    0 -0.19171064725E+03 -0.88489916417E+02  0.87600116663E+03  0.90596411290E+03  0.93858895986E+02 0.  0.
    5000000    2    1    2    0    0  0.19171064725E+03  0.88489916417E+02  0.11406950307E+04  0.13060123373E+04  0.59991635624E+03 0.  0.
         23    2    4    4    0    0 -0.34617710803E+02  0.26913177534E+03  0.31145827317E+03  0.42308341737E+03  0.91449569336E+02 0.  0.
         23    2    4    4    0    0  0.22632835805E+03 -0.18064185892E+03  0.82923675755E+03  0.88292891992E+03  0.89854720047E+02 0.  0.
          2    1    3    3  502    0 -0.14396140906E+03 -0.29535658685E+02  0.68205265593E+03  0.69770557393E+03  0.00000000000E+00 0. -1.
         -2    1    3    3    0  502 -0.47749238185E+02 -0.58954257732E+02  0.19394851069E+03  0.20825853897E+03  0.00000000000E+00 0.  1.
         13    1    5    5    0    0  0.26258466279E+02  0.32841970139E+02  0.39255237260E+02  0.57524566111E+02  0.00000000000E+00 0. -1.
        -13    1    5    5    0    0 -0.60876177082E+02  0.23628980520E+03  0.27220303591E+03  0.36555885126E+03  0.00000000000E+00 0.  1.
          5    1    6    6  503    0  0.12821388700E+03 -0.68723757835E+02  0.30491002221E+03  0.33786678936E+03  0.47000000000E+01 0. -1.
         -5    1    6    6    0  503  0.98114471052E+02 -0.11191810108E+03  0.52432673534E+03  0.54506213056E+03  0.47000000000E+01 0.  1.
<mgrwt>
<rscale>  0 0.40166845E+03</rscale>
<asrwt>0</asrwt>
<pdfrwt beam="1">  1        2 0.32528248E+00 0.40166845E+03</pdfrwt>
<pdfrwt beam="2">  1       -2 0.15021559E-01 0.40166845E+03</pdfrwt>
<totfact> 0.21598973E+02</totfact>
</mgrwt>
</event>
<event>
12    1  0.3127365E-008  0.3828264E+03  0.7818608E-02  0.1049894E+00
         -2   -1    0    0    0  501 -0.00000000000E+00  0.00000000000E+00  0.16131954815E+03  0.16131954815E+03  0.00000000000E+00 0.  1.
          2   -1    0    0  501    0  0.00000000000E+00 -0.00000000000E+00 -0.17496823989E+04  0.17496823989E+04  0.00000000000E+00 0. -1.
         23    2    1    2    0    0 -0.46428084749E+02 -0.34385081220E+03 -0.66812033412E+03  0.75887478286E+03  0.95484067184E+02 0.  0.
    5000000    2    1    2    0    0  0.46428084749E+02  0.34385081220E+03 -0.92024251663E+03  0.11521271642E+04  0.60013478898E+03 0.  0.
         23    2    4    4    0    0  0.54408546518E+02  0.28739606465E+03 -0.98142816597E+03  0.10280464654E+04  0.90119377164E+02 0.  0.
         23    2    4    4    0    0 -0.79804617683E+01  0.56454747553E+02  0.61185649346E+02  0.12408069879E+03  0.91659750353E+02 0.  0.
          4    1    3    3  502    0 -0.43533086972E+02 -0.64980198676E+02 -0.11021595449E+03  0.13514848318E+03  0.00000000000E+00 0. -1.
         -4    1    3    3    0  502 -0.28949977774E+01 -0.27887061353E+03 -0.55790437963E+03  0.62372629968E+03  0.00000000000E+00 0.  1.
         13    1    5    5    0    0  0.71474748157E+02  0.13798055062E+03 -0.47643695576E+03  0.50113814940E+03  0.00000000000E+00 0. -1.
        -13    1    5    5    0    0 -0.17066201640E+02  0.14941551403E+03 -0.50499121022E+03  0.52690831600E+03  0.00000000000E+00 0.  1.
          5    1    6    6  503    0  0.34061517608E+02  0.28749450433E+01  0.34568545441E+01  0.34676968352E+02  0.47000000000E+01 0. -1.
         -5    1    6    6    0  503 -0.42041979376E+02  0.53579802510E+02  0.57728794802E+02  0.89403730437E+02  0.47000000000E+01 0.  1.
<mgrwt>
<rscale>  0 0.38282642E+03</rscale>
<asrwt>0</asrwt>
<pdfrwt beam="1">  1        2 0.26918189E+00 0.38282642E+03</pdfrwt>
<pdfrwt beam="2">  1       -2 0.24818393E-01 0.38282642E+03</pdfrwt>
<totfact> 0.14276834E+02</totfact>
</mgrwt>
</event>
<event>
12    1  0.3127365E-008  0.3033821E+03  0.7818608E-02  0.1083562E+00
          1   -1    0    0  501    0  0.00000000000E+00  0.00000000000E+00  0.24570975685E+04  0.24570975685E+04  0.00000000000E+00 0. -1.
         -1   -1    0    0    0  501 -0.00000000000E+00 -0.00000000000E+00 -0.83757952017E+02  0.83757952017E+02  0.00000000000E+00 0.  1.
         23    2    1    2    0    0 -0.64873203890E+01 -0.81590033458E+02  0.38293313756E+02  0.12855357587E+03  0.91436453922E+02 0.  0.
    5000000    2    1    2    0    0  0.64873203890E+01  0.81590033458E+02  0.23350463027E+04  0.24123019446E+04  0.60005034570E+03 0.  0.
         23    2    4    4    0    0  0.70449569663E+02  0.27816505894E+03  0.71266523717E+03  0.77427966044E+03  0.96323986684E+02 0.  0.
         23    2    4    4    0    0 -0.63962249274E+02 -0.19657502549E+03  0.16223810655E+04  0.16380222842E+04  0.90905289794E+02 0.  0.
          3    1    3    3  502    0 -0.12582099413E+02 -0.84648136979E+00  0.45542797289E+02  0.47256450790E+02  0.00000000000E+00 0. -1.
         -3    1    3    3    0  502  0.60947790241E+01 -0.80743552088E+02 -0.72494835332E+01  0.81297125083E+02  0.00000000000E+00 0.  1.
         11    1    5    5    0    0  0.34580668879E+02  0.92954998192E+02  0.14173798263E+03  0.17299164739E+03  0.00000000000E+00 0. -1.
        -11    1    5    5    0    0  0.35868900784E+02  0.18521006075E+03  0.57092725455E+03  0.60128801305E+03  0.00000000000E+00 0.  1.
          5    1    6    6  503    0 -0.85021708717E+02 -0.13034697911E+03  0.10705550774E+04  0.10818175861E+04  0.47000000000E+01 0. -1.
         -5    1    6    6    0  503  0.21059459443E+02 -0.66228046371E+02  0.55182598815E+03  0.55620469807E+03  0.47000000000E+01 0.  1.
<mgrwt>
<rscale>  0 0.30338207E+03</rscale>
<asrwt>0</asrwt>
<pdfrwt beam="1">  1        1 0.37801496E+00 0.30338207E+03</pdfrwt>
<pdfrwt beam="2">  1       -1 0.12885841E-01 0.30338207E+03</pdfrwt>
<totfact> 0.68891759E+01</totfact>
</mgrwt>
</event>
<event>
12    1  0.3127365E-008  0.3047979E+03  0.7818608E-02  0.1082866E+00
          1   -1    0    0  501    0  0.00000000000E+00  0.00000000000E+00  0.11680927563E+04  0.11680927563E+04  0.00000000000E+00 0. -1.
         -1   -1    0    0    0  501 -0.00000000000E+00 -0.00000000000E+00 -0.23083306834E+03  0.23083306834E+03  0.00000000000E+00 0.  1.
         23    2    1    2    0    0  0.27122268332E+03 -0.37812759772E+02  0.58248902021E+03  0.64995262250E+03  0.90296201877E+02 0.  0.
    5000000    2    1    2    0    0 -0.27122268332E+03  0.37812759772E+02  0.35477066777E+03  0.74897320216E+03  0.60008922845E+03 0.  0.
         23    2    4    4    0    0 -0.47850165603E+02  0.51802545986E+01 -0.15288350128E+03  0.18616794385E+03  0.94703035694E+02 0.  0.
         23    2    4    4    0    0 -0.22337251772E+03  0.32632505173E+02  0.50765416905E+03  0.56280525831E+03  0.89871248792E+02 0.  0.
          2    1    3    3  502    0  0.26991250949E+03 -0.28563651727E+02  0.51810423938E+03  0.58489370645E+03  0.00000000000E+00 0. -1.
         -2    1    3    3    0  502  0.13101738386E+01 -0.92491080450E+01  0.64384780828E+02  0.65058916049E+02  0.00000000000E+00 0.  1.
         13    1    5    5    0    0  0.21895384708E+02 -0.18220855938E+02 -0.21868470031E+02  0.35911522443E+02  0.00000000000E+00 0. -1.
        -13    1    5    5    0    0 -0.69745550311E+02  0.23401110537E+02 -0.13101503125E+03  0.15025642141E+03  0.00000000000E+00 0.  1.
          5    1    6    6  503    0 -0.94227595176E+02  0.40640383542E+01  0.31662678051E+03  0.33040878353E+03  0.47000000000E+01 0. -1.
         -5    1    6    6    0  503 -0.12914492255E+03  0.28568466819E+02  0.19102738855E+03  0.23239647478E+03  0.47000000000E+01 0.  1.
<mgrwt>
<rscale>  0 0.30479787E+03</rscale>
<asrwt>0</asrwt>
<pdfrwt beam="1">  1        1 0.17970657E+00 0.30479787E+03</pdfrwt>
<pdfrwt beam="2">  1       -1 0.35512780E-01 0.30479787E+03</pdfrwt>
<totfact> 0.92396285E+01</totfact>
</mgrwt>
</event>
<event>
12    1  0.3127365E-008  0.8806761E+03  0.7818608E-02  0.9450065E-01
         -2   -1    0    0    0  501 -0.00000000000E+00  0.00000000000E+00  0.73436464831E+03  0.73436464831E+03  0.00000000000E+00 0. -1.
          2   -1    0    0  501    0  0.00000000000E+00 -0.00000000000E+00 -0.22086890847E+04  0.22086890847E+04  0.00000000000E+00 0.  1.
         23    2    1    2    0    0 -0.61757703670E+03 -0.60491049305E+03 -0.16606357977E+04  0.18743187993E+04  0.89675011831E+02 0.  0.
    5000000    2    1    2    0    0  0.61757703670E+03  0.60491049305E+03  0.18631136136E+03  0.10687349337E+04  0.60013692963E+03 0.  0.
         23    2    4    4    0    0  0.53126237003E+02  0.14103951091E+03  0.27636402479E+03  0.32759966496E+03  0.90718937344E+02 0.  0.
         23    2    4    4    0    0  0.56445079969E+03  0.46387098215E+03 -0.90052663426E+02  0.74113526875E+03  0.85970989541E+02 0.  0.
          2    1    3    3  502    0 -0.72012102216E+02 -0.11598980208E+03 -0.26002667034E+03  0.29368902999E+03  0.00000000000E+00 0. -1.
         -2    1    3    3    0  502 -0.54556493448E+03 -0.48892069097E+03 -0.14006091274E+04  0.15806297693E+04  0.00000000000E+00 0.  1.
         13    1    5    5    0    0  0.15849723500E+02  0.11503026165E+03  0.24848568893E+03  0.27427780157E+03  0.00000000000E+00 0. -1.
        -13    1    5    5    0    0  0.37276513502E+02  0.26009249255E+02  0.27878335858E+02  0.53321863395E+02  0.00000000000E+00 0.  1.
          5    1    6    6  503    0  0.25401645306E+03  0.21024433561E+03 -0.83529284446E+02  0.34018564115E+03  0.47000000000E+01 0. -1.
         -5    1    6    6    0  503  0.31043434663E+03  0.25362664653E+03 -0.65233789795E+01  0.40094962760E+03  0.47000000000E+01 0.  1.
<mgrwt>
<rscale>  0 0.88067606E+03</rscale>
<asrwt>0</asrwt>
<pdfrwt beam="1">  1        2 0.33979831E+00 0.88067606E+03</pdfrwt>
<pdfrwt beam="2">  1       -2 0.11297918E+00 0.88067606E+03</pdfrwt>
<totfact> 0.32055166E+00</totfact>
</mgrwt>
</event>
<event>
12    1  0.3127365E-008  0.6592415E+03  0.7818608E-02  0.9789591E-01
         -2   -1    0    0    0  501 -0.00000000000E+00  0.00000000000E+00  0.28840851423E+03  0.28840851423E+03  0.00000000000E+00 0.  1.
          2   -1    0    0  501    0  0.00000000000E+00 -0.00000000000E+00 -0.17298917471E+04  0.17298917471E+04  0.00000000000E+00 0. -1.
         23    2    1    2    0    0  0.50548172234E+03 -0.19310398309E+03 -0.87010203760E+03  0.10286893056E+04  0.91231637260E+02 0.  0.
    5000000    2    1    2    0    0 -0.50548172234E+03  0.19310398309E+03 -0.57138119522E+03  0.98961095571E+03  0.60004370966E+03 0.  0.
         23    2    4    4    0    0 -0.35088086449E+02  0.28090498220E+03 -0.33742984698E+03  0.45112016911E+03  0.97528060092E+02 0.  0.
         23    2    4    4    0    0 -0.47039363590E+03 -0.87800999111E+02 -0.23395134824E+03  0.53849078661E+03  0.79119566343E+02 0.  0.
          2    1    3    3  502    0  0.27391049712E+03 -0.15108509785E+03 -0.51979524736E+03  0.60666363530E+03  0.00000000000E+00 0. -1.
         -2    1    3    3    0  502  0.23157122523E+03 -0.42018885242E+02 -0.35030679025E+03  0.42202567026E+03  0.00000000000E+00 0.  1.
         13    1    5    5    0    0 -0.73090401660E+01  0.20666252918E+03 -0.17709375424E+03  0.27225910604E+03  0.00000000000E+00 0.  1.
        -13    1    5    5    0    0 -0.27779046283E+02  0.74242453024E+02 -0.16033609274E+03  0.17886106306E+03  0.00000000000E+00 0. -1.
          5    1    6    6  503    0 -0.18177527909E+03 -0.70680370419E+02 -0.10911061100E+03  0.22352892941E+03  0.47000000000E+01 0. -1.
         -5    1    6    6    0  503 -0.28861835681E+03 -0.17120628691E+02 -0.12484073725E+03  0.31496185720E+03  0.47000000000E+01 0.  1.
<mgrwt>
<rscale>  0 0.65924151E+03</rscale>
<asrwt>0</asrwt>
<pdfrwt beam="1">  1        2 0.26613720E+00 0.65924151E+03</pdfrwt>
<pdfrwt beam="2">  1       -2 0.44370540E-01 0.65924151E+03</pdfrwt>
<totfact> 0.47143226E+01</totfact>
</mgrwt>
</event>
<event>
12    1  0.3127365E-008  0.6019196E+03  0.7818608E-02  0.9901432E-01
          2   -1    0    0  501    0  0.00000000000E+00  0.00000000000E+00  0.10975262493E+04  0.10975262493E+04  0.00000000000E+00 0. -1.
         -2   -1    0    0    0  501 -0.00000000000E+00 -0.00000000000E+00 -0.47340351218E+03  0.47340351218E+03  0.00000000000E+00 0.  1.
         23    2    1    2    0    0  0.20998448499E+03  0.39949296599E+03  0.67604117542E+03  0.81765288491E+03  0.88523756809E+02 0.  0.
    5000000    2    1    2    0    0 -0.20998448499E+03 -0.39949296599E+03 -0.51918438320E+02  0.75327687656E+03  0.60086805099E+03 0.  0.
         23    2    4    4    0    0 -0.40102509866E+03 -0.31913942162E+03 -0.73495852445E+02  0.52558686700E+03  0.90381492899E+02 0.  0.
         23    2    4    4    0    0  0.19104061367E+03 -0.80353544377E+02  0.21577414126E+02  0.22769000955E+03  0.91782065163E+02 0.  0.
          3    1    3    3  502    0  0.51516916624E+02  0.36132212932E+02  0.10737139855E+03  0.12445138302E+03  0.00000000000E+00 0. -1.
         -3    1    3    3    0  502  0.15846756836E+03  0.36336075306E+03  0.56866977687E+03  0.69320150189E+03  0.00000000000E+00 0.  1.
         13    1    5    5    0    0 -0.11571138629E+03 -0.13706557571E+03 -0.65586685989E+00  0.17937816792E+03  0.00000000000E+00 0.  1.
        -13    1    5    5    0    0 -0.28531371236E+03 -0.18207384590E+03 -0.72839985586E+02  0.34620869909E+03  0.00000000000E+00 0. -1.
          5    1    6    6  503    0  0.16810308596E+03 -0.29576479678E+02  0.16175226007E+02  0.17151426645E+03  0.47000000000E+01 0. -1.
         -5    1    6    6    0  503  0.22937527707E+02 -0.50777064698E+02  0.54021881185E+01  0.56175743103E+02  0.47000000000E+01 0.  1.
<mgrwt>
<rscale>  0 0.60191955E+03</rscale>
<asrwt>0</asrwt>
<pdfrwt beam="1">  1        2 0.16885019E+00 0.60191955E+03</pdfrwt>
<pdfrwt beam="2">  1       -2 0.72831310E-01 0.60191955E+03</pdfrwt>
<totfact> 0.38490389E+01</totfact>
</mgrwt>
</event>
<event>
12    1  0.3127365E-008  0.5615890E+03  0.7818608E-02  0.9988466E-01
          2   -1    0    0  501    0  0.00000000000E+00  0.00000000000E+00  0.11924402074E+04  0.11924402074E+04  0.00000000000E+00 0. -1.
         -2   -1    0    0    0  501 -0.00000000000E+00 -0.00000000000E+00 -0.33915623542E+03  0.33915623542E+03  0.00000000000E+00 0.  1.
         23    2    1    2    0    0  0.21962661798E+03 -0.34049941492E+03  0.38247093708E+01  0.41545351601E+03  0.91713099836E+02 0.  0.
    5000000    2    1    2    0    0 -0.21962661798E+03  0.34049941492E+03  0.84945926264E+03  0.11161429268E+04  0.60001524259E+03 0.  0.
         23    2    4    4    0    0 -0.40101456778E+03  0.31899514379E+03  0.61661132911E+03  0.80679356575E+03  0.90198343753E+02 0.  0.
         23    2    4    4    0    0  0.18138794981E+03  0.21504271132E+02  0.23284793353E+03  0.30934936108E+03  0.90082434683E+02 0.  0.
          2    1    3    3  502    0  0.90462397378E+02 -0.17209875098E+03  0.44270833621E+02  0.19940243765E+03  0.00000000000E+00 0. -1.
         -2    1    3    3    0  502  0.12916422060E+03 -0.16840066394E+03 -0.40446124250E+02  0.21605107837E+03  0.00000000000E+00 0.  1.
         13    1    5    5    0    0 -0.29106879669E+03  0.19861110945E+03  0.47081701771E+03  0.58807829527E+03  0.00000000000E+00 0. -1.
        -13    1    5    5    0    0 -0.10994577109E+03  0.12038403434E+03  0.14579431140E+03  0.21871527048E+03  0.00000000000E+00 0.  1.
          5    1    6    6  503    0  0.87418548903E+02  0.52464642314E+02  0.93718587813E+02  0.13856336127E+03  0.47000000000E+01 0. -1.
         -5    1    6    6    0  503  0.93969400902E+02 -0.30960371182E+02  0.13912934572E+03  0.17078599981E+03  0.47000000000E+01 0.  1.
<mgrwt>
<rscale>  0 0.56158901E+03</rscale>
<asrwt>0</asrwt>
<pdfrwt beam="1">  1        2 0.18345234E+00 0.56158901E+03</pdfrwt>
<pdfrwt beam="2">  1       -2 0.52177883E-01 0.56158901E+03</pdfrwt>
<totfact> 0.68773343E+01</totfact>
</mgrwt>
</event>
<event>
12    1  0.3127365E-008  0.4469023E+03  0.7818608E-02  0.1028650E+00
         -1   -1    0    0    0  501 -0.00000000000E+00  0.00000000000E+00  0.22008159387E+03  0.22008159387E+03  0.00000000000E+00 0.  1.
          1   -1    0    0  501    0  0.00000000000E+00 -0.00000000000E+00 -0.24125866590E+04  0.24125866590E+04  0.00000000000E+00 0. -1.
         23    2    1    2    0    0 -0.38511720916E+03 -0.31574743737E+01 -0.81666690382E+02  0.40467659747E+03  0.93640086413E+02 0.  0.
    5000000    2    1    2    0    0  0.38511720916E+03  0.31574743737E+01 -0.21108383747E+04  0.22279916554E+04  0.59998578133E+03 0.  0.
         23    2    4    4    0    0  0.40223125694E+03 -0.21194907345E+02 -0.20881030902E+04  0.21284819657E+04  0.89564250643E+02 0.  0.
         23    2    4    4    0    0 -0.17114047780E+02  0.24352381719E+02 -0.22735284521E+02  0.99509689643E+02  0.92191952164E+02 0.  0.
          1    1    3    3  502    0 -0.34679657197E+03  0.41929486609E+01 -0.10086327214E+03  0.36119086757E+03  0.00000000000E+00 0. -1.
         -1    1    3    3    0  502 -0.38320637191E+02 -0.73504230346E+01  0.19196581759E+02  0.43485729898E+02  0.00000000000E+00 0.  1.
         11    1    5    5    0    0  0.24794290303E+03  0.30627857266E+02 -0.12497680402E+04  0.12744935869E+04  0.00000000000E+00 0.  1.
        -11    1    5    5    0    0  0.15428835392E+03 -0.51822764612E+02 -0.83833505005E+03  0.85398837886E+03  0.00000000000E+00 0. -1.
          5    1    6    6  503    0 -0.54408285990E+02  0.15281566250E+02 -0.22022951991E+02  0.60834926365E+02  0.47000000000E+01 0. -1.
         -5    1    6    6    0  503  0.37294238211E+02  0.90708154691E+01 -0.71233252983E+00  0.38674763278E+02  0.47000000000E+01 0.  1.
<mgrwt>
<rscale>  0 0.44690225E+03</rscale>
<asrwt>0</asrwt>
<pdfrwt beam="1">  1        1 0.37116716E+00 0.44690225E+03</pdfrwt>
<pdfrwt beam="2">  1       -1 0.33858708E-01 0.44690225E+03</pdfrwt>
<totfact> 0.14308890E+01</totfact>
</mgrwt>
</event>
<event>
12    1  0.3127365E-008  0.6796440E+03  0.7818608E-02  0.9752691E-01
         -2   -1    0    0    0  501 -0.00000000000E+00  0.00000000000E+00  0.28224004442E+03  0.28224004442E+03  0.00000000000E+00 0.  1.
          2   -1    0    0  501    0  0.00000000000E+00 -0.00000000000E+00 -0.17949124457E+04  0.17949124457E+04  0.00000000000E+00 0. -1.
         23    2    1    2    0    0 -0.21067633094E+02  0.55751304734E+03 -0.38703595033E+03  0.68511117507E+03  0.91191294770E+02 0.  0.
    5000000    2    1    2    0    0  0.21067633094E+02 -0.55751304734E+03 -0.11256364510E+04  0.13920413151E+04  0.59954729584E+03 0.  0.
         23    2    4    4    0    0 -0.14303512122E+03 -0.59881244133E+03 -0.79220582385E+03  0.10074546333E+04  0.91320233375E+02 0.  0.
         23    2    4    4    0    0  0.16410275431E+03  0.41299393983E+02 -0.33343062712E+03  0.38458668176E+03  0.89975434239E+02 0.  0.
          3    1    3    3  502    0  0.31396288634E+02  0.20293434857E+03 -0.16547327860E+03  0.26372235911E+03  0.00000000000E+00 0. -1.
         -3    1    3    3    0  502 -0.52463921728E+02  0.35457869878E+03 -0.22156267173E+03  0.42138881596E+03  0.00000000000E+00 0.  1.
         11    1    5    5    0    0 -0.14723651432E+02 -0.20173099219E+03 -0.30489450496E+03  0.36588637345E+03  0.00000000000E+00 0.  1.
        -11    1    5    5    0    0 -0.12831146979E+03 -0.39708144914E+03 -0.48731131889E+03  0.64156825985E+03  0.00000000000E+00 0. -1.
          5    1    6    6  503    0  0.82994660175E+02 -0.34168859503E+01 -0.82926316535E+02  0.11746766662E+03  0.47000000000E+01 0. -1.
         -5    1    6    6    0  503  0.81108094139E+02  0.44716279933E+02 -0.25050431058E+03  0.26711901514E+03  0.47000000000E+01 0.  1.
<mgrwt>
<rscale>  0 0.67964400E+03</rscale>
<asrwt>0</asrwt>
<pdfrwt beam="1">  1        2 0.27614037E+00 0.67964400E+03</pdfrwt>
<pdfrwt beam="2">  1       -2 0.43421546E-01 0.67964400E+03</pdfrwt>
<totfact> 0.45239167E+01</totfact>
</mgrwt>
</event>
<event>
12    1  0.3127365E-008  0.7504623E+03  0.7818608E-02  0.9634625E-01
          2   -1    0    0  501    0  0.00000000000E+00  0.00000000000E+00  0.12170827140E+04  0.12170827140E+04  0.00000000000E+00 0. -1.
         -2   -1    0    0    0  501 -0.00000000000E+00 -0.00000000000E+00 -0.54957920069E+03  0.54957920069E+03  0.00000000000E+00 0.  1.
         23    2    1    2    0    0 -0.63959350230E+03 -0.25934573321E+03  0.44126776932E+03  0.82462695324E+03  0.94616648863E+02 0.  0.
    5000000    2    1    2    0    0  0.63959350230E+03  0.25934573321E+03  0.22623574399E+03  0.94203496146E+03  0.59992266104E+03 0.  0.
         23    2    4    4    0    0  0.32901290008E+03 -0.74386886199E+02 -0.11209358211E+03  0.36700558989E+03  0.91352255584E+02 0.  0.
         23    2    4    4    0    0  0.31058060222E+03  0.33373261941E+03  0.33832932610E+03  0.57502937157E+03  0.91401715178E+02 0.  0.
          1    1    3    3  502    0 -0.11407135471E+03 -0.87231688062E+01  0.72089860557E+02  0.13522320671E+03  0.00000000000E+00 0. -1.
         -1    1    3    3    0  502 -0.52552214759E+03 -0.25062256441E+03  0.36917790877E+03  0.68940374652E+03  0.00000000000E+00 0.  1.
         11    1    5    5    0    0  0.22242991260E+03 -0.85834525106E+02 -0.10205294947E+03  0.25934038678E+03  0.00000000000E+00 0. -1.
        -11    1    5    5    0    0  0.10658298748E+03  0.11447638907E+02 -0.10040632646E+02  0.10766520310E+03  0.00000000000E+00 0.  1.
          5    1    6    6  503    0  0.15375803790E+03  0.12908566305E+03  0.19543306730E+03  0.28021566055E+03  0.47000000000E+01 0. -1.
         -5    1    6    6    0  503  0.15682256433E+03  0.20464695636E+03  0.14289625880E+03  0.29481371102E+03  0.47000000000E+01 0.  1.
<mgrwt>
<rscale>  0 0.75046231E+03</rscale>
<asrwt>0</asrwt>
<pdfrwt beam="1">  1        2 0.18724349E+00 0.75046231E+03</pdfrwt>
<pdfrwt beam="2">  1       -2 0.84550646E-01 0.75046231E+03</pdfrwt>
<totfact> 0.22995427E+01</totfact>
</mgrwt>
</event>
<event>
12    1  0.3127365E-008  0.1352698E+04  0.7818608E-02  0.8988789E-01
          1   -1    0    0  501    0  0.00000000000E+00  0.00000000000E+00  0.39005107822E+04  0.39005107822E+04  0.00000000000E+00 0. -1.
         -1   -1    0    0    0  501 -0.00000000000E+00 -0.00000000000E+00 -0.49084491224E+03  0.49084491224E+03  0.00000000000E+00 0.  1.
         23    2    1    2    0    0 -0.12229103897E+03 -0.12931206798E+04  0.19699763869E+04  0.23615601457E+04  0.95095561785E+02 0.  0.
    5000000    2    1    2    0    0  0.12229103897E+03  0.12931206798E+04  0.14396894830E+04  0.20297955487E+04  0.60020660715E+03 0.  0.
         23    2    4    4    0    0  0.27488528456E+03  0.33662878988E+03  0.32797795551E+03  0.55179263858E+03  0.89580772766E+02 0.  0.
         23    2    4    4    0    0 -0.15259424559E+03  0.95649188995E+03  0.11117115275E+04  0.14780029101E+04  0.10211925701E+03 0.  0.
          4    1    3    3  502    0  0.92982173820E+01 -0.13802062197E+03  0.24576966662E+03  0.28202637814E+03  0.00000000000E+00 0.  1.
         -4    1    3    3    0  502 -0.13158925635E+03 -0.11551000579E+04  0.17242067203E+04  0.20795337675E+04  0.00000000000E+00 0. -1.
         13    1    5    5    0    0  0.79543845013E+02  0.74939354204E+02  0.13030929145E+03  0.17006951968E+03  0.00000000000E+00 0.  1.
        -13    1    5    5    0    0  0.19534143955E+03  0.26168943568E+03  0.19766866406E+03  0.38172311890E+03  0.00000000000E+00 0. -1.
          5    1    6    6  503    0 -0.84242671504E+02  0.51084093799E+03  0.67067639159E+03  0.84728047533E+03  0.47000000000E+01 0. -1.
         -5    1    6    6    0  503 -0.68351574085E+02  0.44565095196E+03  0.44103513592E+03  0.63072243481E+03  0.47000000000E+01 0.  1.
<mgrwt>
<rscale>  0 0.13526976E+04</rscale>
<asrwt>0</asrwt>
<pdfrwt beam="1">  1        1 0.60007856E+00 0.13526976E+04</pdfrwt>
<pdfrwt beam="2">  1       -1 0.75514605E-01 0.13526976E+04</pdfrwt>
<totfact> 0.20471657E-01</totfact>
</mgrwt>
</event>
<event>
12    1  0.3127365E-008  0.5514256E+03  0.7818608E-02  0.1001165E+00
         -2   -1    0    0    0  501 -0.00000000000E+00  0.00000000000E+00  0.43790976251E+03  0.43790976251E+03  0.00000000000E+00 0. -1.
          2   -1    0    0  501    0  0.00000000000E+00 -0.00000000000E+00 -0.18095307214E+04  0.18095307214E+04  0.00000000000E+00 0.  1.
         23    2    1    2    0    0  0.14972531094E+03 -0.41994860843E+03  0.20781907930E+03  0.50002384253E+03  0.89780682320E+02 0.  0.
    5000000    2    1    2    0    0 -0.14972531094E+03  0.41994860843E+03 -0.15794400382E+04  0.17474166413E+04  0.60004964948E+03 0.  0.
         23    2    4    4    0    0 -0.11336094770E+03  0.51603741710E+03 -0.14889603116E+04  0.15824691263E+04  0.89779763001E+02 0.  0.
         23    2    4    4    0    0 -0.36364363237E+02 -0.96088808668E+02 -0.90479726556E+02  0.16494751505E+03  0.92009106817E+02 0.  0.
          1    1    3    3  502    0  0.46942865392E+02 -0.52132854632E+02  0.53029019983E+02  0.87940571431E+02  0.00000000000E+00 0. -1.
         -1    1    3    3    0  502  0.10278244555E+03 -0.36781575380E+03  0.15479005931E+03  0.41208327110E+03  0.00000000000E+00 0.  1.
         11    1    5    5    0    0 -0.48125562769E+02  0.33263063355E+03 -0.83342370524E+03  0.89864023982E+03  0.00000000000E+00 0.  1.
        -11    1    5    5    0    0 -0.65235384933E+02  0.18340678355E+03 -0.65553660637E+03  0.68382888648E+03  0.00000000000E+00 0. -1.
          5    1    6    6  503    0 -0.47855305994E+02 -0.96277630780E+02 -0.10180538991E+03  0.14814162115E+03  0.47000000000E+01 0. -1.
         -5    1    6    6    0  503  0.11490942757E+02  0.18882211231E+00  0.11325663358E+02  0.16805893899E+02  0.47000000000E+01 0.  1.
<mgrwt>
<rscale>  0 0.55142558E+03</rscale>
<asrwt>0</asrwt>
<pdfrwt beam="1">  1        2 0.27838934E+00 0.55142558E+03</pdfrwt>
<pdfrwt beam="2">  1       -2 0.67370732E-01 0.55142558E+03</pdfrwt>
<totfact> 0.18307910E+01</totfact>
</mgrwt>
</event>
<event>
12    1  0.3127365E-008  0.9579616E+03  0.7818608E-02  0.9355893E-01
          2   -1    0    0  501    0  0.00000000000E+00  0.00000000000E+00  0.20898682488E+04  0.20898682488E+04  0.00000000000E+00 0. -1.
         -2   -1    0    0    0  501 -0.00000000000E+00 -0.00000000000E+00 -0.92207370174E+03  0.92207370174E+03  0.00000000000E+00 0.  1.
         23    2    1    2    0    0  0.74015646018E+03 -0.53694091741E+03  0.15926149075E+04  0.18387303711E+04  0.91487701582E+02 0.  0.
    5000000    2    1    2    0    0 -0.74015646018E+03  0.53694091741E+03 -0.42482036041E+03  0.11732115795E+04  0.59984659482E+03 0.  0.
         23    2    4    4    0    0 -0.77869561444E+03  0.54601294566E+03 -0.47393938572E+03  0.10664110788E+04  0.90094677720E+02 0.  0.
         23    2    4    4    0    0  0.38539154258E+02 -0.90720282456E+01  0.49119025308E+02  0.10680050067E+03  0.86174823401E+02 0.  0.
          1    1    3    3  502    0  0.51523736889E+03 -0.32125217357E+03  0.10360525355E+04  0.12008652554E+04  0.00000000000E+00 0. -1.
         -1    1    3    3    0  502  0.22491909129E+03 -0.21568874384E+03  0.55656237197E+03  0.63786511563E+03  0.00000000000E+00 0.  1.
         11    1    5    5    0    0 -0.33721017067E+03  0.29129868876E+03 -0.22304414332E+03  0.49831146399E+03  0.00000000000E+00 0.  1.
        -11    1    5    5    0    0 -0.44148544377E+03  0.25471425690E+03 -0.25089524240E+03  0.56809961485E+03  0.00000000000E+00 0. -1.
          5    1    6    6  503    0  0.12027504229E+02 -0.72887024321E+01 -0.24362918933E+02  0.28520656725E+02  0.47000000000E+01 0. -1.
         -5    1    6    6    0  503  0.26511650029E+02 -0.17833258135E+01  0.73481944241E+02  0.78279843943E+02  0.47000000000E+01 0.  1.
<mgrwt>
<rscale>  0 0.95796163E+03</rscale>
<asrwt>0</asrwt>
<pdfrwt beam="1">  1        2 0.32151819E+00 0.95796163E+03</pdfrwt>
<pdfrwt beam="2">  1       -2 0.14185749E+00 0.95796163E+03</pdfrwt>
<totfact> 0.20764829E+00</totfact>
</mgrwt>
</event>
<event>
12    1  0.3127365E-008  0.1303863E+04  0.7818608E-02  0.9026507E-01
          1   -1    0    0  501    0  0.00000000000E+00  0.00000000000E+00  0.28724488065E+04  0.28724488065E+04  0.00000000000E+00 0. -1.
         -1   -1    0    0    0  501 -0.00000000000E+00 -0.00000000000E+00 -0.59657674277E+03  0.59657674277E+03  0.00000000000E+00 0.  1.
         23    2    1    2    0    0 -0.42427756275E+03  0.11633825255E+04  0.11022194269E+04  0.16603994931E+04  0.92565980980E+02 0.  0.
    5000000    2    1    2    0    0  0.42427756275E+03 -0.11633825255E+04  0.11736526369E+04  0.18086260562E+04  0.60016443421E+03 0.  0.
         23    2    4    4    0    0 -0.25933468889E+02 -0.75674464835E+03  0.63795074203E+03  0.99427327589E+03  0.90902091701E+02 0.  0.
         23    2    4    4    0    0  0.45021103164E+03 -0.40663787716E+03  0.53570189484E+03  0.81435278027E+03  0.90275104305E+02 0.  0.
          2    1    3    3  502    0 -0.10871933454E+03  0.40048195813E+03  0.40384630369E+03  0.57904881443E+03  0.00000000000E+00 0. -1.
         -2    1    3    3    0  502 -0.31555822820E+03  0.76290056738E+03  0.69837312320E+03  0.10813506787E+04  0.00000000000E+00 0.  1.
         11    1    5    5    0    0 -0.22180913760E+01 -0.36859557804E+01 -0.28748472529E+01  0.51740647556E+01  0.00000000000E+00 0.  1.
        -11    1    5    5    0    0 -0.23715377514E+02 -0.75305869257E+03  0.64082558928E+03  0.98909921113E+03  0.00000000000E+00 0. -1.
          5    1    6    6  503    0  0.43921696631E+03 -0.38229955300E+03  0.48922779191E+03  0.76054612884E+03  0.47000000000E+01 0. -1.
         -5    1    6    6    0  503  0.10994065325E+02 -0.24338324160E+02  0.46474102926E+02  0.53806651430E+02  0.47000000000E+01 0.  1.
<mgrwt>
<rscale>  0 0.13038630E+04</rscale>
<asrwt>0</asrwt>
<pdfrwt beam="1">  1        1 0.44191519E+00 0.13038630E+04</pdfrwt>
<pdfrwt beam="2">  1       -1 0.91781039E-01 0.13038630E+04</pdfrwt>
<totfact> 0.83969692E-01</totfact>
</mgrwt>
</event>
<event>
12    1  0.3127365E-008  0.9380974E+03  0.7818608E-02  0.9379172E-01
          1   -1    0    0  501    0  0.00000000000E+00  0.00000000000E+00  0.95690121594E+03  0.95690121594E+03  0.00000000000E+00 0. -1.
         -1   -1    0    0    0  501 -0.00000000000E+00 -0.00000000000E+00 -0.12111045042E+04  0.12111045042E+04  0.00000000000E+00 0.  1.
         23    2    1    2    0    0  0.90643302826E+03 -0.11504461073E+03  0.26659445673E+03  0.95708394663E+03  0.10040408034E+03 0.  0.
    5000000    2    1    2    0    0 -0.90643302826E+03  0.11504461073E+03 -0.52079774499E+03  0.12109217735E+04  0.60020425954E+03 0.  0.
         23    2    4    4    0    0 -0.15132958760E+03  0.13916039890E+03 -0.37254921016E+03  0.43473356932E+03  0.89073574017E+02 0.  0.
         23    2    4    4    0    0 -0.75510344066E+03 -0.24115788176E+02 -0.14824853482E+03  0.77618820418E+03  0.98629219319E+02 0.  0.
          1    1    3    3  502    0  0.63122095487E+03 -0.97249281441E+02  0.14101098673E+03  0.65405000954E+03  0.00000000000E+00 0. -1.
         -1    1    3    3    0  502  0.27521207339E+03 -0.17795329287E+02  0.12558347001E+03  0.30303393708E+03  0.00000000000E+00 0.  1.
         11    1    5    5    0    0 -0.88308547595E+02  0.87768079618E+02 -0.13498632594E+03  0.18363807766E+03  0.00000000000E+00 0.  1.
        -11    1    5    5    0    0 -0.63021040009E+02  0.51392319286E+02 -0.23756288423E+03  0.25109549165E+03  0.00000000000E+00 0. -1.
          5    1    6    6  503    0 -0.52157823470E+03 -0.27407713327E+02 -0.57066631405E+02  0.52542718628E+03  0.47000000000E+01 0. -1.
         -5    1    6    6    0  503 -0.23352520596E+03  0.32919251514E+01 -0.91181903417E+02  0.25076101790E+03  0.47000000000E+01 0.  1.
<mgrwt>
<rscale>  0 0.93809735E+03</rscale>
<asrwt>0</asrwt>
<pdfrwt beam="1">  1        1 0.14721557E+00 0.93809735E+03</pdfrwt>
<pdfrwt beam="2">  1       -1 0.18632377E+00 0.93809735E+03</pdfrwt>
<totfact> 0.31047898E+00</totfact>
</mgrwt>
</event>
<event>
12    1  0.3127365E-008  0.8827543E+03  0.7818608E-02  0.9447400E-01
         -2   -1    0    0    0  501 -0.00000000000E+00  0.00000000000E+00  0.69489615267E+03  0.69489615267E+03  0.00000000000E+00 0. -1.
          2   -1    0    0  501    0  0.00000000000E+00 -0.00000000000E+00 -0.13086556835E+04  0.13086556835E+04  0.00000000000E+00 0.  1.
         23    2    1    2    0    0  0.44197365636E+03 -0.65349623649E+03 -0.62747264523E+03  0.10123180938E+04  0.93101871786E+02 0.  0.
    5000000    2    1    2    0    0 -0.44197365636E+03  0.65349623649E+03  0.13713114411E+02  0.99123374234E+03  0.59996519768E+03 0.  0.
         23    2    4    4    0    0 -0.47311956759E+03  0.19197385563E+03 -0.20135609058E+02  0.51894014746E+03  0.90539203728E+02 0.  0.
         23    2    4    4    0    0  0.31145911226E+02  0.46152238086E+03  0.33848723469E+02  0.47229359488E+03  0.89120861026E+02 0.  0.
          2    1    3    3  502    0  0.24710059972E+03 -0.31598309951E+03 -0.27051341208E+03  0.48381973055E+03  0.00000000000E+00 0. -1.
         -2    1    3    3    0  502  0.19487305664E+03 -0.33751313698E+03 -0.35695923315E+03  0.52849836326E+03  0.00000000000E+00 0.  1.
         13    1    5    5    0    0 -0.37622846608E+03  0.16849383920E+03  0.16915585881E+02  0.41258231856E+03  0.00000000000E+00 0. -1.
        -13    1    5    5    0    0 -0.96891101504E+02  0.23480016433E+02 -0.37051194939E+02  0.10635782890E+03  0.00000000000E+00 0.  1.
          5    1    6    6  503    0  0.10393654119E+02  0.12322628063E+03 -0.30072507704E+02  0.12735458375E+03  0.47000000000E+01 0. -1.
         -5    1    6    6    0  503  0.20752257107E+02  0.33829610023E+03  0.63921231173E+02  0.34493901113E+03  0.47000000000E+01 0.  1.
<mgrwt>
<rscale>  0 0.88275428E+03</rscale>
<asrwt>0</asrwt>
<pdfrwt beam="1">  1        2 0.20133164E+00 0.88275428E+03</pdfrwt>
<pdfrwt beam="2">  1       -2 0.10690710E+00 0.88275428E+03</pdfrwt>
<totfact> 0.11567235E+01</totfact>
</mgrwt>
</event>
<event>
12    1  0.3127365E-008  0.1114288E+04  0.7818608E-02  0.9191377E-01
          2   -1    0    0  501    0  0.00000000000E+00  0.00000000000E+00  0.30814347966E+04  0.30814347966E+04  0.00000000000E+00 0.  1.
         -2   -1    0    0    0  501 -0.00000000000E+00 -0.00000000000E+00 -0.54236579852E+03  0.54236579852E+03  0.00000000000E+00 0. -1.
         23    2    1    2    0    0 -0.43493372825E+03  0.98139826124E+03  0.20193929962E+04  0.22887731915E+04  0.90690428034E+02 0.  0.
    5000000    2    1    2    0    0  0.43493372825E+03 -0.98139826124E+03  0.51967600183E+03  0.13350274036E+04  0.59993760207E+03 0.  0.
         23    2    4    4    0    0  0.51060289823E+03 -0.89989187966E+03  0.57322234753E+03  0.11863374356E+04  0.91060071650E+02 0.  0.
         23    2    4    4    0    0 -0.75669169977E+02 -0.81506381575E+02 -0.53546345705E+02  0.14868996800E+03  0.82899830663E+02 0.  0.
          3    1    3    3  502    0 -0.26599160990E+03  0.54347252813E+03  0.12186986743E+04  0.13606396966E+04  0.00000000000E+00 0. -1.
         -3    1    3    3    0  502 -0.16894211835E+03  0.43792573311E+03  0.80069432197E+03  0.92813349487E+03  0.00000000000E+00 0.  1.
         11    1    5    5    0    0  0.22372053093E+03 -0.46672276368E+03  0.31827261285E+03  0.60760058442E+03  0.00000000000E+00 0. -1.
        -11    1    5    5    0    0  0.28688236729E+03 -0.43316911599E+03  0.25494973468E+03  0.57873685119E+03  0.00000000000E+00 0.  1.
          5    1    6    6  503    0 -0.53111157900E+02 -0.76768603887E+02 -0.72652859716E+02  0.11838387416E+03  0.47000000000E+01 0. -1.
         -5    1    6    6    0  503 -0.22558012077E+02 -0.47377776873E+01  0.19106514012E+02  0.30306093842E+02  0.47000000000E+01 0.  1.
<mgrwt>
<rscale>  0 0.11142880E+04</rscale>
<asrwt>0</asrwt>
<pdfrwt beam="1">  1        2 0.47406688E+00 0.11142880E+04</pdfrwt>
<pdfrwt beam="2">  1       -2 0.83440894E-01 0.11142880E+04</pdfrwt>
<totfact> 0.19550010E+00</totfact>
</mgrwt>
</event>
<event>
12    1  0.3127365E-008  0.6886546E+03  0.7818608E-02  0.9736833E-01
         -2   -1    0    0    0  501 -0.00000000000E+00  0.00000000000E+00  0.25086751066E+03  0.25086751066E+03  0.00000000000E+00 0.  1.
          2   -1    0    0  501    0  0.00000000000E+00 -0.00000000000E+00 -0.22668710868E+04  0.22668710868E+04  0.00000000000E+00 0. -1.
         23    2    1    2    0    0  0.42665538634E+03 -0.37537119680E+03 -0.38827129908E+03  0.69224051674E+03  0.74188794596E+02 0.  0.
    5000000    2    1    2    0    0 -0.42665538634E+03  0.37537119680E+03 -0.16277322770E+04  0.18254980807E+04  0.59999376904E+03 0.  0.
         23    2    4    4    0    0 -0.40759000294E+03 -0.21992330982E+02 -0.82181535855E+03  0.92212240072E+03  0.91191914348E+02 0.  0.
         23    2    4    4    0    0 -0.19065383401E+02  0.39736352778E+03 -0.80591691848E+03  0.90337567999E+03  0.91237479351E+02 0.  0.
          3    1    3    3  502    0  0.19361952492E+03 -0.20578488516E+03 -0.16100961547E+03  0.32520768082E+03  0.00000000000E+00 0. -1.
         -3    1    3    3    0  502  0.23303586142E+03 -0.16958631163E+03 -0.22726168362E+03  0.36703283592E+03  0.00000000000E+00 0.  1.
         13    1    5    5    0    0 -0.34547051381E+03 -0.23742251083E+02 -0.61064413331E+03  0.70199702844E+03  0.00000000000E+00 0. -1.
        -13    1    5    5    0    0 -0.62119489130E+02  0.17499201008E+01 -0.21117122524E+03  0.22012537228E+03  0.00000000000E+00 0.  1.
          5    1    6    6  503    0 -0.44119403175E+01  0.21769359182E+03 -0.33992395192E+03  0.40370824641E+03  0.47000000000E+01 0. -1.
         -5    1    6    6    0  503 -0.14653443083E+02  0.17966993596E+03 -0.46599296657E+03  0.49966743357E+03  0.47000000000E+01 0.  1.
<mgrwt>
<rscale>  0 0.68865461E+03</rscale>
<asrwt>0</asrwt>
<pdfrwt beam="1">  1        2 0.34874939E+00 0.68865461E+03</pdfrwt>
<pdfrwt beam="2">  1       -2 0.38595003E-01 0.68865461E+03</pdfrwt>
<totfact> 0.31437870E+01</totfact>
</mgrwt>
</event>
<event>
12    1  0.3127365E-008  0.6671776E+03  0.7818608E-02  0.9775070E-01
          3   -1    0    0  501    0  0.00000000000E+00  0.00000000000E+00  0.33171213539E+03  0.33171213539E+03  0.00000000000E+00 0. -1.
         -3   -1    0    0    0  501 -0.00000000000E+00 -0.00000000000E+00 -0.14907146800E+04  0.14907146800E+04  0.00000000000E+00 0.  1.
         23    2    1    2    0    0 -0.49479275554E+03 -0.27762099396E+03 -0.56224815878E+03  0.80355575693E+03  0.87667412503E+02 0.  0.
    5000000    2    1    2    0    0  0.49479275554E+03  0.27762099396E+03 -0.59675438584E+03  0.10188710585E+04  0.60007428670E+03 0.  0.
         23    2    4    4    0    0  0.15414703343E+03 -0.14007661812E+03 -0.30029037724E+02  0.23157299741E+03  0.96651658885E+02 0.  0.
         23    2    4    4    0    0  0.34064572212E+03  0.41769761208E+03 -0.56672534812E+03  0.78729806107E+03  0.90276318211E+02 0.  0.
          3    1    3    3  502    0 -0.17698988350E+02 -0.37829622613E+01 -0.17024729723E+01  0.18178652489E+02  0.00000000000E+00 0. -1.
         -3    1    3    3    0  502 -0.47709376719E+03 -0.27383803170E+03 -0.56054568581E+03  0.78537710444E+03  0.00000000000E+00 0.  1.
         13    1    5    5    0    0  0.82416388551E+02 -0.17747037665E+02 -0.30818024094E+02  0.89761734925E+02  0.00000000000E+00 0.  1.
        -13    1    5    5    0    0  0.71730644875E+02 -0.12232958045E+03  0.78898636926E+00  0.14181126249E+03  0.00000000000E+00 0. -1.
          5    1    6    6  503    0  0.98355393566E+02  0.98476272620E+02 -0.20232058024E+03  0.24561568945E+03  0.47000000000E+01 0. -1.
         -5    1    6    6    0  503  0.24229032855E+03  0.31922133946E+03 -0.36440476787E+03  0.54168237162E+03  0.47000000000E+01 0.  1.
<mgrwt>
<rscale>  0 0.66717762E+03</rscale>
<asrwt>0</asrwt>
<pdfrwt beam="1">  1        3 0.51032636E-01 0.66717762E+03</pdfrwt>
<pdfrwt beam="2">  1       -3 0.22934072E+00 0.66717762E+03</pdfrwt>
<totfact> 0.97181854E-01</totfact>
</mgrwt>
</event>
<event>
12    1  0.3127365E-008  0.3691168E+03  0.7818608E-02  0.1055031E+00
          2   -1    0    0  501    0  0.00000000000E+00  0.00000000000E+00  0.53367649557E+03  0.53367649557E+03  0.00000000000E+00 0. -1.
         -2   -1    0    0    0  501 -0.00000000000E+00 -0.00000000000E+00 -0.46074776504E+03  0.46074776504E+03  0.00000000000E+00 0.  1.
         23    2    1    2    0    0 -0.17880623174E+03 -0.48341625966E+02  0.26678657137E+03  0.33720162916E+03  0.90671289480E+02 0.  0.
    5000000    2    1    2    0    0  0.17880623174E+03  0.48341625966E+02 -0.19385784084E+03  0.65722263145E+03  0.60004345136E+03 0.  0.
         23    2    4    4    0    0  0.31106926088E+03 -0.73805298428E+02  0.53293092346E+02  0.33810159515E+03  0.96235273236E+02 0.  0.
         23    2    4    4    0    0 -0.13226302914E+03  0.12214692439E+03 -0.24715093319E+03  0.31912103629E+03  0.91330564518E+02 0.  0.
          1    1    3    3  502    0 -0.11666222565E+03  0.12007467533E+02  0.17795799195E+03  0.21312742918E+03  0.00000000000E+00 0. -1.
         -1    1    3    3    0  502 -0.62144006082E+02 -0.60349093499E+02  0.88828579417E+02  0.12407419997E+03  0.00000000000E+00 0.  1.
         13    1    5    5    0    0  0.31010140149E+03 -0.85758004899E+02  0.49516256462E+02  0.32552906824E+03  0.00000000000E+00 0. -1.
        -13    1    5    5    0    0  0.96785938158E+00  0.11952706471E+02  0.37768358842E+01  0.12572526916E+02  0.00000000000E+00 0.  1.
          5    1    6    6  503    0 -0.89994771808E+02  0.23436734004E+02 -0.13273503116E+03  0.16213888476E+03  0.47000000000E+01 0. -1.
         -5    1    6    6    0  503 -0.42268257332E+02  0.98710190390E+02 -0.11441590203E+03  0.15698215154E+03  0.47000000000E+01 0.  1.
<mgrwt>
<rscale>  0 0.36911682E+03</rscale>
<asrwt>0</asrwt>
<pdfrwt beam="1">  1        2 0.82104076E-01 0.36911682E+03</pdfrwt>
<pdfrwt beam="2">  1       -2 0.70884271E-01 0.36911682E+03</pdfrwt>
<totfact> 0.10726429E+02</totfact>
</mgrwt>
</event>
<event>
12    1  0.3127365E-008  0.5579815E+03  0.7818608E-02  0.9996632E-01
         -2   -1    0    0    0  501 -0.00000000000E+00  0.00000000000E+00  0.76070539151E+03  0.76070539151E+03  0.00000000000E+00 0. -1.
          2   -1    0    0  501    0  0.00000000000E+00 -0.00000000000E+00 -0.56230917922E+03  0.56230917922E+03  0.00000000000E+00 0.  1.
         23    2    1    2    0    0 -0.32630817072E+03  0.39105677355E+03  0.13224678646E+03  0.53326988512E+03  0.86516677192E+02 0.  0.
    5000000    2    1    2    0    0  0.32630817072E+03 -0.39105677355E+03  0.66149425834E+02  0.78974468561E+03  0.59993207908E+03 0.  0.
         23    2    4    4    0    0 -0.24849943514E+02 -0.11907858643E+03  0.25582867792E+03  0.29768327441E+03  0.91486556264E+02 0.  0.
         23    2    4    4    0    0  0.35115811423E+03 -0.27197818712E+03 -0.18967925209E+03  0.49206141121E+03  0.94138505755E+02 0.  0.
          4    1    3    3  502    0 -0.26111664173E+03  0.26659650729E+03  0.12110359903E+03  0.39232853578E+03  0.00000000000E+00 0. -1.
         -4    1    3    3    0  502 -0.65191528990E+02  0.12446026626E+03  0.11143187431E+02  0.14094134934E+03  0.00000000000E+00 0.  1.
         13    1    5    5    0    0  0.27251177487E+02 -0.84077117861E+02  0.16655797432E+03  0.18855542218E+03  0.00000000000E+00 0. -1.
        -13    1    5    5    0    0 -0.52101121001E+02 -0.35001468565E+02  0.89270703602E+02  0.10912785223E+03  0.00000000000E+00 0.  1.
          5    1    6    6  503    0  0.18480672775E+03 -0.19190352443E+03 -0.13907500759E+03  0.30057351355E+03  0.47000000000E+01 0. -1.
         -5    1    6    6    0  503  0.16635138648E+03 -0.80074662694E+02 -0.50604244501E+02  0.19148789766E+03  0.47000000000E+01 0.  1.
<mgrwt>
<rscale>  0 0.55798145E+03</rscale>
<asrwt>0</asrwt>
<pdfrwt beam="1">  1        2 0.86509105E-01 0.55798145E+03</pdfrwt>
<pdfrwt beam="2">  1       -2 0.11703160E+00 0.55798145E+03</pdfrwt>
<totfact> 0.31213527E+01</totfact>
</mgrwt>
</event>
<event>
12    1  0.3127365E-008  0.1304246E+04  0.7818608E-02  0.9026205E-01
          1   -1    0    0  501    0  0.00000000000E+00  0.00000000000E+00  0.17865426051E+04  0.17865426051E+04  0.00000000000E+00 0. -1.
         -1   -1    0    0    0  501 -0.00000000000E+00 -0.00000000000E+00 -0.13167997441E+04  0.13167997441E+04  0.00000000000E+00 0.  1.
         23    2    1    2    0    0 -0.12540317310E+04 -0.30107647087E+03 -0.49527612839E+03  0.13845156286E+04  0.91337062210E+02 0.  0.
    5000000    2    1    2    0    0  0.12540317310E+04  0.30107647087E+03  0.96501898948E+03  0.17188267206E+04  0.59988417347E+03 0.  0.
         23    2    4    4    0    0  0.17658446085E+03  0.36032376182E+01  0.43572491762E+03  0.47855229537E+03  0.89224662714E+02 0.  0.
         23    2    4    4    0    0  0.10774472702E+04  0.29747323325E+03  0.52929407186E+03  0.12402744252E+04  0.93517328904E+02 0.  0.
          1    1    3    3  502    0 -0.14939852966E+03 -0.40760660302E+02 -0.91867774798E+02  0.18005843535E+03  0.00000000000E+00 0. -1.
         -1    1    3    3    0  502 -0.11046332013E+04 -0.26031581057E+03 -0.40340835359E+03  0.12044571933E+04  0.00000000000E+00 0.  1.
         13    1    5    5    0    0  0.89734010342E+02  0.46033649116E+02  0.23699681354E+03  0.25756315554E+03  0.00000000000E+00 0. -1.
        -13    1    5    5    0    0  0.86850450507E+02 -0.42430411497E+02  0.19872810408E+03  0.22098913983E+03  0.00000000000E+00 0.  1.
          5    1    6    6  503    0  0.40678177586E+03  0.68494171271E+02  0.17813218211E+03  0.44935067483E+03  0.47000000000E+01 0. -1.
         -5    1    6    6    0  503  0.67066549429E+03  0.22897906198E+03  0.35116188975E+03  0.79092375035E+03  0.47000000000E+01 0.  1.
<mgrwt>
<rscale>  0 0.13042461E+04</rscale>
<asrwt>0</asrwt>
<pdfrwt beam="1">  1        1 0.27485271E+00 0.13042461E+04</pdfrwt>
<pdfrwt beam="2">  1       -1 0.20258458E+00 0.13042461E+04</pdfrwt>
<totfact> 0.58150137E-01</totfact>
</mgrwt>
</event>
<event>
12    1  0.3186848E-008  0.8726043E+03  0.7818608E-02  0.9460491E-01
          2   -1    0    0  501    0  0.00000000000E+00  0.00000000000E+00  0.25445837617E+04  0.25445837617E+04  0.00000000000E+00 0. -1.
         -2   -1    0    0    0  501 -0.00000000000E+00 -0.00000000000E+00 -0.37808741199E+03  0.37808741199E+03  0.00000000000E+00 0.  1.
         23    2    1    2    0    0 -0.74926965244E+03  0.36724810883E+03  0.53808543444E+03  0.99707070418E+03  0.91311931600E+02 0.  0.
    5000000    2    1    2    0    0  0.74926965244E+03 -0.36724810883E+03  0.16284109152E+04  0.19256004695E+04  0.59994905927E+03 0.  0.
         23    2    4    4    0    0  0.76436868820E+02  0.49597717167E+02  0.65654183190E+03  0.66904814894E+03  0.90970984992E+02 0.  0.
         23    2    4    4    0    0  0.67283278363E+03 -0.41684582600E+03  0.97186908334E+03  0.12565523205E+04  0.89049546578E+02 0.  0.
          2    1    3    3  502    0 -0.55966963166E+03  0.31710548442E+03  0.41606369175E+03  0.76609071294E+03  0.00000000000E+00 0. -1.
         -2    1    3    3    0  502 -0.18960002079E+03  0.50142624413E+02  0.12202174269E+03  0.23097999124E+03  0.00000000000E+00 0.  1.
         13    1    5    5    0    0  0.23044162847E+02  0.55922084604E+02  0.18942047917E+03  0.19884272911E+03  0.00000000000E+00 0.  1.
        -13    1    5    5    0    0  0.53392705972E+02 -0.63243674369E+01  0.46712135272E+03  0.47020541984E+03  0.00000000000E+00 0. -1.
          5    1    6    6  503    0  0.18537555683E+03 -0.11728402467E+03  0.20959453426E+03  0.30343302111E+03  0.47000000000E+01 0. -1.
         -5    1    6    6    0  503  0.48745722680E+03 -0.29956180133E+03  0.76227454908E+03  0.95311929944E+03  0.47000000000E+01 0.  1.
<mgrwt>
<rscale>  0 0.87260431E+03</rscale>
<asrwt>0</asrwt>
<pdfrwt beam="1">  1        2 0.39147441E+00 0.87260431E+03</pdfrwt>
<pdfrwt beam="2">  1       -2 0.58167296E-01 0.87260431E+03</pdfrwt>
<totfact> 0.93404838E+00</totfact>
</mgrwt>
</event>
<event>
12    1  0.3127365E-008  0.8041873E+03  0.7818608E-02  0.9553976E-01
         -2   -1    0    0    0  501 -0.00000000000E+00  0.00000000000E+00  0.27381964086E+03  0.27381964086E+03  0.00000000000E+00 0.  1.
          2   -1    0    0  501    0  0.00000000000E+00 -0.00000000000E+00 -0.28770395825E+04  0.28770395825E+04  0.00000000000E+00 0. -1.
         23    2    1    2    0    0  0.40904960605E+03 -0.58386704585E+03 -0.57708765518E+03  0.92072549102E+03  0.80516834317E+02 0.  0.
    5000000    2    1    2    0    0 -0.40904960605E+03  0.58386704585E+03 -0.20261322864E+04  0.22301337323E+04  0.60005175977E+03 0.  0.
         23    2    4    4    0    0 -0.39349542766E+03  0.66322012907E+03 -0.14881143786E+04  0.16785160675E+04  0.90731438213E+02 0.  0.
         23    2    4    4    0    0 -0.15554178389E+02 -0.79353083221E+02 -0.53801790787E+03  0.55161766483E+03  0.90994146439E+02 0.  0.
          1    1    3    3  502    0  0.35029843848E+03 -0.53517453428E+03 -0.49622126477E+03  0.80954080920E+03  0.00000000000E+00 0. -1.
         -1    1    3    3    0  502  0.58751167572E+02 -0.48692511569E+02 -0.80866390405E+02  0.11118468182E+03  0.00000000000E+00 0.  1.
         11    1    5    5    0    0 -0.31967117602E+03  0.51615943272E+03 -0.10889468973E+04  0.12467620326E+04  0.00000000000E+00 0. -1.
        -11    1    5    5    0    0 -0.73824251648E+02  0.14706069635E+03 -0.39916748125E+03  0.43175403487E+03  0.00000000000E+00 0.  1.
          5    1    6    6  503    0 -0.45969866757E+02 -0.13614877812E+02 -0.18139713837E+03  0.18768485649E+03  0.47000000000E+01 0. -1.
         -5    1    6    6    0  503  0.30415688368E+02 -0.65738205409E+02 -0.35662076949E+03  0.36393280833E+03  0.47000000000E+01 0.  1.
<mgrwt>
<rscale>  0 0.80418727E+03</rscale>
<asrwt>0</asrwt>
<pdfrwt beam="1">  1        2 0.44262149E+00 0.80418727E+03</pdfrwt>
<pdfrwt beam="2">  1       -2 0.42126097E-01 0.80418727E+03</pdfrwt>
<totfact> 0.11629568E+01</totfact>
</mgrwt>
</event>
<event>
12    1  0.3127365E-008  0.8110833E+03  0.7818608E-02  0.9544112E-01
         -2   -1    0    0    0  501 -0.00000000000E+00  0.00000000000E+00  0.54273029602E+03  0.54273029602E+03  0.00000000000E+00 0.  1.
          2   -1    0    0  501    0  0.00000000000E+00 -0.00000000000E+00 -0.14641832886E+04  0.14641832886E+04  0.00000000000E+00 0. -1.
         23    2    1    2    0    0 -0.79830000429E+02  0.71152447572E+03 -0.77894583954E+03  0.10619448695E+04  0.91270895944E+02 0.  0.
    5000000    2    1    2    0    0  0.79830000429E+02 -0.71152447572E+03 -0.14250715305E+03  0.94496871512E+03  0.60001472929E+03 0.  0.
         23    2    4    4    0    0 -0.85247420316E+02  0.45755651338E+02 -0.94802298169E+02  0.16300244388E+03  0.90673141962E+02 0.  0.
         23    2    4    4    0    0  0.16507742075E+03 -0.75728012706E+03 -0.47704854885E+02  0.78196627124E+03  0.92042112601E+02 0.  0.
          4    1    3    3  502    0 -0.52071208449E+02  0.57934863234E+03 -0.67799214496E+03  0.89332502325E+03  0.00000000000E+00 0. -1.
         -4    1    3    3    0  502 -0.27758791980E+02  0.13217584338E+03 -0.10095369458E+03  0.16861984627E+03  0.00000000000E+00 0.  1.
         13    1    5    5    0    0 -0.53048566043E+02 -0.19533116986E+02 -0.59584732418E+02  0.82134239850E+02  0.00000000000E+00 0. -1.
        -13    1    5    5    0    0 -0.32198854273E+02  0.65288768324E+02 -0.35217565751E+02  0.80868204031E+02  0.00000000000E+00 0.  1.
          5    1    6    6  503    0  0.12371024390E+03 -0.63404859963E+03 -0.70686421116E+02  0.64987730478E+03  0.47000000000E+01 0. -1.
         -5    1    6    6    0  503  0.41367176848E+02 -0.12323152742E+03  0.22981566231E+02  0.13208896645E+03  0.47000000000E+01 0.  1.
<mgrwt>
<rscale>  0 0.81108330E+03</rscale>
<asrwt>0</asrwt>
<pdfrwt beam="1">  1        2 0.22525896E+00 0.81108330E+03</pdfrwt>
<pdfrwt beam="2">  1       -2 0.83496971E-01 0.81108330E+03</pdfrwt>
<totfact> 0.16958908E+01</totfact>
</mgrwt>
</event>
<event>
12    1  0.3127365E-008  0.6727549E+03  0.7818608E-02  0.9764994E-01
         -2   -1    0    0    0  501 -0.00000000000E+00  0.00000000000E+00  0.47917391904E+03  0.47917391904E+03  0.00000000000E+00 0.  1.
          2   -1    0    0  501    0  0.00000000000E+00 -0.00000000000E+00 -0.14416892947E+04  0.14416892947E+04  0.00000000000E+00 0. -1.
         23    2    1    2    0    0 -0.10503483264E+03  0.54414423405E+03 -0.95070154361E+03  0.11040369780E+04  0.89100842968E+02 0.  0.
    5000000    2    1    2    0    0  0.10503483264E+03 -0.54414423405E+03 -0.11813832070E+02  0.81682623578E+03  0.59995022236E+03 0.  0.
         23    2    4    4    0    0 -0.21995145908E+03 -0.19907710822E+03 -0.99438778274E+02  0.32631376014E+03  0.92640488254E+02 0.  0.
         23    2    4    4    0    0  0.32498629172E+03 -0.34506712582E+03  0.87624946204E+02  0.49051247564E+03  0.90757624656E+02 0.  0.
          2    1    3    3  502    0 -0.11947824513E+03  0.46185855034E+03 -0.82784424239E+03  0.95546557303E+03  0.00000000000E+00 0. -1.
         -2    1    3    3    0  502  0.14443412491E+02  0.82285683711E+02 -0.12285730122E+03  0.14857140496E+03  0.00000000000E+00 0.  1.
         11    1    5    5    0    0 -0.20773643756E+03 -0.14574114309E+03 -0.66058355244E+02  0.26221863889E+03  0.00000000000E+00 0. -1.
        -11    1    5    5    0    0 -0.12215021513E+02 -0.53335965132E+02 -0.33380423030E+02  0.64095121256E+02  0.00000000000E+00 0.  1.
          5    1    6    6  503    0  0.20265840740E+03 -0.18129509533E+03  0.88651529366E+02  0.28604112526E+03  0.47000000000E+01 0. -1.
         -5    1    6    6    0  503  0.12232788432E+03 -0.16377203049E+03 -0.10265831620E+01  0.20447135038E+03  0.47000000000E+01 0.  1.
<mgrwt>
<rscale>  0 0.67275485E+03</rscale>
<asrwt>0</asrwt>
<pdfrwt beam="1">  1        2 0.22179835E+00 0.67275485E+03</pdfrwt>
<pdfrwt beam="2">  1       -2 0.73719065E-01 0.67275485E+03</pdfrwt>
<totfact> 0.23465780E+01</totfact>
</mgrwt>
</event>
<event>
12    1  0.3127365E-008  0.1397298E+04  0.7818608E-02  0.8955776E-01
          2   -1    0    0  501    0  0.00000000000E+00  0.00000000000E+00  0.24374695699E+04  0.24374695699E+04  0.00000000000E+00 0. -1.
         -2   -1    0    0    0  501 -0.00000000000E+00 -0.00000000000E+00 -0.15436566084E+04  0.15436566084E+04  0.00000000000E+00 0.  1.
         23    2    1    2    0    0  0.31892886974E+03 -0.13234057164E+04 -0.91226016548E+03  0.16412741732E+04  0.91891175507E+02 0.  0.
    5000000    2    1    2    0    0 -0.31892886974E+03  0.13234057164E+04  0.18060731269E+04  0.23398520051E+04  0.59990745254E+03 0.  0.
         23    2    4    4    0    0 -0.72752827707E+02  0.10693108492E+04  0.15771483622E+04  0.19088898679E+04  0.88005143417E+02 0.  0.
         23    2    4    4    0    0 -0.24617604203E+03  0.25409486722E+03  0.22892476472E+03  0.43096213715E+03  0.90304875492E+02 0.  0.
          3    1    3    3  502    0  0.27246417344E+03 -0.10186665199E+04 -0.73911661391E+03  0.12877156416E+04  0.00000000000E+00 0. -1.
         -3    1    3    3    0  502  0.46464696299E+02 -0.30473919647E+03 -0.17314355157E+03  0.35355853167E+03  0.00000000000E+00 0.  1.
         13    1    5    5    0    0 -0.10910016648E+02  0.65347592257E+03  0.10070971638E+04  0.12005809041E+04  0.00000000000E+00 0. -1.
        -13    1    5    5    0    0 -0.61842811059E+02  0.41583492659E+03  0.57005119838E+03  0.70830896382E+03  0.00000000000E+00 0.  1.
          5    1    6    6  503    0 -0.98005611285E+02  0.65378370884E+02  0.36691667074E+02  0.12348198110E+03  0.47000000000E+01 0. -1.
         -5    1    6    6    0  503 -0.14817043075E+03  0.18871649634E+03  0.19223309764E+03  0.30748015606E+03  0.47000000000E+01 0.  1.
<mgrwt>
<rscale>  0 0.13972984E+04</rscale>
<asrwt>0</asrwt>
<pdfrwt beam="1">  1        2 0.37499532E+00 0.13972984E+04</pdfrwt>
<pdfrwt beam="2">  1       -2 0.23748563E+00 0.13972984E+04</pdfrwt>
<totfact> 0.27590697E-01</totfact>
</mgrwt>
</event>
<event>
12    1  0.3127365E-008  0.5248799E+03  0.7818608E-02  0.1007481E+00
         -1   -1    0    0    0  501 -0.00000000000E+00  0.00000000000E+00  0.22609407998E+03  0.22609407998E+03  0.00000000000E+00 0.  1.
          1   -1    0    0  501    0  0.00000000000E+00 -0.00000000000E+00 -0.14326615425E+04  0.14326615425E+04  0.00000000000E+00 0. -1.
         23    2    1    2    0    0 -0.12103025160E+02 -0.40338983541E+03 -0.47522001490E+03  0.63025406865E+03  0.92283725313E+02 0.  0.
    5000000    2    1    2    0    0  0.12103025160E+02  0.40338983541E+03 -0.73134744760E+03  0.10285015538E+04  0.60006375872E+03 0.  0.
         23    2    4    4    0    0  0.16121228173E+03  0.45060443561E+03 -0.33297239033E+03  0.59057087838E+03  0.94178513967E+02 0.  0.
         23    2    4    4    0    0 -0.14910925657E+03 -0.47214600196E+02 -0.39837505727E+03  0.43793067542E+03  0.92832113825E+02 0.  0.
          3    1    3    3  502    0  0.73078421584E+01 -0.17421908815E+03 -0.27337169761E+03  0.32424956483E+03  0.00000000000E+00 0. -1.
         -3    1    3    3    0  502 -0.19410867318E+02 -0.22917074726E+03 -0.20184831729E+03  0.30600450383E+03  0.00000000000E+00 0.  1.
         13    1    5    5    0    0  0.31691731287E+01  0.57968229186E+02 -0.75203690628E+02  0.95005022695E+02  0.00000000000E+00 0. -1.
        -13    1    5    5    0    0  0.15804310860E+03  0.39263620642E+03 -0.25776869970E+03  0.49556585568E+03  0.00000000000E+00 0.  1.
          5    1    6    6  503    0 -0.21877426658E+02  0.99979131209E+01 -0.15863074523E+03  0.16051287611E+03  0.47000000000E+01 0. -1.
         -5    1    6    6    0  503 -0.12723182991E+03 -0.57212513317E+02 -0.23974431204E+03  0.27741779931E+03  0.47000000000E+01 0.  1.
<mgrwt>
<rscale>  0 0.52487994E+03</rscale>
<asrwt>0</asrwt>
<pdfrwt beam="1">  1        1 0.22040947E+00 0.52487994E+03</pdfrwt>
<pdfrwt beam="2">  1       -1 0.34783705E-01 0.52487994E+03</pdfrwt>
<totfact> 0.60334684E+01</totfact>
</mgrwt>
</event>
<event>
12    1  0.3127365E-008  0.6216394E+03  0.7818608E-02  0.9861501E-01
          2   -1    0    0  501    0  0.00000000000E+00  0.00000000000E+00  0.87946751959E+03  0.87946751959E+03  0.00000000000E+00 0.  1.
         -2   -1    0    0    0  501 -0.00000000000E+00 -0.00000000000E+00 -0.62607183492E+03  0.62607183492E+03  0.00000000000E+00 0. -1.
         23    2    1    2    0    0  0.31055414990E+03  0.45934407855E+03  0.38017299888E+03  0.67875880601E+03  0.93494091512E+02 0.  0.
    5000000    2    1    2    0    0 -0.31055414990E+03 -0.45934407855E+03 -0.12677731420E+03  0.82678054849E+03  0.60004393627E+03 0.  0.
         23    2    4    4    0    0  0.76372179278E+02 -0.27241661261E+02 -0.20077777865E+03  0.23487083957E+03  0.90982289508E+02 0.  0.
         23    2    4    4    0    0 -0.38692632918E+03 -0.43210241729E+03  0.74000464442E+02  0.59190970893E+03  0.91959510395E+02 0.  0.
          4    1    3    3  502    0  0.13116642393E+03  0.27241045329E+03  0.22353690809E+03  0.37600642961E+03  0.00000000000E+00 0.  1.
         -4    1    3    3    0  502  0.17938772597E+03  0.18693362526E+03  0.15663609079E+03  0.30275237640E+03  0.00000000000E+00 0. -1.
         13    1    5    5    0    0  0.41932152331E+02  0.10774758384E+02 -0.21384641603E+02  0.48287718043E+02  0.00000000000E+00 0.  1.
        -13    1    5    5    0    0  0.34440026947E+02 -0.38016419645E+02 -0.17939313704E+03  0.18658312152E+03  0.00000000000E+00 0. -1.
          5    1    6    6  503    0 -0.26480923574E+03 -0.22850179745E+03  0.42793112099E+02  0.35240650280E+03  0.47000000000E+01 0. -1.
         -5    1    6    6    0  503 -0.12211709344E+03 -0.20360061983E+03  0.31207352343E+02  0.23950320613E+03  0.47000000000E+01 0.  1.
<mgrwt>
<rscale>  0 0.62163937E+03</rscale>
<asrwt>0</asrwt>
<pdfrwt beam="1">  1        2 0.13530270E+00 0.62163937E+03</pdfrwt>
<pdfrwt beam="2">  1       -2 0.96318744E-01 0.62163937E+03</pdfrwt>
<totfact> 0.28102931E+01</totfact>
</mgrwt>
</event>
<event>
12    1  0.3127365E-008  0.3858319E+03  0.7818608E-02  0.1048799E+00
         -2   -1    0    0    0  501 -0.00000000000E+00  0.00000000000E+00  0.35469343676E+03  0.35469343676E+03  0.00000000000E+00 0.  1.
          2   -1    0    0  501    0  0.00000000000E+00 -0.00000000000E+00 -0.59598955439E+03  0.59598955439E+03  0.00000000000E+00 0. -1.
         23    2    1    2    0    0 -0.20234087553E+02 -0.16055014881E+03  0.12954622685E+03  0.22706165101E+03  0.92676857340E+02 0.  0.
    5000000    2    1    2    0    0  0.20234087553E+02  0.16055014881E+03 -0.37084234447E+03  0.72362134014E+03  0.59993168850E+03 0.  0.
         23    2    4    4    0    0 -0.27552452576E+03  0.72445735888E+02 -0.15861775215E+03  0.33819381958E+03  0.89740288432E+02 0.  0.
         23    2    4    4    0    0  0.29575861331E+03  0.88104412925E+02 -0.21222459232E+03  0.38542752056E+03  0.90992038622E+02 0.  0.
          1    1    3    3  502    0 -0.12046892308E+02 -0.26314011976E+02  0.77723704221E+02  0.82936897931E+02  0.00000000000E+00 0. -1.
         -1    1    3    3    0  502 -0.81871952450E+01 -0.13423613684E+03  0.51822522625E+02  0.14412475308E+03  0.00000000000E+00 0.  1.
         13    1    5    5    0    0 -0.71036050169E+02 -0.25926022714E+00 -0.29281940361E+01  0.71096849155E+02  0.00000000000E+00 0. -1.
        -13    1    5    5    0    0 -0.20448847559E+03  0.72704996115E+02 -0.15568955811E+03  0.26709697043E+03  0.00000000000E+00 0.  1.
          5    1    6    6  503    0  0.10832560933E+03  0.75763106825E+02 -0.69155584109E+02  0.14926175265E+03  0.47000000000E+01 0. -1.
         -5    1    6    6    0  503  0.18743300398E+03  0.12341306100E+02 -0.14306900821E+03  0.23616576790E+03  0.47000000000E+01 0.  1.
<mgrwt>
<rscale>  0 0.38583192E+03</rscale>
<asrwt>0</asrwt>
<pdfrwt beam="1">  1        2 0.91690701E-01 0.38583192E+03</pdfrwt>
<pdfrwt beam="2">  1       -2 0.54568221E-01 0.38583192E+03</pdfrwt>
<totfact> 0.16340334E+02</totfact>
</mgrwt>
</event>
<event>
12    1  0.3127365E-008  0.4445734E+03  0.7818608E-02  0.1029353E+00
          2   -1    0    0  501    0  0.00000000000E+00  0.00000000000E+00  0.92081744446E+03  0.92081744446E+03  0.00000000000E+00 0. -1.
         -2   -1    0    0    0  501 -0.00000000000E+00 -0.00000000000E+00 -0.25971651932E+03  0.25971651932E+03  0.00000000000E+00 0.  1.
         23    2    1    2    0    0 -0.26048595306E+02 -0.28397112671E+03  0.11332512156E+03  0.31934978883E+03  0.88450971308E+02 0.  0.
    5000000    2    1    2    0    0  0.26048595306E+02  0.28397112671E+03  0.54777580358E+03  0.86118417494E+03  0.60021806209E+03 0.  0.
         23    2    4    4    0    0 -0.24718119548E+03  0.97202010467E+02  0.10281392915E+03  0.29820539567E+03  0.88368431821E+02 0.  0.
         23    2    4    4    0    0  0.27322979079E+03  0.18676911625E+03  0.44496187442E+03  0.56297877927E+03  0.97040274406E+02 0.  0.
          3    1    3    3  502    0 -0.44212221494E+02 -0.18244527117E+03  0.37743192065E+02  0.19148249541E+03  0.00000000000E+00 0. -1.
         -3    1    3    3    0  502  0.18163626188E+02 -0.10152585555E+03  0.75581929498E+02  0.12786729342E+03  0.00000000000E+00 0.  1.
         13    1    5    5    0    0 -0.14871965766E+03  0.45560334750E+02  0.10383898242E+03  0.18701822090E+03  0.00000000000E+00 0.  1.
        -13    1    5    5    0    0 -0.98461537820E+02  0.51641675717E+02 -0.10250532658E+01  0.11118717478E+03  0.00000000000E+00 0. -1.
          5    1    6    6  503    0  0.16362489143E+03  0.10143958163E+03  0.17913030440E+03  0.26300731886E+03  0.47000000000E+01 0. -1.
         -5    1    6    6    0  503  0.10960489936E+03  0.85329534612E+02  0.26583157002E+03  0.29997146041E+03  0.47000000000E+01 0.  1.
<mgrwt>
<rscale>  0 0.44457342E+03</rscale>
<asrwt>0</asrwt>
<pdfrwt beam="1">  1        2 0.14166422E+00 0.44457342E+03</pdfrwt>
<pdfrwt beam="2">  1       -2 0.39956388E-01 0.44457342E+03</pdfrwt>
<totfact> 0.17402108E+02</totfact>
</mgrwt>
</event>
<event>
12    1  0.3127365E-008  0.9269570E+03  0.7818608E-02  0.9392497E-01
         -1   -1    0    0    0  501 -0.00000000000E+00  0.00000000000E+00  0.69948597642E+03  0.69948597642E+03  0.00000000000E+00 0.  1.
          1   -1    0    0  501    0  0.00000000000E+00 -0.00000000000E+00 -0.13744786862E+04  0.13744786862E+04  0.00000000000E+00 0. -1.
         23    2    1    2    0    0 -0.68336258595E+03 -0.54357650684E+03 -0.14644860867E+03  0.89002390191E+03  0.90749701497E+02 0.  0.
    5000000    2    1    2    0    0  0.68336258595E+03  0.54357650684E+03 -0.52854410108E+03  0.11839407607E+04  0.59991417333E+03 0.  0.
         23    2    4    4    0    0  0.10916954562E+03  0.35295484332E+03 -0.90108080327E+01  0.38057583843E+03  0.90893690768E+02 0.  0.
         23    2    4    4    0    0  0.57419304033E+03  0.19062166353E+03 -0.51953329305E+03  0.80336492226E+03  0.97190995260E+02 0.  0.
          2    1    3    3  502    0 -0.50110630979E+03 -0.42685584089E+03 -0.77144596654E+02  0.66277049678E+03  0.00000000000E+00 0. -1.
         -2    1    3    3    0  502 -0.18225627616E+03 -0.11672066595E+03 -0.69304012015E+02  0.22725340512E+03  0.00000000000E+00 0.  1.
         13    1    5    5    0    0  0.71956349486E+02  0.28056300918E+03 -0.42145226856E+02  0.29269359149E+03  0.00000000000E+00 0.  1.
        -13    1    5    5    0    0  0.37213196131E+02  0.72391834133E+02  0.33134418824E+02  0.87882246934E+02  0.00000000000E+00 0. -1.
          5    1    6    6  503    0  0.24537707058E+03  0.11356472993E+03 -0.18269249584E+03  0.32635179283E+03  0.47000000000E+01 0. -1.
         -5    1    6    6    0  503  0.32881596975E+03  0.77056933599E+02 -0.33684079721E+03  0.47701312942E+03  0.47000000000E+01 0.  1.
<mgrwt>
<rscale>  0 0.92695705E+03</rscale>
<asrwt>0</asrwt>
<pdfrwt beam="1">  1        1 0.21145826E+00 0.92695705E+03</pdfrwt>
<pdfrwt beam="2">  1       -1 0.10761323E+00 0.92695705E+03</pdfrwt>
<totfact> 0.65223214E+00</totfact>
</mgrwt>
</event>
<event>
12    1  0.3127365E-008  0.7339175E+03  0.7818608E-02  0.9660925E-01
         -1   -1    0    0    0  501 -0.00000000000E+00  0.00000000000E+00  0.27020320309E+04  0.27020320309E+04  0.00000000000E+00 0.  1.
          1   -1    0    0  501    0  0.00000000000E+00 -0.00000000000E+00 -0.37214994057E+03  0.37214994057E+03  0.00000000000E+00 0. -1.
         23    2    1    2    0    0  0.32987163483E+03  0.59121101155E+03  0.13020036349E+03  0.69570859257E+03  0.93341070674E+02 0.  0.
    5000000    2    1    2    0    0 -0.32987163483E+03 -0.59121101155E+03  0.21996817269E+04  0.23784733789E+04  0.60015844499E+03 0.  0.
         23    2    4    4    0    0  0.29605539220E+02 -0.11482140214E+02  0.28963797117E+02  0.10126271520E+03  0.91689194834E+02 0.  0.
         23    2    4    4    0    0 -0.35947717405E+03 -0.57972887134E+03  0.21707179298E+04  0.22772106637E+04  0.91447654564E+02 0.  0.
          4    1    3    3  502    0  0.82813361643E+02  0.81521832792E+02  0.34924889825E+02  0.12134088354E+03  0.00000000000E+00 0. -1.
         -4    1    3    3    0  502  0.24705827319E+03  0.50968917876E+03  0.95275473666E+02  0.57436770903E+03  0.00000000000E+00 0.  1.
         11    1    5    5    0    0 -0.19582038739E+02 -0.36796162527E+02  0.11188212931E+02  0.43157733102E+02  0.00000000000E+00 0.  1.
        -11    1    5    5    0    0  0.49187577959E+02  0.25314022313E+02  0.17775584186E+02  0.58104982096E+02  0.00000000000E+00 0. -1.
          5    1    6    6  503    0 -0.24282363036E+03 -0.30627390870E+03  0.12417947495E+04  0.13018614798E+04  0.47000000000E+01 0. -1.
         -5    1    6    6    0  503 -0.11665354369E+03 -0.27345496264E+03  0.92892318025E+03  0.97534918396E+03  0.47000000000E+01 0.  1.
<mgrwt>
<rscale>  0 0.73391752E+03</rscale>
<asrwt>0</asrwt>
<pdfrwt beam="1">  1        1 0.57253839E-01 0.73391752E+03</pdfrwt>
<pdfrwt beam="2">  1       -1 0.41569722E+00 0.73391752E+03</pdfrwt>
<totfact> 0.39667262E-01</totfact>
</mgrwt>
</event>
<event>
12    1  0.3127365E-008  0.9561314E+03  0.7818608E-02  0.9358012E-01
         -1   -1    0    0    0  501 -0.00000000000E+00  0.00000000000E+00  0.91185510052E+03  0.91185510052E+03  0.00000000000E+00 0.  1.
          1   -1    0    0  501    0  0.00000000000E+00 -0.00000000000E+00 -0.12210302782E+04  0.12210302782E+04  0.00000000000E+00 0. -1.
         23    2    1    2    0    0 -0.50511079650E+03  0.79776675174E+03  0.71119470782E+02  0.95128156566E+03  0.91158823539E+02 0.  0.
    5000000    2    1    2    0    0  0.50511079650E+03 -0.79776675174E+03 -0.38029464841E+03  0.11816038130E+04  0.59999570366E+03 0.  0.
         23    2    4    4    0    0  0.32606620016E+03 -0.35432816939E+03  0.97887387773E+02  0.49954777415E+03  0.89991218807E+02 0.  0.
         23    2    4    4    0    0  0.17904459634E+03 -0.44343858235E+03 -0.47818203619E+03  0.68205603887E+03  0.88586887480E+02 0.  0.
          4    1    3    3  502    0 -0.35116921066E+03  0.52590478967E+03  0.73339975094E+01  0.63241556736E+03  0.00000000000E+00 0.  1.
         -4    1    3    3    0  502 -0.15394158584E+03  0.27186196206E+03  0.63785473273E+02  0.31886599829E+03  0.00000000000E+00 0. -1.
         13    1    5    5    0    0  0.24269389289E+03 -0.23619933411E+03  0.30506066253E+02  0.34003098558E+03  0.00000000000E+00 0.  1.
        -13    1    5    5    0    0  0.83372307276E+02 -0.11812883528E+03  0.67381321520E+02  0.15951678857E+03  0.00000000000E+00 0. -1.
          5    1    6    6  503    0  0.67667173448E+02 -0.26729129390E+03 -0.30363923685E+03  0.41017357096E+03  0.47000000000E+01 0. -1.
         -5    1    6    6    0  503  0.11137742289E+03 -0.17614728844E+03 -0.17454279934E+03  0.27188246791E+03  0.47000000000E+01 0.  1.
<mgrwt>
<rscale>  0 0.95613138E+03</rscale>
<asrwt>0</asrwt>
<pdfrwt beam="1">  1        1 0.18785081E+00 0.95613138E+03</pdfrwt>
<pdfrwt beam="2">  1       -1 0.14028540E+00 0.95613138E+03</pdfrwt>
<totfact> 0.43386157E+00</totfact>
</mgrwt>
</event>
<event>
12    1  0.3127365E-008  0.1495710E+04  0.7818608E-02  0.8887311E-01
          1   -1    0    0  501    0  0.00000000000E+00  0.00000000000E+00  0.39462254721E+04  0.39462254721E+04  0.00000000000E+00 0. -1.
         -1   -1    0    0    0  501 -0.00000000000E+00 -0.00000000000E+00 -0.60632207236E+03  0.60632207236E+03  0.00000000000E+00 0.  1.
         23    2    1    2    0    0  0.62492037909E+03  0.13050664849E+04  0.21137618493E+04  0.25632382468E+04  0.92071405973E+02 0.  0.
    5000000    2    1    2    0    0 -0.62492037909E+03 -0.13050664849E+04  0.12261415504E+04  0.19893092977E+04  0.60017028407E+03 0.  0.
         23    2    4    4    0    0 -0.44439115570E+03 -0.12831726539E+04  0.10304940643E+04  0.17068857153E+04  0.86748311370E+02 0.  0.
         23    2    4    4    0    0 -0.18052922339E+03 -0.21893831065E+02  0.19564748611E+03  0.28242358241E+03  0.91733313160E+02 0.  0.
          1    1    3    3  502    0  0.33687336663E+02  0.13163139290E+03  0.19151800785E+03  0.23482079886E+03  0.00000000000E+00 0. -1.
         -1    1    3    3    0  502  0.59123304243E+03  0.11734350920E+04  0.19222438415E+04  0.23284174479E+04  0.00000000000E+00 0.  1.
         13    1    5    5    0    0 -0.26862751267E+03 -0.86778692496E+03  0.72284076462E+03  0.11609107023E+04  0.00000000000E+00 0.  1.
        -13    1    5    5    0    0 -0.17576364303E+03 -0.41538572891E+03  0.30765329969E+03  0.54597501298E+03  0.00000000000E+00 0. -1.
          5    1    6    6  503    0 -0.11806559143E+03 -0.14938698464E+02  0.18268501542E+03  0.21807923663E+03  0.47000000000E+01 0. -1.
         -5    1    6    6    0  503 -0.62463631966E+02 -0.69551326004E+01  0.12962470696E+02  0.64344345784E+02  0.47000000000E+01 0.  1.
<mgrwt>
<rscale>  0 0.14957095E+04</rscale>
<asrwt>0</asrwt>
<pdfrwt beam="1">  1        1 0.60711160E+00 0.14957095E+04</pdfrwt>
<pdfrwt beam="2">  1       -1 0.93280321E-01 0.14957095E+04</pdfrwt>
<totfact> 0.11574871E-01</totfact>
</mgrwt>
</event>
<event>
12    1  0.3127365E-008  0.1328069E+04  0.7818608E-02  0.9007598E-01
          1   -1    0    0  501    0  0.00000000000E+00  0.00000000000E+00  0.16553218976E+04  0.16553218976E+04  0.00000000000E+00 0. -1.
         -1   -1    0    0    0  501 -0.00000000000E+00 -0.00000000000E+00 -0.13984307299E+04  0.13984307299E+04  0.00000000000E+00 0.  1.
         23    2    1    2    0    0 -0.11566386121E+04 -0.64249199083E+03 -0.49782755780E+03  0.14166193307E+04  0.91483405872E+02 0.  0.
    5000000    2    1    2    0    0  0.11566386121E+04  0.64249199083E+03  0.75471872555E+03  0.16371332968E+04  0.59999686625E+03 0.  0.
         23    2    4    4    0    0  0.10940772069E+04  0.62669040914E+03  0.82111850440E+03  0.15073965002E+04  0.90899982827E+02 0.  0.
         23    2    4    4    0    0  0.62561405136E+02  0.15801581690E+02 -0.66399778844E+02  0.12973679659E+03  0.90879515636E+02 0.  0.
          4    1    3    3  502    0 -0.10162386121E+04 -0.53084124937E+03 -0.41922589850E+03  0.12207717652E+04  0.00000000000E+00 0.  1.
         -4    1    3    3    0  502 -0.14040000001E+03 -0.11165074146E+03 -0.78601659300E+02  0.19584756551E+03  0.00000000000E+00 0. -1.
         11    1    5    5    0    0  0.10632182084E+03  0.33133082913E+02  0.83082710844E+02  0.13894195771E+03  0.00000000000E+00 0.  1.
        -11    1    5    5    0    0  0.98775538609E+03  0.59355732623E+03  0.73803579355E+03  0.13684545425E+04  0.00000000000E+00 0. -1.
          5    1    6    6  503    0  0.36681601473E+02  0.26524809845E+01 -0.86503898873E+02  0.94114770691E+02  0.47000000000E+01 0. -1.
         -5    1    6    6    0  503  0.25879803663E+02  0.13149100706E+02  0.20104120029E+02  0.35622025899E+02  0.47000000000E+01 0.  1.
<mgrwt>
<rscale>  0 0.13280688E+04</rscale>
<asrwt>0</asrwt>
<pdfrwt beam="1">  1        1 0.25466491E+00 0.13280688E+04</pdfrwt>
<pdfrwt beam="2">  1       -1 0.21514319E+00 0.13280688E+04</pdfrwt>
<totfact> 0.58511749E-01</totfact>
</mgrwt>
</event>
<event>
12    1  0.3127365E-008  0.3365681E+03  0.7818608E-02  0.1068267E+00
         -1   -1    0    0    0  501 -0.00000000000E+00  0.00000000000E+00  0.71080858985E+03  0.71080858985E+03  0.00000000000E+00 0.  1.
          1   -1    0    0  501    0  0.00000000000E+00 -0.00000000000E+00 -0.21172812110E+03  0.21172812110E+03  0.00000000000E+00 0. -1.
         23    2    1    2    0    0 -0.13153727215E+03  0.16588246232E+02  0.97285363355E+02  0.18842283581E+03  0.91986408000E+02 0.  0.
    5000000    2    1    2    0    0  0.13153727215E+03 -0.16588246232E+02  0.40179510540E+03  0.73411387513E+03  0.59992220417E+03 0.  0.
         23    2    4    4    0    0 -0.56515695370E+02  0.20101620686E+03  0.36364824695E+03  0.42977458387E+03  0.94152037612E+02 0.  0.
         23    2    4    4    0    0  0.18805296752E+03 -0.21760445309E+03  0.38146858457E+02  0.30433929127E+03  0.91932610108E+02 0.  0.
          4    1    3    3  502    0  0.87745715000E+01  0.14248849863E+02  0.26266916010E+02  0.31144400847E+02  0.00000000000E+00 0. -1.
         -4    1    3    3    0  502 -0.14031184365E+03  0.23393963684E+01  0.71018447345E+02  0.15727843497E+03  0.00000000000E+00 0.  1.
         13    1    5    5    0    0 -0.64905544287E+02  0.14915397943E+03  0.19942096004E+03  0.25734871005E+03  0.00000000000E+00 0. -1.
        -13    1    5    5    0    0  0.83898489170E+01  0.51862227437E+02  0.16422728690E+03  0.17242587382E+03  0.00000000000E+00 0.  1.
          5    1    6    6  503    0  0.79595274474E+02 -0.15811038899E+03  0.98363147497E+01  0.17735034794E+03  0.47000000000E+01 0. -1.
         -5    1    6    6    0  503  0.10845769304E+03 -0.59494064105E+02  0.28310543707E+02  0.12698894333E+03  0.47000000000E+01 0.  1.
<mgrwt>
<rscale>  0 0.33656812E+03</rscale>
<asrwt>0</asrwt>
<pdfrwt beam="1">  1        1 0.32573557E-01 0.33656812E+03</pdfrwt>
<pdfrwt beam="2">  1       -1 0.10935517E+00 0.33656812E+03</pdfrwt>
<totfact> 0.11212431E+02</totfact>
</mgrwt>
</event>
<event>
12    1  0.3127365E-008  0.1112257E+04  0.7818608E-02  0.9193327E-01
          2   -1    0    0  501    0  0.00000000000E+00  0.00000000000E+00  0.91784641903E+03  0.91784641903E+03  0.00000000000E+00 0.  1.
         -2   -1    0    0    0  501 -0.00000000000E+00 -0.00000000000E+00 -0.20655439811E+04  0.20655439811E+04  0.00000000000E+00 0. -1.
         23    2    1    2    0    0  0.95018735131E+03 -0.40929477396E+03 -0.14180268595E+04  0.17577452266E+04  0.92140613722E+02 0.  0.
    5000000    2    1    2    0    0 -0.95018735131E+03  0.40929477396E+03  0.27032929743E+03  0.12256451736E+04  0.59895738401E+03 0.  0.
         23    2    4    4    0    0 -0.82185796160E+03  0.87001075156E+02  0.14892460429E+03  0.84473467915E+03  0.91533842287E+02 0.  0.
         23    2    4    4    0    0 -0.12832938972E+03  0.32229369880E+03  0.12140469314E+03  0.38091049441E+03  0.10006020531E+03 0.  0.
          1    1    3    3  502    0  0.52141551937E+03 -0.23711745333E+03 -0.70929379333E+03  0.91169979476E+03  0.00000000000E+00 0. -1.
         -1    1    3    3    0  502  0.42877183195E+03 -0.17217732062E+03 -0.70873306618E+03  0.84604543182E+03  0.00000000000E+00 0.  1.
         11    1    5    5    0    0 -0.62611981942E+03  0.10529653847E+03  0.11352354059E+03  0.64498138233E+03  0.00000000000E+00 0.  1.
        -11    1    5    5    0    0 -0.19573814218E+03 -0.18295463315E+02  0.35401063703E+02  0.19975329683E+03  0.00000000000E+00 0. -1.
          5    1    6    6  503    0 -0.19260743557E+02  0.16792340167E+03  0.81355232614E+02  0.18764330242E+03  0.47000000000E+01 0. -1.
         -5    1    6    6    0  503 -0.10906864616E+03  0.15437029713E+03  0.40049460524E+02  0.19326719199E+03  0.47000000000E+01 0.  1.
<mgrwt>
<rscale>  0 0.11122572E+04</rscale>
<asrwt>0</asrwt>
<pdfrwt beam="1">  1        2 0.14120714E+00 0.11122572E+04</pdfrwt>
<pdfrwt beam="2">  1       -2 0.31777599E+00 0.11122572E+04</pdfrwt>
<totfact> 0.69881721E-01</totfact>
</mgrwt>
</event>
<event>
12    1  0.3127365E-008  0.6320782E+03  0.7818608E-02  0.9841002E-01
         -2   -1    0    0    0  501 -0.00000000000E+00  0.00000000000E+00  0.62017995891E+03  0.62017995891E+03  0.00000000000E+00 0.  1.
          2   -1    0    0  501    0  0.00000000000E+00 -0.00000000000E+00 -0.12244026792E+04  0.12244026792E+04  0.00000000000E+00 0. -1.
         23    2    1    2    0    0 -0.32614228991E+03 -0.37772522009E+03 -0.88122504672E+03  0.10165081592E+04  0.87670517086E+02 0.  0.
    5000000    2    1    2    0    0  0.32614228991E+03  0.37772522009E+03  0.27700232641E+03  0.82807447894E+03  0.59994326288E+03 0.  0.
         23    2    4    4    0    0 -0.13238721876E+03  0.22252511652E+03  0.27090091596E+02  0.27594273469E+03  0.91469757796E+02 0.  0.
         23    2    4    4    0    0  0.45852950867E+03  0.15520010357E+03  0.24991223481E+03  0.55213174425E+03  0.89760544950E+02 0.  0.
          3    1    3    3  502    0 -0.10004506264E+03 -0.17943395653E+03 -0.33532604365E+03  0.39325451665E+03  0.00000000000E+00 0.  1.
         -3    1    3    3    0  502 -0.22609722727E+03 -0.19829126356E+03 -0.54589900307E+03  0.62325364254E+03  0.00000000000E+00 0. -1.
         11    1    5    5    0    0 -0.49704566319E+02  0.34830932652E+02  0.36150012513E+02  0.70643904104E+02  0.00000000000E+00 0.  1.
        -11    1    5    5    0    0 -0.82682652446E+02  0.18769418386E+03 -0.90599209173E+01  0.20529883058E+03  0.00000000000E+00 0. -1.
          5    1    6    6  503    0  0.35470283547E+03  0.15774957260E+03  0.19166657757E+03  0.43296327339E+03  0.47000000000E+01 0. -1.
         -5    1    6    6    0  503  0.10382667321E+03 -0.25494690252E+01  0.58245657236E+02  0.11916847087E+03  0.47000000000E+01 0.  1.
<mgrwt>
<rscale>  0 0.63207820E+03</rscale>
<asrwt>0</asrwt>
<pdfrwt beam="1">  1        2 0.18836964E+00 0.63207820E+03</pdfrwt>
<pdfrwt beam="2">  1       -2 0.95412302E-01 0.63207820E+03</pdfrwt>
<totfact> 0.17488406E+01</totfact>
</mgrwt>
</event>
<event>
12    1  0.3127365E-008  0.4817822E+03  0.7818608E-02  0.1018647E+00
         -2   -1    0    0    0  501 -0.00000000000E+00  0.00000000000E+00  0.44582429156E+03  0.44582429156E+03  0.00000000000E+00 0.  1.
          2   -1    0    0  501    0  0.00000000000E+00 -0.00000000000E+00 -0.23021713126E+04  0.23021713126E+04  0.00000000000E+00 0. -1.
         23    2    1    2    0    0 -0.27300752198E+03 -0.23618208055E+03  0.30170642633E+03  0.47918679939E+03  0.90984277696E+02 0.  0.
    5000000    2    1    2    0    0  0.27300752198E+03  0.23618208055E+03 -0.21580534473E+04  0.22688088048E+04  0.59998635711E+03 0.  0.
         23    2    4    4    0    0  0.25393829984E+03 -0.78124850277E+02 -0.15753167218E+04  0.16000668865E+04  0.89460131413E+02 0.  0.
         23    2    4    4    0    0  0.19069222139E+02  0.31430693083E+03 -0.58273672555E+03  0.66874191821E+03  0.92093321496E+02 0.  0.
          1    1    3    3  502    0 -0.78794904963E+02 -0.47341603790E+02  0.12727024887E+03  0.15699548002E+03  0.00000000000E+00 0. -1.
         -1    1    3    3    0  502 -0.19421261702E+03 -0.18884047676E+03  0.17443617745E+03  0.32219131937E+03  0.00000000000E+00 0.  1.
         11    1    5    5    0    0  0.11822273521E+03  0.97089249036E+01 -0.65013108441E+03  0.66086405959E+03  0.00000000000E+00 0.  1.
        -11    1    5    5    0    0  0.13571556464E+03 -0.87833775181E+02 -0.92518563738E+03  0.93920282695E+03  0.00000000000E+00 0. -1.
          5    1    6    6  503    0  0.32987452725E+02  0.94935461773E+02 -0.12125578558E+03  0.15756258908E+03  0.47000000000E+01 0. -1.
         -5    1    6    6    0  503 -0.13918230586E+02  0.21937146905E+03 -0.46148093997E+03  0.51117932913E+03  0.47000000000E+01 0.  1.
<mgrwt>
<rscale>  0 0.48178222E+03</rscale>
<asrwt>0</asrwt>
<pdfrwt beam="1">  1        2 0.35418021E+00 0.48178222E+03</pdfrwt>
<pdfrwt beam="2">  1       -2 0.68588351E-01 0.48178222E+03</pdfrwt>
<totfact> 0.96795443E+00</totfact>
</mgrwt>
</event>
<event>
12    1  0.3127365E-008  0.8340640E+03  0.7818608E-02  0.9511979E-01
          3   -1    0    0  501    0  0.00000000000E+00  0.00000000000E+00  0.19019756669E+03  0.19019756669E+03  0.00000000000E+00 0. -1.
         -3   -1    0    0    0  501 -0.00000000000E+00 -0.00000000000E+00 -0.40308070477E+04  0.40308070477E+04  0.00000000000E+00 0.  1.
         23    2    1    2    0    0 -0.73516167000E+03  0.11495483226E+03 -0.21746864405E+04  0.23003339533E+04  0.92724794859E+02 0.  0.
    5000000    2    1    2    0    0  0.73516167000E+03 -0.11495483226E+03 -0.16659230405E+04  0.19206706611E+04  0.59999909758E+03 0.  0.
         23    2    4    4    0    0  0.26105433250E+03 -0.30991348638E+03 -0.93490400415E+03  0.10230917281E+04  0.92062226705E+02 0.  0.
         23    2    4    4    0    0  0.47410733750E+03  0.19495865412E+03 -0.73101903636E+03  0.89757893302E+03  0.92045994972E+02 0.  0.
          4    1    3    3  502    0 -0.55073398075E+03  0.10846254461E+03 -0.15282613126E+04  0.16280831307E+04  0.00000000000E+00 0. -1.
         -4    1    3    3    0  502 -0.18442768925E+03  0.64922876561E+01 -0.64642512792E+03  0.67225082251E+03  0.00000000000E+00 0.  1.
         11    1    5    5    0    0  0.15262145186E+03 -0.17344040214E+03 -0.64129333434E+03  0.68163921639E+03  0.00000000000E+00 0. -1.
        -11    1    5    5    0    0  0.10843288065E+03 -0.13647308424E+03 -0.29361066982E+03  0.34145251172E+03  0.00000000000E+00 0.  1.
          5    1    6    6  503    0  0.28142030518E+01  0.84274446236E+01 -0.30183922881E+01  0.10494867970E+02  0.47000000000E+01 0. -1.
         -5    1    6    6    0  503  0.47129313445E+03  0.18653120949E+03 -0.72800064407E+03  0.88708406505E+03  0.47000000000E+01 0.  1.
<mgrwt>
<rscale>  0 0.83406401E+03</rscale>
<asrwt>0</asrwt>
<pdfrwt beam="1">  1        3 0.29261164E-01 0.83406401E+03</pdfrwt>
<pdfrwt beam="2">  1       -3 0.62012417E+00 0.83406401E+03</pdfrwt>
<totfact> 0.22221343E-02</totfact>
</mgrwt>
</event>
<event>
12    1  0.3127365E-008  0.7116080E+03  0.7818608E-02  0.9697584E-01
          2   -1    0    0  501    0  0.00000000000E+00  0.00000000000E+00  0.10290955312E+04  0.10290955312E+04  0.00000000000E+00 0. -1.
         -2   -1    0    0    0  501 -0.00000000000E+00 -0.00000000000E+00 -0.62548284328E+03  0.62548284328E+03  0.00000000000E+00 0.  1.
         23    2    1    2    0    0  0.13253251304E+03 -0.67276911289E+03  0.13657221857E+03  0.70511551455E+03  0.91393499188E+02 0.  0.
    5000000    2    1    2    0    0 -0.13253251304E+03  0.67276911289E+03  0.26704046937E+03  0.94946285996E+03  0.59998830312E+03 0.  0.
         23    2    4    4    0    0 -0.82493608014E+02  0.60380693707E+03  0.42458570121E+03  0.74810874999E+03  0.89474418347E+02 0.  0.
         23    2    4    4    0    0 -0.50038905023E+02  0.68962175829E+02 -0.15754523183E+03  0.20135410996E+03  0.91996216310E+02 0.  0.
          3    1    3    3  502    0  0.34278420549E+02 -0.23753414949E+03  0.54359376059E+01  0.24005630945E+03  0.00000000000E+00 0. -1.
         -3    1    3    3    0  502  0.98254092488E+02 -0.43523496341E+03  0.13113628097E+03  0.46505920510E+03  0.00000000000E+00 0.  1.
         11    1    5    5    0    0  0.11184842671E+02  0.17013109443E+03  0.92992207658E+02  0.19420927033E+03  0.00000000000E+00 0.  1.
        -11    1    5    5    0    0 -0.93678450685E+02  0.43367584264E+03  0.33159349355E+03  0.55389947967E+03  0.00000000000E+00 0. -1.
          5    1    6    6  503    0 -0.75242528059E+02  0.57288359980E+02 -0.10264212273E+03  0.13964558560E+03  0.47000000000E+01 0. -1.
         -5    1    6    6    0  503  0.25203623036E+02  0.11673815849E+02 -0.54903109102E+02  0.61708524368E+02  0.47000000000E+01 0.  1.
<mgrwt>
<rscale>  0 0.71160795E+03</rscale>
<asrwt>0</asrwt>
<pdfrwt beam="1">  1        2 0.15832239E+00 0.71160795E+03</pdfrwt>
<pdfrwt beam="2">  1       -2 0.96228130E-01 0.71160795E+03</pdfrwt>
<totfact> 0.22281106E+01</totfact>
</mgrwt>
</event>
<event>
12    1  0.3127365E-008  0.4155732E+03  0.7818608E-02  0.1038517E+00
         -2   -1    0    0    0  501 -0.00000000000E+00  0.00000000000E+00  0.11873516777E+03  0.11873516777E+03  0.00000000000E+00 0.  1.
          2   -1    0    0  501    0  0.00000000000E+00 -0.00000000000E+00 -0.16932051434E+04  0.16932051434E+04  0.00000000000E+00 0. -1.
         23    2    1    2    0    0  0.14414722109E+03 -0.18434846775E+03 -0.50045419837E+03  0.55966045472E+03  0.89457481504E+02 0.  0.
    5000000    2    1    2    0    0 -0.14414722109E+03  0.18434846775E+03 -0.10740157773E+04  0.12522798565E+04  0.59994347249E+03 0.  0.
         23    2    4    4    0    0  0.84341158837E+02  0.29995089357E+03 -0.34275630097E+03  0.47218279840E+03  0.91601002266E+02 0.  0.
         23    2    4    4    0    0 -0.22848837992E+03 -0.11560242582E+03 -0.73125947632E+03  0.78009705810E+03  0.90775204320E+02 0.  0.
          3    1    3    3  502    0  0.10424545792E+03 -0.67993935237E+02 -0.20803092887E+03  0.24241938473E+03  0.00000000000E+00 0. -1.
         -3    1    3    3    0  502  0.39901763164E+02 -0.11635453251E+03 -0.29242326951E+03  0.31724106999E+03  0.00000000000E+00 0.  1.
         13    1    5    5    0    0  0.78876572265E+02  0.11339341643E+03 -0.14489092316E+03  0.20018231729E+03  0.00000000000E+00 0. -1.
        -13    1    5    5    0    0  0.54645865716E+01  0.18655747714E+03 -0.19786537781E+03  0.27200048111E+03  0.00000000000E+00 0.  1.
          5    1    6    6  503    0 -0.18851313935E+03 -0.10990441801E+03 -0.68284407586E+03  0.71687816730E+03  0.47000000000E+01 0. -1.
         -5    1    6    6    0  503 -0.39975240575E+02 -0.56980078081E+01 -0.48415400462E+02  0.63218890799E+02  0.47000000000E+01 0.  1.
<mgrwt>
<rscale>  0 0.41557320E+03</rscale>
<asrwt>0</asrwt>
<pdfrwt beam="1">  1        2 0.26049308E+00 0.41557320E+03</pdfrwt>
<pdfrwt beam="2">  1       -2 0.18266950E-01 0.41557320E+03</pdfrwt>
<totfact> 0.25999171E+02</totfact>
</mgrwt>
</event>
<event>
12    1  0.3127365E-008  0.5382059E+03  0.7818608E-02  0.1004261E+00
         -1   -1    0    0    0  501 -0.00000000000E+00  0.00000000000E+00  0.23781090357E+04  0.23781090357E+04  0.00000000000E+00 0.  1.
          1   -1    0    0  501    0  0.00000000000E+00 -0.00000000000E+00 -0.16476288233E+03  0.16476288233E+03  0.00000000000E+00 0. -1.
         23    2    1    2    0    0  0.28735832130E+03 -0.30444013026E+03  0.39427479986E+03  0.58222497483E+03  0.90965409798E+02 0.  0.
    5000000    2    1    2    0    0 -0.28735832130E+03  0.30444013026E+03  0.18190713536E+04  0.19606469432E+04  0.59988102901E+03 0.  0.
         23    2    4    4    0    0  0.69321668569E+02  0.26609211071E+03  0.12417702614E+04  0.12749229008E+04  0.88456294222E+02 0.  0.
         23    2    4    4    0    0 -0.35667998986E+03  0.38348019549E+02  0.57730109220E+03  0.68572404239E+03  0.90827999472E+02 0.  0.
          3    1    3    3  502    0  0.57797217438E+02 -0.39140925697E+02  0.28497318816E+02  0.75396469331E+02  0.00000000000E+00 0. -1.
         -3    1    3    3    0  502  0.22956110386E+03 -0.26529920457E+03  0.36577748104E+03  0.50682850550E+03  0.00000000000E+00 0.  1.
         13    1    5    5    0    0 -0.35042029939E+01  0.14057484436E+03  0.70472878361E+03  0.71862105783E+03  0.00000000000E+00 0. -1.
        -13    1    5    5    0    0  0.72825871563E+02  0.12551726635E+03  0.53704147775E+03  0.55630184302E+03  0.00000000000E+00 0.  1.
          5    1    6    6  503    0 -0.13982842748E+03 -0.29091831735E+02  0.22044530265E+03  0.26271000222E+03  0.47000000000E+01 0. -1.
         -5    1    6    6    0  503 -0.21685156238E+03  0.67439851284E+02  0.35685578955E+03  0.42301404017E+03  0.47000000000E+01 0.  1.
<mgrwt>
<rscale>  0 0.53820589E+03</rscale>
<asrwt>0</asrwt>
<pdfrwt beam="1">  1        1 0.25348137E-01 0.53820589E+03</pdfrwt>
<pdfrwt beam="2">  1       -1 0.36586290E+00 0.53820589E+03</pdfrwt>
<totfact> 0.25688440E+00</totfact>
</mgrwt>
</event>
<event>
12    1  0.3127365E-008  0.5888102E+03  0.7818608E-02  0.9928897E-01
          2   -1    0    0  501    0  0.00000000000E+00  0.00000000000E+00  0.11398039727E+04  0.11398039727E+04  0.00000000000E+00 0. -1.
         -2   -1    0    0    0  501 -0.00000000000E+00 -0.00000000000E+00 -0.41960159576E+03  0.41960159576E+03  0.00000000000E+00 0.  1.
         23    2    1    2    0    0  0.43521183355E+03 -0.34598323863E+03  0.25707665740E+03  0.61947107941E+03  0.92424396009E+02 0.  0.
    5000000    2    1    2    0    0 -0.43521183355E+03  0.34598323863E+03  0.46312571956E+03  0.93993448906E+03  0.59989804979E+03 0.  0.
         23    2    4    4    0    0 -0.13946174190E+03  0.25953620111E+03 -0.71477286094E+02  0.31615001718E+03  0.89628197550E+02 0.  0.
         23    2    4    4    0    0 -0.29575009165E+03  0.86447037517E+02  0.53460300565E+03  0.62378447188E+03  0.91463034605E+02 0.  0.
          3    1    3    3  502    0  0.28840643265E+03 -0.28229980073E+03  0.18600153414E+03  0.44437373751E+03  0.00000000000E+00 0. -1.
         -3    1    3    3    0  502  0.14680540090E+03 -0.63683437899E+02  0.71075123252E+02  0.17509734190E+03  0.00000000000E+00 0.  1.
         11    1    5    5    0    0 -0.98925426213E+02  0.10275325868E+03 -0.56871967598E+02  0.15355420157E+03  0.00000000000E+00 0.  1.
        -11    1    5    5    0    0 -0.40536315686E+02  0.15678294243E+03 -0.14605318496E+02  0.16259581561E+03  0.00000000000E+00 0. -1.
          5    1    6    6  503    0 -0.41238197251E+02  0.31942714118E+01  0.14607724730E+03  0.15189287166E+03  0.47000000000E+01 0. -1.
         -5    1    6    6    0  503 -0.25451189440E+03  0.83252766105E+02  0.38852575835E+03  0.47189160022E+03  0.47000000000E+01 0.  1.
<mgrwt>
<rscale>  0 0.58881022E+03</rscale>
<asrwt>0</asrwt>
<pdfrwt beam="1">  1        2 0.17535446E+00 0.58881022E+03</pdfrwt>
<pdfrwt beam="2">  1       -2 0.64554092E-01 0.58881022E+03</pdfrwt>
<totfact> 0.47209347E+01</totfact>
</mgrwt>
</event>
<event>
12    1  0.3127365E-008  0.5357970E+03  0.7818608E-02  0.1004836E+00
          1   -1    0    0  501    0  0.00000000000E+00  0.00000000000E+00  0.40031367971E+03  0.40031367971E+03  0.00000000000E+00 0. -1.
         -1   -1    0    0    0  501 -0.00000000000E+00 -0.00000000000E+00 -0.80810805049E+03  0.80810805049E+03  0.00000000000E+00 0.  1.
         23    2    1    2    0    0 -0.18252916400E+03 -0.32142631717E+03  0.25760132303E+02  0.38102291487E+03  0.88786846754E+02 0.  0.
    5000000    2    1    2    0    0  0.18252916400E+03  0.32142631717E+03 -0.43355450308E+03  0.82739881533E+03  0.59998959940E+03 0.  0.
         23    2    4    4    0    0  0.17484582949E+03  0.47921333517E+03 -0.35582978728E+03  0.62867705932E+03  0.91670729845E+02 0.  0.
         23    2    4    4    0    0  0.76833345131E+01 -0.15778701800E+03 -0.77724715802E+02  0.19872175601E+03  0.92159797027E+02 0.  0.
          1    1    3    3  502    0 -0.38168263164E+02 -0.11125598803E+03  0.43561337232E+02  0.12542847080E+03  0.00000000000E+00 0. -1.
         -1    1    3    3    0  502 -0.14436090084E+03 -0.21017032914E+03 -0.17801204929E+02  0.25559444407E+03  0.00000000000E+00 0.  1.
         13    1    5    5    0    0  0.15907171875E+03  0.31538041791E+03 -0.23015663227E+03  0.42159304440E+03  0.00000000000E+00 0. -1.
        -13    1    5    5    0    0  0.15774110737E+02  0.16383291726E+03 -0.12567315500E+03  0.20708401493E+03  0.00000000000E+00 0.  1.
          5    1    6    6  503    0  0.47065047075E+02 -0.66049725827E+02 -0.21446234675E+02  0.84022115658E+02  0.47000000000E+01 0. -1.
         -5    1    6    6    0  503 -0.39381712562E+02 -0.91737292170E+02 -0.56278481128E+02  0.11469964035E+03  0.47000000000E+01 0.  1.
<mgrwt>
<rscale>  0 0.53579705E+03</rscale>
<asrwt>0</asrwt>
<pdfrwt beam="1">  1        1 0.61586720E-01 0.53579705E+03</pdfrwt>
<pdfrwt beam="2">  1       -1 0.12432432E+00 0.53579705E+03</pdfrwt>
<totfact> 0.35565851E+01</totfact>
</mgrwt>
</event>
<event>
12    1  0.3127365E-008  0.1062354E+04  0.7818608E-02  0.9242681E-01
         -2   -1    0    0    0  501 -0.00000000000E+00  0.00000000000E+00  0.11483536524E+04  0.11483536524E+04  0.00000000000E+00 0.  1.
          2   -1    0    0  501    0  0.00000000000E+00 -0.00000000000E+00 -0.10968610395E+04  0.10968610395E+04  0.00000000000E+00 0. -1.
         23    2    1    2    0    0  0.52008438511E+03 -0.82941589840E+03  0.37501880270E+03  0.10523692046E+04  0.91778756855E+02 0.  0.
    5000000    2    1    2    0    0 -0.52008438511E+03  0.82941589840E+03 -0.32352618984E+03  0.11928454874E+04  0.59982719264E+03 0.  0.
         23    2    4    4    0    0 -0.61991929284E+03  0.77716971228E+03 -0.30906495025E+03  0.10448452923E+04  0.88813568674E+02 0.  0.
         23    2    4    4    0    0  0.99834907731E+02  0.52246186124E+02 -0.14461239591E+02  0.14800019509E+03  0.94859145734E+02 0.  0.
          1    1    3    3  502    0  0.69470743695E+02 -0.17546396402E+03  0.83849893170E+02  0.20650566937E+03  0.00000000000E+00 0. -1.
         -1    1    3    3    0  502  0.45061364142E+03 -0.65395193438E+03  0.29116890953E+03  0.84586353521E+03  0.00000000000E+00 0.  1.
         11    1    5    5    0    0 -0.56695820278E+03  0.69320319492E+03 -0.25187122922E+03  0.93027489983E+03  0.00000000000E+00 0.  1.
        -11    1    5    5    0    0 -0.52961090069E+02  0.83966517362E+02 -0.57193721035E+02  0.11457039245E+03  0.00000000000E+00 0. -1.
          5    1    6    6  503    0  0.16449264111E+02  0.60709876497E+02 -0.10657804361E+02  0.63968321753E+02  0.47000000000E+01 0. -1.
         -5    1    6    6    0  503  0.83385643620E+02 -0.84636903730E+01 -0.38034352298E+01  0.84031873335E+02  0.47000000000E+01 0.  1.
<mgrwt>
<rscale>  0 0.10623543E+04</rscale>
<asrwt>0</asrwt>
<pdfrwt beam="1">  1        2 0.16874785E+00 0.10623543E+04</pdfrwt>
<pdfrwt beam="2">  1       -2 0.17666979E+00 0.10623543E+04</pdfrwt>
<totfact> 0.41219599E+00</totfact>
</mgrwt>
</event>
<event>
12    1  0.3127365E-008  0.5304815E+03  0.7818608E-02  0.1006115E+00
          1   -1    0    0  501    0  0.00000000000E+00  0.00000000000E+00  0.15527595474E+04  0.15527595474E+04  0.00000000000E+00 0. -1.
         -1   -1    0    0    0  501 -0.00000000000E+00 -0.00000000000E+00 -0.27639521169E+03  0.27639521169E+03  0.00000000000E+00 0.  1.
         23    2    1    2    0    0 -0.41453592414E+03 -0.18576430257E+02  0.92832169773E+03  0.10208552449E+04  0.90438600397E+02 0.  0.
    5000000    2    1    2    0    0  0.41453592414E+03  0.18576430257E+02  0.34804263794E+03  0.80829951413E+03  0.60002442497E+03 0.  0.
         23    2    4    4    0    0  0.42173569247E+03 -0.15002917086E+03  0.40258400586E+03  0.60902211843E+03  0.92001698579E+02 0.  0.
         23    2    4    4    0    0 -0.71997683372E+01  0.16860560111E+03 -0.54541367923E+02  0.19927739571E+03  0.90868224559E+02 0.  0.
          1    1    3    3  502    0 -0.24898193378E+03 -0.46593193447E+02  0.49283950675E+03  0.55412427166E+03  0.00000000000E+00 0. -1.
         -1    1    3    3    0  502 -0.16555399035E+03  0.28016763191E+02  0.43548219098E+03  0.46673097326E+03  0.00000000000E+00 0.  1.
         11    1    5    5    0    0  0.21249283678E+03 -0.54445931422E+02  0.14142605987E+03  0.26099596844E+03  0.00000000000E+00 0.  1.
        -11    1    5    5    0    0  0.20924285570E+03 -0.95583239434E+02  0.26115794599E+03  0.34802614999E+03  0.00000000000E+00 0. -1.
          5    1    6    6  503    0 -0.99462183497E+01  0.17861813991E+03 -0.45290401637E+02  0.18459869351E+03  0.47000000000E+01 0. -1.
         -5    1    6    6    0  503  0.27464500125E+01 -0.10012538802E+02 -0.92509662857E+01  0.14678702196E+02  0.47000000000E+01 0.  1.
<mgrwt>
<rscale>  0 0.53048152E+03</rscale>
<asrwt>0</asrwt>
<pdfrwt beam="1">  1        1 0.23888608E+00 0.53048152E+03</pdfrwt>
<pdfrwt beam="2">  1       -1 0.42522341E-01 0.53048152E+03</pdfrwt>
<totfact> 0.34835510E+01</totfact>
</mgrwt>
</event>
<event>
12    1  0.3127365E-008  0.5522014E+03  0.7818608E-02  0.1000986E+00
         -1   -1    0    0    0  501 -0.00000000000E+00  0.00000000000E+00  0.51170653369E+03  0.51170653369E+03  0.00000000000E+00 0.  1.
          1   -1    0    0  501    0  0.00000000000E+00 -0.00000000000E+00 -0.93458821249E+03  0.93458821249E+03  0.00000000000E+00 0. -1.
         23    2    1    2    0    0  0.19527673401E+03  0.46018711596E+03  0.83102439368E+02  0.51499749759E+03  0.91712717521E+02 0.  0.
    5000000    2    1    2    0    0 -0.19527673401E+03 -0.46018711596E+03 -0.50598411817E+03  0.93129724860E+03  0.60115676231E+03 0.  0.
         23    2    4    4    0    0 -0.18775691262E+03 -0.71258464326E+02  0.69428984497E+02  0.23079419582E+03  0.90084127127E+02 0.  0.
         23    2    4    4    0    0 -0.75198213861E+01 -0.38892865163E+03 -0.57541310267E+03  0.70050305278E+03  0.91006837425E+02 0.  0.
          4    1    3    3  502    0  0.13388049753E+03  0.32389770271E+03  0.15168332529E+02  0.35080448650E+03  0.00000000000E+00 0. -1.
         -4    1    3    3    0  502  0.61396236480E+02  0.13628941325E+03  0.67934106839E+02  0.16419301109E+03  0.00000000000E+00 0.  1.
         11    1    5    5    0    0 -0.17754400238E+03 -0.76744208621E+02  0.37762646816E+02  0.19707248370E+03  0.00000000000E+00 0.  1.
        -11    1    5    5    0    0 -0.10212910243E+02  0.54857442944E+01  0.31666337681E+02  0.33721712119E+02  0.00000000000E+00 0. -1.
          5    1    6    6  503    0  0.19126231394E+02 -0.35716215244E+03 -0.51113716599E+03  0.62387010533E+03  0.47000000000E+01 0. -1.
         -5    1    6    6    0  503 -0.26646052780E+02 -0.31766499192E+02 -0.64275936677E+02  0.76632947453E+02  0.47000000000E+01 0.  1.
<mgrwt>
<rscale>  0 0.55220137E+03</rscale>
<asrwt>0</asrwt>
<pdfrwt beam="1">  1        1 0.14378280E+00 0.55220137E+03</pdfrwt>
<pdfrwt beam="2">  1       -1 0.78724082E-01 0.55220137E+03</pdfrwt>
<totfact> 0.28997625E+01</totfact>
</mgrwt>
</event>
<event>
12    1  0.3127365E-008  0.5472296E+03  0.7818608E-02  0.1002137E+00
         -1   -1    0    0    0  501 -0.00000000000E+00  0.00000000000E+00  0.12978373041E+04  0.12978373041E+04  0.00000000000E+00 0.  1.
          1   -1    0    0  501    0  0.00000000000E+00 -0.00000000000E+00 -0.53769548427E+03  0.53769548427E+03  0.00000000000E+00 0. -1.
         23    2    1    2    0    0  0.16275851684E+03  0.34242713556E+03 -0.34526813872E+03  0.52184162484E+03  0.96756993665E+02 0.  0.
    5000000    2    1    2    0    0 -0.16275851684E+03 -0.34242713556E+03  0.11054099585E+04  0.13136911635E+04  0.60008884234E+03 0.  0.
         23    2    4    4    0    0  0.19819378747E+03 -0.24334137700E+03  0.51312681311E+03  0.60710065056E+03  0.82318105071E+02 0.  0.
         23    2    4    4    0    0 -0.36095230431E+03 -0.99085758559E+02  0.59228314542E+03  0.70659051296E+03  0.91467344547E+02 0.  0.
          3    1    3    3  502    0  0.12998750334E+03  0.16098586185E+03 -0.18296542342E+03  0.27620562070E+03  0.00000000000E+00 0. -1.
         -3    1    3    3    0  502  0.32771013496E+02  0.18144127372E+03 -0.16230271530E+03  0.24563600413E+03  0.00000000000E+00 0.  1.
         11    1    5    5    0    0  0.97114055016E+02 -0.15851667541E+03  0.35842304705E+03  0.40376448175E+03  0.00000000000E+00 0. -1.
        -11    1    5    5    0    0  0.10107973245E+03 -0.84824701597E+02  0.15470376606E+03  0.20333616881E+03  0.00000000000E+00 0.  1.
          5    1    6    6  503    0 -0.20729423450E+03 -0.10302626379E+03  0.35782546598E+03  0.42620002908E+03  0.47000000000E+01 0. -1.
         -5    1    6    6    0  503 -0.15365806981E+03  0.39405052291E+01  0.23445767944E+03  0.28039048387E+03  0.47000000000E+01 0.  1.
<mgrwt>
<rscale>  0 0.54722956E+03</rscale>
<asrwt>0</asrwt>
<pdfrwt beam="1">  1        1 0.82722382E-01 0.54722956E+03</pdfrwt>
<pdfrwt beam="2">  1       -1 0.19966728E+00 0.54722956E+03</pdfrwt>
<totfact> 0.64786541E+00</totfact>
</mgrwt>
</event>
<event>
12    1  0.3127365E-008  0.2220088E+04  0.7818608E-02  0.8510113E-01
          3   -1    0    0  501    0  0.00000000000E+00  0.00000000000E+00  0.11947336801E+04  0.11947336801E+04  0.00000000000E+00 0. -1.
         -3   -1    0    0    0  501 -0.00000000000E+00 -0.00000000000E+00 -0.45856512625E+04  0.45856512625E+04  0.00000000000E+00 0.  1.
         23    2    1    2    0    0 -0.19192146302E+04  0.10573335854E+04 -0.80024122706E+03  0.23347014827E+04  0.95424754832E+02 0.  0.
    5000000    2    1    2    0    0  0.19192146302E+04 -0.10573335854E+04 -0.25906763553E+04  0.34456834599E+04  0.59982615853E+03 0.  0.
         23    2    4    4    0    0  0.18507815711E+04 -0.91470650858E+03 -0.22243115368E+04  0.30363650557E+04  0.99350477935E+02 0.  0.
         23    2    4    4    0    0  0.68433059097E+02 -0.14262707687E+03 -0.36636481842E+03  0.40931840426E+03  0.91064862877E+02 0.  0.
          2    1    3    3  502    0 -0.81916515812E+03  0.50535487195E+03 -0.35176949737E+03  0.10247716244E+04  0.00000000000E+00 0. -1.
         -2    1    3    3    0  502 -0.11000494721E+04  0.55197871350E+03 -0.44847172969E+03  0.13099298583E+04  0.00000000000E+00 0.  1.
         13    1    5    5    0    0  0.11117602680E+03 -0.42006498895E+02 -0.15920379042E+03  0.19867184443E+03  0.00000000000E+00 0.  1.
        -13    1    5    5    0    0  0.17396055443E+04 -0.87270000968E+03 -0.20651077464E+04  0.28376932112E+04  0.00000000000E+00 0. -1.
          5    1    6    6  503    0 -0.18793056688E+02 -0.72028111822E+01 -0.31211141144E+02  0.37433738794E+02  0.47000000000E+01 0. -1.
         -5    1    6    6    0  503  0.87226115785E+02 -0.13542426569E+03 -0.33515367728E+03  0.37188466546E+03  0.47000000000E+01 0.  1.
<mgrwt>
<rscale>  0 0.22200877E+04</rscale>
<asrwt>0</asrwt>
<pdfrwt beam="1">  1        3 0.18380518E+00 0.22200877E+04</pdfrwt>
<pdfrwt beam="2">  1       -3 0.70548481E+00 0.22200877E+04</pdfrwt>
<totfact> 0.91456358E-05</totfact>
</mgrwt>
</event>
<event>
12    1  0.3127365E-008  0.7304225E+03  0.7818608E-02  0.9666575E-01
          2   -1    0    0  501    0  0.00000000000E+00  0.00000000000E+00  0.28338125256E+04  0.28338125256E+04  0.00000000000E+00 0. -1.
         -2   -1    0    0    0  501 -0.00000000000E+00 -0.00000000000E+00 -0.29856990617E+03  0.29856990617E+03  0.00000000000E+00 0.  1.
         23    2    1    2    0    0 -0.11507865135E+03 -0.62287839725E+03  0.20201162905E+04  0.21190872490E+04  0.91871366719E+02 0.  0.
    5000000    2    1    2    0    0  0.11507865135E+03  0.62287839725E+03  0.51512632889E+03  0.10132951827E+04  0.60015947784E+03 0.  0.
         23    2    4    4    0    0  0.44995388127E+00  0.68584008243E+03  0.32559371446E+03  0.76473448572E+03  0.91819091776E+02 0.  0.
         23    2    4    4    0    0  0.11462869747E+03 -0.62961685189E+02  0.18953261443E+03  0.24856069700E+03  0.93572945206E+02 0.  0.
          1    1    3    3  502    0 -0.59815887958E+02 -0.14532693161E+03  0.42619964072E+03  0.45425102229E+03  0.00000000000E+00 0. -1.
         -1    1    3    3    0  502 -0.55262763396E+02 -0.47755146564E+03  0.15939166498E+04  0.16648362267E+04  0.00000000000E+00 0.  1.
         13    1    5    5    0    0  0.92582405345E+01  0.20065738850E+03  0.14158886722E+03  0.24575701394E+03  0.00000000000E+00 0.  1.
        -13    1    5    5    0    0 -0.88082866532E+01  0.48518269394E+03  0.18400484724E+03  0.51897747178E+03  0.00000000000E+00 0. -1.
          5    1    6    6  503    0  0.70047310183E+02 -0.16220978574E+02  0.33181909961E+02  0.79327643092E+02  0.47000000000E+01 0. -1.
         -5    1    6    6    0  503  0.44581387289E+02 -0.46740706615E+02  0.15635070447E+03  0.16923305391E+03  0.47000000000E+01 0.  1.
<mgrwt>
<rscale>  0 0.73042254E+03</rscale>
<asrwt>0</asrwt>
<pdfrwt beam="1">  1        2 0.43597114E+00 0.73042254E+03</pdfrwt>
<pdfrwt beam="2">  1       -2 0.45933834E-01 0.73042254E+03</pdfrwt>
<totfact> 0.10522953E+01</totfact>
</mgrwt>
</event>
<event>
12    1  0.3127365E-008  0.4860291E+03  0.7818608E-02  0.1017491E+00
         -2   -1    0    0    0  501 -0.00000000000E+00  0.00000000000E+00  0.13152259169E+04  0.13152259169E+04  0.00000000000E+00 0.  1.
          2   -1    0    0  501    0  0.00000000000E+00 -0.00000000000E+00 -0.26806295954E+03  0.26806295954E+03  0.00000000000E+00 0. -1.
         23    2    1    2    0    0 -0.84388077397E+02  0.33814289577E+03  0.74299326028E+03  0.82566079692E+03  0.90635540356E+02 0.  0.
    5000000    2    1    2    0    0  0.84388077397E+02 -0.33814289577E+03  0.30416969711E+03  0.75762807955E+03  0.60001594705E+03 0.  0.
         23    2    4    4    0    0 -0.19559225042E+03 -0.44333001797E+02  0.25729042270E+03  0.33887357822E+03  0.91734382472E+02 0.  0.
         23    2    4    4    0    0  0.27998032782E+03 -0.29380989397E+03  0.46879274411E+02  0.41875450133E+03  0.91893570271E+02 0.  0.
          1    1    3    3  502    0  0.22558359925E+00  0.96719769374E+02  0.13529657709E+03  0.16631274289E+03  0.00000000000E+00 0. -1.
         -1    1    3    3    0  502 -0.84613660996E+02  0.24142312639E+03  0.60769668319E+03  0.65934805403E+03  0.00000000000E+00 0.  1.
         13    1    5    5    0    0 -0.89045979927E+02 -0.40415273740E+02  0.18742994034E+03  0.21140615750E+03  0.00000000000E+00 0. -1.
        -13    1    5    5    0    0 -0.10654627049E+03 -0.39177280566E+01  0.69860482364E+02  0.12746742072E+03  0.00000000000E+00 0.  1.
          5    1    6    6  503    0  0.50626857312E+02 -0.10989330932E+03  0.44756905911E+00  0.12108636766E+03  0.47000000000E+01 0. -1.
         -5    1    6    6    0  503  0.22935347050E+03 -0.18391658465E+03  0.46431705351E+02  0.29766813367E+03  0.47000000000E+01 0.  1.
<mgrwt>
<rscale>  0 0.48602911E+03</rscale>
<asrwt>0</asrwt>
<pdfrwt beam="1">  1        2 0.41240456E-01 0.48602911E+03</pdfrwt>
<pdfrwt beam="2">  1       -2 0.20234244E+00 0.48602911E+03</pdfrwt>
<totfact> 0.16726733E+01</totfact>
</mgrwt>
</event>
<event>
12    1  0.3127365E-008  0.6525336E+03  0.7818608E-02  0.9802037E-01
          1   -1    0    0  501    0  0.00000000000E+00  0.00000000000E+00  0.14723338525E+04  0.14723338525E+04  0.00000000000E+00 0. -1.
         -1   -1    0    0    0  501 -0.00000000000E+00 -0.00000000000E+00 -0.53088407351E+03  0.53088407351E+03  0.00000000000E+00 0.  1.
         23    2    1    2    0    0  0.55107296601E+02 -0.57180342557E+03 -0.17939855829E+03  0.60813397133E+03  0.87447771480E+02 0.  0.
    5000000    2    1    2    0    0 -0.55107296601E+02  0.57180342557E+03  0.11208483373E+04  0.13950839547E+04  0.59996856068E+03 0.  0.
         23    2    4    4    0    0  0.16418778257E+03  0.40934959292E+03  0.97193334701E+03  0.10716128093E+04  0.95785515343E+02 0.  0.
         23    2    4    4    0    0 -0.21929507917E+03  0.16245383265E+03  0.14891499025E+03  0.32347114532E+03  0.89310290822E+02 0.  0.
          3    1    3    3  502    0 -0.12811745999E+02 -0.25396151971E+03 -0.10234237609E+03  0.27410683369E+03  0.00000000000E+00 0. -1.
         -3    1    3    3    0  502  0.67919042599E+02 -0.31784190586E+03 -0.77056182202E+02  0.33402713764E+03  0.00000000000E+00 0.  1.
         11    1    5    5    0    0  0.10861884217E+03  0.19900224668E+03  0.58999304676E+03  0.63205359130E+03  0.00000000000E+00 0. -1.
        -11    1    5    5    0    0  0.55568940397E+02  0.21034734623E+03  0.38194030025E+03  0.43955921804E+03  0.00000000000E+00 0.  1.
          5    1    6    6  503    0 -0.47595051686E+02  0.74452616662E+02  0.18109183004E+02  0.90324490488E+02  0.47000000000E+01 0. -1.
         -5    1    6    6    0  503 -0.17170002748E+03  0.88001215990E+02  0.13080580724E+03  0.23314665484E+03  0.47000000000E+01 0.  1.
<mgrwt>
<rscale>  0 0.65253357E+03</rscale>
<asrwt>0</asrwt>
<pdfrwt beam="1">  1        1 0.22651290E+00 0.65253357E+03</pdfrwt>
<pdfrwt beam="2">  1       -1 0.81674474E-01 0.65253357E+03</pdfrwt>
<totfact> 0.10754260E+01</totfact>
</mgrwt>
</event>
<event>
12    1  0.3127365E-008  0.7292928E+03  0.7818608E-02  0.9668409E-01
          1   -1    0    0  501    0  0.00000000000E+00  0.00000000000E+00  0.14209805502E+04  0.14209805502E+04  0.00000000000E+00 0. -1.
         -1   -1    0    0    0  501 -0.00000000000E+00 -0.00000000000E+00 -0.65788076591E+03  0.65788076591E+03  0.00000000000E+00 0.  1.
         23    2    1    2    0    0  0.38512344030E+03  0.60509655008E+03  0.87709463682E+03  0.11367909389E+04  0.92394467126E+02 0.  0.
    5000000    2    1    2    0    0 -0.38512344030E+03 -0.60509655008E+03 -0.11399485255E+03  0.94207037723E+03  0.60003322414E+03 0.  0.
         23    2    4    4    0    0 -0.12190061177E+03 -0.11929372432E+03 -0.29496082601E+03  0.35295070636E+03  0.92095387625E+02 0.  0.
         23    2    4    4    0    0 -0.26322282853E+03 -0.48580282575E+03  0.18096597346E+03  0.58911967088E+03  0.94987683903E+02 0.  0.
          1    1    3    3  502    0  0.11041241695E+03  0.22853162294E+03  0.25883938910E+03  0.36251266715E+03  0.00000000000E+00 0. -1.
         -1    1    3    3    0  502  0.27471102336E+03  0.37656492714E+03  0.61825524772E+03  0.77427827171E+03  0.00000000000E+00 0.  1.
         11    1    5    5    0    0 -0.24148558867E+02 -0.70781808663E+02 -0.17754149242E+03  0.19265045773E+03  0.00000000000E+00 0. -1.
        -11    1    5    5    0    0 -0.97752052905E+02 -0.48511915661E+02 -0.11741933359E+03  0.16030024863E+03  0.00000000000E+00 0.  1.
          5    1    6    6  503    0 -0.55768707274E+02 -0.14882341572E+03  0.91284746438E+02  0.18333999211E+03  0.47000000000E+01 0. -1.
         -5    1    6    6    0  503 -0.20745412126E+03 -0.33697941004E+03  0.89681227024E+02  0.40577967876E+03  0.47000000000E+01 0.  1.
<mgrwt>
<rscale>  0 0.72929276E+03</rscale>
<asrwt>0</asrwt>
<pdfrwt beam="1">  1        1 0.21861239E+00 0.72929276E+03</pdfrwt>
<pdfrwt beam="2">  1       -1 0.10121243E+00 0.72929276E+03</pdfrwt>
<totfact> 0.71771429E+00</totfact>
</mgrwt>
</event>
<event>
12    1  0.3127365E-008  0.1646973E+04  0.7818608E-02  0.8792199E-01
          2   -1    0    0  501    0  0.00000000000E+00  0.00000000000E+00  0.22201755219E+04  0.22201755219E+04  0.00000000000E+00 0. -1.
         -2   -1    0    0    0  501 -0.00000000000E+00 -0.00000000000E+00 -0.12402203921E+04  0.12402203921E+04  0.00000000000E+00 0.  1.
         23    2    1    2    0    0  0.12745928111E+04 -0.96645222233E+03  0.59521826061E+03  0.17091823296E+04  0.91666382995E+02 0.  0.
    5000000    2    1    2    0    0 -0.12745928111E+04  0.96645222233E+03  0.38473686919E+03  0.17512135844E+04  0.60009151606E+03 0.  0.
         23    2    4    4    0    0 -0.29738132695E+03 -0.23324794883E+02  0.10902157604E+03  0.33033308894E+03  0.90854531705E+02 0.  0.
         23    2    4    4    0    0 -0.97721148414E+03  0.98977701721E+03  0.27571529315E+03  0.14208804955E+04  0.91003467212E+02 0.  0.
          1    1    3    3  502    0  0.23019984102E+03 -0.14009900099E+03  0.12231159156E+03  0.29593888274E+03  0.00000000000E+00 0. -1.
         -1    1    3    3    0  502  0.10443929701E+04 -0.82635322134E+03  0.47290666905E+03  0.14132434468E+04  0.00000000000E+00 0.  1.
         11    1    5    5    0    0 -0.75594545196E+02  0.13742370535E+02 -0.72738610076E+01  0.77177050120E+02  0.00000000000E+00 0. -1.
        -11    1    5    5    0    0 -0.22178678176E+03 -0.37067165418E+02  0.11629543705E+03  0.25315603882E+03  0.00000000000E+00 0.  1.
          5    1    6    6  503    0 -0.78295445517E+03  0.79956788649E+03  0.18525544582E+03  0.11343139575E+04  0.47000000000E+01 0. -1.
         -5    1    6    6    0  503 -0.19425702897E+03  0.19020913072E+03  0.90459847333E+02  0.28656653799E+03  0.47000000000E+01 0.  1.
<mgrwt>
<rscale>  0 0.16469734E+04</rscale>
<asrwt>0</asrwt>
<pdfrwt beam="1">  1        2 0.34156547E+00 0.16469734E+04</pdfrwt>
<pdfrwt beam="2">  1       -2 0.19080314E+00 0.16469734E+04</pdfrwt>
<totfact> 0.71348743E-01</totfact>
</mgrwt>
</event>
<event>
12    1  0.3127365E-008  0.6789120E+03  0.7818608E-02  0.9753991E-01
          1   -1    0    0  501    0  0.00000000000E+00  0.00000000000E+00  0.99680761373E+03  0.99680761373E+03  0.00000000000E+00 0. -1.
         -1   -1    0    0    0  501 -0.00000000000E+00 -0.00000000000E+00 -0.55761420143E+03  0.55761420143E+03  0.00000000000E+00 0.  1.
         23    2    1    2    0    0  0.43799845175E+03  0.33614502515E+03 -0.11134514694E+03  0.57060011802E+03  0.91381788512E+02 0.  0.
    5000000    2    1    2    0    0 -0.43799845175E+03 -0.33614502515E+03  0.55053855924E+03  0.98382169713E+03  0.59998025373E+03 0.  0.
         23    2    4    4    0    0 -0.43354244121E+03  0.22349865273E+02  0.32985308082E+03  0.55304193104E+03  0.92702522909E+02 0.  0.
         23    2    4    4    0    0 -0.44560105433E+01 -0.35849489042E+03  0.22068547842E+03  0.43077976609E+03  0.91272580766E+02 0.  0.
          1    1    3    3  502    0  0.14283745668E+03  0.15535098894E+03 -0.68241814887E+02  0.22179588385E+03  0.00000000000E+00 0. -1.
         -1    1    3    3    0  502  0.29516099507E+03  0.18079403621E+03 -0.43103332057E+02  0.34880423417E+03  0.00000000000E+00 0.  1.
         13    1    5    5    0    0 -0.38188092938E+03 -0.67596562309E+00  0.25487979527E+03  0.45912657426E+03  0.00000000000E+00 0. -1.
        -13    1    5    5    0    0 -0.51661511830E+02  0.23025830897E+02  0.74973285553E+02  0.93915356782E+02  0.00000000000E+00 0.  1.
          5    1    6    6  503    0 -0.27674183398E+02 -0.18986230877E+03  0.72897813579E+02  0.20530401346E+03  0.47000000000E+01 0. -1.
         -5    1    6    6    0  503  0.23218172855E+02 -0.16863258165E+03  0.14778766484E+03  0.22547575263E+03  0.47000000000E+01 0.  1.
<mgrwt>
<rscale>  0 0.67891201E+03</rscale>
<asrwt>0</asrwt>
<pdfrwt beam="1">  1        1 0.15335502E+00 0.67891201E+03</pdfrwt>
<pdfrwt beam="2">  1       -1 0.85786800E-01 0.67891201E+03</pdfrwt>
<totfact> 0.21200215E+01</totfact>
</mgrwt>
</event>
<event>
12    1  0.3127365E-008  0.8410471E+03  0.7818608E-02  0.9502433E-01
          1   -1    0    0  501    0  0.00000000000E+00  0.00000000000E+00  0.99177167120E+03  0.99177167120E+03  0.00000000000E+00 0. -1.
         -1   -1    0    0    0  501 -0.00000000000E+00 -0.00000000000E+00 -0.75682059210E+03  0.75682059210E+03  0.00000000000E+00 0.  1.
         23    2    1    2    0    0  0.70969970879E+03 -0.26402679700E+03  0.42893512942E+02  0.76360858917E+03  0.88737803724E+02 0.  0.
    5000000    2    1    2    0    0 -0.70969970879E+03  0.26402679700E+03  0.19205756616E+03  0.98498367414E+03  0.59993574941E+03 0.  0.
         23    2    4    4    0    0  0.80104884344E+01 -0.11290329591E+03  0.64984756348E+02  0.15939725157E+03  0.91504880187E+02 0.  0.
         23    2    4    4    0    0 -0.71771019722E+03  0.37693009292E+03  0.12707280981E+03  0.82558642257E+03  0.90891253681E+02 0.  0.
          3    1    3    3  502    0  0.40724721307E+03 -0.17019697770E+03  0.65110019335E+02  0.44615761608E+03  0.00000000000E+00 0. -1.
         -3    1    3    3    0  502  0.30245249572E+03 -0.93829819308E+02 -0.22216506392E+02  0.31745097309E+03  0.00000000000E+00 0.  1.
         13    1    5    5    0    0  0.18837536065E+01 -0.45887869272E+02  0.78321288846E+02  0.90793553519E+02  0.00000000000E+00 0. -1.
        -13    1    5    5    0    0  0.61267348279E+01 -0.67015426642E+02 -0.13336532498E+02  0.68603698054E+02  0.00000000000E+00 0.  1.
          5    1    6    6  503    0 -0.12545155054E+03  0.61869075344E+02  0.56837488048E+02  0.15105781696E+03  0.47000000000E+01 0. -1.
         -5    1    6    6    0  503 -0.59225864668E+03  0.31506101757E+03  0.70235321760E+02  0.67452860561E+03  0.47000000000E+01 0.  1.
<mgrwt>
<rscale>  0 0.84104710E+03</rscale>
<asrwt>0</asrwt>
<pdfrwt beam="1">  1        1 0.15258026E+00 0.84104710E+03</pdfrwt>
<pdfrwt beam="2">  1       -1 0.11643394E+00 0.84104710E+03</pdfrwt>
<totfact> 0.10438603E+01</totfact>
</mgrwt>
</event>
<event>
12    1  0.3127365E-008  0.8634516E+03  0.7818608E-02  0.9472458E-01
          1   -1    0    0  501    0  0.00000000000E+00  0.00000000000E+00  0.15643633333E+04  0.15643633333E+04  0.00000000000E+00 0. -1.
         -1   -1    0    0    0  501 -0.00000000000E+00 -0.00000000000E+00 -0.58136388024E+03  0.58136388024E+03  0.00000000000E+00 0.  1.
         23    2    1    2    0    0  0.69909976484E+03 -0.41176946360E+03  0.75508269577E+03  0.11113220213E+04  0.81192273523E+02 0.  0.
    5000000    2    1    2    0    0 -0.69909976484E+03  0.41176946360E+03  0.22791675726E+03  0.10344051922E+04  0.59979453235E+03 0.  0.
         23    2    4    4    0    0 -0.72399892146E+03  0.34914483688E+03  0.33751894247E+03  0.87661017052E+03  0.91922788976E+02 0.  0.
         23    2    4    4    0    0  0.24899156626E+02  0.62624626715E+02 -0.10960218521E+03  0.15779502167E+03  0.91349975310E+02 0.  0.
          1    1    3    3  502    0  0.90990449094E+02 -0.87504371631E+02  0.11556268462E+03  0.17114616840E+03  0.00000000000E+00 0. -1.
         -1    1    3    3    0  502  0.60810931574E+03 -0.32426509197E+03  0.63952001115E+03  0.94017585292E+03  0.00000000000E+00 0.  1.
         13    1    5    5    0    0 -0.21348100513E+03  0.14270380533E+03  0.13296038082E+03  0.28916600504E+03  0.00000000000E+00 0. -1.
        -13    1    5    5    0    0 -0.51051791634E+03  0.20644103156E+03  0.20455856165E+03  0.58744416548E+03  0.00000000000E+00 0.  1.
          5    1    6    6  503    0  0.29976362551E+01  0.77143618390E+02 -0.48962270479E+02  0.91539705111E+02  0.47000000000E+01 0. -1.
         -5    1    6    6    0  503  0.21901520371E+02 -0.14518991674E+02 -0.60639914729E+02  0.66255316557E+02  0.47000000000E+01 0.  1.
<mgrwt>
<rscale>  0 0.86345161E+03</rscale>
<asrwt>0</asrwt>
<pdfrwt beam="1">  1        1 0.24067128E+00 0.86345161E+03</pdfrwt>
<pdfrwt beam="2">  1       -1 0.89440597E-01 0.86345161E+03</pdfrwt>
<totfact> 0.74021663E+00</totfact>
</mgrwt>
</event>
<event>
12    1  0.3127365E-008  0.5914139E+03  0.7818608E-02  0.9923381E-01
          1   -1    0    0  501    0  0.00000000000E+00  0.00000000000E+00  0.39409043650E+03  0.39409043650E+03  0.00000000000E+00 0. -1.
         -1   -1    0    0    0  501 -0.00000000000E+00 -0.00000000000E+00 -0.10613149973E+04  0.10613149973E+04  0.00000000000E+00 0.  1.
         23    2    1    2    0    0  0.45560350954E+03  0.20078288356E+03 -0.30221278528E+03  0.59447629675E+03  0.11908474115E+03 0.  0.
    5000000    2    1    2    0    0 -0.45560350954E+03 -0.20078288356E+03 -0.36501177547E+03  0.86092913701E+03  0.60006421197E+03 0.  0.
         23    2    4    4    0    0 -0.44042360951E+03  0.33338586112E+02 -0.40399261175E+03  0.60649929980E+03  0.97708511268E+02 0.  0.
         23    2    4    4    0    0 -0.15179900031E+02 -0.23412146968E+03  0.38980836277E+02  0.25442983721E+03  0.90397702061E+02 0.  0.
          3    1    3    3  502    0  0.24183229911E+03  0.78219701078E+02 -0.91120060374E+02  0.27000749607E+03  0.00000000000E+00 0. -1.
         -3    1    3    3    0  502  0.21377121043E+03  0.12256318248E+03 -0.21109272491E+03  0.32446880069E+03  0.00000000000E+00 0.  1.
         13    1    5    5    0    0 -0.12018500179E+03 -0.11845047456E+02 -0.61806494307E+02  0.13566422721E+03  0.00000000000E+00 0.  1.
        -13    1    5    5    0    0 -0.32023860772E+03  0.45183633568E+02 -0.34218611744E+03  0.47083507260E+03  0.00000000000E+00 0. -1.
          5    1    6    6  503    0  0.87764883706E+01 -0.15372418306E+03 -0.14664422981E+02  0.15474264605E+03  0.47000000000E+01 0. -1.
         -5    1    6    6    0  503 -0.23956388402E+02 -0.80397286618E+02  0.53645259258E+02  0.99687191162E+02  0.47000000000E+01 0.  1.
<mgrwt>
<rscale>  0 0.59141389E+03</rscale>
<asrwt>0</asrwt>
<pdfrwt beam="1">  1        1 0.60629300E-01 0.59141389E+03</pdfrwt>
<pdfrwt beam="2">  1       -1 0.16327923E+00 0.59141389E+03</pdfrwt>
<totfact> 0.17683780E+01</totfact>
</mgrwt>
</event>
<event>
12    1  0.3127365E-008  0.3883414E+03  0.7818608E-02  0.1047893E+00
          2   -1    0    0  501    0  0.00000000000E+00  0.00000000000E+00  0.22922580787E+04  0.22922580787E+04  0.00000000000E+00 0. -1.
         -2   -1    0    0    0  501 -0.00000000000E+00 -0.00000000000E+00 -0.19540681857E+03  0.19540681857E+03  0.00000000000E+00 0.  1.
         23    2    1    2    0    0  0.27392561147E+03  0.65405087355E+02  0.88738626087E+01  0.29703399404E+03  0.94007351344E+02 0.  0.
    5000000    2    1    2    0    0 -0.27392561147E+03 -0.65405087355E+02  0.20879773975E+04  0.21906309032E+04  0.59991755731E+03 0.  0.
         23    2    4    4    0    0 -0.33189334131E+03 -0.14966953542E+03  0.68849196318E+03  0.78448628840E+03  0.94039318825E+02 0.  0.
         23    2    4    4    0    0  0.57967729841E+02  0.84264448062E+02  0.13994854343E+04  0.14061446148E+04  0.90677681860E+02 0.  0.
          4    1    3    3  502    0  0.18383869250E+03  0.29784969965E+02 -0.36955241285E+02  0.18986705652E+03  0.00000000000E+00 0. -1.
         -4    1    3    3    0  502  0.90086918977E+02  0.35620117390E+02  0.45829103893E+02  0.10716693752E+03  0.00000000000E+00 0.  1.
         11    1    5    5    0    0 -0.14701487925E+03 -0.50275772972E+02  0.20360999168E+03  0.25612117597E+03  0.00000000000E+00 0. -1.
        -11    1    5    5    0    0 -0.18487846207E+03 -0.99393762445E+02  0.48488197150E+03  0.52836511243E+03  0.00000000000E+00 0.  1.
          5    1    6    6  503    0 -0.95011397745E+01  0.52530987805E+02  0.35865986730E+03  0.36264137484E+03  0.47000000000E+01 0. -1.
         -5    1    6    6    0  503  0.67468869615E+02  0.31733460257E+02  0.10408255670E+04  0.10435032400E+04  0.47000000000E+01 0.  1.
<mgrwt>
<rscale>  0 0.38834136E+03</rscale>
<asrwt>0</asrwt>
<pdfrwt beam="1">  1        2 0.35265507E+00 0.38834136E+03</pdfrwt>
<pdfrwt beam="2">  1       -2 0.30062589E-01 0.38834136E+03</pdfrwt>
<totfact> 0.51657670E+01</totfact>
</mgrwt>
</event>
<event>
12    1  0.3127365E-008  0.7303798E+03  0.7818608E-02  0.9666644E-01
          2   -1    0    0  501    0  0.00000000000E+00  0.00000000000E+00  0.20150751989E+04  0.20150751989E+04  0.00000000000E+00 0. -1.
         -2   -1    0    0    0  501 -0.00000000000E+00 -0.00000000000E+00 -0.34326605203E+03  0.34326605203E+03  0.00000000000E+00 0.  1.
         23    2    1    2    0    0  0.59217052560E+03 -0.40720600629E+03  0.66860208421E+03  0.98613931392E+03  0.94653771681E+02 0.  0.
    5000000    2    1    2    0    0 -0.59217052560E+03  0.40720600629E+03  0.10032070627E+04  0.13722019370E+04  0.60002590148E+03 0.  0.
         23    2    4    4    0    0 -0.25492308373E+03  0.10391971927E+03  0.25545039473E+02  0.29058899111E+03  0.89466899138E+02 0.  0.
         23    2    4    4    0    0 -0.33724744187E+03  0.30328628703E+03  0.97766202322E+03  0.10816129459E+04  0.91351651429E+02 0.  0.
          2    1    3    3  502    0  0.44321470554E+02 -0.60804886042E+01  0.55616413032E+02  0.71376119902E+02  0.00000000000E+00 0. -1.
         -2    1    3    3    0  502  0.54784905505E+03 -0.40112551769E+03  0.61298567118E+03  0.91476319402E+03  0.00000000000E+00 0.  1.
         13    1    5    5    0    0 -0.15469113448E+03  0.31504647669E+02  0.47807130936E+02  0.16494669345E+03  0.00000000000E+00 0.  1.
        -13    1    5    5    0    0 -0.10023194925E+03  0.72415071597E+02 -0.22262091463E+02  0.12564229766E+03  0.00000000000E+00 0. -1.
          5    1    6    6  503    0 -0.29217761179E+02  0.43001651937E+02  0.61869925936E+02  0.80949350664E+02  0.47000000000E+01 0. -1.
         -5    1    6    6    0  503 -0.30802968069E+03  0.26028463509E+03  0.91579209728E+03  0.10006635953E+04  0.47000000000E+01 0.  1.
<mgrwt>
<rscale>  0 0.73037984E+03</rscale>
<asrwt>0</asrwt>
<pdfrwt beam="1">  1        2 0.31001156E+00 0.73037984E+03</pdfrwt>
<pdfrwt beam="2">  1       -2 0.52810163E-01 0.73037984E+03</pdfrwt>
<totfact> 0.22978036E+01</totfact>
</mgrwt>
</event>
<event>
12    1  0.3127365E-008  0.5755961E+03  0.7818608E-02  0.9957371E-01
          1   -1    0    0  501    0  0.00000000000E+00  0.00000000000E+00  0.31618959447E+03  0.31618959447E+03  0.00000000000E+00 0.  1.
         -1   -1    0    0    0  501 -0.00000000000E+00 -0.00000000000E+00 -0.12568326284E+04  0.12568326284E+04  0.00000000000E+00 0. -1.
         23    2    1    2    0    0 -0.19729529524E+03 -0.40932818074E+03 -0.16520849656E+03  0.49239209521E+03  0.93172608774E+02 0.  0.
    5000000    2    1    2    0    0  0.19729529524E+03  0.40932818074E+03 -0.77543453733E+03  0.10806301276E+04  0.59998979820E+03 0.  0.
         23    2    4    4    0    0  0.16918471877E+03 -0.83652842398E+02 -0.86179732050E+02  0.22843773387E+03  0.95580253883E+02 0.  0.
         23    2    4    4    0    0  0.28110576471E+02  0.49298102313E+03 -0.68925480528E+03  0.85219239374E+03  0.85669105671E+02 0.  0.
          4    1    3    3  502    0 -0.57292810271E+02 -0.51820600176E+02 -0.48030780192E+02  0.90965908763E+02  0.00000000000E+00 0. -1.
         -4    1    3    3    0  502 -0.14000248497E+03 -0.35750758056E+03 -0.11717771637E+03  0.40142618645E+03  0.00000000000E+00 0.  1.
         13    1    5    5    0    0  0.13543498714E+03 -0.78230806842E+02 -0.25048426649E+02  0.15839860656E+03  0.00000000000E+00 0.  1.
        -13    1    5    5    0    0  0.33749731625E+02 -0.54220355553E+01 -0.61131305401E+02  0.70039127310E+02  0.00000000000E+00 0. -1.
          5    1    6    6  503    0 -0.23368117559E+01 -0.21360461562E+00 -0.17419274466E+02  0.18194159476E+02  0.47000000000E+01 0. -1.
         -5    1    6    6    0  503  0.30447388227E+02  0.49319462775E+03 -0.67183553081E+03  0.83399823426E+03  0.47000000000E+01 0.  1.
<mgrwt>
<rscale>  0 0.57559608E+03</rscale>
<asrwt>0</asrwt>
<pdfrwt beam="1">  1        1 0.48644553E-01 0.57559608E+03</pdfrwt>
<pdfrwt beam="2">  1       -1 0.19335887E+00 0.57559608E+03</pdfrwt>
<totfact> 0.14408004E+01</totfact>
</mgrwt>
</event>
<event>
12    1  0.3127365E-008  0.1076879E+04  0.7818608E-02  0.9228025E-01
          1   -1    0    0  501    0  0.00000000000E+00  0.00000000000E+00  0.27211524015E+04  0.27211524015E+04  0.00000000000E+00 0. -1.
         -1   -1    0    0    0  501 -0.00000000000E+00 -0.00000000000E+00 -0.15293483480E+04  0.15293483480E+04  0.00000000000E+00 0.  1.
         23    2    1    2    0    0 -0.17145475233E+03 -0.10344719137E+04 -0.11845586042E+04  0.15846819404E+04  0.92243661587E+02 0.  0.
    5000000    2    1    2    0    0  0.17145475233E+03  0.10344719137E+04  0.23763626578E+04  0.26658188091E+04  0.59996797375E+03 0.  0.
         23    2    4    4    0    0  0.23538528764E+03  0.45467200457E+03  0.16480542210E+04  0.17281855760E+04  0.91704984928E+02 0.  0.
         23    2    4    4    0    0 -0.63930535309E+02  0.57979990912E+03  0.72830843672E+03  0.93763323311E+03  0.92020937131E+02 0.  0.
          1    1    3    3  502    0 -0.31502599233E+02 -0.32610633564E+03 -0.42593492110E+03  0.53736236649E+03  0.00000000000E+00 0. -1.
         -1    1    3    3    0  502 -0.13995215310E+03 -0.70836557805E+03 -0.75862368312E+03  0.10473195739E+04  0.00000000000E+00 0.  1.
         11    1    5    5    0    0  0.17317232293E+03  0.23698769071E+03  0.95528501296E+03  0.99936043296E+03  0.00000000000E+00 0. -1.
        -11    1    5    5    0    0  0.62212964708E+02  0.21768431386E+03  0.69276920808E+03  0.72882514305E+03  0.00000000000E+00 0.  1.
          5    1    6    6  503    0 -0.40563590026E+02  0.23379760617E+03  0.36484246080E+03  0.43524571989E+03  0.47000000000E+01 0.  1.
         -5    1    6    6    0  503 -0.23366945283E+02  0.34600230295E+03  0.36346597592E+03  0.50238751321E+03  0.47000000000E+01 0. -1.
<mgrwt>
<rscale>  0 0.10768791E+04</rscale>
<asrwt>0</asrwt>
<pdfrwt beam="1">  1        1 0.41863883E+00 0.10768791E+04</pdfrwt>
<pdfrwt beam="2">  1       -1 0.23528436E+00 0.10768791E+04</pdfrwt>
<totfact> 0.83479449E-02</totfact>
</mgrwt>
</event>
<event>
12    1  0.3127365E-008  0.9488825E+03  0.7818608E-02  0.9366458E-01
         -2   -1    0    0    0  501 -0.00000000000E+00  0.00000000000E+00  0.10507646546E+04  0.10507646546E+04  0.00000000000E+00 0.  1.
          2   -1    0    0  501    0  0.00000000000E+00 -0.00000000000E+00 -0.88969713493E+03  0.88969713493E+03  0.00000000000E+00 0. -1.
         23    2    1    2    0    0 -0.86023930640E+03 -0.45898871130E+01 -0.65827469656E+02  0.86733054608E+03  0.88861066086E+02 0.  0.
    5000000    2    1    2    0    0  0.86023930640E+03  0.45898871130E+01  0.22689498927E+03  0.10731312434E+04  0.60008049298E+03 0.  0.
         23    2    4    4    0    0  0.31229829113E+03  0.27524594274E+03  0.14093810696E+03  0.44876664641E+03  0.90760130553E+02 0.  0.
         23    2    4    4    0    0  0.54794101527E+03 -0.27065605563E+03  0.85956882315E+02  0.62436459699E+03  0.94596552230E+02 0.  0.
          3    1    3    3  502    0 -0.44375485398E+03 -0.26590197594E+02  0.33721768862E+01  0.44456358444E+03  0.00000000000E+00 0. -1.
         -3    1    3    3    0  502 -0.41648445242E+03  0.22000310481E+02 -0.69199646542E+02  0.42276696164E+03  0.00000000000E+00 0.  1.
         11    1    5    5    0    0  0.20512093861E+03  0.15317772357E+03  0.44466557774E+02  0.25983704357E+03  0.00000000000E+00 0. -1.
        -11    1    5    5    0    0  0.10717735252E+03  0.12206821917E+03  0.96471549185E+02  0.18892960284E+03  0.00000000000E+00 0.  1.
          5    1    6    6  503    0  0.31896112831E+03 -0.20597607372E+03  0.67446015165E+02  0.38565969362E+03  0.47000000000E+01 0. -1.
         -5    1    6    6    0  503  0.22897988696E+03 -0.64679981901E+02  0.18510867150E+02  0.23870490337E+03  0.47000000000E+01 0.  1.
<mgrwt>
<rscale>  0 0.94888245E+03</rscale>
<asrwt>0</asrwt>
<pdfrwt beam="1">  1        2 0.13687648E+00 0.94888245E+03</pdfrwt>
<pdfrwt beam="2">  1       -2 0.16165610E+00 0.94888245E+03</pdfrwt>
<totfact> 0.72702450E+00</totfact>
</mgrwt>
</event>
<event>
12    1  0.3693994E-008  0.7110110E+03  0.7818608E-02  0.9698585E-01
          2   -1    0    0  501    0  0.00000000000E+00  0.00000000000E+00  0.18266952421E+04  0.18266952421E+04  0.00000000000E+00 0. -1.
         -2   -1    0    0    0  501 -0.00000000000E+00 -0.00000000000E+00 -0.46875591259E+03  0.46875591259E+03  0.00000000000E+00 0.  1.
         23    2    1    2    0    0 -0.58670572858E+03  0.35936497596E+03  0.43512554446E+02  0.69509997349E+03  0.88903503117E+02 0.  0.
    5000000    2    1    2    0    0  0.58670572858E+03 -0.35936497596E+03  0.13144267751E+04  0.16003511812E+04  0.60003279768E+03 0.  0.
         23    2    4    4    0    0  0.10694635152E+03 -0.46545290100E+01  0.78641149868E+03  0.79861154387E+03  0.88759033368E+02 0.  0.
         23    2    4    4    0    0  0.47975937706E+03 -0.35471044695E+03  0.52801527642E+03  0.80173963737E+03  0.89430156771E+02 0.  0.
          3    1    3    3  502    0 -0.22770941712E+03  0.17940969200E+03  0.45970033193E+02  0.29351773402E+03  0.00000000000E+00 0. -1.
         -3    1    3    3    0  502 -0.35899631145E+03  0.17995528396E+03 -0.24574787475E+01  0.40158223948E+03  0.00000000000E+00 0.  1.
         11    1    5    5    0    0  0.49322702094E+02  0.34360997894E+02  0.51187832317E+03  0.51539579436E+03  0.00000000000E+00 0.  1.
        -11    1    5    5    0    0  0.57623649421E+02 -0.39015526904E+02  0.27453317551E+03  0.28321574950E+03  0.00000000000E+00 0. -1.
          5    1    6    6  503    0  0.22792313941E+03 -0.21220937955E+03  0.23746543869E+03  0.39165508144E+03  0.47000000000E+01 0. -1.
         -5    1    6    6    0  503  0.25183623765E+03 -0.14250106740E+03  0.29054983773E+03  0.41008455592E+03  0.47000000000E+01 0.  1.
<mgrwt>
<rscale>  0 0.71101097E+03</rscale>
<asrwt>0</asrwt>
<pdfrwt beam="1">  1        2 0.28103003E+00 0.71101097E+03</pdfrwt>
<pdfrwt beam="2">  1       -2 0.72116295E-01 0.71101097E+03</pdfrwt>
<totfact> 0.15052858E+01</totfact>
</mgrwt>
</event>
<event>
12    1  0.3127365E-008  0.7039753E+03  0.7818608E-02  0.9710458E-01
         -1   -1    0    0    0  501 -0.00000000000E+00  0.00000000000E+00  0.29863162540E+03  0.29863162540E+03  0.00000000000E+00 0.  1.
          1   -1    0    0  501    0  0.00000000000E+00 -0.00000000000E+00 -0.33614889278E+04  0.33614889278E+04  0.00000000000E+00 0. -1.
         23    2    1    2    0    0  0.69097964676E+03  0.59689111617E+02 -0.24723185043E+04  0.25693853841E+04  0.91470229546E+02 0.  0.
    5000000    2    1    2    0    0 -0.69097964676E+03 -0.59689111617E+02 -0.59053879807E+03  0.10907351691E+04  0.59995956097E+03 0.  0.
         23    2    4    4    0    0 -0.11670552609E+03 -0.46260428227E+02  0.10236713179E+03  0.18608778714E+03  0.91593819741E+02 0.  0.
         23    2    4    4    0    0 -0.57427412067E+03 -0.13428683391E+02 -0.69290592986E+03  0.90464738195E+03  0.91088763467E+02 0.  0.
          1    1    3    3  502    0  0.74550460312E+02  0.35684654231E+02 -0.29689055429E+03  0.30818041292E+03  0.00000000000E+00 0. -1.
         -1    1    3    3    0  502  0.61642918644E+03  0.24004457386E+02 -0.21754279500E+04  0.22612049712E+04  0.00000000000E+00 0.  1.
         13    1    5    5    0    0 -0.52944415366E+02 -0.11499903429E+02  0.99638250923E+02  0.11341578349E+03  0.00000000000E+00 0.  1.
        -13    1    5    5    0    0 -0.63761110719E+02 -0.34760524798E+02  0.27288808640E+01  0.72672003654E+02  0.00000000000E+00 0. -1.
          5    1    6    6  503    0 -0.14426743759E+03 -0.42838938377E+02 -0.18096942770E+03  0.23541514809E+03  0.47000000000E+01 0. -1.
         -5    1    6    6    0  503 -0.43000668308E+03  0.29410254987E+02 -0.51193650216E+03  0.66923223386E+03  0.47000000000E+01 0.  1.
<mgrwt>
<rscale>  0 0.70397532E+03</rscale>
<asrwt>0</asrwt>
<pdfrwt beam="1">  1        1 0.51715217E+00 0.70397532E+03</pdfrwt>
<pdfrwt beam="2">  1       -1 0.45943325E-01 0.70397532E+03</pdfrwt>
<totfact> 0.16534184E+00</totfact>
</mgrwt>
</event>
<event>
12    1  0.3127365E-008  0.5815628E+03  0.7818608E-02  0.9944413E-01
          2   -1    0    0  501    0  0.00000000000E+00  0.00000000000E+00  0.19767475709E+03  0.19767475709E+03  0.00000000000E+00 0. -1.
         -2   -1    0    0    0  501 -0.00000000000E+00 -0.00000000000E+00 -0.18985677638E+04  0.18985677638E+04  0.00000000000E+00 0.  1.
         23    2    1    2    0    0 -0.92312834653E+02  0.45016222586E+03 -0.61636862322E+03  0.77437010029E+03  0.92580146330E+02 0.  0.
    5000000    2    1    2    0    0  0.92312834653E+02 -0.45016222586E+03 -0.10845243835E+04  0.13218724206E+04  0.59998822401E+03 0.  0.
         23    2    4    4    0    0  0.30444056354E+03 -0.30505622868E+03 -0.44240084895E+03  0.62425759307E+03  0.90750603173E+02 0.  0.
         23    2    4    4    0    0 -0.21212772888E+03 -0.14510599718E+03 -0.64212353457E+03  0.69761482756E+03  0.91048834160E+02 0.  0.
          2    1    3    3  502    0 -0.60209478573E+02  0.11045625867E+03 -0.19671249684E+03  0.23349854990E+03  0.00000000000E+00 0. -1.
         -2    1    3    3    0  502 -0.32103356080E+02  0.33970596719E+03 -0.41965612638E+03  0.54087155039E+03  0.00000000000E+00 0.  1.
         13    1    5    5    0    0  0.10176865986E+03 -0.12012618947E+03 -0.10435378484E+03  0.18888322831E+03  0.00000000000E+00 0. -1.
        -13    1    5    5    0    0  0.20267190367E+03 -0.18493003921E+03 -0.33804706410E+03  0.43537436476E+03  0.00000000000E+00 0.  1.
          5    1    6    6  503    0 -0.36259276568E+02 -0.56552538517E+02 -0.24850816951E+03  0.25747101791E+03  0.47000000000E+01 0. -1.
         -5    1    6    6    0  503 -0.17586845232E+03 -0.88553458665E+02 -0.39361536505E+03  0.44014380964E+03  0.47000000000E+01 0.  1.
<mgrwt>
<rscale>  0 0.58156279E+03</rscale>
<asrwt>0</asrwt>
<pdfrwt beam="1">  1        2 0.30411502E-01 0.58156279E+03</pdfrwt>
<pdfrwt beam="2">  1       -2 0.29208734E+00 0.58156279E+03</pdfrwt>
<totfact> 0.66017449E+00</totfact>
</mgrwt>
</event>
<event>
12    1  0.3127365E-008  0.1122450E+04  0.7818608E-02  0.9183582E-01
          1   -1    0    0  501    0  0.00000000000E+00  0.00000000000E+00  0.88934412558E+03  0.88934412558E+03  0.00000000000E+00 0. -1.
         -1   -1    0    0    0  501 -0.00000000000E+00 -0.00000000000E+00 -0.21130738823E+04  0.21130738823E+04  0.00000000000E+00 0.  1.
         23    2    1    2    0    0 -0.56923887467E+03 -0.89269831904E+03  0.24938613712E+03  0.10916026411E+04  0.91976602592E+02 0.  0.
    5000000    2    1    2    0    0  0.56923887467E+03  0.89269831904E+03 -0.14731158939E+04  0.19108153668E+04  0.60016809641E+03 0.  0.
         23    2    4    4    0    0  0.61465017307E+03  0.53239589264E+03 -0.11743498882E+04  0.14314432409E+04  0.93230199775E+02 0.  0.
         23    2    4    4    0    0 -0.45411298397E+02  0.36030242640E+03 -0.29876600567E+03  0.47937212593E+03  0.93040230436E+02 0.  0.
          3    1    3    3  502    0 -0.40759002034E+02 -0.57916828367E+02  0.41098388486E+02  0.81882432738E+02  0.00000000000E+00 0. -1.
         -3    1    3    3    0  502 -0.52847987264E+03 -0.83478149067E+03  0.20828774864E+03  0.10097202084E+04  0.00000000000E+00 0.  1.
         13    1    5    5    0    0  0.46348470171E+03  0.35687669978E+03 -0.79619330116E+03  0.98797915989E+03  0.00000000000E+00 0. -1.
        -13    1    5    5    0    0  0.15116547135E+03  0.17551919286E+03 -0.37815658703E+03  0.44346408096E+03  0.00000000000E+00 0.  1.
          5    1    6    6  503    0 -0.52394560072E+02  0.14918274263E+03 -0.16868741686E+03  0.23125357344E+03  0.47000000000E+01 0. -1.
         -5    1    6    6    0  503  0.69832616748E+01  0.21111968378E+03 -0.13007858881E+03  0.24811855249E+03  0.47000000000E+01 0.  1.
<mgrwt>
<rscale>  0 0.11224504E+04</rscale>
<asrwt>0</asrwt>
<pdfrwt beam="1">  1        1 0.13682217E+00 0.11224504E+04</pdfrwt>
<pdfrwt beam="2">  1       -1 0.32508829E+00 0.11224504E+04</pdfrwt>
<totfact> 0.42035984E-01</totfact>
</mgrwt>
</event>
<event>
12    1  0.3127365E-008  0.1385902E+04  0.7818608E-02  0.8964087E-01
         -1   -1    0    0    0  501 -0.00000000000E+00  0.00000000000E+00  0.15808656079E+04  0.15808656079E+04  0.00000000000E+00 0.  1.
          1   -1    0    0  501    0  0.00000000000E+00 -0.00000000000E+00 -0.16734893326E+04  0.16734893326E+04  0.00000000000E+00 0. -1.
         23    2    1    2    0    0 -0.34911528012E+03  0.13097439783E+04 -0.83597700060E+03  0.15960741947E+04  0.10622863058E+03 0.  0.
    5000000    2    1    2    0    0  0.34911528012E+03 -0.13097439783E+04  0.74335327587E+03  0.16582807458E+04  0.60000847636E+03 0.  0.
         23    2    4    4    0    0 -0.54492777938E+02 -0.39519115370E+03  0.57655725147E+00  0.40950790996E+03  0.92470995948E+02 0.  0.
         23    2    4    4    0    0  0.40360805806E+03 -0.91455282457E+03  0.74277671862E+03  0.12487728358E+04  0.91706097639E+02 0.  0.
          4    1    3    3  502    0 -0.20789192982E+03  0.94151533107E+03 -0.56448366723E+03  0.11172788299E+04  0.00000000000E+00 0. -1.
         -4    1    3    3    0  502 -0.14122335030E+03  0.36822864720E+03 -0.27149333337E+03  0.47879536480E+03  0.00000000000E+00 0.  1.
         11    1    5    5    0    0 -0.30106580414E+02 -0.37908602102E+03  0.98968685160E-01  0.38027966986E+03  0.00000000000E+00 0.  1.
        -11    1    5    5    0    0 -0.24386197524E+02 -0.16105132680E+02  0.47758856631E+00  0.29228240097E+02  0.00000000000E+00 0. -1.
          5    1    6    6  503    0  0.23107576215E+03 -0.62833617788E+03  0.48610508890E+03  0.82735881438E+03  0.47000000000E+01 0. -1.
         -5    1    6    6    0  503  0.17253229591E+03 -0.28621664669E+03  0.25667162972E+03  0.42141402146E+03  0.47000000000E+01 0.  1.
<mgrwt>
<rscale>  0 0.13859022E+04</rscale>
<asrwt>0</asrwt>
<pdfrwt beam="1">  1        1 0.25745990E+00 0.13859022E+04</pdfrwt>
<pdfrwt beam="2">  1       -1 0.24321009E+00 0.13859022E+04</pdfrwt>
<totfact> 0.36745424E-01</totfact>
</mgrwt>
</event>
<event>
12    1  0.3127365E-008  0.9313181E+03  0.7818608E-02  0.9387257E-01
         -2   -1    0    0    0  501 -0.00000000000E+00  0.00000000000E+00  0.39294748459E+03  0.39294748459E+03  0.00000000000E+00 0.  1.
          2   -1    0    0  501    0  0.00000000000E+00 -0.00000000000E+00 -0.24434078844E+04  0.24434078844E+04  0.00000000000E+00 0. -1.
         23    2    1    2    0    0 -0.75820427537E+03 -0.44174687995E+03 -0.11022770805E+04  0.14118954475E+04  0.91760357028E+02 0.  0.
    5000000    2    1    2    0    0  0.75820427537E+03  0.44174687995E+03 -0.94818331930E+03  0.14244599216E+04  0.60001702645E+03 0.  0.
         23    2    4    4    0    0  0.78688802817E+03  0.48882708228E+03 -0.93186305927E+03  0.13171324934E+04  0.91239019961E+02 0.  0.
         23    2    4    4    0    0 -0.28683752802E+02 -0.47080202331E+02 -0.16320260030E+02  0.10732742814E+03  0.90628487893E+02 0.  0.
          3    1    3    3  502    0 -0.12123256276E+03 -0.58732391493E+02 -0.12233574592E+03  0.18196940077E+03  0.00000000000E+00 0. -1.
         -3    1    3    3    0  502 -0.63697171261E+03 -0.38301448846E+03 -0.97994133463E+03  0.12299260467E+04  0.00000000000E+00 0.  1.
         13    1    5    5    0    0  0.60423001569E+03  0.40108015629E+03 -0.68316511079E+03  0.99633015222E+03  0.00000000000E+00 0. -1.
        -13    1    5    5    0    0  0.18265801249E+03  0.87746925995E+02 -0.24869794848E+03  0.32080234121E+03  0.00000000000E+00 0.  1.
          5    1    6    6  503    0 -0.57627106717E+01 -0.61498821407E+01  0.35782241560E+02  0.37060608410E+02  0.47000000000E+01 0. -1.
         -5    1    6    6    0  503 -0.22921042130E+02 -0.40930320190E+02 -0.52102501590E+02  0.70266819731E+02  0.47000000000E+01 0.  1.
<mgrwt>
<rscale>  0 0.93131812E+03</rscale>
<asrwt>0</asrwt>
<pdfrwt beam="1">  1        2 0.37590891E+00 0.93131812E+03</pdfrwt>
<pdfrwt beam="2">  1       -2 0.60453458E-01 0.93131812E+03</pdfrwt>
<totfact> 0.97540103E+00</totfact>
</mgrwt>
</event>
<event>
12    1  0.3127365E-008  0.1030500E+04  0.7818608E-02  0.9275711E-01
          4   -1    0    0  501    0  0.00000000000E+00  0.00000000000E+00  0.94969152608E+03  0.94969152608E+03  0.00000000000E+00 0. -1.
         -4   -1    0    0    0  501 -0.00000000000E+00 -0.00000000000E+00 -0.15699256486E+04  0.15699256486E+04  0.00000000000E+00 0.  1.
         23    2    1    2    0    0 -0.31620195847E+03  0.94646857525E+03  0.28754190379E+03  0.10431162747E+04  0.98105931131E+02 0.  0.
    5000000    2    1    2    0    0  0.31620195847E+03 -0.94646857525E+03 -0.90777602634E+03  0.14765009000E+04  0.60017593350E+03 0.  0.
         23    2    4    4    0    0 -0.64572094836E+02 -0.33556556428E+03 -0.58161321911E+03  0.68077369513E+03  0.91679245066E+02 0.  0.
         23    2    4    4    0    0  0.38077405330E+03 -0.61090301097E+03 -0.32616280724E+03  0.79572720485E+03  0.92780597296E+02 0.  0.
          2    1    3    3  502    0 -0.24734219528E+03  0.66703200544E+03  0.16488041009E+03  0.73027077682E+03  0.00000000000E+00 0. -1.
         -2    1    3    3    0  502 -0.68859763188E+02  0.27943656981E+03  0.12266149370E+03  0.31284549792E+03  0.00000000000E+00 0.  1.
         11    1    5    5    0    0 -0.53912883361E+02 -0.27326703104E+03 -0.39181963994E+03  0.48073287748E+03  0.00000000000E+00 0.  1.
        -11    1    5    5    0    0 -0.10659211475E+02 -0.62298533239E+02 -0.18979357916E+03  0.20004081764E+03  0.00000000000E+00 0. -1.
          5    1    6    6  503    0  0.13708159494E+03 -0.23251124905E+03 -0.74475677917E+02  0.28003849951E+03  0.47000000000E+01 0. -1.
         -5    1    6    6    0  503  0.24369245837E+03 -0.37839176192E+03 -0.25168712932E+03  0.51568870534E+03  0.47000000000E+01 0.  1.
<mgrwt>
<rscale>  0 0.10305000E+04</rscale>
<asrwt>0</asrwt>
<pdfrwt beam="1">  1        4 0.14610639E+00 0.10305000E+04</pdfrwt>
<pdfrwt beam="2">  1       -4 0.24152702E+00 0.10305000E+04</pdfrwt>
<totfact> 0.43727629E-02</totfact>
</mgrwt>
</event>
<event>
12    1  0.3127365E-008  0.6207909E+03  0.7818608E-02  0.9863186E-01
         -2   -1    0    0    0  501 -0.00000000000E+00  0.00000000000E+00  0.55606650264E+03  0.55606650264E+03  0.00000000000E+00 0. -1.
          2   -1    0    0  501    0  0.00000000000E+00 -0.00000000000E+00 -0.13277308147E+04  0.13277308147E+04  0.00000000000E+00 0.  1.
         23    2    1    2    0    0 -0.14524517273E+03 -0.45240448262E+03 -0.97794630918E+03  0.10911270854E+04  0.91724351845E+02 0.  0.
    5000000    2    1    2    0    0  0.14524517273E+03  0.45240448262E+03  0.20628199711E+03  0.79267023197E+03  0.60000654849E+03 0.  0.
         23    2    4    4    0    0 -0.15408942684E+03  0.40420524723E+03  0.67246872394E+02  0.44707143627E+03  0.90693406225E+02 0.  0.
         23    2    4    4    0    0  0.29933459957E+03  0.48199235387E+02  0.13903512472E+03  0.34559879570E+03  0.90462107504E+02 0.  0.
          2    1    3    3  502    0 -0.93514878219E+01 -0.17208545848E+03 -0.34015426205E+03  0.38132109479E+03  0.00000000000E+00 0.  1.
         -2    1    3    3    0  502 -0.13589368490E+03 -0.28031902414E+03 -0.63779204713E+03  0.70980599059E+03  0.00000000000E+00 0. -1.
         13    1    5    5    0    0 -0.14615729067E+03  0.27111429079E+03  0.58078440040E+02  0.31342944579E+03  0.00000000000E+00 0. -1.
        -13    1    5    5    0    0 -0.79321361695E+01  0.13309095644E+03  0.91684323543E+01  0.13364199049E+03  0.00000000000E+00 0.  1.
          5    1    6    6  503    0  0.10974593077E+02  0.24214988694E+02  0.11266186300E+02  0.29254475288E+02  0.47000000000E+01 0. -1.
         -5    1    6    6    0  503  0.28836000649E+03  0.23984246694E+02  0.12776893842E+03  0.31634432041E+03  0.47000000000E+01 0.  1.
<mgrwt>
<rscale>  0 0.62079089E+03</rscale>
<asrwt>0</asrwt>
<pdfrwt beam="1">  1        2 0.20426628E+00 0.62079089E+03</pdfrwt>
<pdfrwt beam="2">  1       -2 0.85548694E-01 0.62079089E+03</pdfrwt>
<totfact> 0.19635001E+01</totfact>
</mgrwt>
</event>
<event>
12    1  0.3127365E-008  0.5659832E+03  0.7818608E-02  0.9978607E-01
         -2   -1    0    0    0  501 -0.00000000000E+00  0.00000000000E+00  0.91280559272E+03  0.91280559272E+03  0.00000000000E+00 0.  1.
          2   -1    0    0  501    0  0.00000000000E+00 -0.00000000000E+00 -0.16988811517E+04  0.16988811517E+04  0.00000000000E+00 0. -1.
         23    2    1    2    0    0  0.38946948935E+03  0.35919558674E+03  0.72440814975E+03  0.90194896783E+03  0.89648315512E+02 0.  0.
    5000000    2    1    2    0    0 -0.38946948935E+03 -0.35919558674E+03 -0.15104837088E+04  0.17097377766E+04  0.60077806028E+03 0.  0.
         23    2    4    4    0    0 -0.25047637758E+03 -0.35225640768E+03 -0.14745554741E+04  0.15392863059E+04  0.90914755438E+02 0.  0.
         23    2    4    4    0    0 -0.13899311176E+03 -0.69391790652E+01 -0.35928234627E+02  0.17045147072E+03  0.91627662335E+02 0.  0.
          3    1    3    3  502    0  0.17180131015E+03  0.19852205538E+03  0.30015354034E+03  0.39877166953E+03  0.00000000000E+00 0. -1.
         -3    1    3    3    0  502  0.21766817919E+03  0.16067353136E+03  0.42425460942E+03  0.50317729830E+03  0.00000000000E+00 0.  1.
         11    1    5    5    0    0 -0.10205595628E+03 -0.21420549397E+03 -0.72722483707E+03  0.76495449244E+03  0.00000000000E+00 0. -1.
        -11    1    5    5    0    0 -0.14842042131E+03 -0.13805091371E+03 -0.74733063708E+03  0.77433181347E+03  0.00000000000E+00 0.  1.
          5    1    6    6  503    0 -0.26187278502E+02 -0.33640005608E+02  0.12586577439E+02  0.44698271379E+02  0.47000000000E+01 0. -1.
         -5    1    6    6    0  503 -0.11280583326E+03  0.26700826543E+02 -0.48514812067E+02  0.12575319934E+03  0.47000000000E+01 0.  1.
<mgrwt>
<rscale>  0 0.56598324E+03</rscale>
<asrwt>0</asrwt>
<pdfrwt beam="1">  1        2 0.26136633E+00 0.56598324E+03</pdfrwt>
<pdfrwt beam="2">  1       -2 0.14043163E+00 0.56598324E+03</pdfrwt>
<totfact> 0.37324301E+00</totfact>
</mgrwt>
</event>
<event>
12    1  0.3127365E-008  0.1484476E+04  0.7818608E-02  0.8894843E-01
          1   -1    0    0  501    0  0.00000000000E+00  0.00000000000E+00  0.13533259554E+04  0.13533259554E+04  0.00000000000E+00 0. -1.
         -1   -1    0    0    0  501 -0.00000000000E+00 -0.00000000000E+00 -0.35698376187E+04  0.35698376187E+04  0.00000000000E+00 0.  1.
         23    2    1    2    0    0  0.82047498550E+00 -0.14258239936E+04  0.72317913114E+03  0.16013025426E+04  0.90592733451E+02 0.  0.
    5000000    2    1    2    0    0 -0.82047498550E+00  0.14258239936E+04 -0.29396907945E+04  0.33218610314E+04  0.60000334249E+03 0.  0.
         23    2    4    4    0    0  0.25624983217E+03  0.38894042521E+03 -0.90058994052E+03  0.10181440651E+04  0.92824918166E+02 0.  0.
         23    2    4    4    0    0 -0.25707030716E+03  0.10368835684E+04 -0.20391008539E+04  0.23037169663E+04  0.89257443258E+02 0.  0.
          3    1    3    3  502    0  0.29538481844E+02 -0.74471029703E+03  0.33883036719E+03  0.81870139009E+03  0.00000000000E+00 0. -1.
         -3    1    3    3    0  502 -0.28718006859E+02 -0.68111369661E+03  0.38434876395E+03  0.78260115255E+03  0.00000000000E+00 0.  1.
         13    1    5    5    0    0  0.88244745439E+02  0.19056725761E+03 -0.33043973298E+03  0.39152705130E+03  0.00000000000E+00 0. -1.
        -13    1    5    5    0    0  0.16800508673E+03  0.19837316761E+03 -0.57015020754E+03  0.62661701377E+03  0.00000000000E+00 0.  1.
          5    1    6    6  503    0 -0.26373693188E+03  0.10007872056E+04 -0.19715683829E+04  0.22267097203E+04  0.47000000000E+01 0. -1.
         -5    1    6    6    0  503  0.66666247267E+01  0.36096362832E+02 -0.67532471060E+02  0.77007246038E+02  0.47000000000E+01 0.  1.
<mgrwt>
<rscale>  0 0.14844756E+04</rscale>
<asrwt>0</asrwt>
<pdfrwt beam="1">  1        1 0.20820399E+00 0.14844756E+04</pdfrwt>
<pdfrwt beam="2">  1       -1 0.54920580E+00 0.14844756E+04</pdfrwt>
<totfact> 0.58383310E-03</totfact>
</mgrwt>
</event>
<event>
12    1  0.3127365E-008  0.2208164E+04  0.7818608E-02  0.8515038E-01
          2   -1    0    0  501    0  0.00000000000E+00  0.00000000000E+00  0.40599348116E+04  0.40599348116E+04  0.00000000000E+00 0. -1.
         -2   -1    0    0    0  501 -0.00000000000E+00 -0.00000000000E+00 -0.12559505088E+04  0.12559505088E+04  0.00000000000E+00 0.  1.
         23    2    1    2    0    0 -0.20033013923E+04 -0.84766360651E+03  0.87182153986E+03  0.23452156975E+04  0.90630084822E+02 0.  0.
    5000000    2    1    2    0    0  0.20033013923E+04  0.84766360651E+03  0.19321627630E+04  0.29706696229E+04  0.59989583048E+03 0.  0.
         23    2    4    4    0    0  0.56747304711E+03  0.78855809813E+00  0.63470619595E+03  0.85625387179E+03  0.91062927474E+02 0.  0.
         23    2    4    4    0    0  0.14358283452E+04  0.84687504842E+03  0.12974565671E+04  0.21144157511E+04  0.92520487590E+02 0.  0.
          2    1    3    3  502    0 -0.13685538655E+04 -0.61923630585E+03  0.58032883601E+03  0.16103337676E+04  0.00000000000E+00 0. -1.
         -2    1    3    3    0  502 -0.63474752678E+03 -0.22842730067E+03  0.29149270386E+03  0.73488192987E+03  0.00000000000E+00 0.  1.
         13    1    5    5    0    0  0.90946752642E+02  0.25541521948E+02  0.74045679759E+02  0.12002684637E+03  0.00000000000E+00 0. -1.
        -13    1    5    5    0    0  0.47652629447E+03 -0.24752963850E+02  0.56066051619E+03  0.73622702542E+03  0.00000000000E+00 0.  1.
          5    1    6    6  503    0  0.20468796791E+03  0.98486094809E+02  0.14611346268E+03  0.27012572824E+03  0.47000000000E+01 0. -1.
         -5    1    6    6    0  503  0.12311403773E+04  0.74838895361E+03  0.11513431044E+04  0.18442900229E+04  0.47000000000E+01 0.  1.
<mgrwt>
<rscale>  0 0.22081644E+04</rscale>
<asrwt>0</asrwt>
<pdfrwt beam="1">  1        2 0.62460535E+00 0.22081644E+04</pdfrwt>
<pdfrwt beam="2">  1       -2 0.19322316E+00 0.22081644E+04</pdfrwt>
<totfact> 0.39577587E-02</totfact>
</mgrwt>
</event>
<event>
12    1  0.3127365E-008  0.6158514E+03  0.7818608E-02  0.9873054E-01
          2   -1    0    0  501    0  0.00000000000E+00  0.00000000000E+00  0.79242006598E+03  0.79242006598E+03  0.00000000000E+00 0. -1.
         -2   -1    0    0    0  501 -0.00000000000E+00 -0.00000000000E+00 -0.71254117141E+03  0.71254117141E+03  0.00000000000E+00 0.  1.
         23    2    1    2    0    0 -0.51856248617E+03 -0.66714113719E+00  0.38814410419E+03  0.65414410540E+03  0.91329994344E+02 0.  0.
    5000000    2    1    2    0    0  0.51856248617E+03  0.66714113719E+00 -0.30826520962E+03  0.85081713199E+03  0.59996237839E+03 0.  0.
         23    2    4    4    0    0  0.26462202371E+03 -0.24025445994E+03  0.10185323394E+02  0.36894334116E+03  0.90930892533E+02 0.  0.
         23    2    4    4    0    0  0.25394046246E+03  0.24092160108E+03 -0.31845053301E+03  0.48187379083E+03  0.90899020774E+02 0.  0.
          1    1    3    3  502    0 -0.38262543144E+03 -0.10861702769E+02  0.33206166582E+03  0.50673972340E+03  0.00000000000E+00 0. -1.
         -1    1    3    3    0  502 -0.13593705474E+03  0.10194561632E+02  0.56082438368E+02  0.14740438199E+03  0.00000000000E+00 0.  1.
         11    1    5    5    0    0  0.25041666042E+03 -0.23956438295E+03 -0.70148305922E+01  0.34662487684E+03  0.00000000000E+00 0. -1.
        -11    1    5    5    0    0  0.14205363293E+02 -0.69007699207E+00  0.17200153986E+02  0.22318464322E+02  0.00000000000E+00 0.  1.
          5    1    6    6  503    0  0.11904658660E+03  0.89707194014E+02 -0.19144371516E+03  0.24267726822E+03  0.47000000000E+01 0. -1.
         -5    1    6    6    0  503  0.13489387586E+03  0.15121440706E+03 -0.12700681786E+03  0.23919652262E+03  0.47000000000E+01 0.  1.
<mgrwt>
<rscale>  0 0.61585145E+03</rscale>
<asrwt>0</asrwt>
<pdfrwt beam="1">  1        2 0.12191078E+00 0.61585145E+03</pdfrwt>
<pdfrwt beam="2">  1       -2 0.10962172E+00 0.61585145E+03</pdfrwt>
<totfact> 0.23771544E+01</totfact>
</mgrwt>
</event>
<event>
12    1  0.3127365E-008  0.7697230E+03  0.7818608E-02  0.9604906E-01
          1   -1    0    0  501    0  0.00000000000E+00  0.00000000000E+00  0.37473215054E+04  0.37473215054E+04  0.00000000000E+00 0. -1.
         -1   -1    0    0    0  501 -0.00000000000E+00 -0.00000000000E+00 -0.29042207638E+03  0.29042207638E+03  0.00000000000E+00 0.  1.
         23    2    1    2    0    0  0.39678788159E+03 -0.59716486206E+03  0.28085385105E+04  0.29000632522E+04  0.91824866962E+02 0.  0.
    5000000    2    1    2    0    0 -0.39678788159E+03  0.59716486206E+03  0.64836091852E+03  0.11376803296E+04  0.59991512421E+03 0.  0.
         23    2    4    4    0    0  0.66771800175E+02  0.11196924045E+03  0.37471197855E+03  0.40725656700E+03  0.91941614017E+02 0.  0.
         23    2    4    4    0    0 -0.46355968176E+03  0.48519562162E+03  0.27364893996E+03  0.73042376261E+03  0.91283957252E+02 0.  0.
          2    1    3    3  502    0  0.54322554271E+02 -0.15036056280E+03  0.62272264291E+03  0.64291735763E+03  0.00000000000E+00 0. -1.
         -2    1    3    3    0  502  0.34246532731E+03 -0.44680429927E+03  0.21858158676E+04  0.22571458945E+04  0.00000000000E+00 0.  1.
         11    1    5    5    0    0  0.44473100863E+02  0.11385312194E+03  0.36071445313E+03  0.38086126972E+03  0.00000000000E+00 0. -1.
        -11    1    5    5    0    0  0.22298699312E+02 -0.18838814923E+01  0.13997525423E+02  0.26395297279E+02  0.00000000000E+00 0.  1.
          5    1    6    6  503    0 -0.30334358981E+03  0.34085809141E+03  0.14277940201E+03  0.47813138319E+03  0.47000000000E+01 0. -1.
         -5    1    6    6    0  503 -0.16021609195E+03  0.14433753021E+03  0.13086953795E+03  0.25229237942E+03  0.47000000000E+01 0.  1.
<mgrwt>
<rscale>  0 0.76972300E+03</rscale>
<asrwt>0</asrwt>
<pdfrwt beam="1">  1        1 0.57651097E+00 0.76972300E+03</pdfrwt>
<pdfrwt beam="2">  1       -1 0.44680322E-01 0.76972300E+03</pdfrwt>
<totfact> 0.85652076E-01</totfact>
</mgrwt>
</event>
<event>
12    1  0.3127365E-008  0.1072478E+04  0.7818608E-02  0.9232440E-01
         -2   -1    0    0    0  501 -0.00000000000E+00  0.00000000000E+00  0.86889854865E+03  0.86889854865E+03  0.00000000000E+00 0.  1.
          2   -1    0    0  501    0  0.00000000000E+00 -0.00000000000E+00 -0.15901743090E+04  0.15901743090E+04  0.00000000000E+00 0. -1.
         23    2    1    2    0    0  0.36590931334E+02  0.10242505827E+04  0.69920659405E+02  0.10320474917E+04  0.99020069610E+02 0.  0.
    5000000    2    1    2    0    0 -0.36590931334E+02 -0.10242505827E+04 -0.79119641973E+03  0.14270253659E+04  0.59998455647E+03 0.  0.
         23    2    4    4    0    0 -0.17932893735E+03 -0.85860780902E+03 -0.39721324040E+03  0.96718711683E+03  0.91139031952E+02 0.  0.
         23    2    4    4    0    0  0.14273800602E+03 -0.16564277365E+03 -0.39398317933E+03  0.45983824907E+03  0.91743135410E+02 0.  0.
          1    1    3    3  502    0  0.27848074831E+02  0.21925457347E+03  0.50789772780E+02  0.22677672782E+03  0.00000000000E+00 0. -1.
         -1    1    3    3    0  502  0.87428565031E+01  0.80499600920E+03  0.19130886625E+02  0.80527076390E+03  0.00000000000E+00 0.  1.
         11    1    5    5    0    0 -0.14357025913E+02 -0.10496039897E+02 -0.96938761933E+01  0.20254932294E+02  0.00000000000E+00 0. -1.
        -11    1    5    5    0    0 -0.16497191144E+03 -0.84811176912E+03 -0.38751936421E+03  0.94693218454E+03  0.00000000000E+00 0.  1.
          5    1    6    6  503    0  0.80231843944E+02 -0.26720629011E+02 -0.14371770302E+03  0.16681729214E+03  0.47000000000E+01 0. -1.
         -5    1    6    6    0  503  0.62506162073E+02 -0.13892214464E+03 -0.25026547631E+03  0.29302095693E+03  0.47000000000E+01 0.  1.
<mgrwt>
<rscale>  0 0.10724778E+04</rscale>
<asrwt>0</asrwt>
<pdfrwt beam="1">  1        2 0.24464220E+00 0.10724778E+04</pdfrwt>
<pdfrwt beam="2">  1       -2 0.13367670E+00 0.10724778E+04</pdfrwt>
<totfact> 0.45052349E+00</totfact>
</mgrwt>
</event>
<event>
12    1  0.3127365E-008  0.3057323E+03  0.7818608E-02  0.1082410E+00
         -2   -1    0    0    0  501 -0.00000000000E+00  0.00000000000E+00  0.19344156732E+03  0.19344156732E+03  0.00000000000E+00 0.  1.
          2   -1    0    0  501    0  0.00000000000E+00 -0.00000000000E+00 -0.11600251300E+04  0.11600251300E+04  0.00000000000E+00 0. -1.
         23    2    1    2    0    0 -0.24707498394E+03 -0.11138268369E+03 -0.34454761628E+03  0.44771282223E+03  0.91003084507E+02 0.  0.
    5000000    2    1    2    0    0  0.24707498394E+03  0.11138268369E+03 -0.62203594642E+03  0.90575387512E+03  0.60000767807E+03 0.  0.
         23    2    4    4    0    0  0.73858689333E+02 -0.15418206254E+02  0.95568633706E+02  0.15150041686E+03  0.90145357536E+02 0.  0.
         23    2    4    4    0    0  0.17321629460E+03  0.12680088995E+03 -0.71760458013E+03  0.75425345827E+03  0.88654359618E+02 0.  0.
          1    1    3    3  502    0 -0.12212525050E+03 -0.17591010981E+02 -0.19923254171E+03  0.23434510055E+03  0.00000000000E+00 0. -1.
         -1    1    3    3    0  502 -0.12494973343E+03 -0.93791672714E+02 -0.14531507458E+03  0.21336772168E+03  0.00000000000E+00 0.  1.
         13    1    5    5    0    0 -0.18074652370E+02 -0.16927176050E+02  0.13231065731E+02  0.28076385944E+02  0.00000000000E+00 0.  1.
        -13    1    5    5    0    0  0.91933341703E+02  0.15089697957E+01  0.82337567975E+02  0.12342403091E+03  0.00000000000E+00 0. -1.
          5    1    6    6  503    0  0.11755501980E+03  0.80133557448E+02 -0.32276011524E+03  0.35275593786E+03  0.47000000000E+01 0. -1.
         -5    1    6    6    0  503  0.55661274799E+02  0.46667332501E+02 -0.39484446489E+03  0.40149752040E+03  0.47000000000E+01 0.  1.
<mgrwt>
<rscale>  0 0.30573229E+03</rscale>
<asrwt>0</asrwt>
<pdfrwt beam="1">  1        2 0.17846540E+00 0.30573229E+03</pdfrwt>
<pdfrwt beam="2">  1       -2 0.29760241E-01 0.30573229E+03</pdfrwt>
<totfact> 0.21951740E+02</totfact>
</mgrwt>
</event>
<event>
12    1  0.3127365E-008  0.1066539E+04  0.7818608E-02  0.9238433E-01
         -2   -1    0    0    0  501 -0.00000000000E+00  0.00000000000E+00  0.70877074982E+03  0.70877074982E+03  0.00000000000E+00 0.  1.
          2   -1    0    0  501    0  0.00000000000E+00 -0.00000000000E+00 -0.23086213397E+04  0.23086213397E+04  0.00000000000E+00 0. -1.
         23    2    1    2    0    0  0.80984307598E+01 -0.99458845613E+03 -0.15636709298E+04  0.18554622561E+04  0.91660381770E+02 0.  0.
    5000000    2    1    2    0    0 -0.80984307598E+01  0.99458845613E+03 -0.36179660115E+02  0.11619298334E+04  0.59958334562E+03 0.  0.
         23    2    4    4    0    0 -0.23025410348E+03  0.79444459656E+03  0.61034778285E+02  0.83439466992E+03  0.91269117813E+02 0.  0.
         23    2    4    4    0    0  0.22215567272E+03  0.20014385958E+03 -0.97214438400E+02  0.32753516350E+03  0.91749271641E+02 0.  0.
          3    1    3    3  502    0  0.14850162441E+02 -0.27783376734E+03 -0.51269058137E+03  0.58332131953E+03  0.00000000000E+00 0. -1.
         -3    1    3    3    0  502 -0.67517316815E+01 -0.71675468879E+03 -0.10509803484E+04  0.12721409366E+04  0.00000000000E+00 0.  1.
         13    1    5    5    0    0 -0.11914926492E+03  0.33485550043E+03 -0.13755762140E+02  0.35568802973E+03  0.00000000000E+00 0.  1.
        -13    1    5    5    0    0 -0.11110483857E+03  0.45958909612E+03  0.74790540425E+02  0.47870664019E+03  0.00000000000E+00 0. -1.
          5    1    6    6  503    0  0.13170377137E+03  0.64544549744E+02 -0.68557206772E+02  0.16196932702E+03  0.47000000000E+01 0. -1.
         -5    1    6    6    0  503  0.90451901358E+02  0.13559930983E+03 -0.28657231627E+02  0.16556583648E+03  0.47000000000E+01 0.  1.
<mgrwt>
<rscale>  0 0.10665392E+04</rscale>
<asrwt>0</asrwt>
<pdfrwt beam="1">  1        2 0.35517251E+00 0.10665392E+04</pdfrwt>
<pdfrwt beam="2">  1       -2 0.10904165E+00 0.10665392E+04</pdfrwt>
<totfact> 0.29955042E+00</totfact>
</mgrwt>
</event>
<event>
12    1  0.3127365E-008  0.1099170E+04  0.7818608E-02  0.9206002E-01
          2   -1    0    0  501    0  0.00000000000E+00  0.00000000000E+00  0.11591294148E+04  0.11591294148E+04  0.00000000000E+00 0. -1.
         -2   -1    0    0    0  501 -0.00000000000E+00 -0.00000000000E+00 -0.12486117381E+04  0.12486117381E+04  0.00000000000E+00 0.  1.
         23    2    1    2    0    0  0.14549177202E+03  0.10470855762E+04 -0.43101678848E+03  0.11449522179E+04  0.87086450574E+02 0.  0.
    5000000    2    1    2    0    0 -0.14549177202E+03 -0.10470855762E+04  0.34153446519E+03  0.12627889350E+04  0.60036159436E+03 0.  0.
         23    2    4    4    0    0 -0.15957918343E+03 -0.10350277137E+04  0.16549041397E+03  0.10641301323E+04  0.90763303820E+02 0.  0.
         23    2    4    4    0    0  0.14087411415E+02 -0.12057862428E+02  0.17604405122E+03  0.19865880275E+03  0.90166317075E+02 0.  0.
          4    1    3    3  502    0  0.55754096300E+02  0.34010839537E+03 -0.97848379584E+02  0.35826881702E+03  0.00000000000E+00 0. -1.
         -4    1    3    3    0  502  0.89737675718E+02  0.70697718078E+03 -0.33316840889E+03  0.78668340091E+03  0.00000000000E+00 0.  1.
         11    1    5    5    0    0 -0.32553202424E+02 -0.85141072237E+02 -0.24445738681E+01  0.91184917125E+02  0.00000000000E+00 0.  1.
        -11    1    5    5    0    0 -0.12702598101E+03 -0.94988664149E+03  0.16793498784E+03  0.97294521514E+03  0.00000000000E+00 0. -1.
          5    1    6    6  503    0  0.11245351134E+02 -0.50889538526E+02  0.90190780403E+02  0.10427209561E+03  0.47000000000E+01 0. -1.
         -5    1    6    6    0  503  0.28420602812E+01  0.38831676097E+02  0.85853270817E+02  0.94386707142E+02  0.47000000000E+01 0.  1.
<mgrwt>
<rscale>  0 0.10991696E+04</rscale>
<asrwt>0</asrwt>
<pdfrwt beam="1">  1        2 0.17832760E+00 0.10991696E+04</pdfrwt>
<pdfrwt beam="2">  1       -2 0.19209411E+00 0.10991696E+04</pdfrwt>
<totfact> 0.29514770E+00</totfact>
</mgrwt>
</event>
<event>
12    1  0.3127365E-008  0.1384891E+04  0.7818608E-02  0.8964828E-01
         -2   -1    0    0    0  501 -0.00000000000E+00  0.00000000000E+00  0.18419330914E+04  0.18419330914E+04  0.00000000000E+00 0.  1.
          2   -1    0    0  501    0  0.00000000000E+00 -0.00000000000E+00 -0.12629861074E+04  0.12629861074E+04  0.00000000000E+00 0. -1.
         23    2    1    2    0    0 -0.29238938350E+03  0.12915278238E+04  0.91608771436E+03  0.16125266981E+04  0.86544672914E+02 0.  0.
    5000000    2    1    2    0    0  0.29238938350E+03 -0.12915278238E+04 -0.33714073035E+03  0.14923925008E+04  0.60002986011E+03 0.  0.
         23    2    4    4    0    0 -0.14373752453E+02 -0.10342378866E+04 -0.29363065737E+03  0.10792902308E+04  0.93775414973E+02 0.  0.
         23    2    4    4    0    0  0.30676313595E+03 -0.25728993723E+03 -0.43510072983E+02  0.41310227002E+03  0.91970786989E+02 0.  0.
          3    1    3    3  502    0 -0.16510955709E+03  0.60721130355E+03  0.39397575433E+03  0.74241742167E+03  0.00000000000E+00 0. -1.
         -3    1    3    3    0  502 -0.12727982641E+03  0.68431652027E+03  0.52211196003E+03  0.87010927643E+03  0.00000000000E+00 0.  1.
         13    1    5    5    0    0 -0.73402613766E+00 -0.13383718203E+02 -0.16775240034E+02  0.21472572866E+02  0.00000000000E+00 0.  1.
        -13    1    5    5    0    0 -0.13639726315E+02 -0.10208541684E+04 -0.27685541734E+03  0.10578176579E+04  0.00000000000E+00 0. -1.
          5    1    6    6  503    0  0.14307511364E+03 -0.17728985059E+03 -0.12331826249E+02  0.22820241717E+03  0.47000000000E+01 0. -1.
         -5    1    6    6    0  503  0.16368802232E+03 -0.80000086649E+02 -0.31178246734E+02  0.18489985285E+03  0.47000000000E+01 0.  1.
<mgrwt>
<rscale>  0 0.13848909E+04</rscale>
<asrwt>0</asrwt>
<pdfrwt beam="1">  1        2 0.19430555E+00 0.13848909E+04</pdfrwt>
<pdfrwt beam="2">  1       -2 0.28337432E+00 0.13848909E+04</pdfrwt>
<totfact> 0.66619679E-01</totfact>
</mgrwt>
</event>
<event>
12    1  0.3127365E-008  0.1566987E+04  0.7818608E-02  0.8841090E-01
         -2   -1    0    0    0  501 -0.00000000000E+00  0.00000000000E+00  0.55718568896E+03  0.55718568896E+03  0.00000000000E+00 0. -1.
          2   -1    0    0  501    0  0.00000000000E+00 -0.00000000000E+00 -0.46165901324E+04  0.46165901324E+04  0.00000000000E+00 0.  1.
         23    2    1    2    0    0 -0.10351463720E+04  0.11325937381E+04 -0.22704406780E+04  0.27417515582E+04  0.89465901589E+02 0.  0.
    5000000    2    1    2    0    0  0.10351463720E+04 -0.11325937381E+04 -0.17889637654E+04  0.24320242631E+04  0.60004506110E+03 0.  0.
         23    2    4    4    0    0  0.65843516479E+03 -0.41399478799E+03 -0.11689340133E+04  0.14069334456E+04  0.90146781240E+02 0.  0.
         23    2    4    4    0    0  0.37671120720E+03 -0.71859895016E+03 -0.62002975213E+03  0.10250908175E+04  0.89880508965E+02 0.  0.
          1    1    3    3  502    0 -0.75746233139E+03  0.86628194916E+03 -0.16480350688E+04  0.20100281558E+04  0.00000000000E+00 0. -1.
         -1    1    3    3    0  502 -0.27768404059E+03  0.26631178899E+03 -0.62240560920E+03  0.73172340246E+03  0.00000000000E+00 0.  1.
         13    1    5    5    0    0  0.43411424947E+03 -0.31855274662E+03 -0.83264641924E+03  0.99158009936E+03  0.00000000000E+00 0.  1.
        -13    1    5    5    0    0  0.22432091531E+03 -0.95442041368E+02 -0.33628759407E+03  0.41535334624E+03  0.00000000000E+00 0. -1.
          5    1    6    6  503    0  0.90876088710E+02 -0.26399786046E+03 -0.20618449115E+03  0.34711304819E+03  0.47000000000E+01 0. -1.
         -5    1    6    6    0  503  0.28583511849E+03 -0.45460108970E+03 -0.41384526098E+03  0.67797776936E+03  0.47000000000E+01 0.  1.
<mgrwt>
<rscale>  0 0.15669865E+04</rscale>
<asrwt>0</asrwt>
<pdfrwt beam="1">  1        2 0.71024460E+00 0.15669865E+04</pdfrwt>
<pdfrwt beam="2">  1       -2 0.85720880E-01 0.15669865E+04</pdfrwt>
<totfact> 0.10851586E-01</totfact>
</mgrwt>
</event>
<event>
12    1  0.3127365E-008  0.9524822E+03  0.7818608E-02  0.9362254E-01
          2   -1    0    0  501    0  0.00000000000E+00  0.00000000000E+00  0.20650465813E+04  0.20650465813E+04  0.00000000000E+00 0. -1.
         -2   -1    0    0    0  501 -0.00000000000E+00 -0.00000000000E+00 -0.55547933070E+03  0.55547933070E+03  0.00000000000E+00 0.  1.
         23    2    1    2    0    0  0.19310750023E+03 -0.84127351156E+03  0.11731377308E+03  0.87594548558E+03  0.92121357269E+02 0.  0.
    5000000    2    1    2    0    0 -0.19310750023E+03  0.84127351156E+03  0.13922534775E+04  0.17445804264E+04  0.60013289416E+03 0.  0.
         23    2    4    4    0    0  0.19619932470E+03  0.34508365834E+03  0.64515493409E+03  0.76274245739E+03  0.89298718161E+02 0.  0.
         23    2    4    4    0    0 -0.38930682493E+03  0.49618985321E+03  0.74709854339E+03  0.98183796898E+03  0.89918793547E+02 0.  0.
          3    1    3    3  502    0  0.13657711013E+03 -0.69375108490E+03  0.12382957271E+03  0.71782841814E+03  0.00000000000E+00 0. -1.
         -3    1    3    3    0  502  0.56530390099E+02 -0.14752242665E+03 -0.65157996327E+01  0.15811706744E+03  0.00000000000E+00 0.  1.
         13    1    5    5    0    0  0.30012133229E+01  0.67802304844E+02  0.88430094947E+02  0.11147215579E+03  0.00000000000E+00 0. -1.
        -13    1    5    5    0    0  0.19319811138E+03  0.27728135350E+03  0.55672483914E+03  0.65127030160E+03  0.00000000000E+00 0.  1.
          5    1    6    6  503    0 -0.16621722625E+02  0.48960614375E+02  0.90307270625E+02  0.10416773277E+03  0.47000000000E+01 0. -1.
         -5    1    6    6    0  503 -0.37268510230E+03  0.44722923884E+03  0.65679127276E+03  0.87767023621E+03  0.47000000000E+01 0.  1.
<mgrwt>
<rscale>  0 0.95248222E+03</rscale>
<asrwt>0</asrwt>
<pdfrwt beam="1">  1        2 0.31769947E+00 0.95248222E+03</pdfrwt>
<pdfrwt beam="2">  1       -2 0.85458360E-01 0.95248222E+03</pdfrwt>
<totfact> 0.73763889E+00</totfact>
</mgrwt>
</event>
<event>
12    1  0.3127365E-008  0.1702899E+04  0.7818608E-02  0.8759713E-01
          1   -1    0    0  501    0  0.00000000000E+00  0.00000000000E+00  0.19455357867E+04  0.19455357867E+04  0.00000000000E+00 0. -1.
         -1   -1    0    0    0  501 -0.00000000000E+00 -0.00000000000E+00 -0.16094961028E+04  0.16094961028E+04  0.00000000000E+00 0.  1.
         23    2    1    2    0    0 -0.16415697584E+04 -0.25162132715E+03 -0.27622236206E+03  0.16860839385E+04  0.92280499228E+02 0.  0.
    5000000    2    1    2    0    0  0.16415697584E+04  0.25162132715E+03  0.61226204594E+03  0.18689479510E+04  0.60003088799E+03 0.  0.
         23    2    4    4    0    0  0.45033749962E+03 -0.16385837931E+03  0.27560189228E+03  0.55969342310E+03  0.87446513951E+02 0.  0.
         23    2    4    4    0    0  0.11912322588E+04  0.41547970646E+03  0.33666015366E+03  0.13092545279E+04  0.95653953513E+02 0.  0.
          2    1    3    3  502    0 -0.47573802613E+03 -0.10282531551E+03 -0.50742794551E+02  0.48936136567E+03  0.00000000000E+00 0. -1.
         -2    1    3    3    0  502 -0.11658317323E+04 -0.14879601164E+03 -0.22547956751E+03  0.11967225729E+04  0.00000000000E+00 0.  1.
         13    1    5    5    0    0  0.20872554431E+03 -0.72469676349E+02  0.17734746100E+03  0.28332018770E+03  0.00000000000E+00 0.  1.
        -13    1    5    5    0    0  0.24161195531E+03 -0.91388702960E+02  0.98254431274E+02  0.27637323540E+03  0.00000000000E+00 0. -1.
          5    1    6    6  503    0  0.29565125651E+03  0.14258952190E+03  0.10672808641E+03  0.34518750218E+03  0.47000000000E+01 0. -1.
         -5    1    6    6    0  503  0.89558100227E+03  0.27289018456E+03  0.22993206725E+03  0.96406702568E+03  0.47000000000E+01 0.  1.
<mgrwt>
<rscale>  0 0.17028992E+04</rscale>
<asrwt>0</asrwt>
<pdfrwt beam="1">  1        1 0.29931320E+00 0.17028992E+04</pdfrwt>
<pdfrwt beam="2">  1       -1 0.24761478E+00 0.17028992E+04</pdfrwt>
<totfact> 0.21634955E-01</totfact>
</mgrwt>
</event>
<event>
12    1  0.3127365E-008  0.3124059E+03  0.7818608E-02  0.1079198E+00
          1   -1    0    0  501    0  0.00000000000E+00  0.00000000000E+00  0.15359638821E+04  0.15359638821E+04  0.00000000000E+00 0. -1.
         -1   -1    0    0    0  501 -0.00000000000E+00 -0.00000000000E+00 -0.91775048489E+02  0.91775048489E+02  0.00000000000E+00 0.  1.
         23    2    1    2    0    0 -0.70174762756E+02  0.14106642273E+02  0.44590366704E+03  0.46055857794E+03  0.90336198440E+02 0.  0.
    5000000    2    1    2    0    0  0.70174762756E+02 -0.14106642273E+02  0.99828516654E+03  0.11671803526E+04  0.60051078852E+03 0.  0.
         23    2    4    4    0    0  0.17753485325E+03 -0.22294830202E+03  0.29680029616E+03  0.42144266290E+03  0.91098478708E+02 0.  0.
         23    2    4    4    0    0 -0.10736009049E+03  0.20884165974E+03  0.70148487038E+03  0.74573768972E+03  0.94353858534E+02 0.  0.
          4    1    3    3  502    0 -0.32584718585E+02  0.29023384482E+02  0.38491022414E+03  0.38737578833E+03  0.00000000000E+00 0. -1.
         -4    1    3    3    0  502 -0.37590044171E+02 -0.14916742210E+02  0.60993442901E+02  0.73182789615E+02  0.00000000000E+00 0.  1.
         13    1    5    5    0    0  0.38725770316E+02 -0.12032987262E+03  0.13259983366E+03  0.18319847002E+03  0.00000000000E+00 0. -1.
        -13    1    5    5    0    0  0.13880908293E+03 -0.10261842940E+03  0.16420046251E+03  0.23824419289E+03  0.00000000000E+00 0.  1.
          5    1    6    6  503    0 -0.46162783984E+02  0.37371769351E+02  0.28519615519E+03  0.29135303105E+03  0.47000000000E+01 0. -1.
         -5    1    6    6    0  503 -0.61197306510E+02  0.17146989039E+03  0.41628871520E+03  0.45438465867E+03  0.47000000000E+01 0.  1.
<mgrwt>
<rscale>  0 0.31240590E+03</rscale>
<asrwt>0</asrwt>
<pdfrwt beam="1">  1        1 0.23630212E+00 0.31240590E+03</pdfrwt>
<pdfrwt beam="2">  1       -1 0.14119239E-01 0.31240590E+03</pdfrwt>
<totfact> 0.23929003E+02</totfact>
</mgrwt>
</event>
<event>
12    1  0.3127365E-008  0.4457272E+03  0.7818608E-02  0.1029004E+00
         -2   -1    0    0    0  501 -0.00000000000E+00  0.00000000000E+00  0.29960516579E+03  0.29960516579E+03  0.00000000000E+00 0.  1.
          2   -1    0    0  501    0  0.00000000000E+00 -0.00000000000E+00 -0.15109685716E+04  0.15109685716E+04  0.00000000000E+00 0. -1.
         23    2    1    2    0    0 -0.24120081720E+03 -0.31895106394E+03 -0.96113834914E+03  0.10473824014E+04  0.11539217154E+03 0.  0.
    5000000    2    1    2    0    0  0.24120081720E+03  0.31895106394E+03 -0.25022505662E+03  0.76319133590E+03  0.59995068199E+03 0.  0.
         23    2    4    4    0    0  0.26274167667E+03  0.20068714427E+03 -0.41600122682E+03  0.53926637978E+03  0.91884106945E+02 0.  0.
         23    2    4    4    0    0 -0.21540859471E+02  0.11826391967E+03  0.16577617020E+03  0.22392495611E+03  0.90610617702E+02 0.  0.
          4    1    3    3  502    0 -0.18174398203E+03 -0.20816057288E+03 -0.52243604796E+03  0.59101702455E+03  0.00000000000E+00 0. -1.
         -4    1    3    3    0  502 -0.59456835166E+02 -0.11079049106E+03 -0.43870230119E+03  0.45636537689E+03  0.00000000000E+00 0.  1.
         13    1    5    5    0    0 -0.48268189781E+01  0.72612653892E+01 -0.30420976489E+02  0.31645852289E+02  0.00000000000E+00 0. -1.
        -13    1    5    5    0    0  0.26756849565E+03  0.19342587888E+03 -0.38558025034E+03  0.50762052749E+03  0.00000000000E+00 0.  1.
          5    1    6    6  503    0 -0.52131157578E+02  0.38598484882E+02  0.69310217381E+02  0.95044709790E+02  0.47000000000E+01 0. -1.
         -5    1    6    6    0  503  0.30590298107E+02  0.79665434793E+02  0.96465952819E+02  0.12888024632E+03  0.47000000000E+01 0.  1.
<mgrwt>
<rscale>  0 0.44572720E+03</rscale>
<asrwt>0</asrwt>
<pdfrwt beam="1">  1        2 0.23245670E+00 0.44572720E+03</pdfrwt>
<pdfrwt beam="2">  1       -2 0.46093103E-01 0.44572720E+03</pdfrwt>
<totfact> 0.59370325E+01</totfact>
</mgrwt>
</event>
<event>
12    1  0.3127365E-008  0.4830882E+03  0.7818608E-02  0.1018290E+00
          1   -1    0    0  501    0  0.00000000000E+00  0.00000000000E+00  0.16847819997E+04  0.16847819997E+04  0.00000000000E+00 0. -1.
         -1   -1    0    0    0  501 -0.00000000000E+00 -0.00000000000E+00 -0.28670521052E+03  0.28670521052E+03  0.00000000000E+00 0.  1.
         23    2    1    2    0    0 -0.24710278561E+03  0.20824846905E+03 -0.78775682342E+02  0.34494490484E+03  0.91401136381E+02 0.  0.
    5000000    2    1    2    0    0  0.24710278561E+03 -0.20824846905E+03  0.14768524715E+04  0.16265423054E+04  0.60009952258E+03 0.  0.
         23    2    4    4    0    0  0.14785032908E+03 -0.39125927518E+03  0.11662640179E+04  0.12420834094E+04  0.87497978526E+02 0.  0.
         23    2    4    4    0    0  0.99252456522E+02  0.18301080613E+03  0.31058845357E+03  0.38445889592E+03  0.89439643752E+02 0.  0.
          3    1    3    3  502    0 -0.19907763810E+03  0.13226098567E+03 -0.25284608547E+02  0.24034181024E+03  0.00000000000E+00 0. -1.
         -3    1    3    3    0  502 -0.48025147505E+02  0.75987483386E+02 -0.53491073795E+02  0.10460309460E+03  0.00000000000E+00 0.  1.
         13    1    5    5    0    0  0.12614917913E+03 -0.22679370260E+03  0.76753323629E+03  0.81021988851E+03  0.00000000000E+00 0.  1.
        -13    1    5    5    0    0  0.21701149953E+02 -0.16446557258E+03  0.39873078165E+03  0.43186352092E+03  0.00000000000E+00 0. -1.
          5    1    6    6  503    0  0.38787591143E+02  0.11125749022E+03  0.10287628037E+03  0.15648746090E+03  0.47000000000E+01 0. -1.
         -5    1    6    6    0  503  0.60464865379E+02  0.71753315910E+02  0.20771217319E+03  0.22797143501E+03  0.47000000000E+01 0.  1.
<mgrwt>
<rscale>  0 0.48308825E+03</rscale>
<asrwt>0</asrwt>
<pdfrwt beam="1">  1        1 0.25919722E+00 0.48308825E+03</pdfrwt>
<pdfrwt beam="2">  1       -1 0.44108495E-01 0.48308825E+03</pdfrwt>
<totfact> 0.26814135E+01</totfact>
</mgrwt>
</event>
<event>
12    1  0.3127365E-008  0.6658705E+03  0.7818608E-02  0.9777447E-01
         -1   -1    0    0    0  501 -0.00000000000E+00  0.00000000000E+00  0.14954635075E+04  0.14954635075E+04  0.00000000000E+00 0.  1.
          1   -1    0    0  501    0  0.00000000000E+00 -0.00000000000E+00 -0.31193748551E+03  0.31193748551E+03  0.00000000000E+00 0. -1.
         23    2    1    2    0    0  0.61570729355E+02  0.53627433649E+03  0.36583938649E+03  0.65833689817E+03  0.90486994039E+02 0.  0.
    5000000    2    1    2    0    0 -0.61570729355E+02 -0.53627433649E+03  0.81768663552E+03  0.11490640949E+04  0.60029637805E+03 0.  0.
         23    2    4    4    0    0  0.30370081369E+02  0.11306799080E+03  0.11361329612E+03  0.18271511964E+03  0.82280748069E+02 0.  0.
         23    2    4    4    0    0 -0.91940810724E+02 -0.64934232729E+03  0.70407333940E+03  0.96634897522E+03  0.89512591108E+02 0.  0.
          4    1    3    3  502    0  0.83679376095E+02  0.41103395502E+03  0.29441907848E+03  0.51247804240E+03  0.00000000000E+00 0. -1.
         -4    1    3    3    0  502 -0.22108646740E+02  0.12524038146E+03  0.71420308013E+02  0.14585885577E+03  0.00000000000E+00 0.  1.
         11    1    5    5    0    0  0.44296016535E+02  0.10181635678E+03  0.60036908121E+02  0.12622653416E+03  0.00000000000E+00 0. -1.
        -11    1    5    5    0    0 -0.13925935167E+02  0.11251634021E+02  0.53576387999E+02  0.56488585479E+02  0.00000000000E+00 0.  1.
          5    1    6    6  503    0 -0.46031659473E+02 -0.39105205792E+03  0.35909176294E+03  0.53292552002E+03  0.47000000000E+01 0. -1.
         -5    1    6    6    0  503 -0.45909151251E+02 -0.25829026937E+03  0.34498157646E+03  0.43342345520E+03  0.47000000000E+01 0.  1.
<mgrwt>
<rscale>  0 0.66587046E+03</rscale>
<asrwt>0</asrwt>
<pdfrwt beam="1">  1        1 0.47990383E-01 0.66587046E+03</pdfrwt>
<pdfrwt beam="2">  1       -1 0.23007130E+00 0.66587046E+03</pdfrwt>
<totfact> 0.82188038E+00</totfact>
</mgrwt>
</event>
<event>
12    1  0.3127365E-008  0.8707344E+03  0.7818608E-02  0.9462923E-01
         -2   -1    0    0    0  501 -0.00000000000E+00  0.00000000000E+00  0.44339091893E+03  0.44339091893E+03  0.00000000000E+00 0.  1.
          2   -1    0    0  501    0  0.00000000000E+00 -0.00000000000E+00 -0.21954203344E+04  0.21954203344E+04  0.00000000000E+00 0. -1.
         23    2    1    2    0    0 -0.79195274344E+03  0.12652162402E+03 -0.27200486012E+03  0.85173974157E+03  0.90978427454E+02 0.  0.
    5000000    2    1    2    0    0  0.79195274344E+03 -0.12652162402E+03 -0.14800245554E+04  0.17870715118E+04  0.59996252763E+03 0.  0.
         23    2    4    4    0    0  0.56845555572E+03 -0.30283425259E+03 -0.12568096016E+04  0.14148309201E+04  0.85591204667E+02 0.  0.
         23    2    4    4    0    0  0.22349718772E+03  0.17631262856E+03 -0.22321495374E+03  0.37224059171E+03  0.87755379491E+02 0.  0.
          4    1    3    3  502    0 -0.69518740264E+03  0.13902301047E+03 -0.24981776040E+03  0.75167934363E+03  0.00000000000E+00 0. -1.
         -4    1    3    3    0  502 -0.96765340796E+02 -0.12501386441E+02 -0.22187099720E+02  0.10006039794E+03  0.00000000000E+00 0.  1.
         11    1    5    5    0    0  0.10636742328E+03 -0.96648898969E+02 -0.28372184918E+03  0.31804579247E+03  0.00000000000E+00 0. -1.
        -11    1    5    5    0    0  0.46208813244E+03 -0.20618535362E+03 -0.97308775244E+03  0.10967851276E+04  0.00000000000E+00 0.  1.
          5    1    6    6  503    0  0.14845225358E+03  0.12580695799E+03 -0.98634721041E+02  0.21821173311E+03  0.47000000000E+01 0. -1.
         -5    1    6    6    0  503  0.75044934137E+02  0.50505670569E+02 -0.12458023270E+03  0.15402885859E+03  0.47000000000E+01 0.  1.
<mgrwt>
<rscale>  0 0.87073438E+03</rscale>
<asrwt>0</asrwt>
<pdfrwt beam="1">  1        2 0.33775697E+00 0.87073438E+03</pdfrwt>
<pdfrwt beam="2">  1       -2 0.68213988E-01 0.87073438E+03</pdfrwt>
<totfact> 0.10442432E+01</totfact>
</mgrwt>
</event>
<event>
12    1  0.3127365E-008  0.1142458E+04  0.7818608E-02  0.9164770E-01
          1   -1    0    0  501    0  0.00000000000E+00  0.00000000000E+00  0.16551428192E+04  0.16551428192E+04  0.00000000000E+00 0. -1.
         -1   -1    0    0    0  501 -0.00000000000E+00 -0.00000000000E+00 -0.14535039128E+04  0.14535039128E+04  0.00000000000E+00 0.  1.
         23    2    1    2    0    0 -0.46797571566E+02 -0.10745038102E+04  0.11326978478E+04  0.15647791461E+04  0.93706515192E+02 0.  0.
    5000000    2    1    2    0    0  0.46797571566E+02  0.10745038102E+04 -0.93105894143E+03  0.15438675858E+04  0.59992326113E+03 0.  0.
         23    2    4    4    0    0  0.26760283759E+03  0.84971386165E+03 -0.75647492406E+03  0.11724065360E+04  0.93047566255E+02 0.  0.
         23    2    4    4    0    0 -0.22080526603E+03  0.22478994850E+03 -0.17458401737E+03  0.37146104976E+03  0.90654541620E+02 0.  0.
          2    1    3    3  502    0 -0.11744893524E+02 -0.65019625384E+03  0.74569571275E+03  0.98942165281E+03  0.00000000000E+00 0.  1.
         -2    1    3    3    0  502 -0.35052678042E+02 -0.42430755631E+03  0.38700213509E+03  0.57535749334E+03  0.00000000000E+00 0. -1.
         11    1    5    5    0    0  0.20051145973E+03  0.67298640391E+03 -0.54605713404E+03  0.88954704146E+03  0.00000000000E+00 0.  1.
        -11    1    5    5    0    0  0.67091377857E+02  0.17672745774E+03 -0.21041779002E+03  0.28285949456E+03  0.00000000000E+00 0. -1.
          5    1    6    6  503    0 -0.18207171367E+03  0.16240848547E+03 -0.17065373630E+03  0.29777745513E+03  0.47000000000E+01 0. -1.
         -5    1    6    6    0  503 -0.38733552360E+02  0.62381463032E+02 -0.39302810668E+01  0.73683594631E+02  0.47000000000E+01 0.  1.
<mgrwt>
<rscale>  0 0.11424579E+04</rscale>
<asrwt>0</asrwt>
<pdfrwt beam="1">  1        1 0.25463736E+00 0.11424579E+04</pdfrwt>
<pdfrwt beam="2">  1       -1 0.22361599E+00 0.11424579E+04</pdfrwt>
<totfact> 0.52619559E-01</totfact>
</mgrwt>
</event>
<event>
12    1  0.3127365E-008  0.8418310E+03  0.7818608E-02  0.9501367E-01
         -2   -1    0    0    0  501 -0.00000000000E+00  0.00000000000E+00  0.32855008347E+03  0.32855008347E+03  0.00000000000E+00 0.  1.
          2   -1    0    0  501    0  0.00000000000E+00 -0.00000000000E+00 -0.26176737896E+04  0.26176737896E+04  0.00000000000E+00 0. -1.
         23    2    1    2    0    0  0.49705165231E+03 -0.55278331388E+03 -0.16057125432E+04  0.17716543250E+04  0.88411190692E+02 0.  0.
    5000000    2    1    2    0    0 -0.49705165231E+03  0.55278331388E+03 -0.68341116291E+03  0.11745695481E+04  0.59994422117E+03 0.  0.
         23    2    4    4    0    0  0.11073747517E+03  0.37166804980E+02 -0.14983657982E+03  0.21129707257E+03  0.92473198416E+02 0.  0.
         23    2    4    4    0    0 -0.60778912748E+03  0.51561650890E+03 -0.53357458309E+03  0.96327247550E+03  0.89016956874E+02 0.  0.
          2    1    3    3  502    0  0.24297535723E+03 -0.20799418525E+03 -0.71851918183E+03  0.78649120782E+03  0.00000000000E+00 0. -1.
         -2    1    3    3    0  502  0.25407629508E+03 -0.34478912862E+03 -0.88719336135E+03  0.98516311714E+03  0.00000000000E+00 0.  1.
         11    1    5    5    0    0  0.68559438378E+02 -0.12206688305E+02 -0.31750799183E+02  0.76534391477E+02  0.00000000000E+00 0. -1.
        -11    1    5    5    0    0  0.42178036794E+02  0.49373493285E+02 -0.11808578064E+03  0.13476268110E+03  0.00000000000E+00 0.  1.
          5    1    6    6  503    0 -0.37581301400E+03  0.26792901564E+03 -0.33159319337E+03  0.56832870313E+03  0.47000000000E+01 0. -1.
         -5    1    6    6    0  503 -0.23197611348E+03  0.24768749326E+03 -0.20198138972E+03  0.39494377237E+03  0.47000000000E+01 0.  1.
<mgrwt>
<rscale>  0 0.84183099E+03</rscale>
<asrwt>0</asrwt>
<pdfrwt beam="1">  1        2 0.40271904E+00 0.84183099E+03</pdfrwt>
<pdfrwt beam="2">  1       -2 0.50546168E-01 0.84183099E+03</pdfrwt>
<totfact> 0.11396075E+01</totfact>
</mgrwt>
</event>
<event>
12    1  0.3127365E-008  0.6677124E+03  0.7818608E-02  0.9774099E-01
         -2   -1    0    0    0  501 -0.00000000000E+00  0.00000000000E+00  0.47727219903E+03  0.47727219903E+03  0.00000000000E+00 0. -1.
          2   -1    0    0  501    0  0.00000000000E+00 -0.00000000000E+00 -0.20050452673E+04  0.20050452673E+04  0.00000000000E+00 0.  1.
         23    2    1    2    0    0  0.11966154148E+03  0.64395350587E+03  0.59871274080E+02  0.66305209001E+03  0.84014893791E+02 0.  0.
    5000000    2    1    2    0    0 -0.11966154148E+03 -0.64395350587E+03 -0.15876443424E+04  0.18192653763E+04  0.60009744995E+03 0.  0.
         23    2    4    4    0    0 -0.87186602198E+02 -0.40836885913E+03 -0.14837155657E+04  0.15440842719E+04  0.91748189302E+02 0.  0.
         23    2    4    4    0    0 -0.32474939281E+02 -0.23558464674E+03 -0.10392877671E+03  0.27518110444E+03  0.91480610779E+02 0.  0.
          3    1    3    3  502    0  0.82665032791E+02  0.47806398630E+03  0.75532804248E+01  0.48521720362E+03  0.00000000000E+00 0. -1.
         -3    1    3    3    0  502  0.36996508687E+02  0.16588951957E+03  0.52317993655E+02  0.17783488639E+03  0.00000000000E+00 0.  1.
         13    1    5    5    0    0 -0.73410715414E+02 -0.40700611700E+03 -0.14289005714E+04  0.14875483035E+04  0.00000000000E+00 0.  1.
        -13    1    5    5    0    0 -0.13775886784E+02 -0.13627421235E+01 -0.54814994246E+02  0.56535968348E+02  0.00000000000E+00 0. -1.
          5    1    6    6  503    0  0.10041601472E+02  0.21829589707E+01 -0.12561255231E+02  0.16895981859E+02  0.47000000000E+01 0. -1.
         -5    1    6    6    0  503 -0.42516540753E+02 -0.23776760571E+03 -0.91367521482E+02  0.25828512258E+03  0.47000000000E+01 0.  1.
<mgrwt>
<rscale>  0 0.66771237E+03</rscale>
<asrwt>0</asrwt>
<pdfrwt beam="1">  1        2 0.30846851E+00 0.66771237E+03</pdfrwt>
<pdfrwt beam="2">  1       -2 0.73426491E-01 0.66771237E+03</pdfrwt>
<totfact> 0.11653057E+01</totfact>
</mgrwt>
</event>
<event>
12    1  0.3127365E-008  0.8487662E+03  0.7818608E-02  0.9491994E-01
          2   -1    0    0  501    0  0.00000000000E+00  0.00000000000E+00  0.13140667801E+04  0.13140667801E+04  0.00000000000E+00 0. -1.
         -2   -1    0    0    0  501 -0.00000000000E+00 -0.00000000000E+00 -0.71640187912E+03  0.71640187912E+03  0.00000000000E+00 0.  1.
         23    2    1    2    0    0  0.44542439714E+03  0.63090878193E+03 -0.15919482322E+03  0.79386624639E+03  0.91825055064E+02 0.  0.
    5000000    2    1    2    0    0 -0.44542439714E+03 -0.63090878193E+03  0.75685972417E+03  0.12366024128E+04  0.59991674471E+03 0.  0.
         23    2    4    4    0    0 -0.32351636019E+03 -0.64127475038E+02  0.10302120704E+03  0.35790909374E+03  0.93329426851E+02 0.  0.
         23    2    4    4    0    0 -0.12190803695E+03 -0.56678130689E+03  0.65383851713E+03  0.87869331906E+03  0.92165737449E+02 0.  0.
          1    1    3    3  502    0  0.24824659439E+03  0.33761362789E+03 -0.40306995873E+02  0.42099167127E+03  0.00000000000E+00 0. -1.
         -1    1    3    3    0  502  0.19717780276E+03  0.29329515404E+03 -0.11888782735E+03  0.37287457512E+03  0.00000000000E+00 0.  1.
         13    1    5    5    0    0 -0.10339193403E+02  0.13439722176E+02 -0.49797874270E+01  0.17672671989E+02  0.00000000000E+00 0.  1.
        -13    1    5    5    0    0 -0.31317716679E+03 -0.77567197213E+02  0.10800099447E+03  0.34023642175E+03  0.00000000000E+00 0. -1.
          5    1    6    6  503    0 -0.80075728169E+02 -0.18862004424E+03  0.19888731294E+03  0.28560093938E+03  0.47000000000E+01 0. -1.
         -5    1    6    6    0  503 -0.41832308782E+02 -0.37816126265E+03  0.45495120419E+03  0.59309237967E+03  0.47000000000E+01 0.  1.
<mgrwt>
<rscale>  0 0.84876624E+03</rscale>
<asrwt>0</asrwt>
<pdfrwt beam="1">  1        2 0.20216412E+00 0.84876624E+03</pdfrwt>
<pdfrwt beam="2">  1       -2 0.11021567E+00 0.84876624E+03</pdfrwt>
<totfact> 0.10707267E+01</totfact>
</mgrwt>
</event>
<event>
12    1  0.3127365E-008  0.8405277E+03  0.7818608E-02  0.9503139E-01
          2   -1    0    0  501    0  0.00000000000E+00  0.00000000000E+00  0.14301577519E+04  0.14301577519E+04  0.00000000000E+00 0.  1.
         -2   -1    0    0    0  501 -0.00000000000E+00 -0.00000000000E+00 -0.61656178668E+03  0.61656178668E+03  0.00000000000E+00 0. -1.
         23    2    1    2    0    0 -0.38493673609E+03  0.66394916540E+03  0.74124531268E+03  0.10707646368E+04  0.89930577542E+02 0.  0.
    5000000    2    1    2    0    0  0.38493673609E+03 -0.66394916540E+03  0.72350652573E+02  0.97595490183E+03  0.59853869420E+03 0.  0.
         23    2    4    4    0    0  0.41383897639E+03 -0.23016813324E+03  0.18890265173E+03  0.51750776487E+03  0.88825710980E+02 0.  0.
         23    2    4    4    0    0 -0.28902240295E+02 -0.43378103217E+03 -0.11655199916E+03  0.45844713697E+03  0.87109617842E+02 0.  0.
          1    1    3    3  502    0 -0.23214832542E+03  0.36459584206E+03  0.35988283602E+03  0.56243988897E+03  0.00000000000E+00 0. -1.
         -1    1    3    3    0  502 -0.15278841067E+03  0.29935332334E+03  0.38136247666E+03  0.50832474781E+03  0.00000000000E+00 0.  1.
         13    1    5    5    0    0  0.13081494339E+03 -0.10097290715E+03  0.29258249473E+02  0.16782169870E+03  0.00000000000E+00 0.  1.
        -13    1    5    5    0    0  0.28302403300E+03 -0.12919522608E+03  0.15964440226E+03  0.34968606617E+03  0.00000000000E+00 0. -1.
          5    1    6    6  503    0 -0.33932107761E+02 -0.23683116356E+03 -0.23300001028E+02  0.24042746935E+03  0.47000000000E+01 0. -1.
         -5    1    6    6    0  503  0.50298674661E+01 -0.19694986861E+03 -0.93251998131E+02  0.21801966762E+03  0.47000000000E+01 0.  1.
<mgrwt>
<rscale>  0 0.84052771E+03</rscale>
<asrwt>0</asrwt>
<pdfrwt beam="1">  1        2 0.22002427E+00 0.84052771E+03</pdfrwt>
<pdfrwt beam="2">  1       -2 0.94855660E-01 0.84052771E+03</pdfrwt>
<totfact> 0.13164770E+01</totfact>
</mgrwt>
</event>
<event>
12    1  0.3127365E-008  0.8019143E+03  0.7818608E-02  0.9557250E-01
         -1   -1    0    0    0  501 -0.00000000000E+00  0.00000000000E+00  0.39625780119E+03  0.39625780119E+03  0.00000000000E+00 0.  1.
          1   -1    0    0  501    0  0.00000000000E+00 -0.00000000000E+00 -0.16446221443E+04  0.16446221443E+04  0.00000000000E+00 0. -1.
         23    2    1    2    0    0  0.68997881183E+03 -0.54448603476E+02 -0.51112573994E+03  0.86514182150E+03  0.90473410889E+02 0.  0.
    5000000    2    1    2    0    0 -0.68997881183E+03  0.54448603476E+02 -0.73723860314E+03  0.11757381240E+04  0.59983661692E+03 0.  0.
         23    2    4    4    0    0 -0.69261898222E+03  0.21836453982E+03 -0.59043221345E+03  0.94032806437E+03  0.90567892659E+02 0.  0.
         23    2    4    4    0    0  0.26401703898E+01 -0.16391593635E+03 -0.14680638970E+03  0.23541005960E+03  0.83608464990E+02 0.  0.
          2    1    3    3  502    0  0.21515158102E+03 -0.18314521894E+02 -0.10907495188E+03  0.24191521171E+03  0.00000000000E+00 0. -1.
         -2    1    3    3    0  502  0.47482723081E+03 -0.36134081581E+02 -0.40205078806E+03  0.62322660979E+03  0.00000000000E+00 0.  1.
         11    1    5    5    0    0 -0.41335047974E+03  0.93700363913E+02 -0.37849496105E+03  0.56824010140E+03  0.00000000000E+00 0.  1.
        -11    1    5    5    0    0 -0.27926850248E+03  0.12466417591E+03 -0.21193725239E+03  0.37208796297E+03  0.00000000000E+00 0. -1.
          5    1    6    6  503    0  0.39993188649E+02 -0.68543871008E+02 -0.47162867722E+02  0.92434536202E+02  0.47000000000E+01 0. -1.
         -5    1    6    6    0  503 -0.37353018260E+02 -0.95372065340E+02 -0.99643521973E+02  0.14297552340E+03  0.47000000000E+01 0.  1.
<mgrwt>
<rscale>  0 0.80191428E+03</rscale>
<asrwt>0</asrwt>
<pdfrwt beam="1">  1        1 0.25301880E+00 0.80191428E+03</pdfrwt>
<pdfrwt beam="2">  1       -1 0.60962737E-01 0.80191428E+03</pdfrwt>
<totfact> 0.14630111E+01</totfact>
</mgrwt>
</event>
<event>
12    1  0.3127365E-008  0.5556473E+03  0.7818608E-02  0.1000195E+00
         -1   -1    0    0    0  501 -0.00000000000E+00  0.00000000000E+00  0.27891042853E+03  0.27891042853E+03  0.00000000000E+00 0.  1.
          1   -1    0    0  501    0  0.00000000000E+00 -0.00000000000E+00 -0.17806617179E+04  0.17806617179E+04  0.00000000000E+00 0. -1.
         23    2    1    2    0    0  0.54860353560E+02  0.44788219392E+03 -0.10229140482E+03  0.47148191423E+03  0.90683768778E+02 0.  0.
    5000000    2    1    2    0    0 -0.54860353560E+02 -0.44788219392E+03 -0.13994598845E+04  0.15880902322E+04  0.59994541343E+03 0.  0.
         23    2    4    4    0    0 -0.20849895674E+03 -0.43377858974E+03 -0.62960046059E+03  0.79756247392E+03  0.89852545562E+02 0.  0.
         23    2    4    4    0    0  0.15363860318E+03 -0.14103604185E+02 -0.76985942392E+03  0.79052775824E+03  0.91906865434E+02 0.  0.
          2    1    3    3  502    0 -0.20650512420E+02  0.19192201150E+03 -0.52095392662E+02  0.19993607002E+03  0.00000000000E+00 0. -1.
         -2    1    3    3    0  502  0.75510865980E+02  0.25596018243E+03 -0.50196012157E+02  0.27154584421E+03  0.00000000000E+00 0.  1.
         13    1    5    5    0    0 -0.31888711038E+02 -0.66864344776E+02 -0.50614688283E+02  0.89719435821E+02  0.00000000000E+00 0. -1.
        -13    1    5    5    0    0 -0.17661024571E+03 -0.36691424496E+03 -0.57898577231E+03  0.70784303810E+03  0.00000000000E+00 0.  1.
          5    1    6    6  503    0  0.77260864322E+02  0.28555869192E+02 -0.24794186217E+03  0.26130812432E+03  0.47000000000E+01 0. -1.
         -5    1    6    6    0  503  0.76377738863E+02 -0.42659473376E+02 -0.52191756174E+03  0.52921963391E+03  0.47000000000E+01 0.  1.
<mgrwt>
<rscale>  0 0.55564734E+03</rscale>
<asrwt>0</asrwt>
<pdfrwt beam="1">  1        1 0.27394795E+00 0.55564734E+03</pdfrwt>
<pdfrwt beam="2">  1       -1 0.42909297E-01 0.55564734E+03</pdfrwt>
<totfact> 0.24014432E+01</totfact>
</mgrwt>
</event>
<event>
12    1  0.3127365E-008  0.7194944E+03  0.7818608E-02  0.9684463E-01
         -2   -1    0    0    0  501 -0.00000000000E+00  0.00000000000E+00  0.46807500366E+03  0.46807500366E+03  0.00000000000E+00 0.  1.
          2   -1    0    0  501    0  0.00000000000E+00 -0.00000000000E+00 -0.16548299067E+04  0.16548299067E+04  0.00000000000E+00 0. -1.
         23    2    1    2    0    0 -0.57733639625E+03  0.17342397320E+03  0.60493782637E+02  0.61324197052E+03  0.94936967264E+02 0.  0.
    5000000    2    1    2    0    0  0.57733639625E+03 -0.17342397320E+03 -0.12472486856E+04  0.15096629398E+04  0.60004976384E+03 0.  0.
         23    2    4    4    0    0  0.43262715754E+01 -0.24827759644E+03 -0.35861876955E+03  0.44529649846E+03  0.89560416225E+02 0.  0.
         23    2    4    4    0    0  0.57301012467E+03  0.74853623238E+02 -0.88862991609E+03  0.10643664413E+04  0.96276299214E+02 0.  0.
          2    1    3    3  502    0 -0.36049417044E+03  0.14552199005E+03  0.10149177898E+02  0.38889034743E+03  0.00000000000E+00 0. -1.
         -2    1    3    3    0  502 -0.21684222580E+03  0.27901983146E+02  0.50344604739E+02  0.22435162308E+03  0.00000000000E+00 0.  1.
         13    1    5    5    0    0 -0.15811697118E+02 -0.10355961400E+03 -0.22102800518E+03  0.24459759298E+03  0.00000000000E+00 0.  1.
        -13    1    5    5    0    0  0.20137968693E+02 -0.14471798244E+03 -0.13759076437E+03  0.20069890549E+03  0.00000000000E+00 0. -1.
          5    1    6    6  503    0  0.31626829670E+02  0.17082868789E+02 -0.97136512509E+02  0.10368062897E+03  0.47000000000E+01 0. -1.
         -5    1    6    6    0  503  0.54138329500E+03  0.57770754450E+02 -0.79149340358E+03  0.96068581237E+03  0.47000000000E+01 0.  1.
<mgrwt>
<rscale>  0 0.71949435E+03</rscale>
<asrwt>0</asrwt>
<pdfrwt beam="1">  1        2 0.25458922E+00 0.71949435E+03</pdfrwt>
<pdfrwt beam="2">  1       -2 0.72011539E-01 0.71949435E+03</pdfrwt>
<totfact> 0.18718462E+01</totfact>
</mgrwt>
</event>
<event>
12    1  0.3127365E-008  0.1512463E+04  0.7818608E-02  0.8876207E-01
         -1   -1    0    0    0  501 -0.00000000000E+00  0.00000000000E+00  0.96106826306E+03  0.96106826306E+03  0.00000000000E+00 0.  1.
          1   -1    0    0  501    0  0.00000000000E+00 -0.00000000000E+00 -0.25987783659E+04  0.25987783659E+04  0.00000000000E+00 0. -1.
         23    2    1    2    0    0  0.14956685088E+04 -0.17754464283E+03 -0.10370254187E+04  0.18308844438E+04  0.90386609744E+02 0.  0.
    5000000    2    1    2    0    0 -0.14956685088E+04  0.17754464283E+03 -0.60068468415E+03  0.17289621852E+04  0.59995146444E+03 0.  0.
         23    2    4    4    0    0 -0.23718539648E+03  0.63444133606E+02 -0.35330859418E+03  0.43813452090E+03  0.82781793261E+02 0.  0.
         23    2    4    4    0    0 -0.12584831123E+04  0.11410050922E+03 -0.24737608998E+03  0.12908276643E+04  0.90787988463E+02 0.  0.
          4    1    3    3  502    0  0.77940936173E+03 -0.94472514992E+02 -0.59522261553E+03  0.98523802773E+03  0.00000000000E+00 0. -1.
         -4    1    3    3    0  502  0.71625914704E+03 -0.83072127836E+02 -0.44180280320E+03  0.84564641610E+03  0.00000000000E+00 0.  1.
         11    1    5    5    0    0 -0.58209165209E+02 -0.12203835902E+02 -0.48893202605E+02  0.76992115090E+02  0.00000000000E+00 0.  1.
        -11    1    5    5    0    0 -0.17897623127E+03  0.75647969507E+02 -0.30441539157E+03  0.36114240581E+03  0.00000000000E+00 0. -1.
          5    1    6    6  503    0 -0.15038149042E+03  0.32003627972E+02 -0.70259694215E+01  0.15398142457E+03  0.47000000000E+01 0. -1.
         -5    1    6    6    0  503 -0.11081016219E+04  0.82096881251E+02 -0.24035012055E+03  0.11368462397E+04  0.47000000000E+01 0.  1.
<mgrwt>
<rscale>  0 0.15124628E+04</rscale>
<asrwt>0</asrwt>
<pdfrwt beam="1">  1        1 0.39981205E+00 0.15124628E+04</pdfrwt>
<pdfrwt beam="2">  1       -1 0.14785666E+00 0.15124628E+04</pdfrwt>
<totfact> 0.39794431E-01</totfact>
</mgrwt>
</event>
<event>
12    1  0.3127365E-008  0.8103023E+03  0.7818608E-02  0.9545224E-01
          2   -1    0    0  501    0  0.00000000000E+00  0.00000000000E+00  0.45827968930E+04  0.45827968930E+04  0.00000000000E+00 0.  1.
         -2   -1    0    0    0  501 -0.00000000000E+00 -0.00000000000E+00 -0.24926110300E+03  0.24926110300E+03  0.00000000000E+00 0. -1.
         23    2    1    2    0    0 -0.21446726823E+03  0.72672594112E+03  0.58703222084E+03  0.96289110542E+03  0.91791339174E+02 0.  0.
    5000000    2    1    2    0    0  0.21446726823E+03 -0.72672594112E+03  0.37465035692E+04  0.38691668906E+04  0.60003052496E+03 0.  0.
         23    2    4    4    0    0  0.19864418635E+02 -0.61333183643E+03  0.33108918924E+04  0.33685161123E+04  0.91242199396E+02 0.  0.
         23    2    4    4    0    0  0.19460284960E+03 -0.11339410469E+03  0.43561167676E+03  0.50065077830E+03  0.10082250158E+03 0.  0.
          4    1    3    3  502    0 -0.16292951500E+03  0.63765672370E+03  0.48134055155E+03  0.81537773499E+03  0.00000000000E+00 0.  1.
         -4    1    3    3    0  502 -0.51537753228E+02  0.89069217419E+02  0.10569166929E+03  0.14751337043E+03  0.00000000000E+00 0. -1.
         11    1    5    5    0    0  0.54290162071E+02 -0.29269895935E+03  0.15432551938E+04  0.15717050282E+04  0.00000000000E+00 0. -1.
        -11    1    5    5    0    0 -0.34425743437E+02 -0.32063287709E+03  0.17676366986E+04  0.17968110841E+04  0.00000000000E+00 0.  1.
          5    1    6    6  503    0  0.17817584854E+03 -0.12589709420E+03  0.42309678954E+03  0.47605639860E+03  0.47000000000E+01 0. -1.
         -5    1    6    6    0  503  0.16427001053E+02  0.12502989510E+02  0.12514887227E+02  0.24594379695E+02  0.47000000000E+01 0.  1.
<mgrwt>
<rscale>  0 0.81030228E+03</rscale>
<asrwt>0</asrwt>
<pdfrwt beam="1">  1        2 0.70504562E+00 0.81030228E+03</pdfrwt>
<pdfrwt beam="2">  1       -2 0.38347865E-01 0.81030228E+03</pdfrwt>
<totfact> 0.73669846E-01</totfact>
</mgrwt>
</event>
<event>
12    1  0.3127365E-008  0.5597618E+03  0.7818608E-02  0.9992594E-01
         -2   -1    0    0    0  501 -0.00000000000E+00  0.00000000000E+00  0.30987219904E+03  0.30987219904E+03  0.00000000000E+00 0. -1.
          2   -1    0    0  501    0  0.00000000000E+00 -0.00000000000E+00 -0.20333466280E+04  0.20333466280E+04  0.00000000000E+00 0.  1.
         23    2    1    2    0    0  0.32412532344E+03 -0.30522390103E+03 -0.14944458641E+04  0.15617307346E+04  0.86113829424E+02 0.  0.
    5000000    2    1    2    0    0 -0.32412532344E+03  0.30522390103E+03 -0.22902856486E+03  0.78148809244E+03  0.60004224855E+03 0.  0.
         23    2    4    4    0    0 -0.33584377177E+03 -0.20298537047E+02  0.36314549730E+02  0.35166224178E+03  0.95626963427E+02 0.  0.
         23    2    4    4    0    0  0.11718448328E+02  0.32552243808E+03 -0.26534311459E+03  0.42982585066E+03  0.90780580010E+02 0.  0.
          1    1    3    3  502    0  0.19196879046E+03 -0.17772519347E+03 -0.72749823571E+03  0.77310538988E+03  0.00000000000E+00 0. -1.
         -1    1    3    3    0  502  0.13215653298E+03 -0.12749870757E+03 -0.76694762843E+03  0.78862534476E+03  0.00000000000E+00 0.  1.
         13    1    5    5    0    0 -0.13191046255E+03 -0.45203160213E+02 -0.14002457757E+02  0.14014194464E+03  0.00000000000E+00 0.  1.
        -13    1    5    5    0    0 -0.20393330921E+03  0.24904623166E+02  0.50317007487E+02  0.21152029714E+03  0.00000000000E+00 0. -1.
          5    1    6    6  503    0  0.29948757637E+02  0.23398452952E+03 -0.14307107368E+03  0.27592953858E+03  0.47000000000E+01 0. -1.
         -5    1    6    6    0  503 -0.18230309310E+02  0.91537908562E+02 -0.12227204092E+03  0.15389631208E+03  0.47000000000E+01 0.  1.
<mgrwt>
<rscale>  0 0.55976184E+03</rscale>
<asrwt>0</asrwt>
<pdfrwt beam="1">  1        2 0.31282256E+00 0.55976184E+03</pdfrwt>
<pdfrwt beam="2">  1       -2 0.47672645E-01 0.55976184E+03</pdfrwt>
<totfact> 0.28409125E+01</totfact>
</mgrwt>
</event>
<event>
12    1  0.3127365E-008  0.5881930E+03  0.7818608E-02  0.9930209E-01
          1   -1    0    0  501    0  0.00000000000E+00  0.00000000000E+00  0.91494485559E+03  0.91494485559E+03  0.00000000000E+00 0. -1.
         -1   -1    0    0    0  501 -0.00000000000E+00 -0.00000000000E+00 -0.47385087155E+03  0.47385087155E+03  0.00000000000E+00 0.  1.
         23    2    1    2    0    0  0.34014922818E+03  0.34027112421E+03 -0.21606682652E+02  0.49142349966E+03  0.97694789418E+02 0.  0.
    5000000    2    1    2    0    0 -0.34014922818E+03 -0.34027112421E+03  0.46270066669E+03  0.89737222748E+03  0.59974917447E+03 0.  0.
         23    2    4    4    0    0 -0.28207261927E+03  0.47741200653E+02  0.20006714824E+02  0.29896464945E+03  0.84471345463E+02 0.  0.
         23    2    4    4    0    0 -0.58076608916E+02 -0.38801232486E+03  0.44269395187E+03  0.59840757802E+03  0.90483355744E+02 0.  0.
          3    1    3    3  502    0  0.45210109203E+02  0.63794016974E+02 -0.37776391769E+02  0.86837125418E+02  0.00000000000E+00 0. -1.
         -3    1    3    3    0  502  0.29493911898E+03  0.27647710724E+03  0.16169709117E+02  0.40458637424E+03  0.00000000000E+00 0.  1.
         13    1    5    5    0    0 -0.51409288439E+02 -0.16135539184E+02 -0.17600140090E+02  0.56683643971E+02  0.00000000000E+00 0.  1.
        -13    1    5    5    0    0 -0.23066333083E+03  0.63876739837E+02  0.37606854915E+02  0.24228100548E+03  0.00000000000E+00 0. -1.
          5    1    6    6  503    0 -0.46993699478E+02 -0.83303003600E+02  0.13187831961E+03  0.16297784937E+03  0.47000000000E+01 0. -1.
         -5    1    6    6    0  503 -0.11082909438E+02 -0.30470932126E+03  0.31081563226E+03  0.43542972866E+03  0.47000000000E+01 0.  1.
<mgrwt>
<rscale>  0 0.58819297E+03</rscale>
<asrwt>0</asrwt>
<pdfrwt beam="1">  1        1 0.14076075E+00 0.58819297E+03</pdfrwt>
<pdfrwt beam="2">  1       -1 0.72900134E-01 0.58819297E+03</pdfrwt>
<totfact> 0.35089756E+01</totfact>
</mgrwt>
</event>
<event>
12    1  0.3127365E-008  0.4103763E+03  0.7818608E-02  0.1040245E+00
          1   -1    0    0  501    0  0.00000000000E+00  0.00000000000E+00  0.18600844456E+04  0.18600844456E+04  0.00000000000E+00 0. -1.
         -1   -1    0    0    0  501 -0.00000000000E+00 -0.00000000000E+00 -0.10814299407E+03  0.10814299407E+03  0.00000000000E+00 0.  1.
         23    2    1    2    0    0  0.19726589133E+03  0.78149436613E+02  0.71872983905E+03  0.75477404760E+03  0.89945066950E+02 0.  0.
    5000000    2    1    2    0    0 -0.19726589133E+03 -0.78149436613E+02  0.10332116125E+04  0.12134533921E+04  0.59993477332E+03 0.  0.
         23    2    4    4    0    0  0.42141231148E+02 -0.27533820886E+03  0.64043449880E+03  0.70447269276E+03  0.92403544156E+02 0.  0.
         23    2    4    4    0    0 -0.23940712248E+03  0.19718877225E+03  0.39277711371E+03  0.50898069934E+03  0.92673130115E+02 0.  0.
          2    1    3    3  502    0  0.19577288950E+03  0.79469624938E+02  0.72125001847E+03  0.75156106518E+03  0.00000000000E+00 0. -1.
         -2    1    3    3    0  502  0.14930018285E+01 -0.13201883251E+01 -0.25201794259E+01  0.32129824171E+01  0.00000000000E+00 0.  1.
         11    1    5    5    0    0  0.56591780740E+02 -0.15047841007E+03  0.43355335381E+03  0.46240122420E+03  0.00000000000E+00 0.  1.
        -11    1    5    5    0    0 -0.14450549592E+02 -0.12485979879E+03  0.20688114499E+03  0.24207146856E+03  0.00000000000E+00 0. -1.
          5    1    6    6  503    0 -0.14545203938E+03  0.66542268077E+02  0.16301413493E+03  0.22842912990E+03  0.47000000000E+01 0. -1.
         -5    1    6    6    0  503 -0.93955083095E+02  0.13064650417E+03  0.22976297878E+03  0.28055156943E+03  0.47000000000E+01 0.  1.
<mgrwt>
<rscale>  0 0.41037631E+03</rscale>
<asrwt>0</asrwt>
<pdfrwt beam="1">  1        1 0.28616682E+00 0.41037631E+03</pdfrwt>
<pdfrwt beam="2">  1       -1 0.16637385E-01 0.41037631E+03</pdfrwt>
<totfact> 0.11047032E+02</totfact>
</mgrwt>
</event>
<event>
12    1  0.3127365E-008  0.9897113E+03  0.7818608E-02  0.9319902E-01
         -2   -1    0    0    0  501 -0.00000000000E+00  0.00000000000E+00  0.74829430134E+03  0.74829430134E+03  0.00000000000E+00 0.  1.
          2   -1    0    0  501    0  0.00000000000E+00 -0.00000000000E+00 -0.19074722541E+04  0.19074722541E+04  0.00000000000E+00 0. -1.
         23    2    1    2    0    0  0.82600647379E+03  0.52963939544E+03  0.50702966641E+02  0.98641733875E+03  0.87428779045E+02 0.  0.
    5000000    2    1    2    0    0 -0.82600647379E+03 -0.52963939544E+03 -0.12098809194E+04  0.16693492167E+04  0.60009197983E+03 0.  0.
         23    2    4    4    0    0 -0.38842861248E+03 -0.29308106737E+03 -0.10110094382E+04  0.11257276640E+04  0.91374998666E+02 0.  0.
         23    2    4    4    0    0 -0.43757786131E+03 -0.23655832806E+03 -0.19887148129E+03  0.54362155276E+03  0.92413739598E+02 0.  0.
          3    1    3    3  502    0  0.45585296940E+03  0.24404378445E+03  0.10597828593E+02  0.51717657759E+03  0.00000000000E+00 0. -1.
         -3    1    3    3    0  502  0.37015350439E+03  0.28559561099E+03  0.40105138048E+02  0.46924076116E+03  0.00000000000E+00 0.  1.
         13    1    5    5    0    0 -0.20125262262E+03 -0.19540314538E+03 -0.64162174765E+03  0.70025957644E+03  0.00000000000E+00 0.  1.
        -13    1    5    5    0    0 -0.18717598987E+03 -0.97677921994E+02 -0.36938769050E+03  0.42546808755E+03  0.00000000000E+00 0. -1.
          5    1    6    6  503    0 -0.22309984007E+03 -0.16322853102E+03 -0.13731035412E+03  0.30869615373E+03  0.47000000000E+01 0. -1.
         -5    1    6    6    0  503 -0.21447802124E+03 -0.73329797040E+02 -0.61561127166E+02  0.23492539903E+03  0.47000000000E+01 0.  1.
<mgrwt>
<rscale>  0 0.98971127E+03</rscale>
<asrwt>0</asrwt>
<pdfrwt beam="1">  1        2 0.29345727E+00 0.98971127E+03</pdfrwt>
<pdfrwt beam="2">  1       -2 0.11512220E+00 0.98971127E+03</pdfrwt>
<totfact> 0.44210356E+00</totfact>
</mgrwt>
</event>
<event>
12    1  0.3127365E-008  0.3813431E+03  0.7818608E-02  0.1050438E+00
          2   -1    0    0  501    0  0.00000000000E+00  0.00000000000E+00  0.57858423830E+03  0.57858423830E+03  0.00000000000E+00 0. -1.
         -2   -1    0    0    0  501 -0.00000000000E+00 -0.00000000000E+00 -0.52763251025E+03  0.52763251025E+03  0.00000000000E+00 0.  1.
         23    2    1    2    0    0  0.88735798749E+02 -0.31641697834E+03 -0.17886887974E+03  0.38455814957E+03  0.88865899548E+02 0.  0.
    5000000    2    1    2    0    0 -0.88735798749E+02  0.31641697834E+03  0.22982060779E+03  0.72165859899E+03  0.59998322940E+03 0.  0.
         23    2    4    4    0    0 -0.96980432439E+02  0.32062638564E+03 -0.11497748778E+03  0.36484327498E+03  0.87660191438E+02 0.  0.
         23    2    4    4    0    0  0.82446336906E+01 -0.42094072979E+01  0.34479809557E+03  0.35681532400E+03  0.91355107339E+02 0.  0.
          2    1    3    3  502    0  0.10354787104E+03 -0.27282180637E+03 -0.13718457924E+03  0.32244923385E+03  0.00000000000E+00 0.  1.
         -2    1    3    3    0  502 -0.14812072290E+02 -0.43595171972E+02 -0.41684300495E+02  0.62108915725E+02  0.00000000000E+00 0. -1.
         13    1    5    5    0    0 -0.27000158380E+02  0.10815855194E+03  0.38525165801E+01  0.11154426384E+03  0.00000000000E+00 0.  1.
        -13    1    5    5    0    0 -0.69980274059E+02  0.21246783369E+03 -0.11883000436E+03  0.25329901115E+03  0.00000000000E+00 0. -1.
          5    1    6    6  503    0  0.46749117372E+02  0.10550877776E+02  0.22299923759E+03  0.22813932358E+03  0.47000000000E+01 0. -1.
         -5    1    6    6    0  503 -0.38504483681E+02 -0.14760285074E+02  0.12179885798E+03  0.12867600043E+03  0.47000000000E+01 0.  1.
<mgrwt>
<rscale>  0 0.38134310E+03</rscale>
<asrwt>0</asrwt>
<pdfrwt beam="1">  1        2 0.89012960E-01 0.38134310E+03</pdfrwt>
<pdfrwt beam="2">  1       -2 0.81174232E-01 0.38134310E+03</pdfrwt>
<totfact> 0.72388664E+01</totfact>
</mgrwt>
</event>
<event>
12    1  0.3127365E-008  0.6193247E+03  0.7818608E-02  0.9866105E-01
          3   -1    0    0  501    0  0.00000000000E+00  0.00000000000E+00  0.30103559939E+04  0.30103559939E+04  0.00000000000E+00 0. -1.
         -3   -1    0    0    0  501 -0.00000000000E+00 -0.00000000000E+00 -0.17972012403E+03  0.17972012403E+03  0.00000000000E+00 0.  1.
         23    2    1    2    0    0 -0.60808465507E+03  0.31515465008E+02  0.11366688148E+04  0.12926504388E+04  0.90382465182E+02 0.  0.
    5000000    2    1    2    0    0  0.60808465507E+03 -0.31515465008E+02  0.16939670551E+04  0.18974256792E+04  0.59994970797E+03 0.  0.
         23    2    4    4    0    0  0.82068328572E+02  0.46465822939E+02  0.10474609946E+04  0.10555236310E+04  0.89784838273E+02 0.  0.
         23    2    4    4    0    0  0.52601632650E+03 -0.77981287947E+02  0.64650606051E+03  0.84190204820E+03  0.89748066649E+02 0.  0.
          3    1    3    3  502    0 -0.18779626835E+03  0.17400569291E+02  0.44286566242E+03  0.48135248329E+03  0.00000000000E+00 0. -1.
         -3    1    3    3    0  502 -0.42028838672E+03  0.14114895717E+02  0.69380315239E+03  0.81129795547E+03  0.00000000000E+00 0.  1.
         13    1    5    5    0    0  0.41706145581E+02  0.15114659977E+02  0.14541186741E+03  0.15202784846E+03  0.00000000000E+00 0.  1.
        -13    1    5    5    0    0  0.40362182992E+02  0.31351162963E+02  0.90204912719E+03  0.90349578256E+03  0.00000000000E+00 0. -1.
          5    1    6    6  503    0  0.39804771357E+03 -0.37908103051E+02  0.43007453985E+03  0.58725225107E+03  0.47000000000E+01 0.  1.
         -5    1    6    6    0  503  0.12796861293E+03 -0.40073184896E+02  0.21643152066E+03  0.25464979713E+03  0.47000000000E+01 0.  1.
<mgrwt>
<rscale>  0 0.61932465E+03</rscale>
<asrwt>0</asrwt>
<pdfrwt beam="1">  1        3 0.46313166E+00 0.61932465E+03</pdfrwt>
<pdfrwt beam="2">  1       -3 0.27649252E-01 0.61932465E+03</pdfrwt>
<totfact> 0.18382540E-01</totfact>
</mgrwt>
</event>
<event>
12    1  0.3127365E-008  0.6328581E+03  0.7818608E-02  0.9839487E-01
          1   -1    0    0  501    0  0.00000000000E+00  0.00000000000E+00  0.36368695993E+03  0.36368695993E+03  0.00000000000E+00 0. -1.
         -1   -1    0    0    0  501 -0.00000000000E+00 -0.00000000000E+00 -0.12821707561E+04  0.12821707561E+04  0.00000000000E+00 0.  1.
         23    2    1    2    0    0  0.48743936484E+03  0.10369307489E+03 -0.10260048543E+03  0.51706963225E+03  0.92112739684E+02 0.  0.
    5000000    2    1    2    0    0 -0.48743936484E+03 -0.10369307489E+03 -0.81588331072E+03  0.11287880838E+04  0.60012296503E+03 0.  0.
         23    2    4    4    0    0 -0.27833718338E+02  0.20035668124E+03 -0.22532157525E+03  0.31611614151E+03  0.90785940863E+02 0.  0.
         23    2    4    4    0    0 -0.45960564650E+03 -0.30404975613E+03 -0.59056173547E+03  0.81267194225E+03  0.89380746345E+02 0.  0.
          3    1    3    3  502    0  0.15421180473E+03  0.72885855706E+02 -0.15497678575E+02  0.17127114971E+03  0.00000000000E+00 0. -1.
         -3    1    3    3    0  502  0.33322756011E+03  0.30807219188E+02 -0.87102806857E+02  0.34579848255E+03  0.00000000000E+00 0.  1.
         11    1    5    5    0    0 -0.25197721018E+02  0.16373047944E+03 -0.22498494087E+03  0.27939366253E+03  0.00000000000E+00 0. -1.
        -11    1    5    5    0    0 -0.26359973198E+01  0.36626201802E+02 -0.33663438095E+00  0.36722478988E+02  0.00000000000E+00 0.  1.
          5    1    6    6  503    0 -0.46080501191E+03 -0.30568889279E+03 -0.58682838279E+03  0.80633528946E+03  0.47000000000E+01 0. -1.
         -5    1    6    6    0  503  0.11993654072E+01  0.16391366590E+01 -0.37333526783E+01  0.63366527905E+01  0.47000000000E+01 0.  1.
<mgrwt>
<rscale>  0 0.63285814E+03</rscale>
<asrwt>0</asrwt>
<pdfrwt beam="1">  1        1 0.55951840E-01 0.63285814E+03</pdfrwt>
<pdfrwt beam="2">  1       -1 0.19725704E+00 0.63285814E+03</pdfrwt>
<totfact> 0.11200645E+01</totfact>
</mgrwt>
</event>
<event>
12    1  0.3127365E-008  0.5998817E+03  0.7818608E-02  0.9905652E-01
         -2   -1    0    0    0  501 -0.00000000000E+00  0.00000000000E+00  0.56352719201E+03  0.56352719201E+03  0.00000000000E+00 0.  1.
          2   -1    0    0  501    0  0.00000000000E+00 -0.00000000000E+00 -0.13856130288E+04  0.13856130288E+04  0.00000000000E+00 0. -1.
         23    2    1    2    0    0  0.45829809334E+03 -0.78774172388E+02  0.32418133909E+03  0.57431212041E+03  0.92186541556E+02 0.  0.
    5000000    2    1    2    0    0 -0.45829809334E+03  0.78774172388E+02 -0.11462671759E+04  0.13748281004E+04  0.59998446193E+03 0.  0.
         23    2    4    4    0    0 -0.49703414366E+02  0.26971953913E+03 -0.34187189092E+03  0.44813803720E+03  0.93446516229E+02 0.  0.
         23    2    4    4    0    0 -0.40859467897E+03 -0.19094536674E+03 -0.80439528496E+03  0.92669006320E+03  0.91065657659E+02 0.  0.
          3    1    3    3  502    0  0.30647746734E+03 -0.47098073967E+02  0.16173997591E+03  0.34972344269E+03  0.00000000000E+00 0. -1.
         -3    1    3    3    0  502  0.15182062599E+03 -0.31676098421E+02  0.16244136317E+03  0.22458867772E+03  0.00000000000E+00 0.  1.
         11    1    5    5    0    0 -0.40728269270E+02  0.18691342486E+03 -0.29768251467E+03  0.35385067451E+03  0.00000000000E+00 0. -1.
        -11    1    5    5    0    0 -0.89751450964E+01  0.82806114270E+02 -0.44189376256E+02  0.94287362695E+02  0.00000000000E+00 0.  1.
          5    1    6    6  503    0 -0.15104351386E+03 -0.23908163974E+02 -0.27687368283E+03  0.31633347851E+03  0.47000000000E+01 0. -1.
         -5    1    6    6    0  503 -0.25755116511E+03 -0.16703720277E+03 -0.52752160214E+03  0.61035658469E+03  0.47000000000E+01 0.  1.
<mgrwt>
<rscale>  0 0.59988167E+03</rscale>
<asrwt>0</asrwt>
<pdfrwt beam="1">  1        2 0.21317123E+00 0.59988167E+03</pdfrwt>
<pdfrwt beam="2">  1       -2 0.86696492E-01 0.59988167E+03</pdfrwt>
<totfact> 0.17718584E+01</totfact>
</mgrwt>
</event>
<event>
12    1  0.3127365E-008  0.1276290E+04  0.7818608E-02  0.9048581E-01
         -1   -1    0    0    0  501 -0.00000000000E+00  0.00000000000E+00  0.27569439916E+04  0.27569439916E+04  0.00000000000E+00 0.  1.
          1   -1    0    0  501    0  0.00000000000E+00 -0.00000000000E+00 -0.62036038448E+03  0.62036038448E+03  0.00000000000E+00 0. -1.
         23    2    1    2    0    0 -0.87766683449E+03 -0.86751384801E+03  0.11286766325E+04  0.16747680036E+04  0.89764002564E+02 0.  0.
    5000000    2    1    2    0    0  0.87766683449E+03  0.86751384801E+03  0.10079069746E+04  0.17025363725E+04  0.59989522533E+03 0.  0.
         23    2    4    4    0    0  0.28092515641E+03  0.24704489200E+02  0.75333878812E+02  0.30827697211E+03  0.99147581646E+02 0.  0.
         23    2    4    4    0    0  0.59674167808E+03  0.84280935881E+03  0.93257309580E+03  0.13942594004E+04  0.88535026488E+02 0.  0.
          2    1    3    3  502    0 -0.13038202865E+03 -0.17559293217E+03  0.18875691299E+03  0.28889708102E+03  0.00000000000E+00 0.  1.
         -2    1    3    3    0  502 -0.74728480584E+03 -0.69192091584E+03  0.93991971952E+03  0.13858709225E+04  0.00000000000E+00 0. -1.
         13    1    5    5    0    0  0.24216167033E+03  0.14607189101E+02  0.98691074250E+02  0.26190756516E+03  0.00000000000E+00 0. -1.
        -13    1    5    5    0    0  0.38763486078E+02  0.10097300099E+02 -0.23357195438E+02  0.46369406950E+02  0.00000000000E+00 0.  1.
          5    1    6    6  503    0  0.43348072545E+03  0.62046074467E+03  0.62994290632E+03  0.98474729258E+03  0.47000000000E+01 0. -1.
         -5    1    6    6    0  503  0.16326095263E+03  0.22234861414E+03  0.30263018947E+03  0.40951210781E+03  0.47000000000E+01 0.  1.
<mgrwt>
<rscale>  0 0.12762902E+04</rscale>
<asrwt>0</asrwt>
<pdfrwt beam="1">  1        1 0.95440061E-01 0.12762902E+04</pdfrwt>
<pdfrwt beam="2">  1       -1 0.42414522E+00 0.12762902E+04</pdfrwt>
<totfact> 0.15703590E-01</totfact>
</mgrwt>
</event>
<event>
12    1  0.3127365E-008  0.9730482E+03  0.7818608E-02  0.9338609E-01
         -2   -1    0    0    0  501 -0.00000000000E+00  0.00000000000E+00  0.38132212283E+03  0.38132212283E+03  0.00000000000E+00 0. -1.
          2   -1    0    0  501    0  0.00000000000E+00 -0.00000000000E+00 -0.29802783823E+04  0.29802783823E+04  0.00000000000E+00 0.  1.
         23    2    1    2    0    0  0.62900649972E+03  0.72985271189E+03 -0.92293860487E+03  0.13374590343E+04  0.92988398928E+02 0.  0.
    5000000    2    1    2    0    0 -0.62900649972E+03 -0.72985271189E+03 -0.16760176546E+04  0.20241414708E+04  0.59981610317E+03 0.  0.
         23    2    4    4    0    0 -0.43580312242E+03 -0.44058350400E+03 -0.52147841561E+03  0.81509438237E+03  0.91656580336E+02 0.  0.
         23    2    4    4    0    0 -0.19320337730E+03 -0.28926920789E+03 -0.11545392389E+04  0.12090470884E+04  0.88486089859E+02 0.  0.
          3    1    3    3  502    0  0.42380312268E+03  0.49766844656E+03 -0.68443410164E+03  0.94643172441E+03  0.00000000000E+00 0. -1.
         -3    1    3    3    0  502  0.20520337704E+03  0.23218426533E+03 -0.23850450323E+03  0.39102730989E+03  0.00000000000E+00 0.  1.
         11    1    5    5    0    0 -0.23825038428E+03 -0.30025705661E+03 -0.33980003015E+03  0.51223198469E+03  0.00000000000E+00 0.  1.
        -11    1    5    5    0    0 -0.19755273814E+03 -0.14032644739E+03 -0.18167838546E+03  0.30286239768E+03  0.00000000000E+00 0. -1.
          5    1    6    6  503    0 -0.13657183520E+03 -0.13311989221E+03 -0.55317142287E+03  0.58514398651E+03  0.47000000000E+01 0. -1.
         -5    1    6    6    0  503 -0.56631542104E+02 -0.15614931568E+03 -0.60136781608E+03  0.62390310190E+03  0.47000000000E+01 0.  1.
<mgrwt>
<rscale>  0 0.97304820E+03</rscale>
<asrwt>0</asrwt>
<pdfrwt beam="1">  1        2 0.45850434E+00 0.97304820E+03</pdfrwt>
<pdfrwt beam="2">  1       -2 0.58664946E-01 0.97304820E+03</pdfrwt>
<totfact> 0.49934597E+00</totfact>
</mgrwt>
</event>
<event>
12    1  0.3127365E-008  0.1005906E+04  0.7818608E-02  0.9302091E-01
          1   -1    0    0  501    0  0.00000000000E+00  0.00000000000E+00  0.20050883088E+04  0.20050883088E+04  0.00000000000E+00 0. -1.
         -1   -1    0    0    0  501 -0.00000000000E+00 -0.00000000000E+00 -0.51429609788E+03  0.51429609788E+03  0.00000000000E+00 0.  1.
         23    2    1    2    0    0 -0.52215955647E+03  0.76254658797E+03  0.68675901453E+03  0.11552795578E+04  0.94366368368E+02 0.  0.
    5000000    2    1    2    0    0  0.52215955647E+03 -0.76254658797E+03  0.80403319644E+03  0.13641048489E+04  0.60015394406E+03 0.  0.
         23    2    4    4    0    0  0.79834854079E+02 -0.61207615600E+03  0.41902126247E+03  0.75224092982E+03  0.96316008143E+02 0.  0.
         23    2    4    4    0    0  0.44232470239E+03 -0.15047043197E+03  0.38501193396E+03  0.61186391907E+03  0.88604587506E+02 0.  0.
          3    1    3    3  502    0 -0.45331235781E+03  0.69309564015E+03  0.58366812694E+03  0.10131841602E+04  0.00000000000E+00 0. -1.
         -3    1    3    3    0  502 -0.68847198657E+02  0.69450947817E+02  0.10309088759E+03  0.14209539760E+03  0.00000000000E+00 0.  1.
         11    1    5    5    0    0  0.18020899434E+02 -0.26365814778E+03  0.23374001829E+03  0.35280981826E+03  0.00000000000E+00 0. -1.
        -11    1    5    5    0    0  0.61813954645E+02 -0.34841800822E+03  0.18528124418E+03  0.39943111156E+03  0.00000000000E+00 0.  1.
          5    1    6    6  503    0  0.87015840975E+02 -0.22166359079E+02  0.12190588760E+03  0.15148016203E+03  0.47000000000E+01 0. -1.
         -5    1    6    6    0  503  0.35530886141E+03 -0.12830407289E+03  0.26310604636E+03  0.46038375704E+03  0.47000000000E+01 0.  1.
<mgrwt>
<rscale>  0 0.10059057E+04</rscale>
<asrwt>0</asrwt>
<pdfrwt beam="1">  1        1 0.30847512E+00 0.10059057E+04</pdfrwt>
<pdfrwt beam="2">  1       -1 0.79122478E-01 0.10059057E+04</pdfrwt>
<totfact> 0.47716460E+00</totfact>
</mgrwt>
</event>
<event>
12    1  0.3127365E-008  0.5005152E+03  0.7818608E-02  0.1013645E+00
          2   -1    0    0  501    0  0.00000000000E+00  0.00000000000E+00  0.17064691287E+04  0.17064691287E+04  0.00000000000E+00 0. -1.
         -2   -1    0    0    0  501 -0.00000000000E+00 -0.00000000000E+00 -0.15956419498E+03  0.15956419498E+03  0.00000000000E+00 0.  1.
         23    2    1    2    0    0  0.23683927387E+03  0.24308554839E+03  0.46539759494E+03  0.58357617924E+03  0.93716648034E+02 0.  0.
    5000000    2    1    2    0    0 -0.23683927387E+03 -0.24308554839E+03  0.10815073388E+04  0.12824571444E+04  0.59987896945E+03 0.  0.
         23    2    4    4    0    0  0.18546138555E+03 -0.10158857428E+03  0.38606755214E+03  0.45058867803E+03  0.96259222939E+02 0.  0.
         23    2    4    4    0    0 -0.42230065942E+03 -0.14149697410E+03  0.69543978663E+03  0.83186846639E+03  0.10004702856E+03 0.  0.
          2    1    3    3  502    0  0.14605595312E+03  0.17542512798E+03  0.37359302372E+03  0.43781053475E+03  0.00000000000E+00 0. -1.
         -2    1    3    3    0  502  0.90783320747E+02  0.67660420405E+02  0.91804571218E+02  0.14576564448E+03  0.00000000000E+00 0.  1.
         13    1    5    5    0    0  0.15308018922E+02 -0.76144683537E+01  0.11928190455E+03  0.12050098890E+03  0.00000000000E+00 0.  1.
        -13    1    5    5    0    0  0.17015336663E+03 -0.93974105928E+02  0.26678564759E+03  0.33008768913E+03  0.00000000000E+00 0. -1.
          5    1    6    6  503    0 -0.23495296903E+03 -0.10379229620E+03  0.31822064274E+03  0.40897702365E+03  0.47000000000E+01 0. -1.
         -5    1    6    6    0  503 -0.18734769039E+03 -0.37704677906E+02  0.37721914389E+03  0.42289144275E+03  0.47000000000E+01 0.  1.
<mgrwt>
<rscale>  0 0.50051519E+03</rscale>
<asrwt>0</asrwt>
<pdfrwt beam="1">  1        2 0.26253370E+00 0.50051519E+03</pdfrwt>
<pdfrwt beam="2">  1       -2 0.24548339E-01 0.50051519E+03</pdfrwt>
<totfact> 0.15083076E+02</totfact>
</mgrwt>
</event>
<event>
12    1  0.3127365E-008  0.4906709E+03  0.7818608E-02  0.1016243E+00
         -1   -1    0    0    0  501 -0.00000000000E+00  0.00000000000E+00  0.15176720190E+03  0.15176720190E+03  0.00000000000E+00 0.  1.
          1   -1    0    0  501    0  0.00000000000E+00 -0.00000000000E+00 -0.17195114533E+04  0.17195114533E+04  0.00000000000E+00 0. -1.
         23    2    1    2    0    0 -0.31602515935E+03 -0.41740537031E+02 -0.64779395031E+03  0.72769900172E+03  0.91075031012E+02 0.  0.
    5000000    2    1    2    0    0  0.31602515935E+03  0.41740537031E+02 -0.91995030111E+03  0.11435796535E+04  0.59987639860E+03 0.  0.
         23    2    4    4    0    0  0.47357650237E+03 -0.29237150777E+02 -0.68219916438E+03  0.83579053304E+03  0.89557806242E+02 0.  0.
         23    2    4    4    0    0 -0.15755134302E+03  0.70977687808E+02 -0.23775113672E+03  0.30778912044E+03  0.91368932330E+02 0.  0.
          4    1    3    3  502    0 -0.10333092934E+03 -0.31460626683E+02 -0.31110245768E+03  0.32932019550E+03  0.00000000000E+00 0.  1.
         -4    1    3    3    0  502 -0.21269423001E+03 -0.10279910348E+02 -0.33669149263E+03  0.39837880622E+03  0.00000000000E+00 0. -1.
         13    1    5    5    0    0  0.96532677909E+02  0.27194373619E+02 -0.11803249888E+03  0.15488628942E+03  0.00000000000E+00 0. -1.
        -13    1    5    5    0    0  0.37704382446E+03 -0.56431524395E+02 -0.56416666551E+03  0.68090424362E+03  0.00000000000E+00 0.  1.
          5    1    6    6  503    0 -0.13479831591E+03  0.41098683124E+02 -0.12353051622E+03  0.18746083901E+03  0.47000000000E+01 0. -1.
         -5    1    6    6    0  503 -0.22753027117E+02  0.29879004684E+02 -0.11422062050E+03  0.12032828143E+03  0.47000000000E+01 0.  1.
<mgrwt>
<rscale>  0 0.49067093E+03</rscale>
<asrwt>0</asrwt>
<pdfrwt beam="1">  1        1 0.26454021E+00 0.49067093E+03</pdfrwt>
<pdfrwt beam="2">  1       -1 0.23348801E-01 0.49067093E+03</pdfrwt>
<totfact> 0.77219636E+01</totfact>
</mgrwt>
</event>
<event>
12    1  0.3127365E-008  0.3946153E+03  0.7818608E-02  0.1045660E+00
          2   -1    0    0  501    0  0.00000000000E+00  0.00000000000E+00  0.21438579061E+04  0.21438579061E+04  0.00000000000E+00 0. -1.
         -2   -1    0    0    0  501 -0.00000000000E+00 -0.00000000000E+00 -0.13582103668E+03  0.13582103668E+03  0.00000000000E+00 0.  1.
         23    2    1    2    0    0  0.17884814769E+03 -0.23489051804E+03  0.24594030921E+03  0.39503852102E+03  0.91698320591E+02 0.  0.
    5000000    2    1    2    0    0 -0.17884814769E+03  0.23489051804E+03  0.17620965602E+04  0.18846404217E+04  0.59977080326E+03 0.  0.
         23    2    4    4    0    0 -0.15602664603E+03  0.32721455246E+03  0.16965474460E+04  0.17373091996E+04  0.92500490993E+02 0.  0.
         23    2    4    4    0    0 -0.22821501653E+02 -0.92324034421E+02  0.65549114208E+02  0.14733122217E+03  0.91461764603E+02 0.  0.
          1    1    3    3  502    0  0.24987532532E+02 -0.97539878930E+01 -0.14345023911E+01  0.26862145464E+02  0.00000000000E+00 0. -1.
         -1    1    3    3    0  502  0.15386061515E+03 -0.22513653015E+03  0.24737481160E+03  0.36817637555E+03  0.00000000000E+00 0.  1.
         11    1    5    5    0    0 -0.14576316179E+03  0.23007077278E+03  0.13531672732E+04  0.13803047233E+04  0.00000000000E+00 0. -1.
        -11    1    5    5    0    0 -0.10263484246E+02  0.97143779678E+02  0.34338017275E+03  0.35700447627E+03  0.00000000000E+00 0.  1.
          5    1    6    6  503    0  0.16789289304E+02 -0.73549255106E+02  0.97439413561E+01  0.76212909373E+02  0.47000000000E+01 0.  1.
         -5    1    6    6    0  503 -0.39610790957E+02 -0.18774779314E+02  0.55805172852E+02  0.71118312800E+02  0.47000000000E+01 0. -1.
<mgrwt>
<rscale>  0 0.39461525E+03</rscale>
<asrwt>0</asrwt>
<pdfrwt beam="1">  1        2 0.32982427E+00 0.39461525E+03</pdfrwt>
<pdfrwt beam="2">  1       -2 0.20895546E-01 0.39461525E+03</pdfrwt>
<totfact> 0.11879166E+02</totfact>
</mgrwt>
</event>
<event>
12    1  0.3127365E-008  0.5899632E+03  0.7818608E-02  0.9926451E-01
         -2   -1    0    0    0  501 -0.00000000000E+00  0.00000000000E+00  0.45911985769E+03  0.45911985769E+03  0.00000000000E+00 0.  1.
          2   -1    0    0  501    0  0.00000000000E+00 -0.00000000000E+00 -0.10932193883E+04  0.10932193883E+04  0.00000000000E+00 0. -1.
         23    2    1    2    0    0 -0.27544291740E+03 -0.48378394334E+03 -0.94226353540E+02  0.57187459654E+03  0.90808831546E+02 0.  0.
    5000000    2    1    2    0    0  0.27544291740E+03  0.48378394334E+03 -0.53987317707E+03  0.98046464945E+03  0.59994347811E+03 0.  0.
         23    2    4    4    0    0  0.13211901336E+03  0.56453538079E+02  0.95863526170E+02  0.19577757152E+03  0.92177037302E+02 0.  0.
         23    2    4    4    0    0  0.14332390404E+03  0.42733040526E+03 -0.63573670324E+03  0.78468707793E+03  0.91758583823E+02 0.  0.
          3    1    3    3  502    0 -0.69123819520E+02 -0.15385615726E+03  0.10200724210E+02  0.16897891681E+03  0.00000000000E+00 0. -1.
         -3    1    3    3    0  502 -0.20631909788E+03 -0.32992778608E+03 -0.10442707775E+03  0.40289567973E+03  0.00000000000E+00 0.  1.
         13    1    5    5    0    0  0.14715641500E+02 -0.24064198257E+02  0.13024441453E+02  0.31068823886E+02  0.00000000000E+00 0.  1.
        -13    1    5    5    0    0  0.11740337186E+03  0.80517736336E+02  0.82839084717E+02  0.16470874763E+03  0.00000000000E+00 0. -1.
          5    1    6    6  503    0  0.11170696568E+03  0.29644132201E+03 -0.37282180493E+03  0.48925871664E+03  0.47000000000E+01 0. -1.
         -5    1    6    6    0  503  0.31616938352E+02  0.13088908325E+03 -0.26291489830E+03  0.29542836129E+03  0.47000000000E+01 0.  1.
<mgrwt>
<rscale>  0 0.58996316E+03</rscale>
<asrwt>0</asrwt>
<pdfrwt beam="1">  1        2 0.16818760E+00 0.58996316E+03</pdfrwt>
<pdfrwt beam="2">  1       -2 0.70633824E-01 0.58996316E+03</pdfrwt>
<totfact> 0.41466606E+01</totfact>
</mgrwt>
</event>
<event>
12    1  0.3127365E-008  0.4251098E+03  0.7818608E-02  0.1035416E+00
         -1   -1    0    0    0  501 -0.00000000000E+00  0.00000000000E+00  0.13607459173E+04  0.13607459173E+04  0.00000000000E+00 0.  1.
          1   -1    0    0  501    0  0.00000000000E+00 -0.00000000000E+00 -0.21518098227E+03  0.21518098227E+03  0.00000000000E+00 0. -1.
         23    2    1    2    0    0 -0.17587901539E+03 -0.21358812681E+03  0.49075455201E+02  0.29573290267E+03  0.92175015314E+02 0.  0.
    5000000    2    1    2    0    0  0.17587901539E+03  0.21358812681E+03  0.10964894798E+04  0.12801939969E+04  0.60004514359E+03 0.  0.
         23    2    4    4    0    0  0.58281340491E+02  0.35869767478E+03  0.37705897667E+03  0.53213509407E+03  0.94517458251E+02 0.  0.
         23    2    4    4    0    0  0.11759767490E+03 -0.14510954797E+03  0.71943050317E+03  0.74805890284E+03  0.84414922663E+02 0.  0.
          4    1    3    3  502    0 -0.10767949407E+03 -0.10594243689E+03 -0.17308927322E+02  0.15204694124E+03  0.00000000000E+00 0. -1.
         -4    1    3    3    0  502 -0.68199521322E+02 -0.10764568992E+03  0.66384382523E+02  0.14368596142E+03  0.00000000000E+00 0.  1.
         11    1    5    5    0    0  0.67405060164E+02  0.14899418874E+03  0.13776849765E+03  0.21382906575E+03  0.00000000000E+00 0. -1.
        -11    1    5    5    0    0 -0.91237196730E+01  0.20970348604E+03  0.23929047902E+03  0.31830602832E+03  0.00000000000E+00 0.  1.
          5    1    6    6  503    0  0.62201420136E+02 -0.27427407593E+02  0.16420875845E+03  0.17778606724E+03  0.47000000000E+01 0. -1.
         -5    1    6    6    0  503  0.55396254761E+02 -0.11768214037E+03  0.55522174472E+03  0.57027283560E+03  0.47000000000E+01 0.  1.
<mgrwt>
<rscale>  0 0.42510976E+03</rscale>
<asrwt>0</asrwt>
<pdfrwt beam="1">  1        1 0.33104768E-01 0.42510976E+03</pdfrwt>
<pdfrwt beam="2">  1       -1 0.20934552E+00 0.42510976E+03</pdfrwt>
<totfact> 0.18855859E+01</totfact>
</mgrwt>
</event>
<event>
12    1  0.3127365E-008  0.9328981E+03  0.7818608E-02  0.9385366E-01
          2   -1    0    0  501    0  0.00000000000E+00  0.00000000000E+00  0.58990313943E+03  0.58990313943E+03  0.00000000000E+00 0. -1.
         -2   -1    0    0    0  501 -0.00000000000E+00 -0.00000000000E+00 -0.17914928639E+04  0.17914928639E+04  0.00000000000E+00 0.  1.
         23    2    1    2    0    0 -0.83587530116E+03  0.26568656029E+03 -0.16546577108E+03  0.89718749470E+03  0.91047305521E+02 0.  0.
    5000000    2    1    2    0    0  0.83587530116E+03 -0.26568656029E+03 -0.10361239534E+04  0.14842085086E+04  0.60003765124E+03 0.  0.
         23    2    4    4    0    0  0.86521845749E+03 -0.24118842000E+03 -0.10483845581E+04  0.13837550147E+04  0.94302310991E+02 0.  0.
         23    2    4    4    0    0 -0.29343156336E+02 -0.24498140289E+02  0.12260604715E+02  0.10045349395E+03  0.92083670197E+02 0.  0.
          2    1    3    3  502    0 -0.37058943960E+03  0.11930699140E+03 -0.27540351308E+02  0.39029368672E+03  0.00000000000E+00 0. -1.
         -2    1    3    3    0  502 -0.46528586156E+03  0.14637956889E+03 -0.13792541977E+03  0.50689380798E+03  0.00000000000E+00 0.  1.
         11    1    5    5    0    0  0.66498360550E+03 -0.18143402385E+03 -0.74056923575E+03  0.10117135432E+04  0.00000000000E+00 0. -1.
        -11    1    5    5    0    0  0.20023485200E+03 -0.59754396148E+02 -0.30781532236E+03  0.37204147147E+03  0.00000000000E+00 0.  1.
          5    1    6    6  503    0 -0.23241195451E+02 -0.54524526456E+02  0.27963189086E+02  0.65704696143E+02  0.47000000000E+01 0. -1.
         -5    1    6    6    0  503 -0.61019608849E+01  0.30026386168E+02 -0.15702584372E+02  0.34748797805E+02  0.47000000000E+01 0.  1.
<mgrwt>
<rscale>  0 0.93289809E+03</rscale>
<asrwt>0</asrwt>
<pdfrwt beam="1">  1        2 0.90754331E-01 0.93289809E+03</pdfrwt>
<pdfrwt beam="2">  1       -2 0.27561428E+00 0.93289809E+03</pdfrwt>
<totfact> 0.22911994E+00</totfact>
</mgrwt>
</event>
<event>
12    1  0.4191489E-008  0.1584744E+04  0.7818608E-02  0.8829976E-01
         -1   -1    0    0    0  501 -0.00000000000E+00  0.00000000000E+00  0.19644816029E+04  0.19644816029E+04  0.00000000000E+00 0.  1.
          1   -1    0    0  501    0  0.00000000000E+00 -0.00000000000E+00 -0.13419475604E+04  0.13419475604E+04  0.00000000000E+00 0. -1.
         23    2    1    2    0    0 -0.15087759321E+04  0.27858981792E+03 -0.24373392270E+02  0.15364556611E+04  0.78005360668E+02 0.  0.
    5000000    2    1    2    0    0  0.15087759321E+04 -0.27858981792E+03  0.64690743475E+03  0.17699735022E+04  0.60024983918E+03 0.  0.
         23    2    4    4    0    0  0.10235157838E+04 -0.44563614259E+03  0.51458065814E+03  0.12324627605E+04  0.89415160972E+02 0.  0.
         23    2    4    4    0    0  0.48526014825E+03  0.16704632467E+03  0.13232677661E+03  0.53751074167E+03  0.89585353344E+02 0.  0.
          1    1    3    3  502    0 -0.50173167639E+03  0.55519031174E+02 -0.11047197685E+02  0.50491492203E+03  0.00000000000E+00 0. -1.
         -1    1    3    3    0  502 -0.10070442557E+04  0.22307078675E+03 -0.13326194584E+02  0.10315407390E+04  0.00000000000E+00 0.  1.
         11    1    5    5    0    0  0.67112698709E+03 -0.25272129324E+03  0.35499234924E+03  0.80018688622E+03  0.00000000000E+00 0.  1.
        -11    1    5    5    0    0  0.35238879676E+03 -0.19291484935E+03  0.15958830890E+03  0.43227587432E+03  0.00000000000E+00 0. -1.
          5    1    6    6  503    0  0.24903211199E+03  0.10327228295E+03  0.11188266716E+03  0.29192803640E+03  0.47000000000E+01 0. -1.
         -5    1    6    6    0  503  0.23622803627E+03  0.63774041719E+02  0.20444109449E+02  0.24558270527E+03  0.47000000000E+01 0.  1.
<mgrwt>
<rscale>  0 0.15847439E+04</rscale>
<asrwt>0</asrwt>
<pdfrwt beam="1">  1        1 0.20645347E+00 0.15847439E+04</pdfrwt>
<pdfrwt beam="2">  1       -1 0.30222794E+00 0.15847439E+04</pdfrwt>
<totfact> 0.25309288E-01</totfact>
</mgrwt>
</event>
<event>
12    1  0.3127365E-008  0.4816469E+03  0.7818608E-02  0.1018684E+00
          2   -1    0    0  501    0  0.00000000000E+00  0.00000000000E+00  0.10577513609E+04  0.10577513609E+04  0.00000000000E+00 0. -1.
         -2   -1    0    0    0  501 -0.00000000000E+00 -0.00000000000E+00 -0.24185302443E+03  0.24185302443E+03  0.00000000000E+00 0.  1.
         23    2    1    2    0    0 -0.28389475334E+03 -0.10055894446E+03  0.13267951053E+03  0.34182688247E+03  0.92376581312E+02 0.  0.
    5000000    2    1    2    0    0  0.28389475334E+03  0.10055894446E+03  0.68321882596E+03  0.95777750290E+03  0.59986785929E+03 0.  0.
         23    2    4    4    0    0  0.43176100517E+03  0.17841496868E+03  0.43314458034E+03  0.64363495104E+03  0.91663821087E+02 0.  0.
         23    2    4    4    0    0 -0.14786625182E+03 -0.77856024222E+02  0.25007424563E+03  0.31414255185E+03  0.90677591625E+02 0.  0.
          2    1    3    3  502    0 -0.15263948244E+03 -0.58943329672E+01  0.73479319579E+02  0.16950741920E+03  0.00000000000E+00 0. -1.
         -2    1    3    3    0  502 -0.13125527091E+03 -0.94664611493E+02  0.59200190951E+02  0.17231946326E+03  0.00000000000E+00 0.  1.
         11    1    5    5    0    0  0.90477008153E+02  0.46523916802E-01  0.70909154083E+02  0.11495303085E+03  0.00000000000E+00 0. -1.
        -11    1    5    5    0    0  0.34128399701E+03  0.17836844477E+03  0.36223542626E+03  0.52868192019E+03  0.00000000000E+00 0.  1.
          5    1    6    6  503    0 -0.14707402068E+03 -0.80466731529E+02  0.18842126531E+03  0.25225052163E+03  0.47000000000E+01 0. -1.
         -5    1    6    6    0  503 -0.79223114087E+00  0.26107073070E+01  0.61652980319E+02  0.61892030222E+02  0.47000000000E+01 0.  1.
<mgrwt>
<rscale>  0 0.48164686E+03</rscale>
<asrwt>0</asrwt>
<pdfrwt beam="1">  1        2 0.16273098E+00 0.48164686E+03</pdfrwt>
<pdfrwt beam="2">  1       -2 0.37208158E-01 0.48164686E+03</pdfrwt>
<totfact> 0.16294432E+02</totfact>
</mgrwt>
</event>
<event>
12    1  0.3127365E-008  0.5039535E+03  0.7818608E-02  0.1012752E+00
         -1   -1    0    0    0  501 -0.00000000000E+00  0.00000000000E+00  0.10738657944E+04  0.10738657944E+04  0.00000000000E+00 0.  1.
          1   -1    0    0  501    0  0.00000000000E+00 -0.00000000000E+00 -0.28205405644E+03  0.28205405644E+03  0.00000000000E+00 0. -1.
         23    2    1    2    0    0 -0.47939140185E+02  0.37682692542E+03  0.29399149579E+03  0.48884119838E+03  0.90763565123E+02 0.  0.
    5000000    2    1    2    0    0  0.47939140185E+02 -0.37682692542E+03  0.49782024218E+03  0.86707865247E+03  0.59975303514E+03 0.  0.
         23    2    4    4    0    0  0.22994254754E+03 -0.38508057584E+02  0.37895393517E+03  0.45419924511E+03  0.91293064412E+02 0.  0.
         23    2    4    4    0    0 -0.18200340736E+03 -0.33831886784E+03  0.11886630701E+03  0.41287940736E+03  0.93569810587E+02 0.  0.
          3    1    3    3  502    0 -0.32381240464E+02  0.18241824788E+03  0.87788631294E+02  0.20501659854E+03  0.00000000000E+00 0. -1.
         -3    1    3    3    0  502 -0.15557899720E+02  0.19440867754E+03  0.20620286450E+03  0.28382459984E+03  0.00000000000E+00 0.  1.
         13    1    5    5    0    0  0.41321602814E+02  0.16723678005E+02  0.30093738916E+02  0.53784657544E+02  0.00000000000E+00 0.  1.
        -13    1    5    5    0    0  0.18862094473E+03 -0.55231735589E+02  0.34886019625E+03  0.40041458757E+03  0.00000000000E+00 0. -1.
          5    1    6    6  503    0 -0.80799430608E+02 -0.19353780994E+03  0.20865197820E+02  0.21081479631E+03  0.47000000000E+01 0. -1.
         -5    1    6    6    0  503 -0.10120397675E+03 -0.14478105790E+03  0.98001109191E+02  0.20206461105E+03  0.47000000000E+01 0.  1.
<mgrwt>
<rscale>  0 0.50395350E+03</rscale>
<asrwt>0</asrwt>
<pdfrwt beam="1">  1        1 0.43392932E-01 0.50395350E+03</pdfrwt>
<pdfrwt beam="2">  1       -1 0.16521012E+00 0.50395350E+03</pdfrwt>
<totfact> 0.26722717E+01</totfact>
</mgrwt>
</event>
<event>
12    1  0.3127365E-008  0.7467770E+03  0.7818608E-02  0.9640420E-01
         -2   -1    0    0    0  501 -0.00000000000E+00  0.00000000000E+00  0.41632519376E+03  0.41632519376E+03  0.00000000000E+00 0.  1.
          2   -1    0    0  501    0  0.00000000000E+00 -0.00000000000E+00 -0.18153496786E+04  0.18153496786E+04  0.00000000000E+00 0. -1.
         23    2    1    2    0    0 -0.69762353461E+03  0.23012842266E+03 -0.35555035048E+03  0.82157689564E+03  0.94524371303E+02 0.  0.
    5000000    2    1    2    0    0  0.69762353461E+03 -0.23012842266E+03 -0.10434741343E+04  0.14100979767E+04  0.59991695082E+03 0.  0.
         23    2    4    4    0    0  0.50681659835E+03 -0.11838637485E+03 -0.25606025907E+03  0.58733489251E+03  0.92287710821E+02 0.  0.
         23    2    4    4    0    0  0.19080693626E+03 -0.11174204780E+03 -0.78741387528E+03  0.82276308419E+03  0.89581859526E+02 0.  0.
          2    1    3    3  502    0 -0.43820850501E+03  0.95933735388E+02 -0.21466080967E+03  0.49730195923E+03  0.00000000000E+00 0.  1.
         -2    1    3    3    0  502 -0.25941502960E+03  0.13419468727E+03 -0.14088954081E+03  0.32427493641E+03  0.00000000000E+00 0. -1.
         11    1    5    5    0    0  0.37685830854E+03 -0.46215349585E+02 -0.19198503755E+03  0.42546010142E+03  0.00000000000E+00 0. -1.
        -11    1    5    5    0    0  0.12995828981E+03 -0.72171025269E+02 -0.64075221522E+02  0.16187479109E+03  0.00000000000E+00 0.  1.
          5    1    6    6  503    0  0.12866139228E+03 -0.54035347547E+02 -0.34344764171E+03  0.37074512167E+03  0.47000000000E+01 0. -1.
         -5    1    6    6    0  503  0.62145543981E+02 -0.57706700257E+02 -0.44396623356E+03  0.45201796252E+03  0.47000000000E+01 0.  1.
<mgrwt>
<rscale>  0 0.74677702E+03</rscale>
<asrwt>0</asrwt>
<pdfrwt beam="1">  1        2 0.27928457E+00 0.74677702E+03</pdfrwt>
<pdfrwt beam="2">  1       -2 0.64050028E-01 0.74677702E+03</pdfrwt>
<totfact> 0.19648394E+01</totfact>
</mgrwt>
</event>
<event>
12    1  0.3127365E-008  0.7114895E+03  0.7818608E-02  0.9697783E-01
         -1   -1    0    0    0  501 -0.00000000000E+00  0.00000000000E+00  0.11906946643E+04  0.11906946643E+04  0.00000000000E+00 0.  1.
          1   -1    0    0  501    0  0.00000000000E+00 -0.00000000000E+00 -0.44359058380E+03  0.44359058380E+03  0.00000000000E+00 0. -1.
         23    2    1    2    0    0 -0.55430439992E+03  0.22405662315E+03  0.27730377872E+03  0.66562927438E+03  0.93328490175E+02 0.  0.
    5000000    2    1    2    0    0  0.55430439992E+03 -0.22405662315E+03  0.46980030180E+03  0.96865597373E+03  0.60010610206E+03 0.  0.
         23    2    4    4    0    0  0.64828076465E+03 -0.97287996329E+02  0.33521141817E+03  0.74169157663E+03  0.89480701408E+02 0.  0.
         23    2    4    4    0    0 -0.93976364732E+02 -0.12676862682E+03  0.13458888363E+03  0.22696439711E+03  0.92178240829E+02 0.  0.
          1    1    3    3  502    0 -0.17455019178E+03  0.10560845577E+03  0.61581225375E+02  0.21310364309E+03  0.00000000000E+00 0. -1.
         -1    1    3    3    0  502 -0.37975420814E+03  0.11844816738E+03  0.21572255334E+03  0.45252563129E+03  0.00000000000E+00 0.  1.
         13    1    5    5    0    0  0.30570225236E+03 -0.52742373628E+02  0.10925550374E+03  0.32889571321E+03  0.00000000000E+00 0.  1.
        -13    1    5    5    0    0  0.34257851229E+03 -0.44545622702E+02  0.22595591443E+03  0.41279586342E+03  0.00000000000E+00 0. -1.
          5    1    6    6  503    0 -0.27854452869E+02 -0.78668697536E+02  0.11600361707E+03  0.14298099066E+03  0.47000000000E+01 0. -1.
         -5    1    6    6    0  503 -0.66121911863E+02 -0.48099929283E+02  0.18585266566E+02  0.83983406449E+02  0.47000000000E+01 0.  1.
<mgrwt>
<rscale>  0 0.71148950E+03</rscale>
<asrwt>0</asrwt>
<pdfrwt beam="1">  1        1 0.68244706E-01 0.71148950E+03</pdfrwt>
<pdfrwt beam="2">  1       -1 0.18318379E+00 0.71148950E+03</pdfrwt>
<totfact> 0.10674430E+01</totfact>
</mgrwt>
</event>
<event>
12    1  0.3127365E-008  0.5821077E+03  0.7818608E-02  0.9943238E-01
         -1   -1    0    0    0  501 -0.00000000000E+00  0.00000000000E+00  0.27804746014E+03  0.27804746014E+03  0.00000000000E+00 0.  1.
          1   -1    0    0  501    0  0.00000000000E+00 -0.00000000000E+00 -0.18253516604E+04  0.18253516604E+04  0.00000000000E+00 0. -1.
         23    2    1    2    0    0 -0.55174762825E+03  0.58730699012E+02 -0.38018640714E+03  0.67866376123E+03  0.90377299995E+02 0.  0.
    5000000    2    1    2    0    0  0.55174762825E+03 -0.58730699012E+02 -0.11671177932E+04  0.14247353593E+04  0.59986011768E+03 0.  0.
         23    2    4    4    0    0  0.48201251105E+03 -0.12644233889E+02 -0.12000560322E+04  0.12967621760E+04  0.94666379245E+02 0.  0.
         23    2    4    4    0    0  0.69735117196E+02 -0.46086465123E+02  0.32938238999E+02  0.12797318333E+03  0.91133194974E+02 0.  0.
          3    1    3    3  502    0 -0.12504783770E+03 -0.21893091206E+02 -0.10311028809E+03  0.16354816008E+03  0.00000000000E+00 0. -1.
         -3    1    3    3    0  502 -0.42669979055E+03  0.80623790218E+02 -0.27707611905E+03  0.51511560115E+03  0.00000000000E+00 0.  1.
         13    1    5    5    0    0  0.44061570847E+03 -0.35170471372E+02 -0.11168119162E+04  0.12011028352E+04  0.00000000000E+00 0. -1.
        -13    1    5    5    0    0  0.41396802577E+02  0.22526237483E+02 -0.83244115929E+02  0.95659340765E+02  0.00000000000E+00 0.  1.
          5    1    6    6  503    0  0.36114843015E+02 -0.65368097721E+02  0.44744461380E+02  0.87186162376E+02  0.47000000000E+01 0. -1.
         -5    1    6    6    0  503  0.33620274182E+02  0.19281632598E+02 -0.11806222381E+02  0.40787020958E+02  0.47000000000E+01 0.  1.
<mgrwt>
<rscale>  0 0.58210774E+03</rscale>
<asrwt>0</asrwt>
<pdfrwt beam="1">  1        1 0.28082333E+00 0.58210774E+03</pdfrwt>
<pdfrwt beam="2">  1       -1 0.42776533E-01 0.58210774E+03</pdfrwt>
<totfact> 0.22446305E+01</totfact>
</mgrwt>
</event>
<event>
12    1  0.3127365E-008  0.4823510E+03  0.7818608E-02  0.1018491E+00
         -1   -1    0    0    0  501 -0.00000000000E+00  0.00000000000E+00  0.57439227808E+02  0.57439227808E+02  0.00000000000E+00 0.  1.
          1   -1    0    0  501    0  0.00000000000E+00 -0.00000000000E+00 -0.42256952525E+04  0.42256952525E+04  0.00000000000E+00 0. -1.
         23    2    1    2    0    0  0.14372139987E+03  0.26271833078E+03 -0.11792053902E+04  0.12198892908E+04  0.89038011224E+02 0.  0.
    5000000    2    1    2    0    0 -0.14372139987E+03 -0.26271833078E+03 -0.29890506344E+04  0.30632451894E+04  0.59947529835E+03 0.  0.
         23    2    4    4    0    0 -0.49550185101E+02 -0.43892459529E+03 -0.20461261231E+04  0.20952264870E+04  0.90729812123E+02 0.  0.
         23    2    4    4    0    0 -0.94171214766E+02  0.17620626451E+03 -0.94292451131E+03  0.96801870247E+03  0.89647693523E+02 0.  0.
          4    1    3    3  502    0  0.50714296174E+02  0.24970923018E+02 -0.18614518831E+03  0.19453924530E+03  0.00000000000E+00 0. -1.
         -4    1    3    3    0  502  0.93007103693E+02  0.23774740776E+03 -0.99306020191E+03  0.10253500455E+04  0.00000000000E+00 0.  1.
         11    1    5    5    0    0  0.16143380032E+02 -0.16370178657E+02 -0.12288913017E+03  0.12502131731E+03  0.00000000000E+00 0.  1.
        -11    1    5    5    0    0 -0.65693565133E+02 -0.42255441663E+03 -0.19232369930E+04  0.19702051697E+04  0.00000000000E+00 0. -1.
          5    1    6    6  503    0 -0.71673931985E+02  0.10331098063E+03 -0.38895286402E+03  0.40879913365E+03  0.47000000000E+01 0. -1.
         -5    1    6    6    0  503 -0.22497282781E+02  0.72895283873E+02 -0.55397164729E+03  0.55921956881E+03  0.47000000000E+01 0.  1.
<mgrwt>
<rscale>  0 0.48235102E+03</rscale>
<asrwt>0</asrwt>
<pdfrwt beam="1">  1        1 0.65010709E+00 0.48235102E+03</pdfrwt>
<pdfrwt beam="2">  1       -1 0.88368025E-02 0.48235102E+03</pdfrwt>
<totfact> 0.54197797E+00</totfact>
</mgrwt>
</event>
<event>
12    1  0.3127365E-008  0.4612769E+03  0.7818608E-02  0.1024412E+00
          1   -1    0    0  501    0  0.00000000000E+00  0.00000000000E+00  0.40821833601E+03  0.40821833601E+03  0.00000000000E+00 0. -1.
         -1   -1    0    0    0  501 -0.00000000000E+00 -0.00000000000E+00 -0.54037168752E+03  0.54037168752E+03  0.00000000000E+00 0.  1.
         23    2    1    2    0    0  0.12028641872E+03 -0.23296292458E+03  0.14430622967E+02  0.27752571402E+03  0.89842820006E+02 0.  0.
    5000000    2    1    2    0    0 -0.12028641872E+03  0.23296292458E+03 -0.14658397448E+03  0.67106430950E+03  0.60008324352E+03 0.  0.
         23    2    4    4    0    0  0.21286067566E+03 -0.91000667539E+01 -0.49807146251E+02  0.23866672558E+03  0.95334021352E+02 0.  0.
         23    2    4    4    0    0 -0.33314709438E+03  0.24206299134E+03 -0.96776828228E+02  0.43239758392E+03  0.89556897162E+02 0.  0.
          3    1    3    3  502    0 -0.10576453813E+02 -0.51877062888E+02 -0.54364734395E+01  0.53222610539E+02  0.00000000000E+00 0. -1.
         -3    1    3    3    0  502  0.13086287253E+03 -0.18108586170E+03  0.19867096406E+02  0.22430310348E+03  0.00000000000E+00 0.  1.
         11    1    5    5    0    0  0.12156434985E+03 -0.50376151263E+02 -0.42177469547E+02  0.13818316362E+03  0.00000000000E+00 0. -1.
        -11    1    5    5    0    0  0.91296325812E+02  0.41276084509E+02 -0.76296767034E+01  0.10048356197E+03  0.00000000000E+00 0.  1.
          5    1    6    6  503    0 -0.19526541289E+03  0.11393674322E+03 -0.13515040859E+02  0.22652794366E+03  0.47000000000E+01 0. -1.
         -5    1    6    6    0  503 -0.13788168148E+03  0.12812624812E+03 -0.83261787370E+02  0.20586964026E+03  0.47000000000E+01 0.  1.
<mgrwt>
<rscale>  0 0.46127686E+03</rscale>
<asrwt>0</asrwt>
<pdfrwt beam="1">  1        1 0.62802821E-01 0.46127686E+03</pdfrwt>
<pdfrwt beam="2">  1       -1 0.83134106E-01 0.46127686E+03</pdfrwt>
<totfact> 0.87525430E+01</totfact>
</mgrwt>
</event>
<event>
12    1  0.3127365E-008  0.6020088E+03  0.7818608E-02  0.9901247E-01
         -2   -1    0    0    0  501 -0.00000000000E+00  0.00000000000E+00  0.30861328644E+03  0.30861328644E+03  0.00000000000E+00 0.  1.
          2   -1    0    0  501    0  0.00000000000E+00 -0.00000000000E+00 -0.15553815211E+04  0.15553815211E+04  0.00000000000E+00 0. -1.
         23    2    1    2    0    0  0.61269948453E+02 -0.54543422742E+03 -0.65092761663E+03  0.85655436262E+03  0.93413655363E+02 0.  0.
    5000000    2    1    2    0    0 -0.61269948453E+02  0.54543422742E+03 -0.59584061804E+03  0.10074404449E+04  0.59888037617E+03 0.  0.
         23    2    4    4    0    0 -0.18010862619E+03  0.39972424356E+03 -0.65141709361E+03  0.79081042441E+03  0.93905853851E+02 0.  0.
         23    2    4    4    0    0  0.11883867774E+03  0.14570998386E+03  0.55576475565E+02  0.21663002053E+03  0.92118350152E+02 0.  0.
          1    1    3    3  502    0 -0.94519220779E+01 -0.86231484342E+02 -0.15038325246E+03  0.17360970694E+03  0.00000000000E+00 0. -1.
         -1    1    3    3    0  502  0.70721870531E+02 -0.45920274308E+03 -0.50054436417E+03  0.68294465568E+03  0.00000000000E+00 0.  1.
         11    1    5    5    0    0 -0.28374815822E+02  0.13732977870E+03 -0.15367294107E+03  0.20803838854E+03  0.00000000000E+00 0. -1.
        -11    1    5    5    0    0 -0.15173381037E+03  0.26239446486E+03 -0.49774415254E+03  0.58277203587E+03  0.00000000000E+00 0.  1.
          5    1    6    6  503    0  0.13342185512E+03  0.12065989501E+03  0.49634457958E+02  0.18667048804E+03  0.47000000000E+01 0. -1.
         -5    1    6    6    0  503 -0.14583177380E+02  0.25050088847E+02  0.59420176076E+01  0.29959532489E+02  0.47000000000E+01 0.  1.
<mgrwt>
<rscale>  0 0.60200883E+03</rscale>
<asrwt>0</asrwt>
<pdfrwt beam="1">  1        2 0.23928946E+00 0.60200883E+03</pdfrwt>
<pdfrwt beam="2">  1       -2 0.47478968E-01 0.60200883E+03</pdfrwt>
<totfact> 0.51675884E+01</totfact>
</mgrwt>
</event>
<event>
12    1  0.3127365E-008  0.8154759E+03  0.7818608E-02  0.9537883E-01
         -2   -1    0    0    0  501 -0.00000000000E+00  0.00000000000E+00  0.64507051351E+03  0.64507051351E+03  0.00000000000E+00 0.  1.
          2   -1    0    0  501    0  0.00000000000E+00 -0.00000000000E+00 -0.10560317778E+04  0.10560317778E+04  0.00000000000E+00 0. -1.
         23    2    1    2    0    0 -0.53599372351E+03  0.46576608122E+03 -0.24424757676E+03  0.75665214558E+03  0.92942329482E+02 0.  0.
    5000000    2    1    2    0    0  0.53599372351E+03 -0.46576608122E+03 -0.16671368753E+03  0.94445014572E+03  0.59997109105E+03 0.  0.
         23    2    4    4    0    0  0.50834464850E+03 -0.68924568328E+02 -0.10945913696E+03  0.53237696956E+03  0.90989325087E+02 0.  0.
         23    2    4    4    0    0  0.27649075008E+02 -0.39684151289E+03 -0.57254550571E+02  0.41207317616E+03  0.90986599277E+02 0.  0.
          3    1    3    3  502    0 -0.43551731069E+03  0.32609926647E+03 -0.18794767176E+03  0.57562173936E+03  0.00000000000E+00 0. -1.
         -3    1    3    3    0  502 -0.10047641282E+03  0.13966681475E+03 -0.56299905007E+02  0.18103040622E+03  0.00000000000E+00 0.  1.
         11    1    5    5    0    0  0.12610366213E+03 -0.40244029869E+02  0.46067701800E+01  0.13244975603E+03  0.00000000000E+00 0. -1.
        -11    1    5    5    0    0  0.38224098637E+03 -0.28680538459E+02 -0.11406590714E+03  0.39992721353E+03  0.00000000000E+00 0.  1.
          5    1    6    6  503    0  0.33352133463E+02 -0.27160321085E+03 -0.78751432954E+02  0.28478860079E+03  0.47000000000E+01 0. -1.
         -5    1    6    6    0  503 -0.57030584548E+01 -0.12523830205E+03  0.21496882383E+02  0.12728457537E+03  0.47000000000E+01 0.  1.
<mgrwt>
<rscale>  0 0.81547589E+03</rscale>
<asrwt>0</asrwt>
<pdfrwt beam="1">  1        2 0.16246643E+00 0.81547589E+03</pdfrwt>
<pdfrwt beam="2">  1       -2 0.99241618E-01 0.81547589E+03</pdfrwt>
<totfact> 0.19718791E+01</totfact>
</mgrwt>
</event>
<event>
12    1  0.3127365E-008  0.1120736E+04  0.7818608E-02  0.9185213E-01
         -1   -1    0    0    0  501 -0.00000000000E+00  0.00000000000E+00  0.86747192971E+03  0.86747192971E+03  0.00000000000E+00 0.  1.
          1   -1    0    0  501    0  0.00000000000E+00 -0.00000000000E+00 -0.21067955884E+04  0.21067955884E+04  0.00000000000E+00 0. -1.
         23    2    1    2    0    0  0.99064072139E+03  0.38098405073E+03  0.20476813228E+03  0.10843240337E+04  0.85502843992E+02 0.  0.
    5000000    2    1    2    0    0 -0.99064072139E+03 -0.38098405073E+03 -0.14440917909E+04  0.18899434843E+04  0.59997282235E+03 0.  0.
         23    2    4    4    0    0 -0.37190698685E+03  0.10882367250E+03 -0.30567897088E+03  0.50195704728E+03  0.91454062262E+02 0.  0.
         23    2    4    4    0    0 -0.61873373454E+03 -0.48980772324E+03 -0.11384128201E+04  0.13879864371E+04  0.88201817488E+02 0.  0.
          2    1    3    3  502    0  0.36200830555E+03  0.17843407856E+03  0.57817843178E+02  0.40771514158E+03  0.00000000000E+00 0. -1.
         -2    1    3    3    0  502  0.62863241584E+03  0.20254997217E+03  0.14695028911E+03  0.67660889215E+03  0.00000000000E+00 0.  1.
         13    1    5    5    0    0 -0.13906475717E+03  0.29777658032E+02 -0.16810849089E+03  0.22019577724E+03  0.00000000000E+00 0. -1.
        -13    1    5    5    0    0 -0.23284222969E+03  0.79046014472E+02 -0.13757047999E+03  0.28176127004E+03  0.00000000000E+00 0.  1.
          5    1    6    6  503    0 -0.35293599982E+03 -0.27102777772E+03 -0.71613323214E+03  0.84314220179E+03  0.47000000000E+01 0. -1.
         -5    1    6    6    0  503 -0.26579773471E+03 -0.21877994551E+03 -0.42227958793E+03  0.54484423528E+03  0.47000000000E+01 0.  1.
<mgrwt>
<rscale>  0 0.11207363E+04</rscale>
<asrwt>0</asrwt>
<pdfrwt beam="1">  1        1 0.32412240E+00 0.11207363E+04</pdfrwt>
<pdfrwt beam="2">  1       -1 0.13345722E+00 0.11207363E+04</pdfrwt>
<totfact> 0.11899711E+00</totfact>
</mgrwt>
</event>
<event>
12    1  0.3127365E-008  0.6138663E+03  0.7818608E-02  0.9877048E-01
         -1   -1    0    0    0  501 -0.00000000000E+00  0.00000000000E+00  0.94024768862E+03  0.94024768862E+03  0.00000000000E+00 0.  1.
          1   -1    0    0  501    0  0.00000000000E+00 -0.00000000000E+00 -0.47731227432E+03  0.47731227432E+03  0.00000000000E+00 0. -1.
         23    2    1    2    0    0 -0.10610724101E+03 -0.52026586868E+03  0.19127884602E+03  0.57151539591E+03  0.90038492424E+02 0.  0.
    5000000    2    1    2    0    0  0.10610724101E+03  0.52026586868E+03  0.27165656828E+03  0.84604456702E+03  0.60004899599E+03 0.  0.
         23    2    4    4    0    0 -0.65263863649E+02 -0.24262416694E+02 -0.10712041333E+03  0.15596120937E+03  0.89448751329E+02 0.  0.
         23    2    4    4    0    0  0.17137110466E+03  0.54452828538E+03  0.37877698161E+03  0.69008335765E+03  0.82848835950E+02 0.  0.
          3    1    3    3  502    0  0.16189328893E+02 -0.69717254748E+02  0.21168235949E+02  0.74637016238E+02  0.00000000000E+00 0. -1.
         -3    1    3    3    0  502 -0.12229656991E+03 -0.45054861393E+03  0.17011061008E+03  0.49687837968E+03  0.00000000000E+00 0.  1.
         11    1    5    5    0    0 -0.86684985659E+02 -0.92109419478E+01 -0.82593189598E+02  0.12008648200E+03  0.00000000000E+00 0. -1.
        -11    1    5    5    0    0  0.21421122010E+02 -0.15051474746E+02 -0.24527223733E+02  0.35874727375E+02  0.00000000000E+00 0.  1.
          5    1    6    6  503    0  0.86024690662E+02  0.38960266040E+03  0.27980680623E+03  0.48734425123E+03  0.47000000000E+01 0. -1.
         -5    1    6    6    0  503  0.85346413999E+02  0.15492562497E+03  0.98970175384E+02  0.20273910642E+03  0.47000000000E+01 0.  1.
<mgrwt>
<rscale>  0 0.61386631E+03</rscale>
<asrwt>0</asrwt>
<pdfrwt beam="1">  1        1 0.73432657E-01 0.61386631E+03</pdfrwt>
<pdfrwt beam="2">  1       -1 0.14465349E+00 0.61386631E+03</pdfrwt>
<totfact> 0.18953907E+01</totfact>
</mgrwt>
</event>
<event>
12    1  0.3127365E-008  0.5571390E+03  0.7818608E-02  0.9998549E-01
          2   -1    0    0  501    0  0.00000000000E+00  0.00000000000E+00  0.25790511912E+04  0.25790511912E+04  0.00000000000E+00 0. -1.
         -2   -1    0    0    0  501 -0.00000000000E+00 -0.00000000000E+00 -0.13674330431E+03  0.13674330431E+03  0.00000000000E+00 0.  1.
         23    2    1    2    0    0 -0.34921776141E+03  0.24332396749E+03  0.11362496137E+04  0.12167466773E+04  0.90827826778E+02 0.  0.
    5000000    2    1    2    0    0  0.34921776141E+03 -0.24332396749E+03  0.13060582732E+04  0.14990478182E+04  0.60016376948E+03 0.  0.
         23    2    4    4    0    0  0.18707335109E+03  0.15738753701E+03  0.70871091682E+03  0.75596676791E+03  0.97197299720E+02 0.  0.
         23    2    4    4    0    0  0.16214441032E+03 -0.40071150450E+03  0.59734735639E+03  0.74308105029E+03  0.92114404282E+02 0.  0.
          4    1    3    3  502    0 -0.18079236140E+03  0.14724391677E+03  0.50177075145E+03  0.55329968008E+03  0.00000000000E+00 0. -1.
         -4    1    3    3    0  502 -0.16842540001E+03  0.96080050719E+02  0.63447886226E+03  0.66344699725E+03  0.00000000000E+00 0.  1.
         11    1    5    5    0    0  0.87983555870E+02  0.10556916738E+03  0.50743411115E+03  0.52571411657E+03  0.00000000000E+00 0. -1.
        -11    1    5    5    0    0  0.99089795221E+02  0.51818369628E+02  0.20127680566E+03  0.23025265133E+03  0.00000000000E+00 0.  1.
          5    1    6    6  503    0  0.80937235497E+01 -0.96332034809E+02  0.17667479178E+03  0.20144835899E+03  0.47000000000E+01 0. -1.
         -5    1    6    6    0  503  0.15405068677E+03 -0.30437946969E+03  0.42067256462E+03  0.54163269130E+03  0.47000000000E+01 0.  1.
<mgrwt>
<rscale>  0 0.55713897E+03</rscale>
<asrwt>0</asrwt>
<pdfrwt beam="1">  1        2 0.39677707E+00 0.55713897E+03</pdfrwt>
<pdfrwt beam="2">  1       -2 0.21037433E-01 0.55713897E+03</pdfrwt>
<totfact> 0.65545619E+01</totfact>
</mgrwt>
</event>
<event>
12    1  0.3127365E-008  0.1559379E+04  0.7818608E-02  0.8845899E-01
          4   -1    0    0  501    0  0.00000000000E+00  0.00000000000E+00  0.24782134780E+04  0.24782134780E+04  0.00000000000E+00 0.  1.
         -4   -1    0    0    0  501 -0.00000000000E+00 -0.00000000000E+00 -0.11370652387E+04  0.11370652387E+04  0.00000000000E+00 0. -1.
         23    2    1    2    0    0 -0.17826147663E+03 -0.14910392770E+04 -0.15139603662E+02  0.15046756908E+04  0.94044922139E+02 0.  0.
    5000000    2    1    2    0    0  0.17826147663E+03  0.14910392770E+04  0.13562878429E+04  0.21106030259E+04  0.60012760350E+03 0.  0.
         23    2    4    4    0    0  0.24881239590E+03  0.22865412235E+03  0.29293507828E+03  0.45606397297E+03  0.89403978279E+02 0.  0.
         23    2    4    4    0    0 -0.70550919271E+02  0.12623851546E+04  0.10633527646E+04  0.16545390529E+04  0.90480189687E+02 0.  0.
          2    1    3    3  502    0 -0.18307761620E+02 -0.32430999043E+02  0.24862315037E+00  0.37242524726E+02  0.00000000000E+00 0. -1.
         -2    1    3    3    0  502 -0.15995371501E+03 -0.14586082779E+04 -0.15388226813E+02  0.14674331661E+04  0.00000000000E+00 0.  1.
         11    1    5    5    0    0  0.12700581382E+03  0.17132111399E+03  0.15764331961E+03  0.26520335039E+03  0.00000000000E+00 0. -1.
        -11    1    5    5    0    0  0.12180658209E+03  0.57333008365E+02  0.13529175867E+03  0.19086062258E+03  0.00000000000E+00 0.  1.
          5    1    6    6  503    0  0.13661524614E+02  0.22726456740E+03  0.16299024582E+03  0.28004237372E+03  0.47000000000E+01 0. -1.
         -5    1    6    6    0  503 -0.84212443886E+02  0.10351205872E+04  0.90036251881E+03  0.13744966792E+04  0.47000000000E+01 0.  1.
<mgrwt>
<rscale>  0 0.15593787E+04</rscale>
<asrwt>0</asrwt>
<pdfrwt beam="1">  1        4 0.38126361E+00 0.15593787E+04</pdfrwt>
<pdfrwt beam="2">  1       -4 0.17493311E+00 0.15593787E+04</pdfrwt>
<totfact> 0.32797333E-03</totfact>
</mgrwt>
</event>
<event>
12    1  0.3127365E-008  0.8540324E+03  0.7818608E-02  0.9484941E-01
          2   -1    0    0  501    0  0.00000000000E+00  0.00000000000E+00  0.47367542887E+03  0.47367542887E+03  0.00000000000E+00 0. -1.
         -2   -1    0    0    0  501 -0.00000000000E+00 -0.00000000000E+00 -0.18853920546E+04  0.18853920546E+04  0.00000000000E+00 0.  1.
         23    2    1    2    0    0 -0.66653792317E+03 -0.43264128048E+03 -0.26994401551E+03  0.84408980777E+03  0.90368974015E+02 0.  0.
    5000000    2    1    2    0    0  0.66653792317E+03  0.43264128048E+03 -0.11417726102E+04  0.15149776757E+04  0.60005115103E+03 0.  0.
         23    2    4    4    0    0  0.43521770458E+03  0.48640992493E+03 -0.10590334503E+04  0.12475373465E+04  0.93747089215E+02 0.  0.
         23    2    4    4    0    0  0.23132021859E+03 -0.53768644454E+02 -0.82739159930E+02  0.26744032917E+03  0.90985990258E+02 0.  0.
          3    1    3    3  502    0 -0.34753519807E+03 -0.27908930957E+03 -0.15044922751E+03  0.47043227639E+03  0.00000000000E+00 0. -1.
         -3    1    3    3    0  502 -0.31900272511E+03 -0.15355197091E+03 -0.11949478800E+03  0.37365753137E+03  0.00000000000E+00 0.  1.
         13    1    5    5    0    0  0.36538885616E+03  0.36252894292E+03 -0.87201354609E+03  0.10125926502E+04  0.00000000000E+00 0. -1.
        -13    1    5    5    0    0  0.69828848420E+02  0.12388098201E+03 -0.18701990419E+03  0.23494469634E+03  0.00000000000E+00 0.  1.
          5    1    6    6  503    0  0.42031355848E+02 -0.45106222795E+02 -0.32978596706E+01  0.61920691919E+02  0.47000000000E+01 0. -1.
         -5    1    6    6    0  503  0.18928886274E+03 -0.86624216584E+01 -0.79441300259E+02  0.20551963725E+03  0.47000000000E+01 0.  1.
<mgrwt>
<rscale>  0 0.85403241E+03</rscale>
<asrwt>0</asrwt>
<pdfrwt beam="1">  1        2 0.72873144E-01 0.85403241E+03</pdfrwt>
<pdfrwt beam="2">  1       -2 0.29006031E+00 0.85403241E+03</pdfrwt>
<totfact> 0.24538479E+00</totfact>
</mgrwt>
</event>
<event>
12    1  0.3127365E-008  0.1082623E+04  0.7818608E-02  0.9222296E-01
          2   -1    0    0  501    0  0.00000000000E+00  0.00000000000E+00  0.24102854594E+04  0.24102854594E+04  0.00000000000E+00 0. -1.
         -2   -1    0    0    0  501 -0.00000000000E+00 -0.00000000000E+00 -0.52988057749E+03  0.52988057749E+03  0.00000000000E+00 0.  1.
         23    2    1    2    0    0  0.39152902938E+03 -0.95175210066E+03  0.61502173517E+03  0.12022362612E+04  0.89404983560E+02 0.  0.
    5000000    2    1    2    0    0 -0.39152902938E+03  0.95175210066E+03  0.12653831468E+04  0.17379297757E+04  0.60006529243E+03 0.  0.
         23    2    4    4    0    0  0.39745572459E+02  0.11200348885E+02 -0.36276139287E+01  0.98293690577E+02  0.89125370570E+02 0.  0.
         23    2    4    4    0    0 -0.43127460184E+03  0.94055175177E+03  0.12690107607E+04  0.16396360851E+04  0.85923226875E+02 0.  0.
          4    1    3    3  502    0  0.23962950494E+03 -0.46546006386E+03  0.31621632471E+03  0.61161109759E+03  0.00000000000E+00 0. -1.
         -4    1    3    3    0  502  0.15189952444E+03 -0.48629203680E+03  0.29880541047E+03  0.59062516362E+03  0.00000000000E+00 0.  1.
         13    1    5    5    0    0 -0.11657483311E+02 -0.27659160837E+02 -0.13837024872E+02  0.33051313933E+02  0.00000000000E+00 0. -1.
        -13    1    5    5    0    0  0.51403055770E+02  0.38859509723E+02  0.10209410943E+02  0.65242376644E+02  0.00000000000E+00 0.  1.
          5    1    6    6  503    0 -0.19625342370E+03  0.33575378400E+03  0.49961300393E+03  0.63315184078E+03  0.47000000000E+01 0. -1.
         -5    1    6    6    0  503 -0.23502117813E+03  0.60479796777E+03  0.76939775676E+03  0.10064842443E+04  0.47000000000E+01 0.  1.
<mgrwt>
<rscale>  0 0.10826230E+04</rscale>
<asrwt>0</asrwt>
<pdfrwt beam="1">  1        2 0.37081314E+00 0.10826230E+04</pdfrwt>
<pdfrwt beam="2">  1       -2 0.81520090E-01 0.10826230E+04</pdfrwt>
<totfact> 0.51862266E+00</totfact>
</mgrwt>
</event>
<event>
12    1  0.3127365E-008  0.2496240E+04  0.7818608E-02  0.8404326E-01
         -2   -1    0    0    0  501 -0.00000000000E+00  0.00000000000E+00  0.16537124582E+04  0.16537124582E+04  0.00000000000E+00 0. -1.
          2   -1    0    0  501    0  0.00000000000E+00 -0.00000000000E+00 -0.41320025220E+04  0.41320025220E+04  0.00000000000E+00 0.  1.
         23    2    1    2    0    0 -0.15121463051E+04  0.19489955258E+04 -0.20547256284E+04  0.32118705450E+04  0.95105111684E+02 0.  0.
    5000000    2    1    2    0    0  0.15121463051E+04 -0.19489955258E+04 -0.42356443547E+03  0.25738444352E+04  0.60008194252E+03 0.  0.
         23    2    4    4    0    0  0.40808288362E+03 -0.94537953937E+03 -0.29086401590E+03  0.10738013606E+04  0.90406708091E+02 0.  0.
         23    2    4    4    0    0  0.11040634215E+04 -0.10036159865E+04 -0.13270041956E+03  0.15000430746E+04  0.79490485900E+02 0.  0.
          1    1    3    3  502    0 -0.30014611737E+03  0.41192237731E+03 -0.37928470746E+03  0.63531458823E+03  0.00000000000E+00 0. -1.
         -1    1    3    3    0  502 -0.12120001878E+04  0.15370731485E+04 -0.16754409209E+04  0.25765559568E+04  0.00000000000E+00 0.  1.
         13    1    5    5    0    0  0.24106393585E+03 -0.46741212068E+03 -0.11991472009E+03  0.53941213540E+03  0.00000000000E+00 0.  1.
        -13    1    5    5    0    0  0.16701894777E+03 -0.47796741869E+03 -0.17094929581E+03  0.53438922517E+03  0.00000000000E+00 0. -1.
          5    1    6    6  503    0  0.80610609665E+02 -0.93666333918E+02  0.41640559331E+01  0.12373714827E+03  0.47000000000E+01 0. -1.
         -5    1    6    6    0  503  0.10234528118E+04 -0.90994965256E+03 -0.13686447550E+03  0.13763059264E+04  0.47000000000E+01 0.  1.
<mgrwt>
<rscale>  0 0.24962397E+04</rscale>
<asrwt>0</asrwt>
<pdfrwt beam="1">  1        2 0.63569269E+00 0.24962397E+04</pdfrwt>
<pdfrwt beam="2">  1       -2 0.25441730E+00 0.24962397E+04</pdfrwt>
<totfact> 0.13558675E-02</totfact>
</mgrwt>
</event>
<event>
12    1  0.3437922E-008  0.7249174E+03  0.7818608E-02  0.9675544E-01
          2   -1    0    0  501    0  0.00000000000E+00  0.00000000000E+00  0.28750006022E+04  0.28750006022E+04  0.00000000000E+00 0. -1.
         -2   -1    0    0    0  501 -0.00000000000E+00 -0.00000000000E+00 -0.23744055138E+03  0.23744055138E+03  0.00000000000E+00 0.  1.
         23    2    1    2    0    0  0.41404920696E+03 -0.54447913093E+03  0.15356004794E+04  0.16834994624E+04  0.90594358963E+02 0.  0.
    5000000    2    1    2    0    0 -0.41404920696E+03  0.54447913093E+03  0.11019595714E+04  0.14289416912E+04  0.59972092666E+03 0.  0.
         23    2    4    4    0    0  0.13837126131E+02  0.17846217904E+03  0.15235681952E+02  0.20161915997E+03  0.91531110862E+02 0.  0.
         23    2    4    4    0    0 -0.42788633309E+03  0.36601695189E+03  0.10867238895E+04  0.12273225312E+04  0.91086006019E+02 0.  0.
          1    1    3    3  502    0  0.27139468435E+03 -0.37624130044E+03  0.93702677596E+03  0.10455772423E+04  0.00000000000E+00 0. -1.
         -1    1    3    3    0  502  0.14265452261E+03 -0.16823783049E+03  0.59857370340E+03  0.63792222005E+03  0.00000000000E+00 0.  1.
         13    1    5    5    0    0 -0.30871584130E+02  0.11743757666E+03 -0.10082111901E+02  0.12184534500E+03  0.00000000000E+00 0. -1.
        -13    1    5    5    0    0  0.44708710262E+02  0.61024602377E+02  0.25317793853E+02  0.79773814965E+02  0.00000000000E+00 0.  1.
          5    1    6    6  503    0 -0.28527412975E+03  0.19519829232E+03  0.60852892631E+03  0.69986659199E+03  0.47000000000E+01 0. -1.
         -5    1    6    6    0  503 -0.14261220334E+03  0.17081865957E+03  0.47819496316E+03  0.52745593919E+03  0.47000000000E+01 0.  1.
<mgrwt>
<rscale>  0 0.72491744E+03</rscale>
<asrwt>0</asrwt>
<pdfrwt beam="1">  1        2 0.44230776E+00 0.72491744E+03</pdfrwt>
<pdfrwt beam="2">  1       -2 0.36529318E-01 0.72491744E+03</pdfrwt>
<totfact> 0.15590413E+01</totfact>
</mgrwt>
</event>
<event>
12    1  0.3127365E-008  0.8695776E+03  0.7818608E-02  0.9464431E-01
         -1   -1    0    0    0  501 -0.00000000000E+00  0.00000000000E+00  0.93563180579E+03  0.93563180579E+03  0.00000000000E+00 0.  1.
          1   -1    0    0  501    0  0.00000000000E+00 -0.00000000000E+00 -0.98035015803E+03  0.98035015803E+03  0.00000000000E+00 0. -1.
         23    2    1    2    0    0 -0.34139127513E+03  0.71336344436E+03  0.32022960041E+03  0.85832559958E+03  0.93490274526E+02 0.  0.
    5000000    2    1    2    0    0  0.34139127513E+03 -0.71336344436E+03 -0.36494795265E+03  0.10576563642E+04  0.60001214171E+03 0.  0.
         23    2    4    4    0    0  0.13587266742E+03 -0.70516825654E+03 -0.13979091958E+03  0.73736246994E+03  0.91859997232E+02 0.  0.
         23    2    4    4    0    0  0.20551860771E+03 -0.81951878126E+01 -0.22515703307E+03  0.32029389430E+03  0.97915422523E+02 0.  0.
          4    1    3    3  502    0 -0.66542239181E+02  0.16585218875E+03  0.11377228783E+03  0.21184652838E+03  0.00000000000E+00 0. -1.
         -4    1    3    3    0  502 -0.27484903595E+03  0.54751125561E+03  0.20645731258E+03  0.64647907120E+03  0.00000000000E+00 0.  1.
         11    1    5    5    0    0  0.44166136362E+02 -0.45159797671E+03 -0.10209030215E+03  0.46509548478E+03  0.00000000000E+00 0.  1.
        -11    1    5    5    0    0  0.91706531060E+02 -0.25357027983E+03 -0.37700617427E+02  0.27226698516E+03  0.00000000000E+00 0. -1.
          5    1    6    6  503    0  0.25624238203E+02 -0.33785451001E+02 -0.23117285637E+02  0.48523779511E+02  0.47000000000E+01 0. -1.
         -5    1    6    6    0  503  0.17989436950E+03  0.25590263189E+02 -0.20203974744E+03  0.27177011479E+03  0.47000000000E+01 0.  1.
<mgrwt>
<rscale>  0 0.86957759E+03</rscale>
<asrwt>0</asrwt>
<pdfrwt beam="1">  1        1 0.15082310E+00 0.86957759E+03</pdfrwt>
<pdfrwt beam="2">  1       -1 0.14394336E+00 0.86957759E+03</pdfrwt>
<totfact> 0.62183272E+00</totfact>
</mgrwt>
</event>
<event>
12    1  0.3127365E-008  0.5232440E+03  0.7818608E-02  0.1007884E+00
          1   -1    0    0  501    0  0.00000000000E+00  0.00000000000E+00  0.34426461383E+03  0.34426461383E+03  0.00000000000E+00 0. -1.
         -1   -1    0    0    0  501 -0.00000000000E+00 -0.00000000000E+00 -0.12032266877E+04  0.12032266877E+04  0.00000000000E+00 0.  1.
         23    2    1    2    0    0 -0.14038503244E+03 -0.43373752644E+03 -0.96009898574E+02  0.47514942738E+03  0.93342801234E+02 0.  0.
    5000000    2    1    2    0    0  0.14038503244E+03  0.43373752644E+03 -0.76295217534E+03  0.10723418742E+04  0.59998739494E+03 0.  0.
         23    2    4    4    0    0 -0.50841722553E+02 -0.29570697477E+02 -0.47398724122E+03  0.48648336053E+03  0.92427530173E+02 0.  0.
         23    2    4    4    0    0  0.19122675500E+03  0.46330822392E+03 -0.28896493412E+03  0.58585851365E+03  0.92234932037E+02 0.  0.
          3    1    3    3  502    0 -0.12367364357E+03 -0.27112847590E+03 -0.32461234478E+02  0.29976582911E+03  0.00000000000E+00 0. -1.
         -3    1    3    3    0  502 -0.16711388877E+02 -0.16260905054E+03 -0.63548664096E+02  0.17538359828E+03  0.00000000000E+00 0.  1.
         11    1    5    5    0    0 -0.25692472654E+02 -0.46604197726E+02 -0.12092632248E+03  0.13211824199E+03  0.00000000000E+00 0.  1.
        -11    1    5    5    0    0 -0.25149249899E+02  0.17033500249E+02 -0.35306091873E+03  0.35436511854E+03  0.00000000000E+00 0. -1.
          5    1    6    6  503    0  0.11709225363E+03  0.29703033585E+03 -0.23318221594E+03  0.39539050584E+03  0.47000000000E+01 0. -1.
         -5    1    6    6    0  503  0.74134501367E+02  0.16627788806E+03 -0.55782718185E+02  0.19046800781E+03  0.47000000000E+01 0.  1.
<mgrwt>
<rscale>  0 0.52324398E+03</rscale>
<asrwt>0</asrwt>
<pdfrwt beam="1">  1        1 0.52963788E-01 0.52324398E+03</pdfrwt>
<pdfrwt beam="2">  1       -1 0.18511179E+00 0.52324398E+03</pdfrwt>
<totfact> 0.14842175E+01</totfact>
</mgrwt>
</event>
<event>
12    1  0.3127365E-008  0.1391674E+04  0.7818608E-02  0.8959867E-01
          1   -1    0    0  501    0  0.00000000000E+00  0.00000000000E+00  0.10730022868E+04  0.10730022868E+04  0.00000000000E+00 0. -1.
         -1   -1    0    0    0  501 -0.00000000000E+00 -0.00000000000E+00 -0.21318274921E+04  0.21318274921E+04  0.00000000000E+00 0.  1.
         23    2    1    2    0    0  0.51803819016E+03 -0.12456562829E+04  0.58305500493E+02  0.13534259943E+04  0.91319489661E+02 0.  0.
    5000000    2    1    2    0    0 -0.51803819016E+03  0.12456562829E+04 -0.11171307057E+04  0.18514037845E+04  0.59974312686E+03 0.  0.
         23    2    4    4    0    0 -0.61205186819E+03  0.10857270672E+04 -0.84010392333E+03  0.15057932303E+04  0.90707753637E+02 0.  0.
         23    2    4    4    0    0  0.94013678039E+02  0.15992921570E+03 -0.27702678242E+03  0.34561055429E+03  0.91032364387E+02 0.  0.
          3    1    3    3  502    0  0.10838917772E+03 -0.23538643393E+03 -0.23444624740E+02  0.26020114825E+03  0.00000000000E+00 0. -1.
         -3    1    3    3    0  502  0.40964901243E+03 -0.10102698489E+04  0.81750125233E+02  0.10932248460E+04  0.00000000000E+00 0.  1.
         11    1    5    5    0    0 -0.11737040939E+03  0.26456952463E+03 -0.16352407035E+03  0.33243490783E+03  0.00000000000E+00 0.  1.
        -11    1    5    5    0    0 -0.49468145881E+03  0.82115754253E+03 -0.67657985298E+03  0.11733583224E+04  0.00000000000E+00 0. -1.
          5    1    6    6  503    0  0.47344221807E+02  0.89050722898E+02 -0.22328816644E+03  0.24505346735E+03  0.47000000000E+01 0. -1.
         -5    1    6    6    0  503  0.46669456232E+02  0.70878492797E+02 -0.53738615977E+02  0.10055708694E+03  0.47000000000E+01 0.  1.
<mgrwt>
<rscale>  0 0.13916744E+04</rscale>
<asrwt>0</asrwt>
<pdfrwt beam="1">  1        1 0.16507728E+00 0.13916744E+04</pdfrwt>
<pdfrwt beam="2">  1       -1 0.32797346E+00 0.13916744E+04</pdfrwt>
<totfact> 0.27775264E-01</totfact>
</mgrwt>
</event>
<event>
12    1  0.3127365E-008  0.1019604E+04  0.7818608E-02  0.9287302E-01
         -2   -1    0    0    0  501 -0.00000000000E+00  0.00000000000E+00  0.15294533569E+04  0.15294533569E+04  0.00000000000E+00 0.  1.
          2   -1    0    0  501    0  0.00000000000E+00 -0.00000000000E+00 -0.27482416470E+04  0.27482416470E+04  0.00000000000E+00 0. -1.
         23    2    1    2    0    0 -0.99382177607E+03 -0.26386323523E+02 -0.24133283093E+04  0.26117616984E+04  0.93635892730E+02 0.  0.
    5000000    2    1    2    0    0  0.99382177607E+03  0.26386323523E+02  0.11945400192E+04  0.16659333055E+04  0.60002496616E+03 0.  0.
         23    2    4    4    0    0  0.99371044332E+03 -0.11111081470E+02  0.86176580567E+03  0.13184739100E+04  0.90273175009E+02 0.  0.
         23    2    4    4    0    0  0.11133274958E+00  0.37497404993E+02  0.33277421356E+03  0.34745939549E+03  0.92646028150E+02 0.  0.
          1    1    3    3  502    0 -0.69541308426E+03 -0.19022602827E+02 -0.17968305951E+04  0.19268008212E+04  0.00000000000E+00 0. -1.
         -1    1    3    3    0  502 -0.29840869181E+03 -0.73637206960E+01 -0.61649771421E+03  0.68496087724E+03  0.00000000000E+00 0.  1.
         13    1    5    5    0    0  0.90737894907E+03 -0.35752711254E+02  0.78349932697E+03  0.11993690045E+04  0.00000000000E+00 0.  1.
        -13    1    5    5    0    0  0.86331494250E+02  0.24641629784E+02  0.78266478708E+02  0.11910490547E+03  0.00000000000E+00 0. -1.
          5    1    6    6  503    0 -0.13460140910E+02  0.18481223449E+02  0.12842028413E+02  0.26640921667E+02  0.47000000000E+01 0. -1.
         -5    1    6    6    0  503  0.13571473660E+02  0.19016181544E+02  0.31993218514E+03  0.32081847383E+03  0.47000000000E+01 0.  1.
<mgrwt>
<rscale>  0 0.10196035E+04</rscale>
<asrwt>0</asrwt>
<pdfrwt beam="1">  1        2 0.42280641E+00 0.10196035E+04</pdfrwt>
<pdfrwt beam="2">  1       -2 0.23530052E+00 0.10196035E+04</pdfrwt>
<totfact> 0.19900957E-01</totfact>
</mgrwt>
</event>
<event>
12    1  0.3127365E-008  0.5749209E+03  0.7818608E-02  0.9958848E-01
         -2   -1    0    0    0  501 -0.00000000000E+00  0.00000000000E+00  0.17629112683E+03  0.17629112683E+03  0.00000000000E+00 0.  1.
          2   -1    0    0  501    0  0.00000000000E+00 -0.00000000000E+00 -0.28276993467E+04  0.28276993467E+04  0.00000000000E+00 0. -1.
         23    2    1    2    0    0 -0.41945153606E+02 -0.55817620087E+03 -0.13648324162E+04  0.14779489663E+04  0.90805041496E+02 0.  0.
    5000000    2    1    2    0    0  0.41945153606E+02  0.55817620087E+03 -0.12865758036E+04  0.15260415072E+04  0.60017107229E+03 0.  0.
         23    2    4    4    0    0 -0.48636576649E+02  0.29615505608E+03 -0.11706709633E+04  0.12123903543E+04  0.96677469040E+02 0.  0.
         23    2    4    4    0    0  0.90581730255E+02  0.26202114480E+03 -0.11590484028E+03  0.31365115284E+03  0.89905414210E+02 0.  0.
          1    1    3    3  502    0  0.46097772295E+01 -0.43675048299E+03 -0.10697678720E+04  0.11554979595E+04  0.00000000000E+00 0. -1.
         -1    1    3    3    0  502 -0.46554930835E+02 -0.12142571788E+03 -0.29506454429E+03  0.32245100689E+03  0.00000000000E+00 0.  1.
         13    1    5    5    0    0 -0.55837786676E+02  0.17288806337E+03 -0.53995460236E+03  0.56970089827E+03  0.00000000000E+00 0. -1.
        -13    1    5    5    0    0  0.72012100272E+01  0.12326699270E+03 -0.63071636099E+03  0.64268945606E+03  0.00000000000E+00 0.  1.
          5    1    6    6  503    0  0.46747568773E+02  0.15925318479E+03 -0.11472745219E+03  0.20182019309E+03  0.47000000000E+01 0. -1.
         -5    1    6    6    0  503  0.43834161482E+02  0.10276796001E+03 -0.11773880821E+01  0.11183095975E+03  0.47000000000E+01 0.  1.
<mgrwt>
<rscale>  0 0.57492090E+03</rscale>
<asrwt>0</asrwt>
<pdfrwt beam="1">  1        2 0.43503065E+00 0.57492090E+03</pdfrwt>
<pdfrwt beam="2">  1       -2 0.27121713E-01 0.57492090E+03</pdfrwt>
<totfact> 0.29824044E+01</totfact>
</mgrwt>
</event>
<event>
12    1  0.3127365E-008  0.4317227E+03  0.7818608E-02  0.1033317E+00
          2   -1    0    0  501    0  0.00000000000E+00  0.00000000000E+00  0.39073958881E+03  0.39073958881E+03  0.00000000000E+00 0. -1.
         -2   -1    0    0    0  501 -0.00000000000E+00 -0.00000000000E+00 -0.68428078807E+03  0.68428078807E+03  0.00000000000E+00 0.  1.
         23    2    1    2    0    0 -0.27511950757E+03  0.18875582619E+03 -0.68937539259E+02  0.35275205155E+03  0.91444629066E+02 0.  0.
    5000000    2    1    2    0    0  0.27511950757E+03 -0.18875582619E+03 -0.22460366000E+03  0.72226832533E+03  0.59992101508E+03 0.  0.
         23    2    4    4    0    0  0.12398356925E+03  0.11827478543E+03  0.11950642941E+03  0.22863236044E+03  0.92898435180E+02 0.  0.
         23    2    4    4    0    0  0.15113593832E+03 -0.30703061163E+03 -0.34411008941E+03  0.49363596489E+03  0.90304174160E+02 0.  0.
          2    1    3    3  502    0 -0.15034110057E+03  0.69735307752E+02 -0.71010581549E+02  0.18029964603E+03  0.00000000000E+00 0. -1.
         -2    1    3    3    0  502 -0.12477840700E+03  0.11902051844E+03  0.20730422901E+01  0.17245240551E+03  0.00000000000E+00 0.  1.
         13    1    5    5    0    0  0.81550697621E+02  0.82162675551E+02  0.24249732734E+02  0.11827624898E+03  0.00000000000E+00 0. -1.
        -13    1    5    5    0    0  0.42432871628E+02  0.36112109883E+02  0.95256696677E+02  0.11035611146E+03  0.00000000000E+00 0.  1.
          5    1    6    6  503    0  0.11560615726E+03 -0.13376154610E+03 -0.17875747837E+03  0.25146224544E+03  0.47000000000E+01 0. -1.
         -5    1    6    6    0  503  0.35529781057E+02 -0.17326906553E+03 -0.16535261104E+03  0.24217371945E+03  0.47000000000E+01 0.  1.
<mgrwt>
<rscale>  0 0.43172272E+03</rscale>
<asrwt>0</asrwt>
<pdfrwt beam="1">  1        2 0.60113783E-01 0.43172272E+03</pdfrwt>
<pdfrwt beam="2">  1       -2 0.10527397E+00 0.43172272E+03</pdfrwt>
<totfact> 0.61743888E+01</totfact>
</mgrwt>
</event>
<event>
12    1  0.3127365E-008  0.3034732E+03  0.7818608E-02  0.1083517E+00
          2   -1    0    0  501    0  0.00000000000E+00  0.00000000000E+00  0.11374008470E+03  0.11374008470E+03  0.00000000000E+00 0. -1.
         -2   -1    0    0    0  501 -0.00000000000E+00 -0.00000000000E+00 -0.18970356195E+04  0.18970356195E+04  0.00000000000E+00 0.  1.
         23    2    1    2    0    0 -0.46720535541E+02  0.10965102636E+03 -0.10159534466E+04  0.10294575450E+04  0.11582432975E+03 0.  0.
    5000000    2    1    2    0    0  0.46720535541E+02 -0.10965102636E+03 -0.76734208817E+03  0.98131815913E+03  0.59997107692E+03 0.  0.
         23    2    4    4    0    0 -0.10946995293E+03 -0.20788440066E+03 -0.81453372880E+02  0.26537918524E+03  0.92692315622E+02 0.  0.
         23    2    4    4    0    0  0.15619048847E+03  0.98233374294E+02 -0.68588871529E+03  0.71593897389E+03  0.89888931784E+02 0.  0.
          2    1    3    3  502    0  0.30948825211E+02  0.99368159791E+01 -0.35808603594E+03  0.35955831131E+03  0.00000000000E+00 0. -1.
         -2    1    3    3    0  502 -0.77669360752E+02  0.99714210382E+02 -0.65786741065E+03  0.66989923372E+03  0.00000000000E+00 0.  1.
         13    1    5    5    0    0  0.16160053057E+02 -0.28920493263E+02 -0.17988708687E+02  0.37697955987E+02  0.00000000000E+00 0.  1.
        -13    1    5    5    0    0 -0.12563000599E+03 -0.17896390739E+03 -0.63464664193E+02  0.22768122926E+03  0.00000000000E+00 0. -1.
          5    1    6    6  503    0  0.14457862291E+03  0.10787791613E+03 -0.54346102069E+03  0.57263652870E+03  0.47000000000E+01 0. -1.
         -5    1    6    6    0  503  0.11611865569E+02 -0.96445418325E+01 -0.14242769459E+03  0.14330244519E+03  0.47000000000E+01 0.  1.
<mgrwt>
<rscale>  0 0.30347317E+03</rscale>
<asrwt>0</asrwt>
<pdfrwt beam="1">  1        2 0.17498476E-01 0.30347317E+03</pdfrwt>
<pdfrwt beam="2">  1       -2 0.29185161E+00 0.30347317E+03</pdfrwt>
<totfact> 0.13170210E+01</totfact>
</mgrwt>
</event>
<event>
12    1  0.3127365E-008  0.8733875E+03  0.7818608E-02  0.9459474E-01
         -2   -1    0    0    0  501 -0.00000000000E+00  0.00000000000E+00  0.26383386136E+04  0.26383386136E+04  0.00000000000E+00 0. -1.
          2   -1    0    0  501    0  0.00000000000E+00 -0.00000000000E+00 -0.15023444876E+04  0.15023444876E+04  0.00000000000E+00 0.  1.
         23    2    1    2    0    0  0.54255213174E+03 -0.55572185180E+03 -0.12988062054E+04  0.15155373039E+04  0.82256720607E+02 0.  0.
    5000000    2    1    2    0    0 -0.54255213174E+03  0.55572185180E+03  0.24348003314E+04  0.26251457973E+04  0.59995684100E+03 0.  0.
         23    2    4    4    0    0  0.11029030576E+03  0.98271404285E+02  0.56746885260E+03  0.59278543906E+03  0.86904876950E+02 0.  0.
         23    2    4    4    0    0 -0.65284243750E+03  0.45745044751E+03  0.18673314788E+04  0.20323603582E+04  0.89986743025E+02 0.  0.
          2    1    3    3  502    0  0.32246340017E+03 -0.28997650417E+03 -0.78032636428E+03  0.89273638450E+03  0.00000000000E+00 0. -1.
         -2    1    3    3    0  502  0.22008873157E+03 -0.26574534763E+03 -0.51847984115E+03  0.62280091941E+03  0.00000000000E+00 0.  1.
         13    1    5    5    0    0  0.75590424858E+02  0.10932824011E+03  0.40377315915E+03  0.42508745038E+03  0.00000000000E+00 0.  1.
        -13    1    5    5    0    0  0.34699880900E+02 -0.11056835823E+02  0.16369569345E+03  0.16769798868E+03  0.00000000000E+00 0. -1.
          5    1    6    6  503    0 -0.11194380580E+02  0.15011462716E+02  0.22550245474E+02  0.29686052960E+02  0.47000000000E+01 0. -1.
         -5    1    6    6    0  503 -0.64164805692E+03  0.44243898480E+03  0.18447812333E+04  0.20026743053E+04  0.47000000000E+01 0.  1.
<mgrwt>
<rscale>  0 0.87338747E+03</rscale>
<asrwt>0</asrwt>
<pdfrwt beam="1">  1        2 0.23112992E+00 0.87338747E+03</pdfrwt>
<pdfrwt beam="2">  1       -2 0.40589825E+00 0.87338747E+03</pdfrwt>
<totfact> 0.89891091E-02</totfact>
</mgrwt>
</event>
<event>
12    1  0.3127365E-008  0.4652315E+03  0.7818608E-02  0.1023275E+00
         -2   -1    0    0    0  501 -0.00000000000E+00  0.00000000000E+00  0.32807236053E+03  0.32807236053E+03  0.00000000000E+00 0.  1.
          2   -1    0    0  501    0  0.00000000000E+00 -0.00000000000E+00 -0.97834486129E+03  0.97834486129E+03  0.00000000000E+00 0. -1.
         23    2    1    2    0    0  0.30175682102E+03 -0.26340944500E+03 -0.26206517399E+03  0.48707841326E+03  0.90141613565E+02 0.  0.
    5000000    2    1    2    0    0 -0.30175682102E+03  0.26340944500E+03 -0.38820732677E+03  0.81933880855E+03  0.60014118330E+03 0.  0.
         23    2    4    4    0    0 -0.18655860590E+03 -0.39413135529E+02  0.95090604491E+02  0.23029048467E+03  0.87372624899E+02 0.  0.
         23    2    4    4    0    0 -0.11519821512E+03  0.30282258053E+03 -0.48329793126E+03  0.58904832388E+03  0.91809005331E+02 0.  0.
          3    1    3    3  502    0  0.12175452233E+03 -0.65902042911E+02 -0.12603256855E+03  0.18722032823E+03  0.00000000000E+00 0.  1.
         -3    1    3    3    0  502  0.18000229868E+03 -0.19750740209E+03 -0.13603260545E+03  0.29985808503E+03  0.00000000000E+00 0. -1.
         13    1    5    5    0    0 -0.22668009820E+02 -0.27393161108E+02  0.47257520223E+02  0.59139641209E+02  0.00000000000E+00 0. -1.
        -13    1    5    5    0    0 -0.16389059608E+03 -0.12019974420E+02  0.47833084268E+02  0.17115084346E+03  0.00000000000E+00 0.  1.
          5    1    6    6  503    0 -0.60210597730E+02  0.18886653249E+03 -0.21561111245E+03  0.29292682531E+03  0.47000000000E+01 0. -1.
         -5    1    6    6    0  503 -0.54987617390E+02  0.11395604804E+03 -0.26768681880E+03  0.29612149857E+03  0.47000000000E+01 0.  1.
<mgrwt>
<rscale>  0 0.46523151E+03</rscale>
<asrwt>0</asrwt>
<pdfrwt beam="1">  1        2 0.15051459E+00 0.46523151E+03</pdfrwt>
<pdfrwt beam="2">  1       -2 0.50472671E-01 0.46523151E+03</pdfrwt>
<totfact> 0.10044387E+02</totfact>
</mgrwt>
</event>
<event>
12    1  0.3127365E-008  0.7113408E+03  0.7818608E-02  0.9698032E-01
          1   -1    0    0  501    0  0.00000000000E+00  0.00000000000E+00  0.12800478556E+04  0.12800478556E+04  0.00000000000E+00 0. -1.
         -1   -1    0    0    0  501 -0.00000000000E+00 -0.00000000000E+00 -0.52527439214E+03  0.52527439214E+03  0.00000000000E+00 0.  1.
         23    2    1    2    0    0 -0.38404522161E+03 -0.57927576902E+03  0.18519837257E+03  0.72483008859E+03  0.89605085297E+02 0.  0.
    5000000    2    1    2    0    0  0.38404522161E+03  0.57927576902E+03  0.56957509094E+03  0.10804921592E+04  0.59999697753E+03 0.  0.
         23    2    4    4    0    0  0.21509997439E+03  0.41511327895E+03  0.65834226797E+03  0.81260901423E+03  0.91278885096E+02 0.  0.
         23    2    4    4    0    0  0.16894524721E+03  0.16416249007E+03 -0.88767177032E+02  0.26788314496E+03  0.91596658977E+02 0.  0.
          4    1    3    3  502    0 -0.11433158613E+03 -0.25167164847E+03  0.73489082718E+02  0.28602617977E+03  0.00000000000E+00 0. -1.
         -4    1    3    3    0  502 -0.26971363548E+03 -0.32760412054E+03  0.11170928985E+03  0.43880390882E+03  0.00000000000E+00 0.  1.
         11    1    5    5    0    0 -0.32033792805E+01  0.33525555095E+02  0.26396387884E+02  0.42790113071E+02  0.00000000000E+00 0. -1.
        -11    1    5    5    0    0  0.21830335368E+03  0.38158772385E+03  0.63194588009E+03  0.76981890116E+03  0.00000000000E+00 0.  1.
          5    1    6    6  503    0  0.54784025608E+02  0.86849915860E+01 -0.40932396672E+02  0.69096089889E+02  0.47000000000E+01 0. -1.
         -5    1    6    6    0  503  0.11416122160E+03  0.15547749849E+03 -0.47834780360E+02  0.19878705508E+03  0.47000000000E+01 0.  1.
<mgrwt>
<rscale>  0 0.71134076E+03</rscale>
<asrwt>0</asrwt>
<pdfrwt beam="1">  1        1 0.19693044E+00 0.71134076E+03</pdfrwt>
<pdfrwt beam="2">  1       -1 0.80811445E-01 0.71134076E+03</pdfrwt>
<totfact> 0.14830793E+01</totfact>
</mgrwt>
</event>
<event>
12    1  0.3127365E-008  0.5777376E+03  0.7818608E-02  0.9952701E-01
         -2   -1    0    0    0  501 -0.00000000000E+00  0.00000000000E+00  0.37247980528E+03  0.37247980528E+03  0.00000000000E+00 0.  1.
          2   -1    0    0  501    0  0.00000000000E+00 -0.00000000000E+00 -0.12592159324E+04  0.12592159324E+04  0.00000000000E+00 0. -1.
         23    2    1    2    0    0  0.13731031677E+03  0.47983263910E+03 -0.89572702227E+02  0.51599406087E+03  0.95567343960E+02 0.  0.
    5000000    2    1    2    0    0 -0.13731031677E+03 -0.47983263910E+03 -0.79716342492E+03  0.11157016768E+04  0.60018932099E+03 0.  0.
         23    2    4    4    0    0 -0.90003619575E+02 -0.52711751848E+03 -0.83618466686E+03  0.99679897082E+03  0.91923127185E+02 0.  0.
         23    2    4    4    0    0 -0.47306697194E+02  0.47284879385E+02  0.39021241940E+02  0.11890270601E+03  0.90229777551E+02 0.  0.
          3    1    3    3  502    0  0.12574126811E+03  0.27524648456E+03 -0.40690830994E+02  0.30533135688E+03  0.00000000000E+00 0. -1.
         -3    1    3    3    0  502  0.11569048661E+02  0.20458615454E+03 -0.48881871233E+02  0.21066270399E+03  0.00000000000E+00 0.  1.
         11    1    5    5    0    0  0.17902747362E+01 -0.38729937853E+02 -0.11190693264E+03  0.11843299685E+03  0.00000000000E+00 0. -1.
        -11    1    5    5    0    0 -0.91793894311E+02 -0.48838758063E+03 -0.72427773422E+03  0.87836597397E+03  0.00000000000E+00 0.  1.
          5    1    6    6  503    0  0.26412840919E+02  0.20135456381E+02  0.97022631898E+01  0.34918457585E+02  0.47000000000E+01 0. -1.
         -5    1    6    6    0  503 -0.73719538114E+02  0.27149423004E+02  0.29318978750E+02  0.83984248429E+02  0.47000000000E+01 0.  1.
<mgrwt>
<rscale>  0 0.57773758E+03</rscale>
<asrwt>0</asrwt>
<pdfrwt beam="1">  1        2 0.19372553E+00 0.57773758E+03</pdfrwt>
<pdfrwt beam="2">  1       -2 0.57304585E-01 0.57773758E+03</pdfrwt>
<totfact> 0.51722528E+01</totfact>
</mgrwt>
</event>
<event>
12    1  0.3127365E-008  0.1107412E+04  0.7818608E-02  0.9197998E-01
          2   -1    0    0  501    0  0.00000000000E+00  0.00000000000E+00  0.21028454510E+04  0.21028454510E+04  0.00000000000E+00 0.  1.
         -2   -1    0    0    0  501 -0.00000000000E+00 -0.00000000000E+00 -0.60422479854E+03  0.60422479854E+03  0.00000000000E+00 0. -1.
         23    2    1    2    0    0 -0.10038518359E+04  0.22201335799E+03  0.47203517408E+03  0.11350907044E+04  0.92764551555E+02 0.  0.
    5000000    2    1    2    0    0  0.10038518359E+04 -0.22201335799E+03  0.10265854783E+04  0.15719795451E+04  0.60019455717E+03 0.  0.
         23    2    4    4    0    0  0.10300631143E+04 -0.11246971896E+03  0.85395937925E+03  0.13455607450E+04  0.87221786748E+02 0.  0.
         23    2    4    4    0    0 -0.26211278398E+02 -0.10954363903E+03  0.17262609909E+03  0.22641880010E+03  0.93695586800E+02 0.  0.
          2    1    3    3  502    0 -0.36887938714E+03  0.54429724607E+02  0.21071284475E+03  0.42829254035E+03  0.00000000000E+00 0. -1.
         -2    1    3    3    0  502 -0.63497244874E+03  0.16758363338E+03  0.26132232933E+03  0.70679816401E+03  0.00000000000E+00 0.  1.
         13    1    5    5    0    0  0.96268228252E+03 -0.86015533973E+02  0.77915628682E+03  0.12414670227E+04  0.00000000000E+00 0. -1.
        -13    1    5    5    0    0  0.67380831761E+02 -0.26454184989E+02  0.74803092430E+02  0.10409372233E+03  0.00000000000E+00 0.  1.
          5    1    6    6  503    0  0.34495698957E+02 -0.51819751260E+02  0.68104367095E+02  0.92387957465E+02  0.47000000000E+01 0. -1.
         -5    1    6    6    0  503 -0.60706977356E+02 -0.57723887770E+02  0.10452173200E+03  0.13403084264E+03  0.47000000000E+01 0.  1.
<mgrwt>
<rscale>  0 0.11074118E+04</rscale>
<asrwt>0</asrwt>
<pdfrwt beam="1">  1        2 0.32351468E+00 0.11074118E+04</pdfrwt>
<pdfrwt beam="2">  1       -2 0.92957663E-01 0.11074118E+04</pdfrwt>
<totfact> 0.56836577E+00</totfact>
</mgrwt>
</event>
<event>
12    1  0.3127365E-008  0.6643964E+03  0.7818608E-02  0.9780134E-01
         -1   -1    0    0    0  501 -0.00000000000E+00  0.00000000000E+00  0.17501238326E+03  0.17501238326E+03  0.00000000000E+00 0.  1.
          1   -1    0    0  501    0  0.00000000000E+00 -0.00000000000E+00 -0.31125722206E+04  0.31125722206E+04  0.00000000000E+00 0. -1.
         23    2    1    2    0    0  0.59072833556E+03 -0.67202910981E+01 -0.15908383446E+04  0.16993888522E+04  0.90281247123E+02 0.  0.
    5000000    2    1    2    0    0 -0.59072833556E+03  0.67202910981E+01 -0.13467214927E+04  0.15881957516E+04  0.59975148004E+03 0.  0.
         23    2    4    4    0    0 -0.63069717958E+03  0.20642068370E+02 -0.75591300671E+03  0.98902323653E+03  0.92506547730E+02 0.  0.
         23    2    4    4    0    0  0.39968844018E+02 -0.13921777272E+02 -0.59080848598E+03  0.59917251508E+03  0.90342190269E+02 0.  0.
          1    1    3    3  502    0  0.30640458492E+03  0.39004878613E+02 -0.78008405355E+03  0.83900910652E+03  0.00000000000E+00 0. -1.
         -1    1    3    3    0  502  0.28432375064E+03 -0.45725169711E+02 -0.81075429107E+03  0.86037974570E+03  0.00000000000E+00 0.  1.
         11    1    5    5    0    0 -0.43136988823E+03  0.35466423844E+02 -0.45694080771E+03  0.62939077642E+03  0.00000000000E+00 0. -1.
        -11    1    5    5    0    0 -0.19932729134E+03 -0.14824355474E+02 -0.29897219900E+03  0.35963246011E+03  0.00000000000E+00 0.  1.
          5    1    6    6  503    0 -0.18680660054E+02  0.22823830805E+02 -0.15074949770E+03  0.15367952163E+03  0.47000000000E+01 0. -1.
         -5    1    6    6    0  503  0.58649504072E+02 -0.36745608077E+02 -0.44005898828E+03  0.44549299345E+03  0.47000000000E+01 0.  1.
<mgrwt>
<rscale>  0 0.66439644E+03</rscale>
<asrwt>0</asrwt>
<pdfrwt beam="1">  1        1 0.47885719E+00 0.66439644E+03</pdfrwt>
<pdfrwt beam="2">  1       -1 0.26924986E-01 0.66439644E+03</pdfrwt>
<totfact> 0.66060117E+00</totfact>
</mgrwt>
</event>
<event>
12    1  0.4379628E-008  0.1223545E+04  0.7818608E-02  0.9092494E-01
          2   -1    0    0  501    0  0.00000000000E+00  0.00000000000E+00  0.18232268559E+04  0.18232268559E+04  0.00000000000E+00 0. -1.
         -2   -1    0    0    0  501 -0.00000000000E+00 -0.00000000000E+00 -0.13181263609E+04  0.13181263609E+04  0.00000000000E+00 0.  1.
         23    2    1    2    0    0 -0.10807888424E+04  0.43307244923E+03  0.11865289505E+04  0.16649983538E+04  0.93339700726E+02 0.  0.
    5000000    2    1    2    0    0  0.10807888424E+04 -0.43307244923E+03 -0.68142845548E+03  0.14763548629E+04  0.59968547866E+03 0.  0.
         23    2    4    4    0    0  0.22254420467E+03 -0.33608119543E+03 -0.36823709069E+03  0.55309008824E+03  0.88507614364E+02 0.  0.
         23    2    4    4    0    0  0.85824463769E+03 -0.96991253802E+02 -0.31319136479E+03  0.92326477469E+03  0.91311838068E+02 0.  0.
          3    1    3    3  502    0 -0.45404604749E+03  0.23141307547E+03  0.50948867320E+03  0.72061677253E+03  0.00000000000E+00 0. -1.
         -3    1    3    3    0  502 -0.62674279487E+03  0.20165937376E+03  0.67704027729E+03  0.94438158126E+03  0.00000000000E+00 0.  1.
         13    1    5    5    0    0  0.64412433138E+02 -0.17049020851E+03 -0.14020447544E+03  0.22994166145E+03  0.00000000000E+00 0. -1.
        -13    1    5    5    0    0  0.15813177153E+03 -0.16559098692E+03 -0.22803261525E+03  0.32314842679E+03  0.00000000000E+00 0.  1.
          5    1    6    6  503    0  0.33971800673E+03  0.30111205939E+01 -0.10516991609E+03  0.35566865507E+03  0.47000000000E+01 0. -1.
         -5    1    6    6    0  503  0.51852663096E+03 -0.10000237440E+03 -0.20802144870E+03  0.56759611963E+03  0.47000000000E+01 0.  1.
<mgrwt>
<rscale>  0 0.12235450E+04</rscale>
<asrwt>0</asrwt>
<pdfrwt beam="1">  1        2 0.28049644E+00 0.12235450E+04</pdfrwt>
<pdfrwt beam="2">  1       -2 0.20278867E+00 0.12235450E+04</pdfrwt>
<totfact> 0.10337720E+00</totfact>
</mgrwt>
</event>
<event>
12    1  0.3127365E-008  0.6320066E+03  0.7818608E-02  0.9841141E-01
          1   -1    0    0  501    0  0.00000000000E+00  0.00000000000E+00  0.69720071771E+03  0.69720071771E+03  0.00000000000E+00 0. -1.
         -1   -1    0    0    0  501 -0.00000000000E+00 -0.00000000000E+00 -0.60749600755E+03  0.60749600755E+03  0.00000000000E+00 0.  1.
         23    2    1    2    0    0  0.45601596423E+03 -0.21912290702E+03 -0.40920206018E+01  0.51430785354E+03  0.92360248822E+02 0.  0.
    5000000    2    1    2    0    0 -0.45601596423E+03  0.21912290702E+03  0.93796730755E+02  0.79038887172E+03  0.59995944348E+03 0.  0.
         23    2    4    4    0    0 -0.98675740893E+02  0.35502923444E+03 -0.21447567868E+02  0.38057896352E+03  0.92723730275E+02 0.  0.
         23    2    4    4    0    0 -0.35734022334E+03 -0.13590632742E+03  0.11524429862E+03  0.40980990820E+03  0.92197328822E+02 0.  0.
          2    1    3    3  502    0  0.39868657786E+03 -0.20682858665E+03 -0.30132997383E+02  0.45015225108E+03  0.00000000000E+00 0. -1.
         -2    1    3    3    0  502  0.57329386377E+02 -0.12294320377E+02  0.26040976781E+02  0.64155602465E+02  0.00000000000E+00 0.  1.
         13    1    5    5    0    0 -0.11653322144E+02  0.13095922812E+03 -0.45208651947E+02  0.13903216016E+03  0.00000000000E+00 0.  1.
        -13    1    5    5    0    0 -0.87022418748E+02  0.22407000632E+03  0.23761084079E+02  0.24154680336E+03  0.00000000000E+00 0. -1.
          5    1    6    6  503    0 -0.33485157971E+03 -0.11733958036E+03  0.12854790552E+03  0.37741331662E+03  0.47000000000E+01 0. -1.
         -5    1    6    6    0  503 -0.22488643634E+02 -0.18566747063E+02 -0.13303606901E+02  0.32396591574E+02  0.47000000000E+01 0.  1.
<mgrwt>
<rscale>  0 0.63200658E+03</rscale>
<asrwt>0</asrwt>
<pdfrwt beam="1">  1        1 0.10726165E+00 0.63200658E+03</pdfrwt>
<pdfrwt beam="2">  1       -1 0.93460924E-01 0.63200658E+03</pdfrwt>
<totfact> 0.31607749E+01</totfact>
</mgrwt>
</event>
<event>
12    1  0.3127365E-008  0.7981917E+03  0.7818608E-02  0.9562638E-01
         -1   -1    0    0    0  501 -0.00000000000E+00  0.00000000000E+00  0.64936124007E+03  0.64936124007E+03  0.00000000000E+00 0.  1.
          1   -1    0    0  501    0  0.00000000000E+00 -0.00000000000E+00 -0.13146022359E+04  0.13146022359E+04  0.00000000000E+00 0. -1.
         23    2    1    2    0    0 -0.57499831754E+03  0.41400412808E+03 -0.74485313091E+03  0.10321084392E+04  0.91755983248E+02 0.  0.
    5000000    2    1    2    0    0  0.57499831754E+03 -0.41400412808E+03  0.79612135087E+02  0.93185503673E+03  0.59999436180E+03 0.  0.
         23    2    4    4    0    0  0.41661068336E+03  0.20616840952E+02  0.15491702179E+03  0.45435949712E+03  0.91944294880E+02 0.  0.
         23    2    4    4    0    0  0.15838763417E+03 -0.43462096903E+03 -0.75304886702E+02  0.47749553961E+03  0.91373601251E+02 0.  0.
          4    1    3    3  502    0 -0.14531972521E+03  0.80678711014E+02 -0.22551630017E+03  0.28015081400E+03  0.00000000000E+00 0. -1.
         -4    1    3    3    0  502 -0.42967859233E+03  0.33332541706E+03 -0.51933683074E+03  0.75195762522E+03  0.00000000000E+00 0.  1.
         11    1    5    5    0    0  0.30210386611E+03  0.48049587828E+02  0.85298707838E+02  0.31757106034E+03  0.00000000000E+00 0. -1.
        -11    1    5    5    0    0  0.11450681725E+03 -0.27432746876E+02  0.69618313951E+02  0.13678843678E+03  0.00000000000E+00 0.  1.
          5    1    6    6  503    0  0.44374605690E+02 -0.12649078838E+03  0.19429334613E+02  0.13553086076E+03  0.47000000000E+01 0. -1.
         -5    1    6    6    0  503  0.11401302848E+03 -0.30813018065E+03 -0.94734221315E+02  0.34196467885E+03  0.47000000000E+01 0.  1.
<mgrwt>
<rscale>  0 0.79819169E+03</rscale>
<asrwt>0</asrwt>
<pdfrwt beam="1">  1        1 0.20224650E+00 0.79819169E+03</pdfrwt>
<pdfrwt beam="2">  1       -1 0.99901730E-01 0.79819169E+03</pdfrwt>
<totfact> 0.86849201E+00</totfact>
</mgrwt>
</event>
<event>
12    1  0.3127365E-008  0.7092658E+03  0.7818608E-02  0.9701516E-01
         -1   -1    0    0    0  501 -0.00000000000E+00  0.00000000000E+00  0.22727113123E+03  0.22727113123E+03  0.00000000000E+00 0.  1.
          1   -1    0    0  501    0  0.00000000000E+00 -0.00000000000E+00 -0.23873217277E+04  0.23873217277E+04  0.00000000000E+00 0. -1.
         23    2    1    2    0    0  0.47983173236E+03  0.37713680335E+03 -0.88517932067E+03  0.10789770136E+04  0.90433988234E+02 0.  0.
    5000000    2    1    2    0    0 -0.47983173236E+03 -0.37713680335E+03 -0.12748712758E+04  0.15356158454E+04  0.60029042544E+03 0.  0.
         23    2    4    4    0    0 -0.51293871691E+03 -0.10629594960E+03 -0.59783396881E+03  0.79991750593E+03  0.89764167808E+02 0.  0.
         23    2    4    4    0    0  0.33106984549E+02 -0.27084085375E+03 -0.67703730697E+03  0.73569833943E+03  0.91769772369E+02 0.  0.
          4    1    3    3  502    0  0.28545022046E+03  0.16741875497E+03 -0.48434278842E+03  0.58659935610E+03  0.00000000000E+00 0. -1.
         -4    1    3    3    0  502  0.19438151190E+03  0.20971804838E+03 -0.40083653225E+03  0.49237765746E+03  0.00000000000E+00 0.  1.
         13    1    5    5    0    0 -0.16715462557E+03 -0.68027545184E+01 -0.23921257884E+03  0.29190684164E+03  0.00000000000E+00 0.  1.
        -13    1    5    5    0    0 -0.34578409134E+03 -0.99493195082E+02 -0.35862138997E+03  0.50801066429E+03  0.00000000000E+00 0. -1.
          5    1    6    6  503    0  0.11114383062E+02 -0.19687893119E+03 -0.57358440615E+03  0.60655255669E+03  0.47000000000E+01 0. -1.
         -5    1    6    6    0  503  0.21992601487E+02 -0.73961922563E+02 -0.10345290083E+03  0.12914578274E+03  0.47000000000E+01 0.  1.
<mgrwt>
<rscale>  0 0.70926577E+03</rscale>
<asrwt>0</asrwt>
<pdfrwt beam="1">  1        1 0.36728026E+00 0.70926577E+03</pdfrwt>
<pdfrwt beam="2">  1       -1 0.34964790E-01 0.70926577E+03</pdfrwt>
<totfact> 0.13310937E+01</totfact>
</mgrwt>
</event>
<event>
12    1  0.3127365E-008  0.9922418E+03  0.7818608E-02  0.9317095E-01
         -2   -1    0    0    0  501 -0.00000000000E+00  0.00000000000E+00  0.44271638953E+03  0.44271638953E+03  0.00000000000E+00 0.  1.
          2   -1    0    0  501    0  0.00000000000E+00 -0.00000000000E+00 -0.23749712968E+04  0.23749712968E+04  0.00000000000E+00 0. -1.
         23    2    1    2    0    0  0.49798575046E+02  0.93241387497E+03 -0.95579061631E+03  0.13394153798E+04  0.92856476014E+02 0.  0.
    5000000    2    1    2    0    0 -0.49798575046E+02 -0.93241387497E+03 -0.97646429098E+03  0.14782723065E+04  0.59994247089E+03 0.  0.
         23    2    4    4    0    0  0.17230231766E+03 -0.18411192638E+03 -0.47722044047E+03  0.54712043281E+03  0.89532838018E+02 0.  0.
         23    2    4    4    0    0 -0.22210089271E+03 -0.74830194859E+03 -0.49924385051E+03  0.93115187373E+03  0.92275548542E+02 0.  0.
          4    1    3    3  502    0 -0.26428401278E+02  0.19098412008E+03 -0.20791063510E+03  0.28354933734E+03  0.00000000000E+00 0. -1.
         -4    1    3    3    0  502  0.76226976324E+02  0.74142975490E+03 -0.74787998120E+03  0.10558660425E+04  0.00000000000E+00 0.  1.
         13    1    5    5    0    0  0.14311140224E+03 -0.18157022817E+03 -0.45493161353E+03  0.51030519711E+03  0.00000000000E+00 0. -1.
        -13    1    5    5    0    0  0.29190915423E+02 -0.25416982088E+01 -0.22288826945E+02  0.36815235699E+02  0.00000000000E+00 0.  1.
          5    1    6    6  503    0 -0.11907472063E+03 -0.24949589897E+03 -0.16695337643E+03  0.32298995742E+03  0.47000000000E+01 0. -1.
         -5    1    6    6    0  503 -0.10302617208E+03 -0.49880604963E+03 -0.33229047408E+03  0.60816191631E+03  0.47000000000E+01 0.  1.
<mgrwt>
<rscale>  0 0.99224180E+03</rscale>
<asrwt>0</asrwt>
<pdfrwt beam="1">  1        2 0.36538021E+00 0.99224180E+03</pdfrwt>
<pdfrwt beam="2">  1       -2 0.68110213E-01 0.99224180E+03</pdfrwt>
<totfact> 0.81879154E+00</totfact>
</mgrwt>
</event>
<event>
12    1  0.3127365E-008  0.5431033E+03  0.7818608E-02  0.1003103E+00
          2   -1    0    0  501    0  0.00000000000E+00  0.00000000000E+00  0.23327056861E+04  0.23327056861E+04  0.00000000000E+00 0. -1.
         -2   -1    0    0    0  501 -0.00000000000E+00 -0.00000000000E+00 -0.61593263148E+03  0.61593263148E+03  0.00000000000E+00 0.  1.
         23    2    1    2    0    0 -0.34242152232E+02 -0.39761776791E+03 -0.48323803416E+03  0.63373649299E+03  0.93970902654E+02 0.  0.
    5000000    2    1    2    0    0  0.34242152232E+02  0.39761776791E+03  0.22000110888E+04  0.23149018246E+04  0.59954086795E+03 0.  0.
         23    2    4    4    0    0 -0.10348256813E+03 -0.10152054498E+03  0.83529053415E+03  0.85248904307E+03  0.89511056054E+02 0.  0.
         23    2    4    4    0    0  0.13772472037E+03  0.49913831289E+03  0.13647205547E+04  0.14624127815E+04  0.89898817013E+02 0.  0.
          3    1    3    3  502    0 -0.30398241083E+01 -0.33509730908E+03 -0.43370234737E+03  0.54808500545E+03  0.00000000000E+00 0. -1.
         -3    1    3    3    0  502 -0.31202328123E+02 -0.62520458837E+02 -0.49535686786E+02  0.85651487546E+02  0.00000000000E+00 0.  1.
         13    1    5    5    0    0 -0.66476175623E+02 -0.13855356582E+02  0.47566263733E+03  0.48048516874E+03  0.00000000000E+00 0. -1.
        -13    1    5    5    0    0 -0.37006392511E+02 -0.87665188397E+02  0.35962789682E+03  0.37200387433E+03  0.00000000000E+00 0.  1.
          5    1    6    6  503    0  0.11955598399E+03  0.44745267077E+03  0.11280199333E+04  0.12194091134E+04  0.47000000000E+01 0. -1.
         -5    1    6    6    0  503  0.18168736378E+02  0.51685642120E+02  0.23670062137E+03  0.24300366816E+03  0.47000000000E+01 0.  1.
<mgrwt>
<rscale>  0 0.54310330E+03</rscale>
<asrwt>0</asrwt>
<pdfrwt beam="1">  1        2 0.35887779E+00 0.54310330E+03</pdfrwt>
<pdfrwt beam="2">  1       -2 0.94758868E-01 0.54310330E+03</pdfrwt>
<totfact> 0.44453294E+00</totfact>
</mgrwt>
</event>
<event>
12    1  0.3127365E-008  0.4763832E+03  0.7818608E-02  0.1020134E+00
         -1   -1    0    0    0  501 -0.00000000000E+00  0.00000000000E+00  0.25789437655E+03  0.25789437655E+03  0.00000000000E+00 0.  1.
          1   -1    0    0  501    0  0.00000000000E+00 -0.00000000000E+00 -0.12373520509E+04  0.12373520509E+04  0.00000000000E+00 0. -1.
         23    2    1    2    0    0 -0.19772558757E+03 -0.28892767970E+03 -0.61066074688E+03  0.70986478424E+03  0.91797886961E+02 0.  0.
    5000000    2    1    2    0    0  0.19772558757E+03  0.28892767970E+03 -0.36879692743E+03  0.78538164316E+03  0.59853031640E+03 0.  0.
         23    2    4    4    0    0  0.32500333233E+03  0.31187672647E+03 -0.94252153168E+02  0.46897771879E+03  0.90345856599E+02 0.  0.
         23    2    4    4    0    0 -0.12727774476E+03 -0.22949046769E+02 -0.27454477426E+03  0.31640392437E+03  0.89500431427E+02 0.  0.
          4    1    3    3  502    0 -0.55525502411E+02 -0.15198460028E+03 -0.23235444700E+03  0.28314482016E+03  0.00000000000E+00 0. -1.
         -4    1    3    3    0  502 -0.14220008516E+03 -0.13694307942E+03 -0.37830629988E+03  0.42671996409E+03  0.00000000000E+00 0.  1.
         11    1    5    5    0    0  0.26520900481E+03  0.29615759679E+03 -0.79611573385E+02  0.40544190827E+03  0.00000000000E+00 0. -1.
        -11    1    5    5    0    0  0.59794327517E+02  0.15719129681E+02 -0.14640579783E+02  0.63535810513E+02  0.00000000000E+00 0.  1.
          5    1    6    6  503    0 -0.47055539841E+02  0.81658679075E+01 -0.28753223292E+02  0.55944106732E+02  0.47000000000E+01 0. -1.
         -5    1    6    6    0  503 -0.80222204918E+02 -0.31114914676E+02 -0.24579155097E+03  0.26045981764E+03  0.47000000000E+01 0.  1.
<mgrwt>
<rscale>  0 0.47638324E+03</rscale>
<asrwt>0</asrwt>
<pdfrwt beam="1">  1        1 0.19036185E+00 0.47638324E+03</pdfrwt>
<pdfrwt beam="2">  1       -1 0.39676058E-01 0.47638324E+03</pdfrwt>
<totfact> 0.65688153E+01</totfact>
</mgrwt>
</event>
<event>
12    1  0.3127365E-008  0.1042273E+04  0.7818608E-02  0.9263358E-01
          2   -1    0    0  501    0  0.00000000000E+00  0.00000000000E+00  0.19047302569E+04  0.19047302569E+04  0.00000000000E+00 0. -1.
         -2   -1    0    0    0  501 -0.00000000000E+00 -0.00000000000E+00 -0.70252746478E+03  0.70252746478E+03  0.00000000000E+00 0.  1.
         23    2    1    2    0    0  0.69421153408E+03  0.74384657762E+03  0.16411501013E+03  0.10347369032E+04  0.92246068799E+02 0.  0.
    5000000    2    1    2    0    0 -0.69421153408E+03 -0.74384657762E+03  0.10380877820E+04  0.15725208185E+04  0.59996507928E+03 0.  0.
         23    2    4    4    0    0 -0.12706883276E+03 -0.51000134409E+02 -0.38586971751E+02  0.16930980980E+03  0.91811520710E+02 0.  0.
         23    2    4    4    0    0 -0.56714270132E+03 -0.69284644321E+03  0.10766747537E+04  0.14032110087E+04  0.89919808854E+02 0.  0.
          2    1    3    3  502    0  0.56506797535E+03  0.55504767470E+03  0.14459645192E+03  0.80516325789E+03  0.00000000000E+00 0.  1.
         -2    1    3    3    0  502  0.12914355873E+03  0.18879890291E+03  0.19518558217E+02  0.22957364530E+03  0.00000000000E+00 0. -1.
         13    1    5    5    0    0 -0.56615952030E+02  0.24355454826E+02 -0.16667441290E+02  0.63846360924E+02  0.00000000000E+00 0. -1.
        -13    1    5    5    0    0 -0.70452880731E+02 -0.75355589235E+02 -0.21919530461E+02  0.10546344887E+03  0.00000000000E+00 0.  1.
          5    1    6    6  503    0 -0.22268015550E+03 -0.21257156115E+03  0.39946652662E+03  0.50434979544E+03  0.47000000000E+01 0. -1.
         -5    1    6    6    0  503 -0.34446254581E+03 -0.48027488205E+03  0.67720822713E+03  0.89886121325E+03  0.47000000000E+01 0.  1.
<mgrwt>
<rscale>  0 0.10422735E+04</rscale>
<asrwt>0</asrwt>
<pdfrwt beam="1">  1        2 0.29303542E+00 0.10422735E+04</pdfrwt>
<pdfrwt beam="2">  1       -2 0.10808115E+00 0.10422735E+04</pdfrwt>
<totfact> 0.51423247E+00</totfact>
</mgrwt>
</event>
<event>
12    1  0.3127365E-008  0.4544215E+03  0.7818608E-02  0.1026412E+00
          2   -1    0    0  501    0  0.00000000000E+00  0.00000000000E+00  0.25938181913E+04  0.25938181913E+04  0.00000000000E+00 0. -1.
         -2   -1    0    0    0  501 -0.00000000000E+00 -0.00000000000E+00 -0.95357718843E+02  0.95357718843E+02  0.00000000000E+00 0.  1.
         23    2    1    2    0    0  0.53533965129E+02  0.30149368564E+03  0.86284035773E+03  0.92022054505E+03  0.92455614755E+02 0.  0.
    5000000    2    1    2    0    0 -0.53533965129E+02 -0.30149368564E+03  0.16356201147E+04  0.17689553650E+04  0.60015464347E+03 0.  0.
         23    2    4    4    0    0 -0.20399378531E+03 -0.36080045140E+03  0.14210565794E+04  0.14833012090E+04  0.94816901078E+02 0.  0.
         23    2    4    4    0    0  0.15045982018E+03  0.59306765760E+02  0.21456353530E+03  0.28565415602E+03  0.96981112690E+02 0.  0.
          2    1    3    3  502    0  0.57068123156E+02  0.29574411740E+03  0.76517680115E+03  0.82232407886E+03  0.00000000000E+00 0. -1.
         -2    1    3    3    0  502 -0.35341580270E+01  0.57495682353E+01  0.97663556580E+02  0.97896466186E+02  0.00000000000E+00 0.  1.
         13    1    5    5    0    0 -0.11926906996E+03 -0.22723807661E+03  0.10294997784E+04  0.10610052065E+04  0.00000000000E+00 0. -1.
        -13    1    5    5    0    0 -0.84724715342E+02 -0.13356237479E+03  0.39155680094E+03  0.42229600248E+03  0.00000000000E+00 0.  1.
          5    1    6    6  503    0  0.13224668148E+03  0.82719378092E+02  0.19522813579E+03  0.24993558226E+03  0.47000000000E+01 0. -1.
         -5    1    6    6    0  503  0.18213138698E+02 -0.23412612332E+02  0.19335399510E+02  0.35718573763E+02  0.47000000000E+01 0.  1.
<mgrwt>
<rscale>  0 0.45442149E+03</rscale>
<asrwt>0</asrwt>
<pdfrwt beam="1">  1        2 0.39904890E+00 0.45442149E+03</pdfrwt>
<pdfrwt beam="2">  1       -2 0.14670420E-01 0.45442149E+03</pdfrwt>
<totfact> 0.12140234E+02</totfact>
</mgrwt>
</event>
<event>
12    1  0.3127365E-008  0.3990793E+03  0.7818608E-02  0.1044099E+00
         -1   -1    0    0    0  501 -0.00000000000E+00  0.00000000000E+00  0.56833918407E+03  0.56833918407E+03  0.00000000000E+00 0.  1.
          1   -1    0    0  501    0  0.00000000000E+00 -0.00000000000E+00 -0.54479112135E+03  0.54479112135E+03  0.00000000000E+00 0. -1.
         23    2    1    2    0    0  0.26953768393E+03  0.27308806186E+03 -0.47294484203E+02  0.39736380769E+03  0.91834496995E+02 0.  0.
    5000000    2    1    2    0    0 -0.26953768393E+03 -0.27308806186E+03  0.70842546924E+02  0.71576649772E+03  0.60006279689E+03 0.  0.
         23    2    4    4    0    0 -0.89586692361E+02 -0.10408884048E+03  0.31543272614E+03  0.35599714719E+03  0.91519953721E+02 0.  0.
         23    2    4    4    0    0 -0.17995099157E+03 -0.16899922138E+03 -0.24459017921E+03  0.35976935053E+03  0.93094219012E+02 0.  0.
          1    1    3    3  502    0  0.16950196007E+03  0.18400666860E+03 -0.73757416429E+02  0.26082470173E+03  0.00000000000E+00 0. -1.
         -1    1    3    3    0  502  0.10003572387E+03  0.89081393260E+02  0.26462932226E+02  0.13653910596E+03  0.00000000000E+00 0.  1.
         11    1    5    5    0    0 -0.38788571141E+02 -0.89417281536E+02  0.12585392940E+03  0.15918296088E+03  0.00000000000E+00 0. -1.
        -11    1    5    5    0    0 -0.50798121219E+02 -0.14671558940E+02  0.18957879674E+03  0.19681418631E+03  0.00000000000E+00 0.  1.
          5    1    6    6  503    0 -0.83066280004E+02 -0.19461099996E+02 -0.73647330983E+02  0.11280408081E+03  0.47000000000E+01 0. -1.
         -5    1    6    6    0  503 -0.96884711570E+02 -0.14953812139E+03 -0.17094284823E+03  0.24696526971E+03  0.47000000000E+01 0.  1.
<mgrwt>
<rscale>  0 0.39907929E+03</rscale>
<asrwt>0</asrwt>
<pdfrwt beam="1">  1        1 0.83814019E-01 0.39907929E+03</pdfrwt>
<pdfrwt beam="2">  1       -1 0.87436798E-01 0.39907929E+03</pdfrwt>
<totfact> 0.53800758E+01</totfact>
</mgrwt>
</event>
<event>
12    1  0.3127365E-008  0.8475398E+03  0.7818608E-02  0.9493645E-01
          2   -1    0    0  501    0  0.00000000000E+00  0.00000000000E+00  0.19578503380E+04  0.19578503380E+04  0.00000000000E+00 0.  1.
         -2   -1    0    0    0  501 -0.00000000000E+00 -0.00000000000E+00 -0.61322500073E+03  0.61322500073E+03  0.00000000000E+00 0. -1.
         23    2    1    2    0    0  0.42746967749E+03 -0.71556620534E+03 -0.47348221942E+02  0.84123908765E+03  0.10332487151E+03 0.  0.
    5000000    2    1    2    0    0 -0.42746967749E+03  0.71556620534E+03  0.13919735592E+04  0.17298362511E+04  0.59998145519E+03 0.  0.
         23    2    4    4    0    0 -0.32614951705E+03  0.43737474342E+03  0.37970162208E+03  0.67101138411E+03  0.91721219740E+02 0.  0.
         23    2    4    4    0    0 -0.10132016044E+03  0.27819146193E+03  0.10122719371E+04  0.10588248669E+04  0.93591451443E+02 0.  0.
          1    1    3    3  502    0  0.82664943778E+02 -0.18037770085E+03 -0.49870130656E+02  0.20458894844E+03  0.00000000000E+00 0. -1.
         -1    1    3    3    0  502  0.34480473371E+03 -0.53518850450E+03  0.25219087139E+01  0.63665013921E+03  0.00000000000E+00 0.  1.
         11    1    5    5    0    0 -0.15001606949E+03  0.27467475043E+03  0.22903303083E+03  0.38782363110E+03  0.00000000000E+00 0. -1.
        -11    1    5    5    0    0 -0.17613344756E+03  0.16269999298E+03  0.15066859124E+03  0.28318775301E+03  0.00000000000E+00 0.  1.
          5    1    6    6  503    0 -0.24852126226E+01  0.12363724245E+03  0.48462694713E+03  0.50017768031E+03  0.47000000000E+01 0. -1.
         -5    1    6    6    0  503 -0.98834947816E+02  0.15455421948E+03  0.52764498999E+03  0.55864718663E+03  0.47000000000E+01 0.  1.
<mgrwt>
<rscale>  0 0.84753976E+03</rscale>
<asrwt>0</asrwt>
<pdfrwt beam="1">  1        2 0.30120774E+00 0.84753976E+03</pdfrwt>
<pdfrwt beam="2">  1       -2 0.94342308E-01 0.84753976E+03</pdfrwt>
<totfact> 0.68131727E+00</totfact>
</mgrwt>
</event>
<event>
12    1  0.3127365E-008  0.1180499E+04  0.7818608E-02  0.9130099E-01
          2   -1    0    0  501    0  0.00000000000E+00  0.00000000000E+00  0.90236074533E+03  0.90236074533E+03  0.00000000000E+00 0.  1.
         -2   -1    0    0    0  501 -0.00000000000E+00 -0.00000000000E+00 -0.20716308120E+04  0.20716308120E+04  0.00000000000E+00 0. -1.
         23    2    1    2    0    0 -0.56154417719E+03 -0.96221529745E+03  0.17106921311E+03  0.11308005295E+04  0.90857142166E+02 0.  0.
    5000000    2    1    2    0    0  0.56154417719E+03  0.96221529745E+03 -0.13403392797E+04  0.18431910278E+04  0.59971129595E+03 0.  0.
         23    2    4    4    0    0  0.57270997966E+03  0.10077907892E+04 -0.12049300983E+04  0.16745046466E+04  0.92034090348E+02 0.  0.
         23    2    4    4    0    0 -0.11165802471E+02 -0.45575491759E+02 -0.13540918140E+03  0.16868638124E+03  0.88981167746E+02 0.  0.
          3    1    3    3  502    0 -0.23671483434E+03 -0.47799588243E+03  0.10904525844E+03  0.54443075300E+03  0.00000000000E+00 0. -1.
         -3    1    3    3    0  502 -0.32482934285E+03 -0.48421941502E+03  0.62023954665E+02  0.58636977652E+03  0.00000000000E+00 0.  1.
         11    1    5    5    0    0  0.38791527744E+03  0.59189210744E+03 -0.72923605298E+03  0.10161691544E+04  0.00000000000E+00 0. -1.
        -11    1    5    5    0    0  0.18479470223E+03  0.41589868178E+03 -0.47569404537E+03  0.65833549219E+03  0.00000000000E+00 0.  1.
          5    1    6    6  503    0  0.13838642805E+02 -0.53200668544E+02 -0.36209980375E+02  0.65992968163E+02  0.47000000000E+01 0. -1.
         -5    1    6    6    0  503 -0.25004445276E+02  0.76251767859E+01 -0.99199201025E+02  0.10269341307E+03  0.47000000000E+01 0.  1.
<mgrwt>
<rscale>  0 0.11804993E+04</rscale>
<asrwt>0</asrwt>
<pdfrwt beam="1">  1        2 0.13882473E+00 0.11804993E+04</pdfrwt>
<pdfrwt beam="2">  1       -2 0.31871243E+00 0.11804993E+04</pdfrwt>
<totfact> 0.70053120E-01</totfact>
</mgrwt>
</event>
<event>
12    1  0.3127365E-008  0.1049576E+04  0.7818608E-02  0.9255781E-01
          1   -1    0    0  501    0  0.00000000000E+00  0.00000000000E+00  0.19258952940E+04  0.19258952940E+04  0.00000000000E+00 0. -1.
         -1   -1    0    0    0  501 -0.00000000000E+00 -0.00000000000E+00 -0.64458497421E+03  0.64458497421E+03  0.00000000000E+00 0.  1.
         23    2    1    2    0    0 -0.92836047704E+03 -0.44202276847E+03  0.68034761631E+03  0.12362451786E+04  0.90509444106E+02 0.  0.
    5000000    2    1    2    0    0  0.92836047704E+03  0.44202276847E+03  0.60096270347E+03  0.13342350896E+04  0.60148965088E+03 0.  0.
         23    2    4    4    0    0  0.56494279933E+03  0.14391592953E+03  0.61891108071E+03  0.85496237371E+03  0.89652514457E+02 0.  0.
         23    2    4    4    0    0  0.36341767771E+03  0.29810683894E+03 -0.17948377241E+02  0.47927271587E+03  0.91869995269E+02 0.  0.
          3    1    3    3  502    0 -0.46162641726E+03 -0.26332122641E+03  0.32377656072E+03  0.62230882900E+03  0.00000000000E+00 0. -1.
         -3    1    3    3    0  502 -0.46673405978E+03 -0.17870154207E+03  0.35657105559E+03  0.61393634962E+03  0.00000000000E+00 0.  1.
         13    1    5    5    0    0  0.22705315924E+03  0.10081852987E+03  0.28287784977E+03  0.37648026638E+03  0.00000000000E+00 0. -1.
        -13    1    5    5    0    0  0.33788964008E+03  0.43097399666E+02  0.33603323095E+03  0.47848210733E+03  0.00000000000E+00 0.  1.
          5    1    6    6  503    0  0.23469750808E+03  0.24569951393E+03 -0.91894134438E+01  0.33993779837E+03  0.47000000000E+01 0. -1.
         -5    1    6    6    0  503  0.12872016964E+03  0.52407325007E+02 -0.87589637971E+01  0.13933491749E+03  0.47000000000E+01 0.  1.
<mgrwt>
<rscale>  0 0.10495765E+04</rscale>
<asrwt>0</asrwt>
<pdfrwt beam="1">  1        1 0.29629158E+00 0.10495765E+04</pdfrwt>
<pdfrwt beam="2">  1       -1 0.99166920E-01 0.10495765E+04</pdfrwt>
<totfact> 0.32623108E+00</totfact>
</mgrwt>
</event>
<event>
12    1  0.3127365E-008  0.3928647E+03  0.7818608E-02  0.1046279E+00
         -1   -1    0    0    0  501 -0.00000000000E+00  0.00000000000E+00  0.13862582396E+04  0.13862582396E+04  0.00000000000E+00 0.  1.
          1   -1    0    0  501    0  0.00000000000E+00 -0.00000000000E+00 -0.13714654500E+03  0.13714654500E+03  0.00000000000E+00 0. -1.
         23    2    1    2    0    0 -0.17133015145E+03 -0.87349342971E+02  0.16334919901E+03  0.26800017351E+03  0.90317239058E+02 0.  0.
    5000000    2    1    2    0    0  0.17133015145E+03  0.87349342971E+02  0.10857624956E+04  0.12554046111E+04  0.60014715878E+03 0.  0.
         23    2    4    4    0    0 -0.17461848008E+03  0.13557768243E+03  0.25961237634E+03  0.35331051662E+03  0.92503046683E+02 0.  0.
         23    2    4    4    0    0  0.34594863154E+03 -0.48228339455E+02  0.82615011929E+03  0.90209409451E+03  0.96142120555E+02 0.  0.
          1    1    3    3  502    0 -0.13356936485E+03 -0.42125411317E+02  0.15431625215E+03  0.20839585213E+03  0.00000000000E+00 0. -1.
         -1    1    3    3    0  502 -0.37760786602E+02 -0.45223931654E+02  0.90329468597E+01  0.59604321387E+02  0.00000000000E+00 0.  1.
         11    1    5    5    0    0 -0.13956105988E+03  0.14215969211E+03  0.19102496614E+03  0.27600218330E+03  0.00000000000E+00 0. -1.
        -11    1    5    5    0    0 -0.35057420203E+02 -0.65820096866E+01  0.68587410201E+02  0.77308333321E+02  0.00000000000E+00 0.  1.
          5    1    6    6  503    0  0.23492151409E+03 -0.13125478889E+02  0.64604791453E+03  0.68757573681E+03  0.47000000000E+01 0. -1.
         -5    1    6    6    0  503  0.11102711745E+03 -0.35102860566E+02  0.18010220476E+03  0.21451835770E+03  0.47000000000E+01 0.  1.
<mgrwt>
<rscale>  0 0.39286473E+03</rscale>
<asrwt>0</asrwt>
<pdfrwt beam="1">  1        1 0.21099469E-01 0.39286473E+03</pdfrwt>
<pdfrwt beam="2">  1       -1 0.21327049E+00 0.39286473E+03</pdfrwt>
<totfact> 0.31924255E+01</totfact>
</mgrwt>
</event>
<event>
12    1  0.3127365E-008  0.6436381E+03  0.7818608E-02  0.9818791E-01
         -2   -1    0    0    0  501 -0.00000000000E+00  0.00000000000E+00  0.40431924300E+03  0.40431924300E+03  0.00000000000E+00 0. -1.
          2   -1    0    0  501    0  0.00000000000E+00 -0.00000000000E+00 -0.14092536403E+04  0.14092536403E+04  0.00000000000E+00 0.  1.
         23    2    1    2    0    0  0.13714015445E+03  0.54812252312E+03 -0.76457026329E+03  0.95504490605E+03  0.91089860865E+02 0.  0.
    5000000    2    1    2    0    0 -0.13714015445E+03 -0.54812252312E+03 -0.24036413397E+03  0.85852797721E+03  0.60004137227E+03 0.  0.
         23    2    4    4    0    0  0.15352510116E+03 -0.21907223208E+03  0.96033080600E+02  0.29802181473E+03  0.89621704577E+02 0.  0.
         23    2    4    4    0    0 -0.29066525560E+03 -0.32905029104E+03 -0.33639721457E+03  0.56050616248E+03  0.90794754028E+02 0.  0.
          1    1    3    3  502    0  0.73425932022E+00  0.14527974184E+03 -0.16351811397E+03  0.21873480775E+03  0.00000000000E+00 0. -1.
         -1    1    3    3    0  502  0.13640589513E+03  0.40284278129E+03 -0.60105214932E+03  0.73631009830E+03  0.00000000000E+00 0.  1.
         11    1    5    5    0    0  0.15372114098E+03 -0.20702854928E+03  0.66749740385E+02  0.26635791192E+03  0.00000000000E+00 0.  1.
        -11    1    5    5    0    0 -0.19603982708E+00 -0.12043682808E+02  0.29283340215E+02  0.31663902813E+02  0.00000000000E+00 0. -1.
          5    1    6    6  503    0 -0.10450235241E+02  0.34107442869E+01 -0.17849636429E+02  0.21483484676E+02  0.47000000000E+01 0. -1.
         -5    1    6    6    0  503 -0.28021502036E+03 -0.33246103533E+03 -0.31854757814E+03  0.53902267780E+03  0.47000000000E+01 0.  1.
<mgrwt>
<rscale>  0 0.64363810E+03</rscale>
<asrwt>0</asrwt>
<pdfrwt beam="1">  1        2 0.21680825E+00 0.64363810E+03</pdfrwt>
<pdfrwt beam="2">  1       -2 0.62202960E-01 0.64363810E+03</pdfrwt>
<totfact> 0.35468012E+01</totfact>
</mgrwt>
</event>
<event>
12    1  0.3127365E-008  0.3549468E+03  0.7818608E-02  0.1060603E+00
          2   -1    0    0  501    0  0.00000000000E+00  0.00000000000E+00  0.83028607139E+03  0.83028607139E+03  0.00000000000E+00 0. -1.
         -2   -1    0    0    0  501 -0.00000000000E+00 -0.00000000000E+00 -0.26589871338E+03  0.26589871338E+03  0.00000000000E+00 0.  1.
         23    2    1    2    0    0 -0.15941514531E+03  0.14247638900E+03  0.35717435821E+03  0.42602085100E+03  0.90595437773E+02 0.  0.
    5000000    2    1    2    0    0  0.15941514531E+03 -0.14247638900E+03  0.20721299980E+03  0.67016393378E+03  0.60039133977E+03 0.  0.
         23    2    4    4    0    0 -0.14574793262E+03 -0.27420579044E+02  0.27439507275E+03  0.32479339652E+03  0.90574535338E+02 0.  0.
         23    2    4    4    0    0  0.30516307793E+03 -0.11505580996E+03 -0.67182072954E+02  0.34537053726E+03  0.91678970041E+02 0.  0.
          1    1    3    3  502    0 -0.10163843289E+03  0.10411247953E+03  0.30910628029E+03  0.34163792522E+03  0.00000000000E+00 0. -1.
         -1    1    3    3    0  502 -0.57776712419E+02  0.38363909470E+02  0.48068077920E+02  0.84382925776E+02  0.00000000000E+00 0.  1.
         13    1    5    5    0    0 -0.84134906513E+02 -0.47245268965E+02  0.22006158247E+03  0.24028711579E+03  0.00000000000E+00 0. -1.
        -13    1    5    5    0    0 -0.61613026105E+02  0.19824689921E+02  0.54333490279E+02  0.84506280726E+02  0.00000000000E+00 0.  1.
          5    1    6    6  503    0  0.33262838595E+02 -0.38950013585E+02 -0.32539191625E+02  0.60863856116E+02  0.47000000000E+01 0. -1.
         -5    1    6    6    0  503  0.27190023933E+03 -0.76105796372E+02 -0.34642881329E+02  0.28450668115E+03  0.47000000000E+01 0.  1.
<mgrwt>
<rscale>  0 0.35494682E+03</rscale>
<asrwt>0</asrwt>
<pdfrwt beam="1">  1        2 0.12773632E+00 0.35494682E+03</pdfrwt>
<pdfrwt beam="2">  1       -2 0.40907495E-01 0.35494682E+03</pdfrwt>
<totfact> 0.19290670E+02</totfact>
</mgrwt>
</event>
<event>
12    1  0.3127365E-008  0.8922621E+03  0.7818608E-02  0.9435306E-01
         -1   -1    0    0    0  501 -0.00000000000E+00  0.00000000000E+00  0.12942734200E+04  0.12942734200E+04  0.00000000000E+00 0.  1.
          1   -1    0    0  501    0  0.00000000000E+00 -0.00000000000E+00 -0.21932480933E+04  0.21932480933E+04  0.00000000000E+00 0. -1.
         23    2    1    2    0    0  0.32300796934E+03  0.74936721737E+03 -0.18960736130E+04  0.20662428335E+04  0.91536476045E+02 0.  0.
    5000000    2    1    2    0    0 -0.32300796934E+03 -0.74936721737E+03  0.99709893972E+03  0.14212786798E+04  0.59995117751E+03 0.  0.
         23    2    4    4    0    0  0.12485848515E+03 -0.26124145521E+03  0.14158683640E+03  0.33537029890E+03  0.92680450532E+02 0.  0.
         23    2    4    4    0    0 -0.44786645449E+03 -0.48812576216E+03  0.85551210332E+03  0.10859083809E+04  0.91896311539E+02 0.  0.
          4    1    3    3  502    0  0.17399628663E+03  0.29691902524E+03 -0.75537451595E+03  0.83007606558E+03  0.00000000000E+00 0. -1.
         -4    1    3    3    0  502  0.14901168272E+03  0.45244819213E+03 -0.11406990971E+04  0.12361667679E+04  0.00000000000E+00 0.  1.
         11    1    5    5    0    0  0.10652100596E+03 -0.12853189020E+03  0.10218104343E+03  0.19572464624E+03  0.00000000000E+00 0. -1.
        -11    1    5    5    0    0  0.18337479189E+02 -0.13270956501E+03  0.39405792968E+02  0.13964565266E+03  0.00000000000E+00 0.  1.
          5    1    6    6  503    0 -0.18044337124E+03 -0.21716852751E+03  0.43525343599E+03  0.51883487075E+03  0.47000000000E+01 0. -1.
         -5    1    6    6    0  503 -0.26742308326E+03 -0.27095723465E+03  0.42025866733E+03  0.56707351016E+03  0.47000000000E+01 0.  1.
<mgrwt>
<rscale>  0 0.89226207E+03</rscale>
<asrwt>0</asrwt>
<pdfrwt beam="1">  1        1 0.33742278E+00 0.89226207E+03</pdfrwt>
<pdfrwt beam="2">  1       -1 0.19911899E+00 0.89226207E+03</pdfrwt>
<totfact> 0.34828063E-01</totfact>
</mgrwt>
</event>
<event>
12    1  0.3127365E-008  0.5760553E+03  0.7818608E-02  0.9956368E-01
          1   -1    0    0  501    0  0.00000000000E+00  0.00000000000E+00  0.86592735813E+03  0.86592735813E+03  0.00000000000E+00 0. -1.
         -1   -1    0    0    0  501 -0.00000000000E+00 -0.00000000000E+00 -0.55406373737E+03  0.55406373737E+03  0.00000000000E+00 0.  1.
         23    2    1    2    0    0 -0.51294886025E+03  0.21421890095E+03  0.69731491569E+02  0.56698435591E+03  0.87192363078E+02 0.  0.
    5000000    2    1    2    0    0  0.51294886025E+03 -0.21421890095E+03  0.24213212920E+03  0.85300673959E+03  0.59998854908E+03 0.  0.
         23    2    4    4    0    0  0.19129137899E+03 -0.13806174030E+03 -0.17909182572E+03  0.30999560807E+03  0.91487480951E+02 0.  0.
         23    2    4    4    0    0  0.32165748126E+03 -0.76157160649E+02  0.42122395492E+03  0.54301113152E+03  0.90377100979E+02 0.  0.
          2    1    3    3  502    0 -0.10030842861E+03  0.53170742927E+02  0.48691677334E+02  0.12353051524E+03  0.00000000000E+00 0. -1.
         -2    1    3    3    0  502 -0.41264043164E+03  0.16104815802E+03  0.21039814235E+02  0.44345384067E+03  0.00000000000E+00 0.  1.
         13    1    5    5    0    0  0.13472805268E+03 -0.41379473233E+02 -0.10355983905E+03  0.17489582399E+03  0.00000000000E+00 0. -1.
        -13    1    5    5    0    0  0.56563326311E+02 -0.96682267067E+02 -0.75531986672E+02  0.13509978408E+03  0.00000000000E+00 0.  1.
          5    1    6    6  503    0  0.22429992100E+03 -0.94219617795E+01  0.27778545680E+03  0.35719193431E+03  0.47000000000E+01 0. -1.
         -5    1    6    6    0  503  0.97357560263E+02 -0.66735198870E+02  0.14343849812E+03  0.18581919721E+03  0.47000000000E+01 0.  1.
<mgrwt>
<rscale>  0 0.57605533E+03</rscale>
<asrwt>0</asrwt>
<pdfrwt beam="1">  1        1 0.13321959E+00 0.57605533E+03</pdfrwt>
<pdfrwt beam="2">  1       -1 0.85240575E-01 0.57605533E+03</pdfrwt>
<totfact> 0.27722230E+01</totfact>
</mgrwt>
</event>
<event>
12    1  0.3127365E-008  0.1415659E+04  0.7818608E-02  0.8942561E-01
         -1   -1    0    0    0  501 -0.00000000000E+00  0.00000000000E+00  0.79404655632E+03  0.79404655632E+03  0.00000000000E+00 0.  1.
          1   -1    0    0  501    0  0.00000000000E+00 -0.00000000000E+00 -0.27407522055E+04  0.27407522055E+04  0.00000000000E+00 0. -1.
         23    2    1    2    0    0  0.64337018882E+03 -0.12005655281E+04 -0.13828131740E+04  0.19431910080E+04  0.92391732465E+02 0.  0.
    5000000    2    1    2    0    0 -0.64337018882E+03  0.12005655281E+04 -0.56389247508E+03  0.15916077537E+04  0.59996477494E+03 0.  0.
         23    2    4    4    0    0  0.93719835876E+02  0.17388041692E+03 -0.11858631965E+03  0.24779743488E+03  0.91230732210E+02 0.  0.
         23    2    4    4    0    0 -0.73709002469E+03  0.10266851112E+04 -0.44530615543E+03  0.13438103189E+04  0.10072030067E+03 0.  0.
          3    1    3    3  502    0  0.42920700313E+03 -0.85407351583E+03 -0.10172411890E+04  0.13958652724E+04  0.00000000000E+00 0. -1.
         -3    1    3    3    0  502  0.21416318569E+03 -0.34649201229E+03 -0.36557198505E+03  0.54732573568E+03  0.00000000000E+00 0.  1.
         11    1    5    5    0    0  0.31658819741E+02  0.26829541359E+02  0.10171305174E+02  0.42726579618E+02  0.00000000000E+00 0.  1.
        -11    1    5    5    0    0  0.62061016136E+02  0.14705087556E+03 -0.12875762483E+03  0.20507085526E+03  0.00000000000E+00 0. -1.
          5    1    6    6  503    0 -0.43737570167E+02  0.31496201598E+02 -0.92126824678E+01  0.54881228826E+02  0.47000000000E+01 0. -1.
         -5    1    6    6    0  503 -0.69335245453E+03  0.99518890960E+03 -0.43609347296E+03  0.12889290900E+04  0.47000000000E+01 0. -1.
<mgrwt>
<rscale>  0 0.14156586E+04</rscale>
<asrwt>0</asrwt>
<pdfrwt beam="1">  1        1 0.42165417E+00 0.14156586E+04</pdfrwt>
<pdfrwt beam="2">  1       -1 0.12216101E+00 0.14156586E+04</pdfrwt>
<totfact> 0.52430846E-01</totfact>
</mgrwt>
</event>
<event>
12    1  0.3127365E-008  0.7403284E+03  0.7818608E-02  0.9650647E-01
         -2   -1    0    0    0  501 -0.00000000000E+00  0.00000000000E+00  0.46396287102E+03  0.46396287102E+03  0.00000000000E+00 0.  1.
          2   -1    0    0  501    0  0.00000000000E+00 -0.00000000000E+00 -0.12470520178E+04  0.12470520178E+04  0.00000000000E+00 0. -1.
         23    2    1    2    0    0  0.17250762012E+03 -0.60881474060E+03 -0.23602655433E+03  0.68162159086E+03  0.92115098680E+02 0.  0.
    5000000    2    1    2    0    0 -0.17250762012E+03  0.60881474060E+03 -0.54706259243E+03  0.10293932979E+04  0.59996567772E+03 0.  0.
         23    2    4    4    0    0 -0.15402497475E+03 -0.59748586346E+02 -0.17969593297E+03  0.26080104587E+03  0.91831208106E+02 0.  0.
         23    2    4    4    0    0 -0.18482645370E+02  0.66856332694E+03 -0.36736665946E+03  0.76859225207E+03  0.91963346764E+02 0.  0.
          3    1    3    3  502    0  0.89813729511E+02 -0.44950627329E+03 -0.14788701917E+03  0.48165648150E+03  0.00000000000E+00 0. -1.
         -3    1    3    3    0  502  0.82693890614E+02 -0.15930846731E+03 -0.88139535158E+02  0.19996510935E+03  0.00000000000E+00 0.  1.
         11    1    5    5    0    0 -0.43169584672E+02 -0.33376351763E+02 -0.86116681474E+01  0.55242689345E+02  0.00000000000E+00 0. -1.
        -11    1    5    5    0    0 -0.11085539008E+03 -0.26372234583E+02 -0.17108426482E+03  0.20555835652E+03  0.00000000000E+00 0.  1.
          5    1    6    6  503    0  0.33284659959E+02  0.19822822609E+03 -0.12742540014E+03  0.23803701563E+03  0.47000000000E+01 0. -1.
         -5    1    6    6    0  503 -0.51767305329E+02  0.47033510085E+03 -0.23994125932E+03  0.53055523645E+03  0.47000000000E+01 0.  1.
<mgrwt>
<rscale>  0 0.74032838E+03</rscale>
<asrwt>0</asrwt>
<pdfrwt beam="1">  1        2 0.19185415E+00 0.74032838E+03</pdfrwt>
<pdfrwt beam="2">  1       -2 0.71378904E-01 0.74032838E+03</pdfrwt>
<totfact> 0.32271618E+01</totfact>
</mgrwt>
</event>
<event>
12    1  0.3127365E-008  0.5252997E+03  0.7818608E-02  0.1007378E+00
         -2   -1    0    0    0  501 -0.00000000000E+00  0.00000000000E+00  0.47215166681E+03  0.47215166681E+03  0.00000000000E+00 0.  1.
          2   -1    0    0  501    0  0.00000000000E+00 -0.00000000000E+00 -0.73583275251E+03  0.73583275251E+03  0.00000000000E+00 0. -1.
         23    2    1    2    0    0 -0.38695063540E+02  0.42055426981E+03 -0.13465614021E+02  0.43270555218E+03  0.93217864837E+02 0.  0.
    5000000    2    1    2    0    0  0.38695063540E+02 -0.42055426981E+03 -0.25021547167E+03  0.77527886714E+03  0.60007194383E+03 0.  0.
         23    2    4    4    0    0 -0.14589459580E+03 -0.58519286405E+01 -0.26021943549E+03  0.31197028617E+03  0.91059467896E+02 0.  0.
         23    2    4    4    0    0  0.18458965934E+03 -0.41470234117E+03  0.10003963820E+02  0.46330858097E+03  0.92213815665E+02 0.  0.
          4    1    3    3  502    0 -0.69736961584E+02  0.28185363055E+03 -0.75659380771E+01  0.29045129761E+03  0.00000000000E+00 0. -1.
         -4    1    3    3    0  502  0.31041898044E+02  0.13870063927E+03 -0.58996759437E+01  0.14225425457E+03  0.00000000000E+00 0.  1.
         13    1    5    5    0    0 -0.12431268506E+03 -0.29005135107E+02 -0.24625593784E+03  0.27737506818E+03  0.00000000000E+00 0.  1.
        -13    1    5    5    0    0 -0.21581910741E+02  0.23153206466E+02 -0.13963497654E+02  0.34595217988E+02  0.00000000000E+00 0. -1.
          5    1    6    6  503    0  0.13856165521E+02 -0.97098065284E+02  0.28412392545E+02  0.10222221703E+03  0.47000000000E+01 0. -1.
         -5    1    6    6    0  503  0.17073349382E+03 -0.31760427589E+03 -0.18408428724E+02  0.36108636394E+03  0.47000000000E+01 0.  1.
<mgrwt>
<rscale>  0 0.52529968E+03</rscale>
<asrwt>0</asrwt>
<pdfrwt beam="1">  1        2 0.11320504E+00 0.52529968E+03</pdfrwt>
<pdfrwt beam="2">  1       -2 0.72638718E-01 0.52529968E+03</pdfrwt>
<totfact> 0.67992743E+01</totfact>
</mgrwt>
</event>
<event>
12    1  0.3610600E-008  0.9146693E+03  0.7818608E-02  0.9407428E-01
         -1   -1    0    0    0  501 -0.00000000000E+00  0.00000000000E+00  0.14849288136E+04  0.14849288136E+04  0.00000000000E+00 0.  1.
          1   -1    0    0  501    0  0.00000000000E+00 -0.00000000000E+00 -0.66196839871E+03  0.66196839871E+03  0.00000000000E+00 0. -1.
         23    2    1    2    0    0  0.73166703785E+03 -0.39568842254E+03  0.93221392096E+01  0.83736503007E+03  0.95850452794E+02 0.  0.
    5000000    2    1    2    0    0 -0.73166703785E+03  0.39568842254E+03  0.81363827565E+03  0.13095321822E+04  0.60080055813E+03 0.  0.
         23    2    4    4    0    0 -0.44269778641E+03 -0.66915230828E+02  0.25393954014E+03  0.52268622821E+03  0.90865972163E+02 0.  0.
         23    2    4    4    0    0 -0.28896925143E+03  0.46260365337E+03  0.55969873551E+03  0.78684595401E+03  0.91424900484E+02 0.  0.
          4    1    3    3  502    0  0.29072185940E+03 -0.19792073770E+03  0.34887732198E+02  0.35342463384E+03  0.00000000000E+00 0. -1.
         -4    1    3    3    0  502  0.44094517845E+03 -0.19776768485E+03 -0.25565592988E+02  0.48394039624E+03  0.00000000000E+00 0.  1.
         11    1    5    5    0    0 -0.24141868063E+03 -0.21104265914E+02  0.18558123589E+03  0.30523558854E+03  0.00000000000E+00 0. -1.
        -11    1    5    5    0    0 -0.20127910578E+03 -0.45810964915E+02  0.68358304254E+02  0.21745063967E+03  0.00000000000E+00 0.  1.
          5    1    6    6  503    0 -0.13696561378E+03  0.21007007341E+03  0.32201208838E+03  0.40817017305E+03  0.47000000000E+01 0. -1.
         -5    1    6    6    0  503 -0.15200363765E+03  0.25253357996E+03  0.23768664713E+03  0.37867578097E+03  0.47000000000E+01 0.  1.
<mgrwt>
<rscale>  0 0.91466932E+03</rscale>
<asrwt>0</asrwt>
<pdfrwt beam="1">  1        1 0.10184129E+00 0.91466932E+03</pdfrwt>
<pdfrwt beam="2">  1       -1 0.22845059E+00 0.91466932E+03</pdfrwt>
<totfact> 0.29133004E+00</totfact>
</mgrwt>
</event>
<event>
12    1  0.3127365E-008  0.1153378E+04  0.7818608E-02  0.9154673E-01
          2   -1    0    0  501    0  0.00000000000E+00  0.00000000000E+00  0.28330503311E+04  0.28330503311E+04  0.00000000000E+00 0. -1.
         -2   -1    0    0    0  501 -0.00000000000E+00 -0.00000000000E+00 -0.49441961541E+03  0.49441961541E+03  0.00000000000E+00 0.  1.
         23    2    1    2    0    0 -0.10826102630E+04 -0.58578309006E+02  0.13968286616E+04  0.17710493008E+04  0.10004457230E+03 0.  0.
    5000000    2    1    2    0    0  0.10826102630E+04  0.58578309006E+02  0.94180205410E+03  0.15564206457E+04  0.59998143090E+03 0.  0.
         23    2    4    4    0    0  0.70524433288E+03 -0.21724703700E+03  0.44114709447E+03  0.86457426169E+03  0.91170449621E+02 0.  0.
         23    2    4    4    0    0  0.37736593007E+03  0.27582534601E+03  0.50065495963E+03  0.69184638397E+03  0.97526220756E+02 0.  0.
          3    1    3    3  502    0 -0.57533071535E+03 -0.63173837092E+02  0.80647088785E+03  0.99266895724E+03  0.00000000000E+00 0. -1.
         -3    1    3    3    0  502 -0.50727954761E+03  0.45955280853E+01  0.59035777374E+03  0.77838034360E+03  0.00000000000E+00 0.  1.
         13    1    5    5    0    0  0.54318928747E+03 -0.12612241613E+03  0.33119000789E+03  0.64857404142E+03  0.00000000000E+00 0. -1.
        -13    1    5    5    0    0  0.16205504541E+03 -0.91124620873E+02  0.10995708658E+03  0.21600022028E+03  0.00000000000E+00 0.  1.
          5    1    6    6  503    0  0.19766950275E+03  0.85816637292E+02  0.21250501460E+03  0.30268498275E+03  0.47000000000E+01 0. -1.
         -5    1    6    6    0  503  0.17969642733E+03  0.19000870871E+03  0.28814994503E+03  0.38916140122E+03  0.47000000000E+01 0.  1.
<mgrwt>
<rscale>  0 0.11533783E+04</rscale>
<asrwt>0</asrwt>
<pdfrwt beam="1">  1        2 0.43585389E+00 0.11533783E+04</pdfrwt>
<pdfrwt beam="2">  1       -2 0.76064558E-01 0.11533783E+04</pdfrwt>
<totfact> 0.34068474E+00</totfact>
</mgrwt>
</event>
<event>
12    1  0.3127365E-008  0.1192290E+04  0.7818608E-02  0.9119632E-01
         -2   -1    0    0    0  501 -0.00000000000E+00  0.00000000000E+00  0.45284399699E+03  0.45284399699E+03  0.00000000000E+00 0.  1.
          2   -1    0    0  501    0  0.00000000000E+00 -0.00000000000E+00 -0.32631822961E+04  0.32631822961E+04  0.00000000000E+00 0. -1.
         23    2    1    2    0    0  0.58227997145E+03 -0.95432774353E+03 -0.16601990629E+04  0.20035951895E+04  0.91330979005E+02 0.  0.
    5000000    2    1    2    0    0 -0.58227997145E+03  0.95432774353E+03 -0.11501392362E+04  0.17124311036E+04  0.59984049102E+03 0.  0.
         23    2    4    4    0    0  0.63541815325E+02  0.40046360942E+03 -0.36884947494E+03  0.55391827550E+03  0.79792581087E+02 0.  0.
         23    2    4    4    0    0 -0.64582178677E+03  0.55386413411E+03 -0.78128976127E+03  0.11585128281E+04  0.88808909947E+02 0.  0.
          3    1    3    3  502    0  0.46644365021E+03 -0.79658749951E+03 -0.13126540890E+04  0.16047373868E+04  0.00000000000E+00 0. -1.
         -3    1    3    3    0  502  0.11583632124E+03 -0.15774024402E+03 -0.34754497391E+03  0.39885780272E+03  0.00000000000E+00 0.  1.
         13    1    5    5    0    0 -0.17415044564E+02  0.11905808545E+03 -0.11315666288E+03  0.16517427718E+03  0.00000000000E+00 0.  1.
        -13    1    5    5    0    0  0.80956859888E+02  0.28140552398E+03 -0.25569281206E+03  0.38874399831E+03  0.00000000000E+00 0. -1.
          5    1    6    6  503    0 -0.46817337573E+03  0.36832519888E+03 -0.50193539736E+03  0.77898074109E+03  0.47000000000E+01 0. -1.
         -5    1    6    6    0  503 -0.17764841104E+03  0.18553893523E+03 -0.27935436391E+03  0.37953208701E+03  0.47000000000E+01 0.  1.
<mgrwt>
<rscale>  0 0.11922897E+04</rscale>
<asrwt>0</asrwt>
<pdfrwt beam="1">  1        2 0.50202803E+00 0.11922897E+04</pdfrwt>
<pdfrwt beam="2">  1       -2 0.69668310E-01 0.11922897E+04</pdfrwt>
<totfact> 0.22157155E+00</totfact>
</mgrwt>
</event>
<event>
12    1  0.3127365E-008  0.5726139E+03  0.7818608E-02  0.9963911E-01
         -2   -1    0    0    0  501 -0.00000000000E+00  0.00000000000E+00  0.32021436095E+03  0.32021436095E+03  0.00000000000E+00 0. -1.
          2   -1    0    0  501    0  0.00000000000E+00 -0.00000000000E+00 -0.17505174677E+04  0.17505174677E+04  0.00000000000E+00 0.  1.
         23    2    1    2    0    0  0.11249685693E+03  0.55564271211E+03 -0.23951833620E+03  0.62176048970E+03  0.88446067411E+02 0.  0.
    5000000    2    1    2    0    0 -0.11249685693E+03 -0.55564271211E+03 -0.11907847706E+04  0.14489713390E+04  0.60012932357E+03 0.  0.
         23    2    4    4    0    0 -0.10058988948E+03 -0.29362157395E+03 -0.11151757096E+04  0.11610636387E+04  0.90110793965E+02 0.  0.
         23    2    4    4    0    0 -0.11906967444E+02 -0.26202113816E+03 -0.75609060935E+02  0.28790770028E+03  0.91527378777E+02 0.  0.
          3    1    3    3  502    0  0.10459497952E+02  0.18634184072E+03 -0.44597022768E+02  0.19188949200E+03  0.00000000000E+00 0. -1.
         -3    1    3    3    0  502  0.10203735898E+03  0.36930087139E+03 -0.19492131343E+03  0.42987099770E+03  0.00000000000E+00 0.  1.
         13    1    5    5    0    0 -0.50512992084E+02 -0.20146126064E+03 -0.86898201435E+03  0.89345841715E+03  0.00000000000E+00 0.  1.
        -13    1    5    5    0    0 -0.50076897400E+02 -0.92160313301E+02 -0.24619369527E+03  0.26760522154E+03  0.00000000000E+00 0. -1.
          5    1    6    6  503    0 -0.14516408946E+02 -0.21557929255E+03 -0.96519774949E+02  0.23669244699E+03  0.47000000000E+01 0. -1.
         -5    1    6    6    0  503  0.26094415018E+01 -0.46441845611E+02  0.20910714015E+02  0.51215253288E+02  0.47000000000E+01 0.  1.
<mgrwt>
<rscale>  0 0.57261391E+03</rscale>
<asrwt>0</asrwt>
<pdfrwt beam="1">  1        2 0.26931038E+00 0.57261391E+03</pdfrwt>
<pdfrwt beam="2">  1       -2 0.49263748E-01 0.57261391E+03</pdfrwt>
<totfact> 0.37720842E+01</totfact>
</mgrwt>
</event>
<event>
12    1  0.3127365E-008  0.1158565E+04  0.7818608E-02  0.9149919E-01
          2   -1    0    0  501    0  0.00000000000E+00  0.00000000000E+00  0.26001708894E+04  0.26001708894E+04  0.00000000000E+00 0. -1.
         -2   -1    0    0    0  501 -0.00000000000E+00 -0.00000000000E+00 -0.68471736933E+03  0.68471736933E+03  0.00000000000E+00 0.  1.
         23    2    1    2    0    0 -0.39019293856E+03  0.10143104859E+04  0.17078151767E+04  0.20262315878E+04  0.88912758751E+02 0.  0.
    5000000    2    1    2    0    0  0.39019293856E+03 -0.10143104859E+04  0.20763834340E+03  0.12586566709E+04  0.60002220167E+03 0.  0.
         23    2    4    4    0    0  0.50984839570E+03 -0.94144953475E+03  0.17491837618E+03  0.10886582226E+04  0.91146443331E+02 0.  0.
         23    2    4    4    0    0 -0.11965545713E+03 -0.72860951138E+02  0.32719967215E+02  0.16999844836E+03  0.90568921635E+02 0.  0.
          2    1    3    3  502    0 -0.36945420604E+03  0.88597261110E+03  0.14839788531E+04  0.17673814287E+04  0.00000000000E+00 0. -1.
         -2    1    3    3    0  502 -0.20738732521E+02  0.12833787479E+03  0.22383632358E+03  0.25885015914E+03  0.00000000000E+00 0.  1.
         13    1    5    5    0    0  0.17254153329E+03 -0.35102014143E+03  0.10565323145E+03  0.40515222536E+03  0.00000000000E+00 0. -1.
        -13    1    5    5    0    0  0.33730686241E+03 -0.59042939332E+03  0.69265144735E+02  0.68350599720E+03  0.00000000000E+00 0.  1.
          5    1    6    6  503    0 -0.29906725068E+02  0.11920048481E+02 -0.17130357518E+02  0.36770081707E+02  0.47000000000E+01 0. -1.
         -5    1    6    6    0  503 -0.89748732067E+02 -0.84780999619E+02  0.49850324733E+02  0.13322836665E+03  0.47000000000E+01 0.  1.
<mgrwt>
<rscale>  0 0.11585646E+04</rscale>
<asrwt>0</asrwt>
<pdfrwt beam="1">  1        2 0.40002629E+00 0.11585646E+04</pdfrwt>
<pdfrwt beam="2">  1       -2 0.10534113E+00 0.11585646E+04</pdfrwt>
<totfact> 0.21944744E+00</totfact>
</mgrwt>
</event>
<event>
12    1  0.3127365E-008  0.7856560E+03  0.7818608E-02  0.9581015E-01
          2   -1    0    0  501    0  0.00000000000E+00  0.00000000000E+00  0.12522058929E+04  0.12522058929E+04  0.00000000000E+00 0. -1.
         -2   -1    0    0    0  501 -0.00000000000E+00 -0.00000000000E+00 -0.61414894928E+03  0.61414894928E+03  0.00000000000E+00 0.  1.
         23    2    1    2    0    0 -0.47343464957E+03 -0.56065856955E+03  0.53495462327E+03  0.91286575178E+03  0.93107640850E+02 0.  0.
    5000000    2    1    2    0    0  0.47343464957E+03  0.56065856955E+03  0.10310232032E+03  0.95348909039E+03  0.60002746438E+03 0.  0.
         23    2    4    4    0    0  0.28913975733E+03  0.55979000936E+02  0.24188797515E+03  0.39099481808E+03  0.87359644157E+02 0.  0.
         23    2    4    4    0    0  0.18429489224E+03  0.50467956861E+03 -0.13878565483E+03  0.56249427231E+03  0.92044957007E+02 0.  0.
          2    1    3    3  502    0 -0.36522849303E+03 -0.47072518364E+03  0.46474820116E+03  0.75562222116E+03  0.00000000000E+00 0. -1.
         -2    1    3    3    0  502 -0.10820615654E+03 -0.89933385910E+02  0.70206422114E+02  0.15724353062E+03  0.00000000000E+00 0.  1.
         11    1    5    5    0    0  0.42056894884E+02  0.41925419650E+01  0.81770548447E+02  0.92047718107E+02  0.00000000000E+00 0. -1.
        -11    1    5    5    0    0  0.24708286244E+03  0.51786458971E+02  0.16011742671E+03  0.29894709997E+03  0.00000000000E+00 0.  1.
          5    1    6    6  503    0 -0.26262772029E+01  0.13922998989E+02  0.83471115345E+01  0.17102967689E+02  0.47000000000E+01 0. -1.
         -5    1    6    6    0  503  0.18692116945E+03  0.49075656963E+03 -0.14713276636E+03  0.54539130462E+03  0.47000000000E+01 0.  1.
<mgrwt>
<rscale>  0 0.78565602E+03</rscale>
<asrwt>0</asrwt>
<pdfrwt beam="1">  1        2 0.19264706E+00 0.78565602E+03</pdfrwt>
<pdfrwt beam="2">  1       -2 0.94484454E-01 0.78565602E+03</pdfrwt>
<totfact> 0.16910705E+01</totfact>
</mgrwt>
</event>
<event>
12    1  0.3127365E-008  0.5580545E+03  0.7818608E-02  0.9996466E-01
         -2   -1    0    0    0  501 -0.00000000000E+00  0.00000000000E+00  0.50159870590E+03  0.50159870590E+03  0.00000000000E+00 0.  1.
          2   -1    0    0  501    0  0.00000000000E+00 -0.00000000000E+00 -0.28232098380E+04  0.28232098380E+04  0.00000000000E+00 0. -1.
         23    2    1    2    0    0 -0.44784271296E+03  0.14878128411E+03 -0.24958439702E+04  0.25417218870E+04  0.91728192233E+02 0.  0.
    5000000    2    1    2    0    0  0.44784271296E+03 -0.14878128411E+03  0.17423283806E+03  0.78308665692E+03  0.60014053716E+03 0.  0.
         23    2    4    4    0    0  0.11876353667E+03  0.14897340521E+03  0.24790780596E+03  0.32410006628E+03  0.85350568833E+02 0.  0.
         23    2    4    4    0    0  0.32907917628E+03 -0.29775468932E+03 -0.73674967899E+02  0.45898659065E+03  0.91047955619E+02 0.  0.
          1    1    3    3  502    0 -0.15582171945E+03  0.69876263110E+02 -0.69659569697E+03  0.71722288407E+03  0.00000000000E+00 0. -1.
         -1    1    3    3    0  502 -0.29202099351E+03  0.78905021003E+02 -0.17992482732E+04  0.18244990029E+04  0.00000000000E+00 0.  1.
         13    1    5    5    0    0  0.55790112161E+02  0.28341343796E+02  0.12904874310E+03  0.14342017459E+03  0.00000000000E+00 0. -1.
        -13    1    5    5    0    0  0.62973424513E+02  0.12063206141E+03  0.11885906286E+03  0.18067989169E+03  0.00000000000E+00 0.  1.
          5    1    6    6  503    0  0.11107007925E+03 -0.11078668771E+03  0.16776847637E+02  0.15784107607E+03  0.47000000000E+01 0. -1.
         -5    1    6    6    0  503  0.21800909703E+03 -0.18696800161E+03 -0.90451815536E+02  0.30114551458E+03  0.47000000000E+01 0.  1.
<mgrwt>
<rscale>  0 0.55805446E+03</rscale>
<asrwt>0</asrwt>
<pdfrwt beam="1">  1        2 0.43433998E+00 0.55805446E+03</pdfrwt>
<pdfrwt beam="2">  1       -2 0.77169031E-01 0.55805446E+03</pdfrwt>
<totfact> 0.37172460E+00</totfact>
</mgrwt>
</event>
<event>
12    1  0.3127365E-008  0.5420324E+03  0.7818608E-02  0.1003355E+00
          2   -1    0    0  501    0  0.00000000000E+00  0.00000000000E+00  0.14798715402E+04  0.14798715402E+04  0.00000000000E+00 0. -1.
         -2   -1    0    0    0  501 -0.00000000000E+00 -0.00000000000E+00 -0.28297529008E+03  0.28297529008E+03  0.00000000000E+00 0.  1.
         23    2    1    2    0    0  0.39859993257E+03 -0.28387534354E+03  0.31333750561E+03  0.58805920613E+03  0.90366589919E+02 0.  0.
    5000000    2    1    2    0    0 -0.39859993257E+03  0.28387534354E+03  0.88355874449E+03  0.11747876241E+04  0.59998565809E+03 0.  0.
         23    2    4    4    0    0 -0.10053072988E+03  0.24466774093E+03  0.80338313353E+03  0.85127674396E+03  0.96327070274E+02 0.  0.
         23    2    4    4    0    0 -0.29806920270E+03  0.39207602606E+02  0.80175610960E+02  0.32351088016E+03  0.88592749654E+02 0.  0.
          4    1    3    3  502    0  0.25131845020E+03 -0.16953882276E+03  0.14171797118E+03  0.33464661837E+03  0.00000000000E+00 0. -1.
         -4    1    3    3    0  502  0.14728148237E+03 -0.11433652078E+03  0.17161953443E+03  0.25341258776E+03  0.00000000000E+00 0.  1.
         11    1    5    5    0    0 -0.89568101727E+02  0.92790488815E+02  0.38704413110E+03  0.40796529151E+03  0.00000000000E+00 0. -1.
        -11    1    5    5    0    0 -0.10962628150E+02  0.15187725212E+03  0.41633900243E+03  0.44331145245E+03  0.00000000000E+00 0.  1.
          5    1    6    6  503    0 -0.98317610236E+02 -0.28122976333E+02  0.31689271501E+02  0.10716134662E+03  0.47000000000E+01 0. -1.
         -5    1    6    6    0  503 -0.19975159246E+03  0.67330578939E+02  0.48486339459E+02  0.21634953355E+03  0.47000000000E+01 0.  1.
<mgrwt>
<rscale>  0 0.54203239E+03</rscale>
<asrwt>0</asrwt>
<pdfrwt beam="1">  1        2 0.22767254E+00 0.54203239E+03</pdfrwt>
<pdfrwt beam="2">  1       -2 0.43534661E-01 0.54203239E+03</pdfrwt>
<totfact> 0.68126037E+01</totfact>
</mgrwt>
</event>
<event>
12    1  0.3127365E-008  0.1155990E+04  0.7818608E-02  0.9152275E-01
         -2   -1    0    0    0  501 -0.00000000000E+00  0.00000000000E+00  0.13147770352E+04  0.13147770352E+04  0.00000000000E+00 0.  1.
          2   -1    0    0  501    0  0.00000000000E+00 -0.00000000000E+00 -0.18885921407E+04  0.18885921407E+04  0.00000000000E+00 0. -1.
         23    2    1    2    0    0  0.52908865572E+03  0.98767787457E+03 -0.13159987877E+04  0.17315373020E+04  0.10452860696E+03 0.  0.
    5000000    2    1    2    0    0 -0.52908865572E+03 -0.98767787457E+03  0.74218368215E+03  0.14718318739E+04  0.60000838110E+03 0.  0.
         23    2    4    4    0    0  0.55284000836E+02 -0.91160676345E+02  0.25780381089E+03  0.29370535531E+03  0.91833769205E+02 0.  0.
         23    2    4    4    0    0 -0.58437265655E+03 -0.89651719822E+03  0.48437987126E+03  0.11781265186E+04  0.90131823672E+02 0.  0.
          2    1    3    3  502    0  0.21842260300E+03  0.47344312801E+03 -0.54723958407E+03  0.75586241561E+03  0.00000000000E+00 0. -1.
         -2    1    3    3    0  502  0.31066605271E+03  0.51423474655E+03 -0.76875920360E+03  0.97567488642E+03  0.00000000000E+00 0.  1.
         13    1    5    5    0    0 -0.38983204399E+01 -0.42493639606E+02  0.17811469763E+03  0.18315499399E+03  0.00000000000E+00 0.  1.
        -13    1    5    5    0    0  0.59182321276E+02 -0.48667036739E+02  0.79689113259E+02  0.11055036132E+03  0.00000000000E+00 0. -1.
          5    1    6    6  503    0 -0.92747492440E+02 -0.15874526350E+03  0.48553436546E+02  0.19021483180E+03  0.47000000000E+01 0. -1.
         -5    1    6    6    0  503 -0.49162516411E+03 -0.73777193473E+03  0.43582643472E+03  0.98791168677E+03  0.47000000000E+01 0.  1.
<mgrwt>
<rscale>  0 0.11559898E+04</rscale>
<asrwt>0</asrwt>
<pdfrwt beam="1">  1        2 0.29055263E+00 0.11559898E+04</pdfrwt>
<pdfrwt beam="2">  1       -2 0.20227339E+00 0.11559898E+04</pdfrwt>
<totfact> 0.96662094E-01</totfact>
</mgrwt>
</event>
<event>
12    1  0.3127365E-008  0.1312386E+04  0.7818608E-02  0.9019800E-01
         -2   -1    0    0    0  501 -0.00000000000E+00  0.00000000000E+00  0.66946910769E+03  0.66946910769E+03  0.00000000000E+00 0.  1.
          2   -1    0    0  501    0  0.00000000000E+00 -0.00000000000E+00 -0.29359805522E+04  0.29359805522E+04  0.00000000000E+00 0. -1.
         23    2    1    2    0    0 -0.10529528676E+04 -0.66492527321E+03 -0.45842468228E+03  0.13295503143E+04  0.81948085373E+02 0.  0.
    5000000    2    1    2    0    0  0.10529528676E+04  0.66492527321E+03 -0.18080867623E+04  0.22758993456E+04  0.59975389205E+03 0.  0.
         23    2    4    4    0    0  0.34592697029E+03  0.55310134493E+03 -0.81074264133E+03  0.10444306490E+04  0.89135759457E+02 0.  0.
         23    2    4    4    0    0  0.70702589731E+03  0.11182392828E+03 -0.99734412094E+03  0.12314686966E+04  0.97106357417E+02 0.  0.
          4    1    3    3  502    0 -0.81796512903E+03 -0.54011032027E+03 -0.38898729043E+03  0.10545602034E+04  0.00000000000E+00 0. -1.
         -4    1    3    3    0  502 -0.23498773856E+03 -0.12481495295E+03 -0.69437391842E+02  0.27499011099E+03  0.00000000000E+00 0.  1.
         13    1    5    5    0    0  0.31131598304E+03  0.43947486881E+03 -0.64033776441E+03  0.83671276681E+03  0.00000000000E+00 0. -1.
        -13    1    5    5    0    0  0.34610987248E+02  0.11362647612E+03 -0.17040487692E+03  0.20771788222E+03  0.00000000000E+00 0.  1.
          5    1    6    6  503    0  0.46031668230E+03  0.11454974461E+03 -0.68952432939E+03  0.83694622457E+03  0.47000000000E+01 0. -1.
         -5    1    6    6    0  503  0.24670921500E+03 -0.27258163283E+01 -0.30781979155E+03  0.39452247200E+03  0.47000000000E+01 0.  1.
<mgrwt>
<rscale>  0 0.13123864E+04</rscale>
<asrwt>0</asrwt>
<pdfrwt beam="1">  1        2 0.45168932E+00 0.13123864E+04</pdfrwt>
<pdfrwt beam="2">  1       -2 0.10299525E+00 0.13123864E+04</pdfrwt>
<totfact> 0.14333371E+00</totfact>
</mgrwt>
</event>
<event>
12    1  0.3127365E-008  0.1273359E+04  0.7818608E-02  0.9050962E-01
         -1   -1    0    0    0  501 -0.00000000000E+00  0.00000000000E+00  0.86857191002E+03  0.86857191002E+03  0.00000000000E+00 0.  1.
          1   -1    0    0  501    0  0.00000000000E+00 -0.00000000000E+00 -0.19094002916E+04  0.19094002916E+04  0.00000000000E+00 0. -1.
         23    2    1    2    0    0 -0.11778953109E+04  0.25617666382E+03 -0.31662132910E+03  0.12495971930E+04  0.90444635043E+02 0.  0.
    5000000    2    1    2    0    0  0.11778953109E+04 -0.25617666382E+03 -0.72420705249E+03  0.15283750087E+04  0.59865721887E+03 0.  0.
         23    2    4    4    0    0  0.66028700833E+03  0.13893908162E+03 -0.29585231694E+03  0.74226183622E+03  0.90227702489E+02 0.  0.
         23    2    4    4    0    0  0.51760830259E+03 -0.39511574544E+03 -0.42835473555E+03  0.78611317246E+03  0.10223176239E+03 0.  0.
          1    1    3    3  502    0 -0.14707846355E+03  0.11069310169E+02 -0.61207582803E+02  0.15969023846E+03  0.00000000000E+00 0. -1.
         -1    1    3    3    0  502 -0.10308168474E+04  0.24510735365E+03 -0.25541374630E+03  0.10899069545E+04  0.00000000000E+00 0.  1.
         11    1    5    5    0    0  0.17646489583E+03 -0.23661701856E+01 -0.68188761918E+02  0.18919610322E+03  0.00000000000E+00 0. -1.
        -11    1    5    5    0    0  0.48382211250E+03  0.14130525181E+03 -0.22766355502E+03  0.55306573300E+03  0.00000000000E+00 0.  1.
          5    1    6    6  503    0  0.26826223578E+03 -0.26803973627E+03 -0.24511057869E+03  0.45156529223E+03  0.47000000000E+01 0. -1.
         -5    1    6    6    0  503  0.24934606681E+03 -0.12707600918E+03 -0.18324415686E+03  0.33454788022E+03  0.47000000000E+01 0.  1.
<mgrwt>
<rscale>  0 0.12733593E+04</rscale>
<asrwt>0</asrwt>
<pdfrwt beam="1">  1        1 0.29375389E+00 0.12733593E+04</pdfrwt>
<pdfrwt beam="2">  1       -1 0.13362645E+00 0.12733593E+04</pdfrwt>
<totfact> 0.15825045E+00</totfact>
</mgrwt>
</event>
<event>
12    1  0.3127365E-008  0.5477161E+03  0.7818608E-02  0.1002024E+00
         -1   -1    0    0    0  501 -0.00000000000E+00  0.00000000000E+00  0.43305000682E+03  0.43305000682E+03  0.00000000000E+00 0.  1.
          1   -1    0    0  501    0  0.00000000000E+00 -0.00000000000E+00 -0.11284117928E+04  0.11284117928E+04  0.00000000000E+00 0. -1.
         23    2    1    2    0    0  0.44849513850E+03  0.24652031429E+03 -0.15036244707E+02  0.52001614881E+03  0.90942573931E+02 0.  0.
    5000000    2    1    2    0    0 -0.44849513850E+03 -0.24652031429E+03 -0.68032554123E+03  0.10414456508E+04  0.59987169197E+03 0.  0.
         23    2    4    4    0    0 -0.23919016951E+03 -0.25584066985E+03 -0.43488110471E+02  0.36468623749E+03  0.91861039204E+02 0.  0.
         23    2    4    4    0    0 -0.20930496899E+03  0.93203555556E+01 -0.63683743076E+03  0.67675941328E+03  0.92444313886E+02 0.  0.
          2    1    3    3  502    0  0.32237186569E+03  0.14394324894E+03 -0.40868729721E+02  0.35540615044E+03  0.00000000000E+00 0. -1.
         -2    1    3    3    0  502  0.12612327280E+03  0.10257706535E+03  0.25832485013E+02  0.16460999836E+03  0.00000000000E+00 0.  1.
         11    1    5    5    0    0 -0.22601187791E+03 -0.23239024448E+03 -0.13571639166E+02  0.32445459479E+03  0.00000000000E+00 0. -1.
        -11    1    5    5    0    0 -0.13178291597E+02 -0.23450425364E+02 -0.29916471305E+02  0.40231642702E+02  0.00000000000E+00 0.  1.
          5    1    6    6  503    0 -0.39615833232E+02  0.39711886118E+02 -0.14324576558E+03  0.15390869857E+03  0.47000000000E+01 0. -1.
         -5    1    6    6    0  503 -0.16968913576E+03 -0.30391530563E+02 -0.49359166518E+03  0.52285071470E+03  0.47000000000E+01 0.  1.
<mgrwt>
<rscale>  0 0.54771613E+03</rscale>
<asrwt>0</asrwt>
<pdfrwt beam="1">  1        1 0.17360182E+00 0.54771613E+03</pdfrwt>
<pdfrwt beam="2">  1       -1 0.66623077E-01 0.54771613E+03</pdfrwt>
<totfact> 0.29125576E+01</totfact>
</mgrwt>
</event>
<event>
12    1  0.3127365E-008  0.4059006E+03  0.7818608E-02  0.1041755E+00
         -2   -1    0    0    0  501 -0.00000000000E+00  0.00000000000E+00  0.20701342730E+03  0.20701342730E+03  0.00000000000E+00 0.  1.
          2   -1    0    0  501    0  0.00000000000E+00 -0.00000000000E+00 -0.14931904962E+04  0.14931904962E+04  0.00000000000E+00 0. -1.
         23    2    1    2    0    0 -0.83834554294E+02 -0.37330135759E+03 -0.36968521701E+03  0.53983071640E+03  0.91476262656E+02 0.  0.
    5000000    2    1    2    0    0  0.83834554294E+02  0.37330135759E+03 -0.91649185185E+03  0.11603732071E+04  0.60010543163E+03 0.  0.
         23    2    4    4    0    0 -0.34446936873E+02  0.37109499310E+02  0.56554811739E+02  0.12024938805E+03  0.93261793868E+02 0.  0.
         23    2    4    4    0    0  0.11828149117E+03  0.33619185828E+03 -0.97304666359E+03  0.10401238190E+04  0.89567140293E+02 0.  0.
          3    1    3    3  502    0 -0.48347365607E+02 -0.64209840371E+02 -0.55568097038E+02  0.97714813463E+02  0.00000000000E+00 0. -1.
         -3    1    3    3    0  502 -0.35487188687E+02 -0.30909151722E+03 -0.31411711997E+03  0.44211590294E+03  0.00000000000E+00 0.  1.
         13    1    5    5    0    0 -0.30738906621E+02  0.12480934759E+02 -0.20682977813E+02  0.39095264213E+02  0.00000000000E+00 0. -1.
        -13    1    5    5    0    0 -0.37080302524E+01  0.24628564551E+02  0.77237789552E+02  0.81154123833E+02  0.00000000000E+00 0.  1.
          5    1    6    6  503    0  0.35295930416E+02  0.19626165324E+03 -0.62162443765E+03  0.65284260792E+03  0.47000000000E+01 0. -1.
         -5    1    6    6    0  503  0.82985560751E+02  0.13993020504E+03 -0.35142222595E+03  0.38728121109E+03  0.47000000000E+01 0.  1.
<mgrwt>
<rscale>  0 0.40590060E+03</rscale>
<asrwt>0</asrwt>
<pdfrwt beam="1">  1        2 0.22972162E+00 0.40590060E+03</pdfrwt>
<pdfrwt beam="2">  1       -2 0.31848219E-01 0.40590060E+03</pdfrwt>
<totfact> 0.12421221E+02</totfact>
</mgrwt>
</event>
<event>
12    1  0.3127365E-008  0.6907297E+03  0.7818608E-02  0.9733218E-01
         -2   -1    0    0    0  501 -0.00000000000E+00  0.00000000000E+00  0.70781787785E+03  0.70781787785E+03  0.00000000000E+00 0.  1.
          2   -1    0    0  501    0  0.00000000000E+00 -0.00000000000E+00 -0.85455467914E+03  0.85455467914E+03  0.00000000000E+00 0. -1.
         23    2    1    2    0    0  0.51144065903E+03 -0.30166853225E+03  0.22295412519E+03  0.64083145110E+03  0.91547559895E+02 0.  0.
    5000000    2    1    2    0    0 -0.51144065903E+03  0.30166853225E+03 -0.36969092649E+03  0.92154110589E+03  0.59999264801E+03 0.  0.
         23    2    4    4    0    0 -0.60057769707E+02 -0.13188048033E+03  0.31034195267E+02  0.17364620593E+03  0.90501308067E+02 0.  0.
         23    2    4    4    0    0 -0.45138288932E+03  0.43354901258E+03 -0.40072512176E+03  0.74789489996E+03  0.83993446786E+02 0.  0.
          3    1    3    3  502    0  0.35695219420E+03 -0.23729424936E+03  0.19597694085E+03  0.47130710908E+03  0.00000000000E+00 0. -1.
         -3    1    3    3    0  502  0.15448846483E+03 -0.64374282893E+02  0.26977184339E+02  0.16952434202E+03  0.00000000000E+00 0.  1.
         11    1    5    5    0    0 -0.34517645326E+02 -0.20309383248E+02  0.42764576412E+02  0.58589656787E+02  0.00000000000E+00 0. -1.
        -11    1    5    5    0    0 -0.25540124382E+02 -0.11157109709E+03 -0.11730381145E+02  0.11505654914E+03  0.00000000000E+00 0.  1.
          5    1    6    6  503    0 -0.10690627849E+03  0.59522583245E+02 -0.65965113744E+02  0.13908765771E+03  0.47000000000E+01 0. -1.
         -5    1    6    6    0  503 -0.34447661083E+03  0.37402642934E+03 -0.33476000801E+03  0.60880724225E+03  0.47000000000E+01 0.  1.
<mgrwt>
<rscale>  0 0.69072975E+03</rscale>
<asrwt>0</asrwt>
<pdfrwt beam="1">  1        2 0.13146995E+00 0.69072975E+03</pdfrwt>
<pdfrwt beam="2">  1       -2 0.10889506E+00 0.69072975E+03</pdfrwt>
<totfact> 0.21661408E+01</totfact>
</mgrwt>
</event>
<event>
12    1  0.3127365E-008  0.1019466E+04  0.7818608E-02  0.9287448E-01
          2   -1    0    0  501    0  0.00000000000E+00  0.00000000000E+00  0.14124610822E+04  0.14124610822E+04  0.00000000000E+00 0. -1.
         -2   -1    0    0    0  501 -0.00000000000E+00 -0.00000000000E+00 -0.85781677594E+03  0.85781677594E+03  0.00000000000E+00 0.  1.
         23    2    1    2    0    0  0.94842252753E+02  0.98638994910E+03  0.49172045380E+03  0.11100210783E+04  0.91638447573E+02 0.  0.
    5000000    2    1    2    0    0 -0.94842252753E+02 -0.98638994910E+03  0.62923852497E+02  0.11602567799E+04  0.60023012203E+03 0.  0.
         23    2    4    4    0    0 -0.20997667134E+03 -0.64379257031E+03 -0.18978693173E+03  0.70943481779E+03  0.93378825966E+02 0.  0.
         23    2    4    4    0    0  0.11513441859E+03 -0.34259737878E+03  0.25271078423E+03  0.45082196206E+03  0.93535034708E+02 0.  0.
          2    1    3    3  502    0  0.87345555170E+02  0.43280076679E+03  0.21879930343E+03  0.49276656230E+03  0.00000000000E+00 0. -1.
         -2    1    3    3    0  502  0.74966975825E+01  0.55358918230E+03  0.27292115037E+03  0.61725451603E+03  0.00000000000E+00 0.  1.
         11    1    5    5    0    0 -0.28077390367E+02 -0.69258381921E+02  0.80144588603E+01  0.75161791270E+02  0.00000000000E+00 0. -1.
        -11    1    5    5    0    0 -0.18189928097E+03 -0.57453418839E+03 -0.19780139059E+03  0.63427302652E+03  0.00000000000E+00 0.  1.
          5    1    6    6  503    0  0.95025839255E+02 -0.19090198383E+03  0.10365213221E+03  0.23714833347E+03  0.47000000000E+01 0. -1.
         -5    1    6    6    0  503  0.20108579334E+02 -0.15169539496E+03  0.14905865202E+03  0.21367362859E+03  0.47000000000E+01 0.  1.
<mgrwt>
<rscale>  0 0.10194664E+04</rscale>
<asrwt>0</asrwt>
<pdfrwt beam="1">  1        2 0.21730170E+00 0.10194664E+04</pdfrwt>
<pdfrwt beam="2">  1       -2 0.13197181E+00 0.10194664E+04</pdfrwt>
<totfact> 0.58955177E+00</totfact>
</mgrwt>
</event>
<event>
12    1  0.3127365E-008  0.5688376E+03  0.7818608E-02  0.9972254E-01
         -2   -1    0    0    0  501 -0.00000000000E+00  0.00000000000E+00  0.10066178621E+04  0.10066178621E+04  0.00000000000E+00 0.  1.
          2   -1    0    0  501    0  0.00000000000E+00 -0.00000000000E+00 -0.64666401832E+03  0.64666401832E+03  0.00000000000E+00 0. -1.
         23    2    1    2    0    0  0.51266428608E+03  0.12464274687E+03 -0.30317873496E+03  0.61495070173E+03  0.88806169011E+02 0.  0.
    5000000    2    1    2    0    0 -0.51266428608E+03 -0.12464274687E+03  0.66313257877E+03  0.10383311787E+04  0.60002194552E+03 0.  0.
         23    2    4    4    0    0 -0.36850009510E+03  0.21897410028E+02  0.47094851286E+02  0.38241253344E+03  0.88031835499E+02 0.  0.
         23    2    4    4    0    0 -0.14416419098E+03 -0.14654015689E+03  0.61603772748E+03  0.65591864528E+03  0.92029647366E+02 0.  0.
          1    1    3    3  502    0  0.31310262335E+03  0.37552100072E+02 -0.20484375762E+03  0.37603773481E+03  0.00000000000E+00 0. -1.
         -1    1    3    3    0  502  0.19956166273E+03  0.87090646795E+02 -0.98334977341E+02  0.23891296691E+03  0.00000000000E+00 0.  1.
         11    1    5    5    0    0 -0.15766532008E+02  0.21631393884E+02  0.31892521339E+01  0.26956855568E+02  0.00000000000E+00 0.  1.
        -11    1    5    5    0    0 -0.35273356309E+03  0.26601614420E+00  0.43905599152E+02  0.35545567787E+03  0.00000000000E+00 0. -1.
          5    1    6    6  503    0 -0.42500437509E+02 -0.10818722199E+03  0.30697330265E+03  0.32827650042E+03  0.47000000000E+01 0. -1.
         -5    1    6    6    0  503 -0.10166375347E+03 -0.38352934903E+02  0.30906442484E+03  0.32764214486E+03  0.47000000000E+01 0.  1.
<mgrwt>
<rscale>  0 0.56883759E+03</rscale>
<asrwt>0</asrwt>
<pdfrwt beam="1">  1        2 0.99486772E-01 0.56883759E+03</pdfrwt>
<pdfrwt beam="2">  1       -2 0.15486429E+00 0.56883759E+03</pdfrwt>
<totfact> 0.12912767E+01</totfact>
</mgrwt>
</event>
<event>
12    1  0.3127365E-008  0.4171151E+03  0.7818608E-02  0.1038009E+00
          1   -1    0    0  501    0  0.00000000000E+00  0.00000000000E+00  0.46742835945E+03  0.46742835945E+03  0.00000000000E+00 0. -1.
         -1   -1    0    0    0  501 -0.00000000000E+00 -0.00000000000E+00 -0.51159998901E+03  0.51159998901E+03  0.00000000000E+00 0.  1.
         23    2    1    2    0    0  0.20993133188E+03  0.20816305763E+03 -0.26191449551E+02  0.30992677899E+03  0.89250174442E+02 0.  0.
    5000000    2    1    2    0    0 -0.20993133188E+03 -0.20816305763E+03 -0.17980180015E+02  0.66910156947E+03  0.59997550010E+03 0.  0.
         23    2    4    4    0    0 -0.24923605391E+03  0.45760483906E+02 -0.20545798862E+03  0.33877380134E+03  0.91334938205E+02 0.  0.
         23    2    4    4    0    0  0.39304722022E+02 -0.25392354154E+03  0.18747780860E+03  0.33032776812E+03  0.89143028643E+02 0.  0.
          2    1    3    3  502    0  0.12649804897E+02  0.59022093905E+02  0.54097156785E+01  0.60604374072E+02  0.00000000000E+00 0.  1.
         -2    1    3    3    0  502  0.19728152699E+03  0.14914096373E+03 -0.31601165229E+02  0.24932240492E+03  0.00000000000E+00 0. -1.
         11    1    5    5    0    0 -0.14300743426E+03  0.42002880388E+02 -0.64940217654E+02  0.16258105696E+03  0.00000000000E+00 0.  1.
        -11    1    5    5    0    0 -0.10622861965E+03  0.37576035178E+01 -0.14051777096E+03  0.17619274438E+03  0.00000000000E+00 0. -1.
          5    1    6    6  503    0  0.66463452522E+02 -0.19710385580E+03  0.13311320094E+03  0.24699905821E+03  0.47000000000E+01 0. -1.
         -5    1    6    6    0  503 -0.27158730501E+02 -0.56819685735E+02  0.54364607658E+02  0.83328709910E+02  0.47000000000E+01 0.  1.
<mgrwt>
<rscale>  0 0.41711515E+03</rscale>
<asrwt>0</asrwt>
<pdfrwt beam="1">  1        1 0.71912056E-01 0.41711515E+03</pdfrwt>
<pdfrwt beam="2">  1       -1 0.78707690E-01 0.41711515E+03</pdfrwt>
<totfact> 0.82534243E+01</totfact>
</mgrwt>
</event>
<event>
12    1  0.3127365E-008  0.3208491E+03  0.7818608E-02  0.1075259E+00
          2   -1    0    0  501    0  0.00000000000E+00  0.00000000000E+00  0.36102550976E+03  0.36102550976E+03  0.00000000000E+00 0. -1.
         -2   -1    0    0    0  501 -0.00000000000E+00 -0.00000000000E+00 -0.77582113691E+03  0.77582113691E+03  0.00000000000E+00 0.  1.
         23    2    1    2    0    0  0.42407379174E+02 -0.24851050431E+03  0.12274749471E+03  0.29268853807E+03  0.83927208361E+02 0.  0.
    5000000    2    1    2    0    0 -0.42407379174E+02  0.24851050431E+03 -0.53754312187E+03  0.84415810859E+03  0.60007870140E+03 0.  0.
         23    2    4    4    0    0 -0.93299705497E+02  0.41013940086E+01 -0.56224179629E+03  0.57722302029E+03  0.91372431185E+02 0.  0.
         23    2    4    4    0    0  0.50892326323E+02  0.24440911030E+03  0.24698674422E+02  0.26693508830E+03  0.91205672914E+02 0.  0.
          2    1    3    3  502    0 -0.75125884341E+01 -0.85331774990E+02  0.58833041410E+01  0.85863636514E+02  0.00000000000E+00 0. -1.
         -2    1    3    3    0  502  0.49919967608E+02 -0.16317872932E+03  0.11686419057E+03  0.20682490156E+03  0.00000000000E+00 0.  1.
         13    1    5    5    0    0  0.59154817430E+01  0.27739013767E+02 -0.13919599313E+03  0.14205622237E+03  0.00000000000E+00 0. -1.
        -13    1    5    5    0    0 -0.99215187240E+02 -0.23637619759E+02 -0.42304580316E+03  0.43516679792E+03  0.00000000000E+00 0.  1.
          5    1    6    6  503    0  0.16107048155E+02  0.18697702900E+03  0.51218060940E+02  0.19458989219E+03  0.47000000000E+01 0. -1.
         -5    1    6    6    0  503  0.34785278168E+02  0.57432081293E+02 -0.26519386518E+02  0.72345196110E+02  0.47000000000E+01 0.  1.
<mgrwt>
<rscale>  0 0.32084910E+03</rscale>
<asrwt>0</asrwt>
<pdfrwt beam="1">  1        2 0.55542387E-01 0.32084910E+03</pdfrwt>
<pdfrwt beam="2">  1       -2 0.11935710E+00 0.32084910E+03</pdfrwt>
<totfact> 0.50438947E+01</totfact>
</mgrwt>
</event>
<event>
12    1  0.3127365E-008  0.4524728E+03  0.7818608E-02  0.1026987E+00
          1   -1    0    0  501    0  0.00000000000E+00  0.00000000000E+00  0.73605869153E+03  0.73605869153E+03  0.00000000000E+00 0. -1.
         -1   -1    0    0    0  501 -0.00000000000E+00 -0.00000000000E+00 -0.33901927207E+03  0.33901927207E+03  0.00000000000E+00 0.  1.
         23    2    1    2    0    0  0.29921625379E+02  0.25621711961E+03 -0.58395475534E+02  0.27887968606E+03  0.88438293082E+02 0.  0.
    5000000    2    1    2    0    0 -0.29921625379E+02 -0.25621711961E+03  0.45543489499E+03  0.79619827755E+03  0.59997353071E+03 0.  0.
         23    2    4    4    0    0 -0.29434098423E+02  0.18182172121E+03  0.15496356181E+03  0.25728006134E+03  0.90850536709E+02 0.  0.
         23    2    4    4    0    0 -0.48752695672E+00 -0.43803884083E+03  0.30047133318E+03  0.53891821621E+03  0.90948105769E+02 0.  0.
          3    1    3    3  502    0 -0.51127803017E+01  0.67189746941E+02 -0.54382284197E+02  0.86591197306E+02  0.00000000000E+00 0. -1.
         -3    1    3    3    0  502  0.35034405681E+02  0.18902737267E+03 -0.40131913366E+01  0.19228848875E+03  0.00000000000E+00 0.  1.
         11    1    5    5    0    0 -0.51785465488E+02  0.72199776408E+02  0.96031159030E+02  0.13083014046E+03  0.00000000000E+00 0.  1.
        -11    1    5    5    0    0  0.22351367065E+02  0.10962194480E+03  0.58932402779E+02  0.12644992088E+03  0.00000000000E+00 0. -1.
          5    1    6    6  503    0  0.29053727164E+02 -0.35686228404E+03  0.21696139126E+03  0.41867546397E+03  0.47000000000E+01 0. -1.
         -5    1    6    6    0  503 -0.29541254121E+02 -0.81176556787E+02  0.83509941915E+02  0.12024275224E+03  0.47000000000E+01 0.  1.
<mgrwt>
<rscale>  0 0.45247280E+03</rscale>
<asrwt>0</asrwt>
<pdfrwt beam="1">  1        1 0.11323980E+00 0.45247280E+03</pdfrwt>
<pdfrwt beam="2">  1       -1 0.52156811E-01 0.45247280E+03</pdfrwt>
<totfact> 0.97835206E+01</totfact>
</mgrwt>
</event>
<event>
12    1  0.3127365E-008  0.5402643E+03  0.7818608E-02  0.1003773E+00
         -1   -1    0    0    0  501 -0.00000000000E+00  0.00000000000E+00  0.32729432671E+03  0.32729432671E+03  0.00000000000E+00 0.  1.
          1   -1    0    0  501    0  0.00000000000E+00 -0.00000000000E+00 -0.24336372160E+04  0.24336372160E+04  0.00000000000E+00 0. -1.
         23    2    1    2    0    0  0.87263203365E+02 -0.39551772263E+03  0.10980853515E+03  0.42952635259E+03  0.91574219129E+02 0.  0.
    5000000    2    1    2    0    0 -0.87263203365E+02  0.39551772263E+03 -0.22161514244E+04  0.23314051901E+04  0.60006157091E+03 0.  0.
         23    2    4    4    0    0 -0.37363626836E+02  0.52354405033E+03 -0.13837356297E+04  0.14828225921E+04  0.92434482013E+02 0.  0.
         23    2    4    4    0    0 -0.49899576529E+02 -0.12802632770E+03 -0.83241579474E+03  0.84858259802E+03  0.91080524916E+02 0.  0.
          4    1    3    3  502    0  0.64368139397E+02 -0.21452734803E+03  0.16413026895E+02  0.22457655237E+03  0.00000000000E+00 0. -1.
         -4    1    3    3    0  502  0.22895063968E+02 -0.18099037459E+03  0.93395508252E+02  0.20494980022E+03  0.00000000000E+00 0.  1.
         13    1    5    5    0    0  0.49290378352E+01  0.32234468182E+03 -0.94066266069E+03  0.99437248078E+03  0.00000000000E+00 0. -1.
        -13    1    5    5    0    0 -0.42292664671E+02  0.20119936851E+03 -0.44307296901E+03  0.48845011131E+03  0.00000000000E+00 0.  1.
          5    1    6    6  503    0 -0.34636722178E+02 -0.27829650423E+02 -0.47344217223E+03  0.47554576269E+03  0.47000000000E+01 0. -1.
         -5    1    6    6    0  503 -0.15262854351E+02 -0.10019667728E+03 -0.35897362251E+03  0.37303683534E+03  0.47000000000E+01 0.  1.
<mgrwt>
<rscale>  0 0.54026430E+03</rscale>
<asrwt>0</asrwt>
<pdfrwt beam="1">  1        1 0.37440574E+00 0.54026430E+03</pdfrwt>
<pdfrwt beam="2">  1       -1 0.50352972E-01 0.54026430E+03</pdfrwt>
<totfact> 0.65773232E+00</totfact>
</mgrwt>
</event>
<event>
12    1  0.3127365E-008  0.6039297E+03  0.7818608E-02  0.9897287E-01
          1   -1    0    0  501    0  0.00000000000E+00  0.00000000000E+00  0.96959092572E+03  0.96959092572E+03  0.00000000000E+00 0. -1.
         -1   -1    0    0    0  501 -0.00000000000E+00 -0.00000000000E+00 -0.66059431843E+03  0.66059431843E+03  0.00000000000E+00 0.  1.
         23    2    1    2    0    0 -0.45522334030E+03 -0.39527126403E+02 -0.38561972050E+03  0.60476418573E+03  0.90810066719E+02 0.  0.
    5000000    2    1    2    0    0  0.45522334030E+03  0.39527126403E+02  0.69461632779E+03  0.10254210584E+04  0.60017149295E+03 0.  0.
         23    2    4    4    0    0  0.22724448975E+03  0.30339527624E+03  0.31205774874E+03  0.49988915520E+03  0.93916863053E+02 0.  0.
         23    2    4    4    0    0  0.22797885056E+03 -0.26386814984E+03  0.38255857905E+03  0.52553190323E+03  0.90730138914E+02 0.  0.
          1    1    3    3  502    0 -0.35996755590E+03 -0.13324751571E+02 -0.25660170924E+03  0.44226533607E+03  0.00000000000E+00 0. -1.
         -1    1    3    3    0  502 -0.95255784409E+02 -0.26202374832E+02 -0.12901801127E+03  0.16249884966E+03  0.00000000000E+00 0.  1.
         11    1    5    5    0    0  0.13252988980E+03  0.10524643650E+03  0.15885172397E+03  0.23210957390E+03  0.00000000000E+00 0. -1.
        -11    1    5    5    0    0  0.94714599949E+02  0.19814883974E+03  0.15320602477E+03  0.26777958130E+03  0.00000000000E+00 0.  1.
          5    1    6    6  503    0  0.36476742313E+02 -0.37767155008E+01  0.32728976586E+02  0.49377041407E+02  0.47000000000E+01 0. -1.
         -5    1    6    6    0  503  0.19150210824E+03 -0.26009143434E+03  0.34982960246E+03  0.47615486182E+03  0.47000000000E+01 0.  1.
<mgrwt>
<rscale>  0 0.60392966E+03</rscale>
<asrwt>0</asrwt>
<pdfrwt beam="1">  1        1 0.14916783E+00 0.60392966E+03</pdfrwt>
<pdfrwt beam="2">  1       -1 0.10162990E+00 0.60392966E+03</pdfrwt>
<totfact> 0.15443839E+01</totfact>
</mgrwt>
</event>
<event>
12    1  0.3127365E-008  0.1039146E+04  0.7818608E-02  0.9266622E-01
         -2   -1    0    0    0  501 -0.00000000000E+00  0.00000000000E+00  0.68228820235E+03  0.68228820235E+03  0.00000000000E+00 0.  1.
          2   -1    0    0  501    0  0.00000000000E+00 -0.00000000000E+00 -0.16397014769E+04  0.16397014769E+04  0.00000000000E+00 0. -1.
         23    2    1    2    0    0  0.94883492667E+03  0.20233095502E+03 -0.45747623141E+03  0.10765537780E+04  0.91967392173E+02 0.  0.
    5000000    2    1    2    0    0 -0.94883492667E+03 -0.20233095502E+03 -0.49993704311E+03  0.12454359012E+04  0.59995666800E+03 0.  0.
         23    2    4    4    0    0 -0.30411028603E+03  0.17181710456E+03 -0.29658458228E+03  0.46726317495E+03  0.91478285558E+02 0.  0.
         23    2    4    4    0    0 -0.64472464064E+03 -0.37414805958E+03 -0.20335246083E+03  0.77817272625E+03  0.92433412835E+02 0.  0.
          3    1    3    3  502    0  0.29086967320E+03  0.48683013954E+02 -0.18420860877E+03  0.34771829717E+03  0.00000000000E+00 0. -1.
         -3    1    3    3    0  502  0.65796525347E+03  0.15364794107E+03 -0.27326762264E+03  0.72883548086E+03  0.00000000000E+00 0.  1.
         11    1    5    5    0    0 -0.95680599286E+02  0.10069370106E+03 -0.91518111104E+02  0.16634170605E+03  0.00000000000E+00 0. -1.
        -11    1    5    5    0    0 -0.20842968674E+03  0.71123403499E+02 -0.20506647117E+03  0.30092146889E+03  0.00000000000E+00 0.  1.
          5    1    6    6  503    0 -0.22092241850E+03 -0.16609897494E+03 -0.10624386455E+03  0.29615103111E+03  0.47000000000E+01 0. -1.
         -5    1    6    6    0  503 -0.42380222214E+03 -0.20804908464E+03 -0.97108596283E+02  0.48202169514E+03  0.47000000000E+01 0.  1.
<mgrwt>
<rscale>  0 0.10391460E+04</rscale>
<asrwt>0</asrwt>
<pdfrwt beam="1">  1        2 0.25226176E+00 0.10391460E+04</pdfrwt>
<pdfrwt beam="2">  1       -2 0.10496742E+00 0.10391460E+04</pdfrwt>
<totfact> 0.77329641E+00</totfact>
</mgrwt>
</event>
<event>
12    1  0.3127365E-008  0.6444925E+03  0.7818608E-02  0.9817169E-01
          2   -1    0    0  501    0  0.00000000000E+00  0.00000000000E+00  0.21854424197E+04  0.21854424197E+04  0.00000000000E+00 0. -1.
         -2   -1    0    0    0  501 -0.00000000000E+00 -0.00000000000E+00 -0.31041651769E+03  0.31041651769E+03  0.00000000000E+00 0.  1.
         23    2    1    2    0    0  0.35701677298E+03 -0.41669070658E+03  0.13076688187E+03  0.57143318519E+03  0.91344329868E+02 0.  0.
    5000000    2    1    2    0    0 -0.35701677298E+03  0.41669070658E+03  0.17442590202E+04  0.19244257522E+04  0.59990234646E+03 0.  0.
         23    2    4    4    0    0  0.58580229650E+02  0.27200681532E+03  0.33316719424E+03  0.44354435275E+03  0.91169417315E+02 0.  0.
         23    2    4    4    0    0 -0.41559700263E+03  0.14468389126E+03  0.14110918259E+04  0.14808813995E+04  0.90417261382E+02 0.  0.
          3    1    3    3  502    0  0.45041211196E+02 -0.14642423611E+02  0.99408782398E+01  0.48393515427E+02  0.00000000000E+00 0. -1.
         -3    1    3    3    0  502  0.31197556179E+03 -0.40204828297E+03  0.12082600364E+03  0.52303966977E+03  0.00000000000E+00 0.  1.
         11    1    5    5    0    0  0.65419848625E+02  0.96575613305E+02  0.11938094138E+03  0.16690840256E+03  0.00000000000E+00 0. -1.
        -11    1    5    5    0    0 -0.68396189755E+01  0.17543120201E+03  0.21378625285E+03  0.27663595019E+03  0.00000000000E+00 0.  1.
          5    1    6    6  503    0 -0.25723120158E+03  0.80470634737E+02  0.71564173060E+03  0.76472778862E+03  0.47000000000E+01 0. -1.
         -5    1    6    6    0  503 -0.15836580106E+03  0.64213256527E+02  0.69545009532E+03  0.71615361086E+03  0.47000000000E+01 0.  1.
<mgrwt>
<rscale>  0 0.64449245E+03</rscale>
<asrwt>0</asrwt>
<pdfrwt beam="1">  1        2 0.33622190E+00 0.64449245E+03</pdfrwt>
<pdfrwt beam="2">  1       -2 0.47756389E-01 0.64449245E+03</pdfrwt>
<totfact> 0.23055819E+01</totfact>
</mgrwt>
</event>
<event>
12    1  0.3127365E-008  0.1168617E+04  0.7818608E-02  0.9140779E-01
          2   -1    0    0  501    0  0.00000000000E+00  0.00000000000E+00  0.18055143132E+04  0.18055143132E+04  0.00000000000E+00 0. -1.
         -2   -1    0    0    0  501 -0.00000000000E+00 -0.00000000000E+00 -0.91816510643E+03  0.91816510643E+03  0.00000000000E+00 0.  1.
         23    2    1    2    0    0 -0.10892359083E+04  0.33410153534E+03 -0.26948788831E+02  0.11443945832E+04  0.10418265184E+03 0.  0.
    5000000    2    1    2    0    0  0.10892359083E+04 -0.33410153534E+03  0.91429799560E+03  0.15792848365E+04  0.60011754689E+03 0.  0.
         23    2    4    4    0    0  0.93223648220E+03 -0.16779318834E+03  0.44616577937E+03  0.10502697440E+04  0.82360303639E+02 0.  0.
         23    2    4    4    0    0  0.15699942609E+03 -0.16630834700E+03  0.46813221623E+03  0.52901509249E+03  0.91661933949E+02 0.  0.
          3    1    3    3  502    0 -0.95136681280E+03  0.26830828536E+03  0.42064150259E+01  0.98848664251E+03  0.00000000000E+00 0. -1.
         -3    1    3    3    0  502 -0.13786909549E+03  0.65793249977E+02 -0.31155203857E+02  0.15590794066E+03  0.00000000000E+00 0.  1.
         13    1    5    5    0    0  0.57835524640E+03 -0.13728103547E+03  0.25392213327E+03  0.64638790482E+03  0.00000000000E+00 0.  1.
        -13    1    5    5    0    0  0.35388123580E+03 -0.30512152864E+02  0.19224364610E+03  0.40388183914E+03  0.00000000000E+00 0. -1.
          5    1    6    6  503    0  0.14164380507E+03 -0.88855344845E+02  0.31476456735E+03  0.35645064551E+03  0.47000000000E+01 0. -1.
         -5    1    6    6    0  503  0.15355621017E+02 -0.77453002157E+02  0.15336764888E+03  0.17256444698E+03  0.47000000000E+01 0.  1.
<mgrwt>
<rscale>  0 0.11686168E+04</rscale>
<asrwt>0</asrwt>
<pdfrwt beam="1">  1        2 0.27777143E+00 0.11686168E+04</pdfrwt>
<pdfrwt beam="2">  1       -2 0.14125617E+00 0.11686168E+04</pdfrwt>
<totfact> 0.29356473E+00</totfact>
</mgrwt>
</event>
<event>
12    1  0.3127365E-008  0.1104268E+04  0.7818608E-02  0.9201042E-01
         -1   -1    0    0    0  501 -0.00000000000E+00  0.00000000000E+00  0.52102425424E+03  0.52102425424E+03  0.00000000000E+00 0.  1.
          1   -1    0    0  501    0  0.00000000000E+00 -0.00000000000E+00 -0.25845730063E+04  0.25845730063E+04  0.00000000000E+00 0. -1.
         23    2    1    2    0    0  0.58597321049E+03  0.87779848062E+03 -0.12761967308E+04  0.16585719050E+04  0.91037861919E+02 0.  0.
    5000000    2    1    2    0    0 -0.58597321049E+03 -0.87779848062E+03 -0.78735202128E+03  0.14470253556E+04  0.60005366284E+03 0.  0.
         23    2    4    4    0    0  0.29947328368E+02 -0.24429211257E+02  0.40823387010E+02  0.10464230658E+03  0.88260039427E+02 0.  0.
         23    2    4    4    0    0 -0.61592053886E+03 -0.85336926936E+03 -0.82817540829E+03  0.13423830490E+04  0.92306680569E+02 0.  0.
          1    1    3    3  502    0  0.19273684782E+03  0.34166705406E+03 -0.52544895836E+03  0.65572896549E+03  0.00000000000E+00 0. -1.
         -1    1    3    3    0  502  0.39323636267E+03  0.53613142656E+03 -0.75074777242E+03  0.10028429395E+04  0.00000000000E+00 0.  1.
         13    1    5    5    0    0 -0.49026341758E-01 -0.53384886121E+02  0.31273492911E+02  0.61870670181E+02  0.00000000000E+00 0.  1.
        -13    1    5    5    0    0  0.29996354710E+02  0.28955674864E+02  0.95498940990E+01  0.42771636396E+02  0.00000000000E+00 0. -1.
          5    1    6    6  503    0 -0.20909844356E+02 -0.65885717899E+02 -0.60406167536E+02  0.91919228078E+02  0.47000000000E+01 0. -1.
         -5    1    6    6    0  503 -0.59501069450E+03 -0.78748355147E+03 -0.76776924076E+03  0.12504638209E+04  0.47000000000E+01 0.  1.
<mgrwt>
<rscale>  0 0.11042682E+04</rscale>
<asrwt>0</asrwt>
<pdfrwt beam="1">  1        1 0.39762660E+00 0.11042682E+04</pdfrwt>
<pdfrwt beam="2">  1       -1 0.80157581E-01 0.11042682E+04</pdfrwt>
<totfact> 0.18470312E+00</totfact>
</mgrwt>
</event>
<event>
12    1  0.3127365E-008  0.1268172E+04  0.7818608E-02  0.9055193E-01
          2   -1    0    0  501    0  0.00000000000E+00  0.00000000000E+00  0.31328395684E+04  0.31328395684E+04  0.00000000000E+00 0. -1.
         -2   -1    0    0    0  501 -0.00000000000E+00 -0.00000000000E+00 -0.13008663779E+04  0.13008663779E+04  0.00000000000E+00 0.  1.
         23    2    1    2    0    0 -0.11398539281E+04 -0.40559170273E+03  0.26078960200E+04  0.28761789460E+04  0.86672208760E+02 0.  0.
    5000000    2    1    2    0    0  0.11398539281E+04  0.40559170273E+03 -0.77592282951E+03  0.15575270003E+04  0.60005209175E+03 0.  0.
         23    2    4    4    0    0 -0.73299849103E+01  0.14027849505E+03 -0.73882905929E+02  0.18369371063E+03  0.92481947886E+02 0.  0.
         23    2    4    4    0    0  0.11471839130E+04  0.26531320768E+03 -0.70203992358E+03  0.13738332897E+04  0.90198809769E+02 0.  0.
          4    1    3    3  502    0 -0.47796134854E+03 -0.19494600986E+03  0.10273909974E+04  0.11497753081E+04  0.00000000000E+00 0. -1.
         -4    1    3    3    0  502 -0.66189257951E+03 -0.21064569286E+03  0.15805050225E+04  0.17264036379E+04  0.00000000000E+00 0.  1.
         11    1    5    5    0    0 -0.21706159001E+02  0.38817258467E+02 -0.67740329656E+02  0.81035110634E+02  0.00000000000E+00 0. -1.
        -11    1    5    5    0    0  0.14376174090E+02  0.10146123658E+03 -0.61425762730E+01  0.10265860000E+03  0.00000000000E+00 0.  1.
          5    1    6    6  503    0  0.80526394823E+03  0.16227577082E+03 -0.44928511795E+03  0.93630265370E+03  0.47000000000E+01 0. -1.
         -5    1    6    6    0  503  0.34191996473E+03  0.10303743686E+03 -0.25275480563E+03  0.43753063601E+03  0.47000000000E+01 0.  1.
<mgrwt>
<rscale>  0 0.12681724E+04</rscale>
<asrwt>0</asrwt>
<pdfrwt beam="1">  1        2 0.48197532E+00 0.12681724E+04</pdfrwt>
<pdfrwt beam="2">  1       -2 0.20013329E+00 0.12681724E+04</pdfrwt>
<totfact> 0.18545632E-01</totfact>
</mgrwt>
</event>
<event>
12    1  0.3127365E-008  0.5943024E+03  0.7818608E-02  0.9917298E-01
          2   -1    0    0  501    0  0.00000000000E+00  0.00000000000E+00  0.41943263440E+03  0.41943263440E+03  0.00000000000E+00 0.  1.
         -2   -1    0    0    0  501 -0.00000000000E+00 -0.00000000000E+00 -0.16368263445E+04  0.16368263445E+04  0.00000000000E+00 0. -1.
         23    2    1    2    0    0  0.32969321776E+03  0.36128521386E+03 -0.11806139424E+04  0.12812552968E+04  0.92418780950E+02 0.  0.
    5000000    2    1    2    0    0 -0.32969321776E+03 -0.36128521386E+03 -0.36779767660E+02  0.77500368203E+03  0.60004444190E+03 0.  0.
         23    2    4    4    0    0 -0.42499858948E+03 -0.15909610306E+03 -0.17646331768E+03  0.49492926958E+03  0.88771100749E+02 0.  0.
         23    2    4    4    0    0  0.95305371728E+02 -0.20218911080E+03  0.13968355002E+03  0.28007441245E+03  0.94692301445E+02 0.  0.
          4    1    3    3  502    0  0.14948382269E+03  0.18978458250E+03 -0.69197108050E+03  0.73293081341E+03  0.00000000000E+00 0. -1.
         -4    1    3    3    0  502  0.18020939507E+03  0.17150063137E+03 -0.48864286190E+03  0.54832448342E+03  0.00000000000E+00 0.  1.
         11    1    5    5    0    0 -0.15445109362E+03 -0.37476880044E+02 -0.10283829446E+03  0.18930232873E+03  0.00000000000E+00 0.  1.
        -11    1    5    5    0    0 -0.27054749587E+03 -0.12161922301E+03 -0.73625023229E+02  0.30562694085E+03  0.00000000000E+00 0. -1.
          5    1    6    6  503    0 -0.55798209725E+00 -0.10836370296E+03  0.59136109616E+02  0.12354016725E+03  0.47000000000E+01 0. -1.
         -5    1    6    6    0  503  0.95863353825E+02 -0.93825407840E+02  0.80547440408E+02  0.15653424520E+03  0.47000000000E+01 0.  1.
<mgrwt>
<rscale>  0 0.59430243E+03</rscale>
<asrwt>0</asrwt>
<pdfrwt beam="1">  1        2 0.64528098E-01 0.59430243E+03</pdfrwt>
<pdfrwt beam="2">  1       -2 0.25181943E+00 0.59430243E+03</pdfrwt>
<totfact> 0.49652541E+00</totfact>
</mgrwt>
</event>
<event>
12    1  0.3127365E-008  0.4859282E+03  0.7818608E-02  0.1017519E+00
         -2   -1    0    0    0  501 -0.00000000000E+00  0.00000000000E+00  0.23078870045E+03  0.23078870045E+03  0.00000000000E+00 0.  1.
          2   -1    0    0  501    0  0.00000000000E+00 -0.00000000000E+00 -0.11392380200E+04  0.11392380200E+04  0.00000000000E+00 0. -1.
         23    2    1    2    0    0  0.31772911685E+03 -0.43720892998E+02 -0.39904009028E+03  0.52008954316E+03  0.91634224333E+02 0.  0.
    5000000    2    1    2    0    0 -0.31772911685E+03  0.43720892998E+02 -0.50940922932E+03  0.84993717734E+03  0.60002677800E+03 0.  0.
         23    2    4    4    0    0 -0.45645468940E+03 -0.53355825371E+02 -0.44938723478E+03  0.64882731854E+03  0.88488840687E+02 0.  0.
         23    2    4    4    0    0  0.13872557254E+03  0.97076718369E+02 -0.60021994546E+02  0.20110985880E+03  0.90409411848E+02 0.  0.
          1    1    3    3  502    0  0.13700391403E+03 -0.33086269081E+02 -0.24379161774E+03  0.28160100593E+03  0.00000000000E+00 0. -1.
         -1    1    3    3    0  502  0.18072520283E+03 -0.10634623917E+02 -0.15524847254E+03  0.23848853723E+03  0.00000000000E+00 0.  1.
         13    1    5    5    0    0 -0.15245884232E+03 -0.37995445973E+02 -0.20611153487E+03  0.25917044069E+03  0.00000000000E+00 0.  1.
        -13    1    5    5    0    0 -0.30399584708E+03 -0.15360379398E+02 -0.24327569990E+03  0.38965687785E+03  0.00000000000E+00 0. -1.
          5    1    6    6  503    0  0.66232215386E+02  0.94734968966E+02 -0.55431983549E+02  0.12828178164E+03  0.47000000000E+01 0. -1.
         -5    1    6    6    0  503  0.72493357158E+02  0.23417494027E+01 -0.45900109966E+01  0.72828077163E+02  0.47000000000E+01 0.  1.
<mgrwt>
<rscale>  0 0.48592822E+03</rscale>
<asrwt>0</asrwt>
<pdfrwt beam="1">  1        2 0.17526738E+00 0.48592822E+03</pdfrwt>
<pdfrwt beam="2">  1       -2 0.35505955E-01 0.48592822E+03</pdfrwt>
<totfact> 0.15900695E+02</totfact>
</mgrwt>
</event>
<event>
12    1  0.3127365E-008  0.9902148E+03  0.7818608E-02  0.9319343E-01
         -1   -1    0    0    0  501 -0.00000000000E+00  0.00000000000E+00  0.86465364627E+03  0.86465364627E+03  0.00000000000E+00 0.  1.
          1   -1    0    0  501    0  0.00000000000E+00 -0.00000000000E+00 -0.12717761674E+04  0.12717761674E+04  0.00000000000E+00 0. -1.
         23    2    1    2    0    0  0.74089251200E+03 -0.60990134168E+03 -0.14576135160E+03  0.97488588646E+03  0.90855704707E+02 0.  0.
    5000000    2    1    2    0    0 -0.74089251200E+03  0.60990134168E+03 -0.26136116948E+03  0.11615439272E+04  0.59997772699E+03 0.  0.
         23    2    4    4    0    0 -0.32456702292E+03  0.46032722001E+03 -0.39100068650E+03  0.69182656711E+03  0.92182212259E+02 0.  0.
         23    2    4    4    0    0 -0.41632548908E+03  0.14957412167E+03  0.12963951702E+03  0.46971736005E+03  0.90159099541E+02 0.  0.
          4    1    3    3  502    0  0.14493131368E+03 -0.16384677447E+03 -0.49571304025E+02  0.22429481798E+03  0.00000000000E+00 0.  1.
         -4    1    3    3    0  502  0.59596119832E+03 -0.44605456721E+03 -0.96190047578E+02  0.75059106849E+03  0.00000000000E+00 0. -1.
         11    1    5    5    0    0 -0.63182543946E+02  0.52871381695E+02 -0.28949126842E+02  0.87323930321E+02  0.00000000000E+00 0.  1.
        -11    1    5    5    0    0 -0.26138447898E+03  0.40745583832E+03 -0.36205155966E+03  0.60450263679E+03  0.00000000000E+00 0. -1.
          5    1    6    6  503    0 -0.27519186505E+03  0.54517575581E+02  0.93031051758E+02  0.29560039789E+03  0.47000000000E+01 0. -1.
         -5    1    6    6    0  503 -0.14113362403E+03  0.95056546090E+02  0.36608465263E+02  0.17411696217E+03  0.47000000000E+01 0.  1.
<mgrwt>
<rscale>  0 0.99021478E+03</rscale>
<asrwt>0</asrwt>
<pdfrwt beam="1">  1        1 0.19565787E+00 0.99021478E+03</pdfrwt>
<pdfrwt beam="2">  1       -1 0.13302364E+00 0.99021478E+03</pdfrwt>
<totfact> 0.45559776E+00</totfact>
</mgrwt>
</event>
<event>
12    1  0.3127365E-008  0.8249756E+03  0.7818608E-02  0.9524553E-01
          2   -1    0    0  501    0  0.00000000000E+00  0.00000000000E+00  0.14084589387E+04  0.14084589387E+04  0.00000000000E+00 0.  1.
         -2   -1    0    0    0  501 -0.00000000000E+00 -0.00000000000E+00 -0.49457340894E+03  0.49457340894E+03  0.00000000000E+00 0. -1.
         23    2    1    2    0    0  0.40921495675E+03  0.59492369456E+03  0.44898959483E+03  0.85504928374E+03  0.90147313794E+02 0.  0.
    5000000    2    1    2    0    0 -0.40921495675E+03 -0.59492369456E+03  0.46489593498E+03  0.10479830640E+04  0.60062399951E+03 0.  0.
         23    2    4    4    0    0  0.20708837845E+02 -0.47200968637E+03  0.27172224676E+03  0.55250129721E+03  0.90568780724E+02 0.  0.
         23    2    4    4    0    0 -0.42992379459E+03 -0.12291400819E+03  0.19317368822E+03  0.49548176674E+03  0.90795290544E+02 0.  0.
          4    1    3    3  502    0  0.29257402665E+03  0.43435595479E+03  0.37106952267E+03  0.64183895736E+03  0.00000000000E+00 0. -1.
         -4    1    3    3    0  502  0.11664093010E+03  0.16056773977E+03  0.77920072154E+02  0.21321032638E+03  0.00000000000E+00 0.  1.
         11    1    5    5    0    0  0.93969376153E+01 -0.17840474278E+02 -0.47012308492E+01  0.20704746569E+02  0.00000000000E+00 0. -1.
        -11    1    5    5    0    0  0.11311900230E+02 -0.45416921209E+03  0.27642347761E+03  0.53179655064E+03  0.00000000000E+00 0.  1.
          5    1    6    6  503    0 -0.18755532606E+03 -0.91929965768E+02  0.11722557816E+03  0.23956636892E+03  0.47000000000E+01 0. -1.
         -5    1    6    6    0  503 -0.24236846853E+03 -0.30984042424E+02  0.75948110064E+02  0.25591539782E+03  0.47000000000E+01 0.  1.
<mgrwt>
<rscale>  0 0.82497557E+03</rscale>
<asrwt>0</asrwt>
<pdfrwt beam="1">  1        2 0.21668599E+00 0.82497557E+03</pdfrwt>
<pdfrwt beam="2">  1       -2 0.76088217E-01 0.82497557E+03</pdfrwt>
<totfact> 0.22434489E+01</totfact>
</mgrwt>
</event>
<event>
12    1  0.3127365E-008  0.4120427E+03  0.7818608E-02  0.1039688E+00
         -1   -1    0    0    0  501 -0.00000000000E+00  0.00000000000E+00  0.10871892992E+03  0.10871892992E+03  0.00000000000E+00 0.  1.
          1   -1    0    0  501    0  0.00000000000E+00 -0.00000000000E+00 -0.27809818619E+04  0.27809818619E+04  0.00000000000E+00 0. -1.
         23    2    1    2    0    0 -0.37073762696E+03  0.16564129433E+02 -0.11442883194E+04  0.12067565320E+04  0.95628506582E+02 0.  0.
    5000000    2    1    2    0    0  0.37073762696E+03 -0.16564129433E+02 -0.15279746126E+04  0.16829442598E+04  0.59989516285E+03 0.  0.
         23    2    4    4    0    0  0.36516548014E+03 -0.80212457396E+02 -0.42018409680E+03  0.56966931154E+03  0.90490790107E+02 0.  0.
         23    2    4    4    0    0  0.55721468176E+01  0.63648327963E+02 -0.11077905158E+04  0.11132749483E+04  0.89995139054E+02 0.  0.
          2    1    3    3  502    0 -0.24276553626E+03  0.27780882817E+02 -0.87364335493E+03  0.90717120471E+03  0.00000000000E+00 0. -1.
         -2    1    3    3    0  502 -0.12797209070E+03 -0.11216753384E+02 -0.27064496444E+03  0.29958532729E+03  0.00000000000E+00 0.  1.
         13    1    5    5    0    0  0.30254880797E+03 -0.99025109760E+02 -0.33289747346E+03  0.46061098706E+03  0.00000000000E+00 0.  1.
        -13    1    5    5    0    0  0.62616672173E+02  0.18812652364E+02 -0.87286623344E+02  0.10905832448E+03  0.00000000000E+00 0. -1.
          5    1    6    6  503    0  0.13004203720E+02  0.38663692281E+02 -0.16230884632E+03  0.16742234621E+03  0.47000000000E+01 0. -1.
         -5    1    6    6    0  503 -0.74320569026E+01  0.24984635682E+02 -0.94548166949E+03  0.94585260206E+03  0.47000000000E+01 0.  1.
<mgrwt>
<rscale>  0 0.41204268E+03</rscale>
<asrwt>0</asrwt>
<pdfrwt beam="1">  1        1 0.42784332E+00 0.41204268E+03</pdfrwt>
<pdfrwt beam="2">  1       -1 0.16725991E-01 0.41204268E+03</pdfrwt>
<totfact> 0.26565525E+01</totfact>
</mgrwt>
</event>
<event>
12    1  0.3127365E-008  0.8858039E+03  0.7818608E-02  0.9443503E-01
          1   -1    0    0  501    0  0.00000000000E+00  0.00000000000E+00  0.29250303239E+04  0.29250303239E+04  0.00000000000E+00 0. -1.
         -1   -1    0    0    0  501 -0.00000000000E+00 -0.00000000000E+00 -0.32179509590E+03  0.32179509590E+03  0.00000000000E+00 0.  1.
         23    2    1    2    0    0  0.10367927610E+03  0.84128658383E+03  0.15441945713E+04  0.17634585861E+04  0.82078025907E+02 0.  0.
    5000000    2    1    2    0    0 -0.10367927610E+03 -0.84128658383E+03  0.10590406567E+04  0.14833668337E+04  0.60024790077E+03 0.  0.
         23    2    4    4    0    0 -0.14883996862E+03 -0.15348032235E+03  0.20118960672E+02  0.23338282080E+03  0.91395967405E+02 0.  0.
         23    2    4    4    0    0  0.45160692523E+02 -0.68780626148E+03  0.10389216960E+04  0.12499840129E+04  0.89357711374E+02 0.  0.
          4    1    3    3  502    0  0.54365842673E+02  0.23300967371E+03  0.49192639130E+03  0.54702900046E+03  0.00000000000E+00 0. -1.
         -4    1    3    3    0  502  0.49313433424E+02  0.60827691013E+03  0.10522681800E+04  0.12164295856E+04  0.00000000000E+00 0.  1.
         13    1    5    5    0    0 -0.45393510710E+02 -0.10443615053E+03 -0.11929443422E+02  0.11449799986E+03  0.00000000000E+00 0.  1.
        -13    1    5    5    0    0 -0.10344645791E+03 -0.49044171815E+02  0.32048404094E+02  0.11888482093E+03  0.00000000000E+00 0. -1.
          5    1    6    6  503    0  0.71561271242E+01 -0.56512387146E+03  0.87543158693E+03  0.10420262730E+04  0.47000000000E+01 0. -1.
         -5    1    6    6    0  503  0.38004565399E+02 -0.12268239002E+03  0.16349010907E+03  0.20795773988E+03  0.47000000000E+01 0. -1.
<mgrwt>
<rscale>  0 0.88580389E+03</rscale>
<asrwt>0</asrwt>
<pdfrwt beam="1">  1        1 0.45000465E+00 0.88580389E+03</pdfrwt>
<pdfrwt beam="2">  1       -1 0.49506940E-01 0.88580389E+03</pdfrwt>
<totfact> 0.28952030E+00</totfact>
</mgrwt>
</event>
<event>
12    1  0.3127365E-008  0.9920692E+03  0.7818608E-02  0.9317286E-01
         -2   -1    0    0    0  501 -0.00000000000E+00  0.00000000000E+00  0.93721801839E+03  0.93721801839E+03  0.00000000000E+00 0.  1.
          2   -1    0    0  501    0  0.00000000000E+00 -0.00000000000E+00 -0.11317592466E+04  0.11317592466E+04  0.00000000000E+00 0. -1.
         23    2    1    2    0    0  0.88473232183E+03 -0.28881933474E+03  0.44072726284E+02  0.93625478058E+03  0.91993040727E+02 0.  0.
    5000000    2    1    2    0    0 -0.88473232183E+03  0.28881933474E+03 -0.23861395445E+03  0.11327224844E+04  0.59996309713E+03 0.  0.
         23    2    4    4    0    0 -0.35217044651E+03  0.37308988815E+03 -0.26664005319E+03  0.58503655306E+03  0.89167047782E+02 0.  0.
         23    2    4    4    0    0 -0.53256187533E+03 -0.84270553414E+02  0.28026098743E+02  0.54768593131E+03  0.91927906118E+02 0.  0.
          3    1    3    3  502    0  0.67185678840E+03 -0.20375685814E+03 -0.37209500643E+01  0.70208421633E+03  0.00000000000E+00 0. -1.
         -3    1    3    3    0  502  0.21287553343E+03 -0.85062476604E+02  0.47793676349E+02  0.23417056424E+03  0.00000000000E+00 0.  1.
         13    1    5    5    0    0 -0.16468168247E+03  0.16005232883E+03 -0.16821292019E+03  0.28466188895E+03  0.00000000000E+00 0.  1.
        -13    1    5    5    0    0 -0.18748876404E+03  0.21303755933E+03 -0.98427133006E+02  0.30037466410E+03  0.00000000000E+00 0. -1.
          5    1    6    6  503    0 -0.41141703857E+03 -0.61073012637E+02 -0.16988580675E+02  0.41629868408E+03  0.47000000000E+01 0. -1.
         -5    1    6    6    0  503 -0.12114483676E+03 -0.23197540777E+02  0.45014679418E+02  0.13138724723E+03  0.47000000000E+01 0.  1.
<mgrwt>
<rscale>  0 0.99206922E+03</rscale>
<asrwt>0</asrwt>
<pdfrwt beam="1">  1        2 0.17411681E+00 0.99206922E+03</pdfrwt>
<pdfrwt beam="2">  1       -2 0.14418739E+00 0.99206922E+03</pdfrwt>
<totfact> 0.68725591E+00</totfact>
</mgrwt>
</event>
<event>
12    1  0.3127365E-008  0.1469228E+04  0.7818608E-02  0.8905178E-01
          2   -1    0    0  501    0  0.00000000000E+00  0.00000000000E+00  0.20202264364E+04  0.20202264364E+04  0.00000000000E+00 0.  1.
         -2   -1    0    0    0  501 -0.00000000000E+00 -0.00000000000E+00 -0.14707042888E+04  0.14707042888E+04  0.00000000000E+00 0. -1.
         23    2    1    2    0    0  0.55132504498E+03 -0.13376368859E+04 -0.57877167251E+03  0.15605598218E+04  0.84490027056E+02 0.  0.
    5000000    2    1    2    0    0 -0.55132504498E+03  0.13376368859E+04  0.11282938201E+04  0.19303709034E+04  0.60004427872E+03 0.  0.
         23    2    4    4    0    0  0.16296218858E+02  0.19500644812E+03  0.40972668826E+03  0.46328871840E+03  0.92018454507E+02 0.  0.
         23    2    4    4    0    0 -0.56762126383E+03  0.11426304378E+04  0.71856713189E+03  0.14670821850E+04  0.90516286065E+02 0.  0.
          1    1    3    3  502    0  0.36728831156E+03 -0.80751883646E+03 -0.32636716002E+03  0.94525282236E+03  0.00000000000E+00 0. -1.
         -1    1    3    3    0  502  0.18403673341E+03 -0.53011804944E+03 -0.25240451248E+03  0.61530699940E+03  0.00000000000E+00 0.  1.
         11    1    5    5    0    0  0.23539193096E+02  0.20059946257E+03  0.36055262529E+03  0.41327041220E+03  0.00000000000E+00 0.  1.
        -11    1    5    5    0    0 -0.72429742376E+01 -0.55930144538E+01  0.49174062971E+02  0.50018306204E+02  0.00000000000E+00 0. -1.
          5    1    6    6  503    0 -0.10829192450E+02  0.57336688069E+01  0.78620778624E+01  0.15298648157E+02  0.47000000000E+01 0.  1.
         -5    1    6    6    0  503 -0.55679207138E+03  0.11368967690E+04  0.71070505402E+03  0.14517835369E+04  0.47000000000E+01 0.  1.
<mgrwt>
<rscale>  0 0.14692283E+04</rscale>
<asrwt>0</asrwt>
<pdfrwt beam="1">  1        2 0.31080407E+00 0.14692283E+04</pdfrwt>
<pdfrwt beam="2">  1       -2 0.22626220E+00 0.14692283E+04</pdfrwt>
<totfact> 0.55289094E-01</totfact>
</mgrwt>
</event>
<event>
12    1  0.3127365E-008  0.4793634E+03  0.7818608E-02  0.1019310E+00
          3   -1    0    0  501    0  0.00000000000E+00  0.00000000000E+00  0.49966928330E+03  0.49966928330E+03  0.00000000000E+00 0. -1.
         -3   -1    0    0    0  501 -0.00000000000E+00 -0.00000000000E+00 -0.79712021845E+03  0.79712021845E+03  0.00000000000E+00 0.  1.
         23    2    1    2    0    0 -0.47205720890E+03  0.23157131125E+02 -0.11060243007E+02  0.48109173592E+03  0.89177733723E+02 0.  0.
    5000000    2    1    2    0    0  0.47205720890E+03 -0.23157131125E+02 -0.28639069214E+03  0.81569776583E+03  0.59997412898E+03 0.  0.
         23    2    4    4    0    0  0.21218401426E+03 -0.34263187989E+02  0.16567902689E+03  0.28631292291E+03  0.91266247412E+02 0.  0.
         23    2    4    4    0    0  0.25987319465E+03  0.11106056864E+02 -0.45206971904E+03  0.52938484292E+03  0.90685496367E+02 0.  0.
          1    1    3    3  502    0 -0.22877507533E+03 -0.21940665914E+02  0.24482621610E+02  0.23112513207E+03  0.00000000000E+00 0. -1.
         -1    1    3    3    0  502 -0.24328213357E+03  0.45097797039E+02 -0.35542864617E+02  0.24996660385E+03  0.00000000000E+00 0.  1.
         11    1    5    5    0    0  0.40465408856E+02 -0.51439437314E+01 -0.66130192417E+01  0.41323619087E+02  0.00000000000E+00 0. -1.
        -11    1    5    5    0    0  0.17171860540E+03 -0.29119244258E+02  0.17229204613E+03  0.24498930382E+03  0.00000000000E+00 0.  1.
          5    1    6    6  503    0  0.63574894574E+00 -0.47983539097E+01 -0.51625896194E+02  0.52064878132E+02  0.47000000000E+01 0.  1.
         -5    1    6    6    0  503  0.25923744570E+03  0.15904410773E+02 -0.40044382284E+03  0.47731996479E+03  0.47000000000E+01 0.  1.
<mgrwt>
<rscale>  0 0.47936339E+03</rscale>
<asrwt>0</asrwt>
<pdfrwt beam="1">  1        3 0.76872198E-01 0.47936339E+03</pdfrwt>
<pdfrwt beam="2">  1       -3 0.12263388E+00 0.47936339E+03</pdfrwt>
<totfact> 0.22326173E+00</totfact>
</mgrwt>
</event>
<event>
12    1  0.3127365E-008  0.6678478E+03  0.7818608E-02  0.9773854E-01
         -1   -1    0    0    0  501 -0.00000000000E+00  0.00000000000E+00  0.83021699109E+03  0.83021699109E+03  0.00000000000E+00 0.  1.
          1   -1    0    0  501    0  0.00000000000E+00 -0.00000000000E+00 -0.69098896833E+03  0.69098896833E+03  0.00000000000E+00 0. -1.
         23    2    1    2    0    0  0.39251967731E+03 -0.46903413868E+03  0.22888477703E+03  0.65916359607E+03  0.89686592666E+02 0.  0.
    5000000    2    1    2    0    0 -0.39251967731E+03  0.46903413868E+03 -0.89656754264E+02  0.86204236335E+03  0.60084439109E+03 0.  0.
         23    2    4    4    0    0 -0.28212060660E+03  0.73256567810E+02  0.18666334932E+03  0.35837711825E+03  0.92910664128E+02 0.  0.
         23    2    4    4    0    0 -0.11039907071E+03  0.39577757087E+03 -0.27632010359E+03  0.50366524510E+03  0.92184809272E+02 0.  0.
          1    1    3    3  502    0  0.33177651394E+02 -0.61235530868E+02  0.54201030547E+02  0.88251337129E+02  0.00000000000E+00 0. -1.
         -1    1    3    3    0  502  0.35934202592E+03 -0.40779860781E+03  0.17468374648E+03  0.57091225894E+03  0.00000000000E+00 0.  1.
         13    1    5    5    0    0 -0.79518347626E+01 -0.15511894201E+02  0.70379076232E+01  0.18798475510E+02  0.00000000000E+00 0.  1.
        -13    1    5    5    0    0 -0.27416877184E+03  0.88768462011E+02  0.17962544170E+03  0.33957864274E+03  0.00000000000E+00 0. -1.
          5    1    6    6  503    0 -0.20263633027E+01  0.12646088964E+03 -0.52295447520E+02  0.13694293186E+03  0.47000000000E+01 0. -1.
         -5    1    6    6    0  503 -0.10837270741E+03  0.26931668123E+03 -0.22402465607E+03  0.36672231324E+03  0.47000000000E+01 0.  1.
<mgrwt>
<rscale>  0 0.66784783E+03</rscale>
<asrwt>0</asrwt>
<pdfrwt beam="1">  1        1 0.10630599E+00 0.66784783E+03</pdfrwt>
<pdfrwt beam="2">  1       -1 0.12772569E+00 0.66784783E+03</pdfrwt>
<totfact> 0.15308353E+01</totfact>
</mgrwt>
</event>
<event>
12    1  0.3127365E-008  0.4867026E+03  0.7818608E-02  0.1017309E+00
         -2   -1    0    0    0  501 -0.00000000000E+00  0.00000000000E+00  0.96439083794E+03  0.96439083794E+03  0.00000000000E+00 0.  1.
          2   -1    0    0  501    0  0.00000000000E+00 -0.00000000000E+00 -0.28207524820E+03  0.28207524820E+03  0.00000000000E+00 0. -1.
         23    2    1    2    0    0  0.16967843546E+02  0.31060793910E+03  0.40101692174E+03  0.51433009914E+03  0.83400718318E+02 0.  0.
    5000000    2    1    2    0    0 -0.16967843546E+02 -0.31060793910E+03  0.28129866800E+03  0.73213598700E+03  0.60010745979E+03 0.  0.
         23    2    4    4    0    0  0.27705256848E+03 -0.14413362311E+03  0.12307377724E+03  0.35041649658E+03  0.10055813947E+03 0.  0.
         23    2    4    4    0    0 -0.29402041203E+03 -0.16647431599E+03  0.15822489076E+03  0.38171949042E+03  0.80702866964E+02 0.  0.
          1    1    3    3  502    0 -0.31786432698E+02  0.11325777808E+03  0.12653036912E+03  0.17276468363E+03  0.00000000000E+00 0. -1.
         -1    1    3    3    0  502  0.48754276244E+02  0.19735016102E+03  0.27448655262E+03  0.34156541552E+03  0.00000000000E+00 0.  1.
         11    1    5    5    0    0  0.45672294154E+02 -0.38734183078E+02  0.67354400689E+02  0.90127191702E+02  0.00000000000E+00 0. -1.
        -11    1    5    5    0    0  0.23138027433E+03 -0.10539944003E+03  0.55719376548E+02  0.26028930487E+03  0.00000000000E+00 0.  1.
          5    1    6    6  503    0 -0.59414087491E+02 -0.27623242120E+02 -0.15298736026E+01  0.65707745440E+02  0.47000000000E+01 0. -1.
         -5    1    6    6    0  503 -0.23460632454E+03 -0.13885107387E+03  0.15975476437E+03  0.31601174498E+03  0.47000000000E+01 0.  1.
<mgrwt>
<rscale>  0 0.48670256E+03</rscale>
<asrwt>0</asrwt>
<pdfrwt beam="1">  1        2 0.43396193E-01 0.48670256E+03</pdfrwt>
<pdfrwt beam="2">  1       -2 0.14836782E+00 0.48670256E+03</pdfrwt>
<totfact> 0.37461253E+01</totfact>
</mgrwt>
</event>
<event>
12    1  0.3127365E-008  0.8480843E+03  0.7818608E-02  0.9492912E-01
         -2   -1    0    0    0  501 -0.00000000000E+00  0.00000000000E+00  0.68175890587E+03  0.68175890587E+03  0.00000000000E+00 0. -1.
          2   -1    0    0  501    0  0.00000000000E+00 -0.00000000000E+00 -0.11037219935E+04  0.11037219935E+04  0.00000000000E+00 0.  1.
         23    2    1    2    0    0 -0.64097396184E+03  0.40623736670E+03 -0.13100761749E+03  0.77555274057E+03  0.91883838063E+02 0.  0.
    5000000    2    1    2    0    0  0.64097396184E+03 -0.40623736670E+03 -0.29095547017E+03  0.10099281588E+04  0.59951929287E+03 0.  0.
         23    2    4    4    0    0 -0.19594756690E+02  0.94352836025E+02 -0.34196388306E+02  0.13754872875E+03  0.91999172020E+02 0.  0.
         23    2    4    4    0    0  0.66056871853E+03 -0.50059020273E+03 -0.25675908187E+03  0.87237943008E+03  0.90438160859E+02 0.  0.
          1    1    3    3  502    0 -0.32706270999E+03  0.26089612718E+03 -0.65213420467E+02  0.42342602147E+03  0.00000000000E+00 0. -1.
         -1    1    3    3    0  502 -0.31391125185E+03  0.14534123952E+03 -0.65794197021E+02  0.35212671910E+03  0.00000000000E+00 0.  1.
         11    1    5    5    0    0 -0.20425236983E+02  0.97564129040E+02  0.34670535398E+01  0.99739510934E+02  0.00000000000E+00 0.  1.
        -11    1    5    5    0    0  0.83048029322E+00 -0.32112930147E+01 -0.37663441846E+02  0.37809217818E+02  0.00000000000E+00 0. -1.
          5    1    6    6  503    0  0.31938690464E+03 -0.24151885235E+03 -0.17112760004E+03  0.43548374986E+03  0.47000000000E+01 0. -1.
         -5    1    6    6    0  503  0.34118181389E+03 -0.25907135038E+03 -0.85631481823E+02  0.43689568022E+03  0.47000000000E+01 0.  1.
<mgrwt>
<rscale>  0 0.84808435E+03</rscale>
<asrwt>0</asrwt>
<pdfrwt beam="1">  1        2 0.16980338E+00 0.84808435E+03</pdfrwt>
<pdfrwt beam="2">  1       -2 0.10488599E+00 0.84808435E+03</pdfrwt>
<totfact> 0.16091406E+01</totfact>
</mgrwt>
</event>
<event>
12    1  0.3127365E-008  0.8627036E+03  0.7818608E-02  0.9473443E-01
          1   -1    0    0  501    0  0.00000000000E+00  0.00000000000E+00  0.38520725081E+04  0.38520725081E+04  0.00000000000E+00 0. -1.
         -1   -1    0    0    0  501 -0.00000000000E+00 -0.00000000000E+00 -0.26377845976E+03  0.26377845976E+03  0.00000000000E+00 0.  1.
         23    2    1    2    0    0 -0.45407837889E+03 -0.61545089472E+03  0.26691405256E+04  0.27780163070E+04  0.89980436296E+02 0.  0.
    5000000    2    1    2    0    0  0.45407837889E+03  0.61545089472E+03  0.91915352279E+03  0.13378346608E+04  0.59999283605E+03 0.  0.
         23    2    4    4    0    0  0.29508165535E+03 -0.13788875981E+02  0.21467148343E+03  0.37554694828E+03  0.87683226110E+02 0.  0.
         23    2    4    4    0    0  0.15899672354E+03  0.62923977070E+03  0.70448203936E+03  0.96228771256E+03  0.92087191512E+02 0.  0.
          3    1    3    3  502    0 -0.13814396930E+03 -0.19219394877E+03  0.68304753545E+03  0.72289432553E+03  0.00000000000E+00 0. -1.
         -3    1    3    3    0  502 -0.31593440959E+03 -0.42325694594E+03  0.19860929901E+04  0.20551219815E+04  0.00000000000E+00 0.  1.
         11    1    5    5    0    0  0.15420694023E+02 -0.23609593240E+02  0.16826339561E+02  0.32838032830E+02  0.00000000000E+00 0.  1.
        -11    1    5    5    0    0  0.27966096133E+03  0.98207172592E+01  0.19784514387E+03  0.34270891545E+03  0.00000000000E+00 0. -1.
          5    1    6    6  503    0  0.96057943038E+02  0.24629815289E+03  0.33123306558E+03  0.42382465982E+03  0.47000000000E+01 0. -1.
         -5    1    6    6    0  503  0.62938780501E+02  0.38294161780E+03  0.37324897378E+03  0.53846305274E+03  0.47000000000E+01 0.  1.
<mgrwt>
<rscale>  0 0.86270361E+03</rscale>
<asrwt>0</asrwt>
<pdfrwt beam="1">  1        1 0.59262650E+00 0.86270361E+03</pdfrwt>
<pdfrwt beam="2">  1       -1 0.40581304E-01 0.86270361E+03</pdfrwt>
<totfact> 0.82189138E-01</totfact>
</mgrwt>
</event>
<event>
12    1  0.3214037E-008  0.1222761E+04  0.7818608E-02  0.9093164E-01
         -1   -1    0    0    0  501 -0.00000000000E+00  0.00000000000E+00  0.10285935394E+04  0.10285935394E+04  0.00000000000E+00 0.  1.
          1   -1    0    0  501    0  0.00000000000E+00 -0.00000000000E+00 -0.24474957678E+04  0.24474957678E+04  0.00000000000E+00 0. -1.
         23    2    1    2    0    0  0.97745743540E+03 -0.65331685378E+03  0.38537933259E+03  0.12405248061E+04  0.90214272943E+02 0.  0.
    5000000    2    1    2    0    0 -0.97745743540E+03  0.65331685378E+03 -0.18042815610E+04  0.22355645011E+04  0.60005894508E+03 0.  0.
         23    2    4    4    0    0 -0.69955463719E+03  0.19501665762E+03 -0.74326862653E+03  0.10432163590E+04  0.91890876815E+02 0.  0.
         23    2    4    4    0    0 -0.27790279821E+03  0.45830019616E+03 -0.10610129345E+04  0.11923481421E+04  0.93148321540E+02 0.  0.
          4    1    3    3  502    0  0.44810352077E+03 -0.26019718050E+03  0.13743775823E+03  0.53608625748E+03  0.00000000000E+00 0.  1.
         -4    1    3    3    0  502  0.52935391463E+03 -0.39311967328E+03  0.24794157436E+03  0.70443854860E+03  0.00000000000E+00 0. -1.
         13    1    5    5    0    0 -0.50618124077E+03  0.18277009869E+03 -0.55371218331E+03  0.77215383146E+03  0.00000000000E+00 0.  1.
        -13    1    5    5    0    0 -0.19337339642E+03  0.12246558931E+02 -0.18955644321E+03  0.27106252749E+03  0.00000000000E+00 0. -1.
          5    1    6    6  503    0 -0.13930026706E+03  0.23191579373E+03 -0.43387407884E+03  0.51132993857E+03  0.47000000000E+01 0. -1.
         -5    1    6    6    0  503 -0.13860253115E+03  0.22638440243E+03 -0.62713885565E+03  0.68101820356E+03  0.47000000000E+01 0.  1.
<mgrwt>
<rscale>  0 0.12227610E+04</rscale>
<asrwt>0</asrwt>
<pdfrwt beam="1">  1        1 0.37653780E+00 0.12227610E+04</pdfrwt>
<pdfrwt beam="2">  1       -1 0.15824516E+00 0.12227610E+04</pdfrwt>
<totfact> 0.43629557E-01</totfact>
</mgrwt>
</event>
<event>
12    1  0.3127365E-008  0.9161842E+03  0.7818608E-02  0.9405573E-01
          2   -1    0    0  501    0  0.00000000000E+00  0.00000000000E+00  0.14061292571E+04  0.14061292571E+04  0.00000000000E+00 0. -1.
         -2   -1    0    0    0  501 -0.00000000000E+00 -0.00000000000E+00 -0.99711363539E+03  0.99711363539E+03  0.00000000000E+00 0.  1.
         23    2    1    2    0    0 -0.12117690488E+03 -0.86841499410E+03 -0.49227929725E+03  0.10100689760E+04  0.95246970990E+02 0.  0.
    5000000    2    1    2    0    0  0.12117690488E+03  0.86841499410E+03  0.90129491895E+03  0.13931739165E+04  0.59981045873E+03 0.  0.
         23    2    4    4    0    0  0.24887105814E+03  0.48241492949E+03  0.78744168254E+03  0.96080617733E+03  0.91777661821E+02 0.  0.
         23    2    4    4    0    0 -0.12769415326E+03  0.38600006461E+03  0.11385323641E+03  0.43236773916E+03  0.93152862388E+02 0.  0.
          1    1    3    3  502    0 -0.36410494418E+02 -0.36505608433E+03 -0.25750846731E+03  0.44822123951E+03  0.00000000000E+00 0. -1.
         -1    1    3    3    0  502 -0.84766410462E+02 -0.50335890977E+03 -0.23477082994E+03  0.56184773647E+03  0.00000000000E+00 0.  1.
         13    1    5    5    0    0  0.18525428816E+03  0.34416402956E+03  0.49092086342E+03  0.62751201157E+03  0.00000000000E+00 0. -1.
        -13    1    5    5    0    0  0.63616769984E+02  0.13825089993E+03  0.29652081912E+03  0.33329416576E+03  0.00000000000E+00 0.  1.
          5    1    6    6  503    0 -0.51569113612E+02  0.25690304558E+03  0.39597585547E+02  0.26504453794E+03  0.47000000000E+01 0. -1.
         -5    1    6    6    0  503 -0.76125039650E+02  0.12909701902E+03  0.74255650864E+02  0.16732320122E+03  0.47000000000E+01 0.  1.
<mgrwt>
<rscale>  0 0.91618423E+03</rscale>
<asrwt>0</asrwt>
<pdfrwt beam="1">  1        2 0.21632758E+00 0.91618423E+03</pdfrwt>
<pdfrwt beam="2">  1       -2 0.15340210E+00 0.91618423E+03</pdfrwt>
<totfact> 0.40593713E+00</totfact>
</mgrwt>
</event>
<event>
12    1  0.3127365E-008  0.7525293E+03  0.7818608E-02  0.9631391E-01
          2   -1    0    0  501    0  0.00000000000E+00  0.00000000000E+00  0.13376891882E+04  0.13376891882E+04  0.00000000000E+00 0. -1.
         -2   -1    0    0    0  501 -0.00000000000E+00 -0.00000000000E+00 -0.11437841990E+04  0.11437841990E+04  0.00000000000E+00 0.  1.
         23    2    1    2    0    0 -0.65923938635E+03  0.31965943560E+03 -0.81373952490E+03  0.10987032768E+04  0.90543651576E+02 0.  0.
    5000000    2    1    2    0    0  0.65923938635E+03 -0.31965943560E+03  0.10076445140E+04  0.13827701104E+04  0.59993915375E+03 0.  0.
         23    2    4    4    0    0  0.37317148738E+03 -0.27917390356E+03  0.19054241722E+03  0.51134835670E+03  0.89306784260E+02 0.  0.
         23    2    4    4    0    0  0.28606789898E+03 -0.40485532037E+02  0.81710209680E+03  0.87142175368E+03  0.90808122146E+02 0.  0.
          2    1    3    3  502    0 -0.31627007428E+03  0.14682580995E+03 -0.32079210103E+03  0.47380602617E+03  0.00000000000E+00 0. -1.
         -2    1    3    3    0  502 -0.34296931207E+03  0.17283362565E+03 -0.49294742387E+03  0.62489725066E+03  0.00000000000E+00 0.  1.
         13    1    5    5    0    0  0.20680343313E+03 -0.20876905141E+03  0.11622654222E+03  0.31600757254E+03  0.00000000000E+00 0.  1.
        -13    1    5    5    0    0  0.16636805425E+03 -0.70404852146E+02  0.74315874996E+02  0.19534078416E+03  0.00000000000E+00 0. -1.
          5    1    6    6  503    0  0.20408709285E+03 -0.61195125788E+02  0.50715228663E+03  0.55011082222E+03  0.47000000000E+01 0.  1.
         -5    1    6    6    0  503  0.81980806125E+02  0.20709593750E+02  0.30994981017E+03  0.32131093145E+03  0.47000000000E+01 0.  1.
<mgrwt>
<rscale>  0 0.75252929E+03</rscale>
<asrwt>0</asrwt>
<pdfrwt beam="1">  1        2 0.20579834E+00 0.75252929E+03</pdfrwt>
<pdfrwt beam="2">  1       -2 0.17596680E+00 0.75252929E+03</pdfrwt>
<totfact> 0.31182590E+00</totfact>
</mgrwt>
</event>
<event>
12    1  0.3127365E-008  0.4736105E+03  0.7818608E-02  0.1020906E+00
          2   -1    0    0  501    0  0.00000000000E+00  0.00000000000E+00  0.19227807910E+04  0.19227807910E+04  0.00000000000E+00 0. -1.
         -2   -1    0    0    0  501 -0.00000000000E+00 -0.00000000000E+00 -0.19170500214E+03  0.19170500214E+03  0.00000000000E+00 0.  1.
         23    2    1    2    0    0 -0.30681175370E+03  0.56762596836E+02  0.85309115647E+02  0.33522965335E+03  0.88010400895E+02 0.  0.
    5000000    2    1    2    0    0  0.30681175370E+03 -0.56762596836E+02  0.16457666732E+04  0.17792561398E+04  0.59987417323E+03 0.  0.
         23    2    4    4    0    0 -0.27315284704E+02 -0.23041715321E+03  0.95428636599E+03  0.98640309700E+03  0.92143432627E+02 0.  0.
         23    2    4    4    0    0  0.33412703840E+03  0.17365455638E+03  0.69148030720E+03  0.79285304277E+03  0.93135113910E+02 0.  0.
          2    1    3    3  502    0 -0.54175528393E+02  0.35489752322E+02  0.44145480815E+02  0.78379422510E+02  0.00000000000E+00 0. -1.
         -2    1    3    3    0  502 -0.25263622530E+03  0.21272844514E+02  0.41163634832E+02  0.25685023084E+03  0.00000000000E+00 0.  1.
         13    1    5    5    0    0  0.22624636558E+02 -0.50678236716E+02  0.13146116087E+03  0.14269616208E+03  0.00000000000E+00 0. -1.
        -13    1    5    5    0    0 -0.49939921262E+02 -0.17973891650E+03  0.82282520512E+03  0.84370693492E+03  0.00000000000E+00 0.  1.
          5    1    6    6  503    0  0.29519517030E+03  0.11611287624E+03  0.58804438134E+03  0.66816216072E+03  0.47000000000E+01 0. -1.
         -5    1    6    6    0  503  0.38931868103E+02  0.57541680141E+02  0.10343592586E+03  0.12469088205E+03  0.47000000000E+01 0.  1.
<mgrwt>
<rscale>  0 0.47361045E+03</rscale>
<asrwt>0</asrwt>
<pdfrwt beam="1">  1        2 0.29581242E+00 0.47361045E+03</pdfrwt>
<pdfrwt beam="2">  1       -2 0.29493079E-01 0.47361045E+03</pdfrwt>
<totfact> 0.83107436E+01</totfact>
</mgrwt>
</event>
<event>
12    1  0.3127365E-008  0.8561886E+03  0.7818608E-02  0.9482068E-01
         -1   -1    0    0    0  501 -0.00000000000E+00  0.00000000000E+00  0.20070838502E+04  0.20070838502E+04  0.00000000000E+00 0. -1.
          1   -1    0    0  501    0  0.00000000000E+00 -0.00000000000E+00 -0.82576796449E+03  0.82576796449E+03  0.00000000000E+00 0.  1.
         23    2    1    2    0    0  0.67244066807E+03 -0.40221684480E+03 -0.46313476713E+03  0.91506817566E+03  0.94345700802E+02 0.  0.
    5000000    2    1    2    0    0 -0.67244066807E+03  0.40221684480E+03  0.16444506528E+04  0.19177836390E+04  0.59976770019E+03 0.  0.
         23    2    4    4    0    0 -0.73434141478E+03  0.33081278512E+03  0.11537128121E+04  0.14097939627E+04  0.88155273557E+02 0.  0.
         23    2    4    4    0    0  0.61900746706E+02  0.71404059684E+02  0.49073784073E+03  0.50798967630E+03  0.91102363992E+02 0.  0.
          3    1    3    3  502    0  0.31654892317E+03 -0.14659419597E+03 -0.17161076059E+03  0.38877156815E+03  0.00000000000E+00 0. -1.
         -3    1    3    3    0  502  0.35589174490E+03 -0.25562264883E+03 -0.29152400655E+03  0.52629660751E+03  0.00000000000E+00 0.  1.
         13    1    5    5    0    0 -0.54523385923E+03  0.23951509050E+03  0.78299215633E+03  0.98372971730E+03  0.00000000000E+00 0. -1.
        -13    1    5    5    0    0 -0.18910755555E+03  0.91297694620E+02  0.37072065576E+03  0.42606424541E+03  0.00000000000E+00 0.  1.
          5    1    6    6  503    0  0.28821166188E+02  0.80145433998E+02  0.23641615268E+03  0.25133371731E+03  0.47000000000E+01 0. -1.
         -5    1    6    6    0  503  0.33079580518E+02 -0.87413743140E+01  0.25432168805E+03  0.25665595899E+03  0.47000000000E+01 0.  1.
<mgrwt>
<rscale>  0 0.85618857E+03</rscale>
<asrwt>0</asrwt>
<pdfrwt beam="1">  1        1 0.12704123E+00 0.85618857E+03</pdfrwt>
<pdfrwt beam="2">  1       -1 0.30878213E+00 0.85618857E+03</pdfrwt>
<totfact> 0.63219652E-01</totfact>
</mgrwt>
</event>
<event>
12    1  0.3198682E-008  0.1463961E+04  0.7818608E-02  0.8908779E-01
          3   -1    0    0  501    0  0.00000000000E+00  0.00000000000E+00  0.14860358650E+04  0.14860358650E+04  0.00000000000E+00 0. -1.
         -3   -1    0    0    0  501 -0.00000000000E+00 -0.00000000000E+00 -0.14713743701E+04  0.14713743701E+04  0.00000000000E+00 0.  1.
         23    2    1    2    0    0 -0.14015127523E+04 -0.11857899922E+03 -0.15896624524E+03  0.14184474677E+04  0.91782228973E+02 0.  0.
    5000000    2    1    2    0    0  0.14015127523E+04  0.11857899922E+03  0.17362774021E+03  0.15389627674E+04  0.59996736041E+03 0.  0.
         23    2    4    4    0    0  0.40818308650E+03 -0.22397448433E+03  0.57950007256E+02  0.47798830079E+03  0.91305041548E+02 0.  0.
         23    2    4    4    0    0  0.99332966576E+03  0.34255348355E+03  0.11567773295E+03  0.10609744666E+04  0.90767653905E+02 0.  0.
          4    1    3    3  502    0 -0.81746579955E+03 -0.90796694463E+02 -0.13288833280E+03  0.83315885770E+03  0.00000000000E+00 0. -1.
         -4    1    3    3    0  502 -0.58404695271E+03 -0.27782304759E+02 -0.26077912436E+02  0.58528860996E+03  0.00000000000E+00 0.  1.
         13    1    5    5    0    0  0.20731948854E+03 -0.13713093304E+03  0.71760802491E+02  0.25871968595E+03  0.00000000000E+00 0.  1.
        -13    1    5    5    0    0  0.20086359797E+03 -0.86843551289E+02 -0.13810795235E+02  0.21926861484E+03  0.00000000000E+00 0. -1.
          5    1    6    6  503    0  0.65162797773E+03  0.18770719048E+03  0.48929405909E+02  0.67990380752E+03  0.47000000000E+01 0. -1.
         -5    1    6    6    0  503  0.34170168803E+03  0.15484629307E+03  0.66748327043E+02  0.38107065912E+03  0.47000000000E+01 0.  1.
<mgrwt>
<rscale>  0 0.14639610E+04</rscale>
<asrwt>0</asrwt>
<pdfrwt beam="1">  1        3 0.22862090E+00 0.14639610E+04</pdfrwt>
<pdfrwt beam="2">  1       -3 0.22636529E+00 0.14639610E+04</pdfrwt>
<totfact> 0.23987404E-02</totfact>
</mgrwt>
</event>
<event>
12    1  0.3127365E-008  0.7573517E+03  0.7818608E-02  0.9623887E-01
         -2   -1    0    0    0  501 -0.00000000000E+00  0.00000000000E+00  0.67839454597E+03  0.67839454597E+03  0.00000000000E+00 0.  1.
          2   -1    0    0  501    0  0.00000000000E+00 -0.00000000000E+00 -0.96995918579E+03  0.96995918579E+03  0.00000000000E+00 0. -1.
         23    2    1    2    0    0 -0.59624746815E+03  0.35393949754E+03 -0.54223171826E+02  0.70124361217E+03  0.89544626021E+02 0.  0.
    5000000    2    1    2    0    0  0.59624746815E+03 -0.35393949754E+03 -0.23734146799E+03  0.94711011959E+03  0.59991865699E+03 0.  0.
         23    2    4    4    0    0  0.39183159597E+03  0.10666895255E+02  0.85367399409E+02  0.41073079897E+03  0.88127260705E+02 0.  0.
         23    2    4    4    0    0  0.20441587218E+03 -0.36460639280E+03 -0.32270886740E+03  0.53637932062E+03  0.94011127156E+02 0.  0.
          2    1    3    3  502    0 -0.42882420381E+03  0.24964218015E+03  0.17622670746E+01  0.49620008209E+03  0.00000000000E+00 0. -1.
         -2    1    3    3    0  502 -0.16742326435E+03  0.10429731739E+03 -0.55985438900E+02  0.20504353008E+03  0.00000000000E+00 0.  1.
         11    1    5    5    0    0  0.62259351870E+02  0.17135645638E+02  0.44833382794E+02  0.78612272957E+02  0.00000000000E+00 0. -1.
        -11    1    5    5    0    0  0.32957224411E+03 -0.64687503832E+01  0.40534016615E+02  0.33211852601E+03  0.00000000000E+00 0.  1.
          5    1    6    6  503    0  0.16183158718E+03 -0.20192139701E+03 -0.21650768956E+03  0.33743055999E+03  0.47000000000E+01 0. -1.
         -5    1    6    6    0  503  0.42584285004E+02 -0.16268499578E+03 -0.10620117784E+03  0.19894876063E+03  0.47000000000E+01 0.  1.
<mgrwt>
<rscale>  0 0.75735173E+03</rscale>
<asrwt>0</asrwt>
<pdfrwt beam="1">  1        2 0.14922449E+00 0.75735173E+03</pdfrwt>
<pdfrwt beam="2">  1       -2 0.10436839E+00 0.75735173E+03</pdfrwt>
<totfact> 0.19950340E+01</totfact>
</mgrwt>
</event>
<event>
12    1  0.3127365E-008  0.8653395E+03  0.7818608E-02  0.9469977E-01
          1   -1    0    0  501    0  0.00000000000E+00  0.00000000000E+00  0.10356537627E+04  0.10356537627E+04  0.00000000000E+00 0. -1.
         -1   -1    0    0    0  501 -0.00000000000E+00 -0.00000000000E+00 -0.86407526637E+03  0.86407526637E+03  0.00000000000E+00 0.  1.
         23    2    1    2    0    0  0.32693848236E+03 -0.76292508066E+03 -0.97762013861E+02  0.84076137709E+03  0.91535959611E+02 0.  0.
    5000000    2    1    2    0    0 -0.32693848236E+03  0.76292508066E+03  0.26934051023E+03  0.10589676520E+04  0.59993726976E+03 0.  0.
         23    2    4    4    0    0 -0.53215842920E+02  0.51553177313E+03  0.39542953236E+03  0.65838142143E+03  0.92177253030E+02 0.  0.
         23    2    4    4    0    0 -0.27372263944E+03  0.24739330752E+03 -0.12608902212E+03  0.40058623060E+03  0.91887728750E+02 0.  0.
          4    1    3    3  502    0  0.24460512085E+03 -0.45924953623E+03 -0.54910885250E+02  0.52321793451E+03  0.00000000000E+00 0. -1.
         -4    1    3    3    0  502  0.82333361517E+02 -0.30367554443E+03 -0.42851128611E+02  0.31754344258E+03  0.00000000000E+00 0.  1.
         13    1    5    5    0    0 -0.61501540513E+02  0.51261849580E+03  0.39405466913E+03  0.64949152726E+03  0.00000000000E+00 0.  1.
        -13    1    5    5    0    0  0.82856975931E+01  0.29132773289E+01  0.13748632314E+01  0.88898941672E+01  0.00000000000E+00 0. -1.
          5    1    6    6  503    0 -0.14272249857E+03  0.15169226997E+03 -0.11485817231E+03  0.23789650294E+03  0.47000000000E+01 0. -1.
         -5    1    6    6    0  503 -0.13100014087E+03  0.95701037553E+02 -0.11230849817E+02  0.16268972766E+03  0.47000000000E+01 0.  1.
<mgrwt>
<rscale>  0 0.86533946E+03</rscale>
<asrwt>0</asrwt>
<pdfrwt beam="1">  1        1 0.15933135E+00 0.86533946E+03</pdfrwt>
<pdfrwt beam="2">  1       -1 0.13293466E+00 0.86533946E+03</pdfrwt>
<totfact> 0.69284876E+00</totfact>
</mgrwt>
</event>
<event>
12    1  0.3127365E-008  0.2451147E+04  0.7818608E-02  0.8420599E-01
         -2   -1    0    0    0  501 -0.00000000000E+00  0.00000000000E+00  0.31855549714E+04  0.31855549714E+04  0.00000000000E+00 0.  1.
          2   -1    0    0  501    0  0.00000000000E+00 -0.00000000000E+00 -0.20463568616E+04  0.20463568616E+04  0.00000000000E+00 0. -1.
         23    2    1    2    0    0 -0.24275320019E+04  0.79788580250E+02 -0.11498826896E+03  0.24332843841E+04  0.91502753693E+02 0.  0.
    5000000    2    1    2    0    0  0.24275320019E+04 -0.79788580250E+02  0.12541863788E+04  0.27986274490E+04  0.60004523782E+03 0.  0.
         23    2    4    4    0    0  0.16688265988E+04 -0.25236861161E+03  0.65710463784E+03  0.18134607169E+04  0.90449619432E+02 0.  0.
         23    2    4    4    0    0  0.75870540315E+03  0.17258003136E+03  0.59708174094E+03  0.98516673208E+03  0.92893103370E+02 0.  0.
          1    1    3    3  502    0 -0.17178559974E+04  0.97949890643E+02 -0.78024005805E+02  0.17224143387E+04  0.00000000000E+00 0. -1.
         -1    1    3    3    0  502 -0.70967600455E+03 -0.18161310393E+02 -0.36964263159E+02  0.71087004535E+03  0.00000000000E+00 0.  1.
         11    1    5    5    0    0  0.46446200200E+02 -0.20750723488E+02  0.27689791093E+02  0.57918620228E+02  0.00000000000E+00 0. -1.
        -11    1    5    5    0    0  0.16223803986E+04 -0.23161788812E+03  0.62941484675E+03  0.17555420966E+04  0.00000000000E+00 0.  1.
          5    1    6    6  503    0  0.39378360649E+02  0.27369454562E+02  0.22735258164E+02  0.53279679937E+02  0.47000000000E+01 0. -1.
         -5    1    6    6    0  503  0.71932704250E+03  0.14521057680E+03  0.57434648277E+03  0.93188705215E+03  0.47000000000E+01 0.  1.
<mgrwt>
<rscale>  0 0.24511469E+04</rscale>
<asrwt>0</asrwt>
<pdfrwt beam="1">  1        2 0.31482413E+00 0.24511469E+04</pdfrwt>
<pdfrwt beam="2">  1       -2 0.49008538E+00 0.24511469E+04</pdfrwt>
<totfact> 0.10079278E-02</totfact>
</mgrwt>
</event>
<event>
12    1  0.3127365E-008  0.1172448E+04  0.7818608E-02  0.9137320E-01
          2   -1    0    0  501    0  0.00000000000E+00  0.00000000000E+00  0.85000618507E+03  0.85000618507E+03  0.00000000000E+00 0. -1.
         -2   -1    0    0    0  501 -0.00000000000E+00 -0.00000000000E+00 -0.18214413706E+04  0.18214413706E+04  0.00000000000E+00 0.  1.
         23    2    1    2    0    0 -0.93206039946E+03  0.62570159056E+03 -0.81246344104E+03  0.13887665494E+04  0.91305076833E+02 0.  0.
    5000000    2    1    2    0    0  0.93206039946E+03 -0.62570159056E+03 -0.15897174446E+03  0.12826810062E+04  0.59979953276E+03 0.  0.
         23    2    4    4    0    0  0.71109566594E+03 -0.19511858994E+03  0.54034983743E+02  0.74583940871E+03  0.98124073767E+02 0.  0.
         23    2    4    4    0    0  0.22096473352E+03 -0.43058300062E+03 -0.21300672820E+03  0.53684159751E+03  0.92735649430E+02 0.  0.
          1    1    3    3  502    0 -0.14039429926E+03  0.88603147423E+02 -0.16165130929E+03  0.23171582335E+03  0.00000000000E+00 0.  1.
         -1    1    3    3    0  502 -0.79166610020E+03  0.53709844314E+03 -0.65081213175E+03  0.11570507261E+04  0.00000000000E+00 0. -1.
         13    1    5    5    0    0  0.24898754102E+03 -0.65342658386E+02 -0.27845086010E+02  0.25892046540E+03  0.00000000000E+00 0. -1.
        -13    1    5    5    0    0  0.46210812493E+03 -0.12977593155E+03  0.81880069753E+02  0.48691894331E+03  0.00000000000E+00 0.  1.
          5    1    6    6  503    0  0.19150230411E+03 -0.38927745130E+03 -0.21817617808E+03  0.48562640090E+03  0.47000000000E+01 0. -1.
         -5    1    6    6    0  503  0.29462429415E+02 -0.41305549326E+02  0.51694498824E+01  0.51215196614E+02  0.47000000000E+01 0.  1.
<mgrwt>
<rscale>  0 0.11724481E+04</rscale>
<asrwt>0</asrwt>
<pdfrwt beam="1">  1        2 0.13077018E+00 0.11724481E+04</pdfrwt>
<pdfrwt beam="2">  1       -2 0.28022175E+00 0.11724481E+04</pdfrwt>
<totfact> 0.13072339E+00</totfact>
</mgrwt>
</event>
<event>
12    1  0.3127365E-008  0.6356071E+03  0.7818608E-02  0.9834168E-01
          1   -1    0    0  501    0  0.00000000000E+00  0.00000000000E+00  0.14682609685E+04  0.14682609685E+04  0.00000000000E+00 0. -1.
         -1   -1    0    0    0  501 -0.00000000000E+00 -0.00000000000E+00 -0.30485623143E+03  0.30485623143E+03  0.00000000000E+00 0.  1.
         23    2    1    2    0    0 -0.39263330296E+03 -0.35552674665E+03  0.48510796427E+03  0.72401898706E+03  0.91178826835E+02 0.  0.
    5000000    2    1    2    0    0  0.39263330296E+03  0.35552674665E+03  0.67829677277E+03  0.10490982128E+04  0.59996697413E+03 0.  0.
         23    2    4    4    0    0  0.34610060785E+03 -0.30469238453E+02  0.15513912940E+03  0.39079765127E+03  0.89110322197E+02 0.  0.
         23    2    4    4    0    0  0.46532695106E+02  0.38599598510E+03  0.52315764338E+03  0.65830056156E+03  0.92236203873E+02 0.  0.
          2    1    3    3  502    0 -0.35022932966E+03 -0.32668227656E+03  0.39705998907E+03  0.62212420633E+03  0.00000000000E+00 0. -1.
         -2    1    3    3    0  502 -0.42403973295E+02 -0.28844470084E+02  0.88047975197E+02  0.10189478074E+03  0.00000000000E+00 0.  1.
         11    1    5    5    0    0  0.24755395545E+03 -0.16424797899E+02  0.15250090926E+03  0.29122029834E+03  0.00000000000E+00 0. -1.
        -11    1    5    5    0    0  0.98546652408E+02 -0.14044440554E+02  0.26382201424E+01  0.99577352931E+02  0.00000000000E+00 0.  1.
          5    1    6    6  503    0  0.36326667769E+02  0.90368951178E+02  0.18403599954E+03  0.20827268965E+03  0.47000000000E+01 0. -1.
         -5    1    6    6    0  503  0.10206027337E+02  0.29562703392E+03  0.33912164384E+03  0.45002787191E+03  0.47000000000E+01 0.  1.
<mgrwt>
<rscale>  0 0.63560713E+03</rscale>
<asrwt>0</asrwt>
<pdfrwt beam="1">  1        1 0.22588630E+00 0.63560713E+03</pdfrwt>
<pdfrwt beam="2">  1       -1 0.46900960E-01 0.63560713E+03</pdfrwt>
<totfact> 0.32638857E+01</totfact>
</mgrwt>
</event>
<event>
12    1  0.3127365E-008  0.1074787E+04  0.7818608E-02  0.9230120E-01
         -2   -1    0    0    0  501 -0.00000000000E+00  0.00000000000E+00  0.61150085476E+03  0.61150085476E+03  0.00000000000E+00 0.  1.
          2   -1    0    0  501    0  0.00000000000E+00 -0.00000000000E+00 -0.28881610436E+04  0.28881610436E+04  0.00000000000E+00 0. -1.
         23    2    1    2    0    0 -0.18850984298E+03 -0.98952724733E+03 -0.86831622208E+02  0.10156571908E+04  0.96538409720E+02 0.  0.
    5000000    2    1    2    0    0  0.18850984298E+03  0.98952724733E+03 -0.21898285667E+04  0.24840047076E+04  0.60019172085E+03 0.  0.
         23    2    4    4    0    0  0.24687075656E+03  0.10222374526E+04 -0.20389074979E+04  0.22958236440E+04  0.88021813199E+02 0.  0.
         23    2    4    4    0    0 -0.58360913586E+02 -0.32710205286E+02 -0.15092106878E+03  0.18818106354E+03  0.90327127213E+02 0.  0.
          4    1    3    3  502    0 -0.80487787103E+02 -0.50593578965E+03 -0.89967777384E+02  0.52013797024E+03  0.00000000000E+00 0. -1.
         -4    1    3    3    0  502 -0.10802205587E+03 -0.48359145768E+03  0.31361551762E+01  0.49551922058E+03  0.00000000000E+00 0.  1.
         13    1    5    5    0    0  0.20067406816E+03  0.76290621283E+03 -0.14501955561E+04  0.16508673848E+04  0.00000000000E+00 0. -1.
        -13    1    5    5    0    0  0.46196688404E+02  0.25933123978E+03 -0.58871194178E+03  0.64495625924E+03  0.00000000000E+00 0.  1.
          5    1    6    6  503    0 -0.36279571445E+02  0.12748052092E+02 -0.12435257463E+02  0.40687169532E+02  0.47000000000E+01 0. -1.
         -5    1    6    6    0  503 -0.22081342140E+02 -0.45458257378E+02 -0.13848581132E+03  0.14749389401E+03  0.47000000000E+01 0.  1.
<mgrwt>
<rscale>  0 0.10747872E+04</rscale>
<asrwt>0</asrwt>
<pdfrwt beam="1">  1        2 0.44433247E+00 0.10747872E+04</pdfrwt>
<pdfrwt beam="2">  1       -2 0.94077055E-01 0.10747872E+04</pdfrwt>
<totfact> 0.19601303E+00</totfact>
</mgrwt>
</event>
<event>
12    1  0.3127365E-008  0.7744513E+03  0.7818608E-02  0.9597752E-01
          2   -1    0    0  501    0  0.00000000000E+00  0.00000000000E+00  0.71927408638E+03  0.71927408638E+03  0.00000000000E+00 0. -1.
         -2   -1    0    0    0  501 -0.00000000000E+00 -0.00000000000E+00 -0.95663344963E+03  0.95663344963E+03  0.00000000000E+00 0.  1.
         23    2    1    2    0    0  0.56925781682E+03  0.34159727818E+03  0.17314086580E+03  0.69139078808E+03  0.85441792869E+02 0.  0.
    5000000    2    1    2    0    0 -0.56925781682E+03 -0.34159727818E+03 -0.41050022904E+03  0.98451674792E+03  0.60001635513E+03 0.  0.
         23    2    4    4    0    0 -0.36136024793E+03  0.10714153930E+03 -0.22817461980E+03  0.44985852925E+03  0.90821258459E+02 0.  0.
         23    2    4    4    0    0 -0.20789756889E+03 -0.44873881748E+03 -0.18232560924E+03  0.53465821867E+03  0.89603892460E+02 0.  0.
          4    1    3    3  502    0  0.33935013894E+03  0.15745167168E+03  0.81157646023E+02  0.38280035165E+03  0.00000000000E+00 0. -1.
         -4    1    3    3    0  502  0.22990767788E+03  0.18414560649E+03  0.91983219773E+02  0.30859043644E+03  0.00000000000E+00 0.  1.
         13    1    5    5    0    0 -0.21887526632E+02 -0.11658791995E+02 -0.30991719345E+02  0.39692290445E+02  0.00000000000E+00 0. -1.
        -13    1    5    5    0    0 -0.33947272130E+03  0.11880033130E+03 -0.19718290046E+03  0.41016623880E+03  0.00000000000E+00 0.  1.
          5    1    6    6  503    0 -0.19442541734E+03 -0.39647051099E+03 -0.13250350854E+03  0.46105246856E+03  0.47000000000E+01 0. -1.
         -5    1    6    6    0  503 -0.13472151550E+02 -0.52268306492E+02 -0.49822100703E+02  0.73605750111E+02  0.47000000000E+01 0.  1.
<mgrwt>
<rscale>  0 0.77445129E+03</rscale>
<asrwt>0</asrwt>
<pdfrwt beam="1">  1        2 0.11065755E+00 0.77445129E+03</pdfrwt>
<pdfrwt beam="2">  1       -2 0.14717438E+00 0.77445129E+03</pdfrwt>
<totfact> 0.12628677E+01</totfact>
</mgrwt>
</event>
<event>
12    1  0.3127365E-008  0.4346567E+03  0.7818608E-02  0.1032399E+00
         -1   -1    0    0    0  501 -0.00000000000E+00  0.00000000000E+00  0.70032349387E+03  0.70032349387E+03  0.00000000000E+00 0.  1.
          1   -1    0    0  501    0  0.00000000000E+00 -0.00000000000E+00 -0.42038841443E+03  0.42038841443E+03  0.00000000000E+00 0. -1.
         23    2    1    2    0    0  0.18168291939E+03  0.22393470542E+03 -0.14079440429E+03  0.33323020378E+03  0.89799047568E+02 0.  0.
    5000000    2    1    2    0    0 -0.18168291939E+03 -0.22393470542E+03  0.42072948373E+03  0.78748170451E+03  0.59996558316E+03 0.  0.
         23    2    4    4    0    0  0.94834629743E+02  0.78631045191E+02 -0.46768233517E+02  0.15892976336E+03  0.88853552264E+02 0.  0.
         23    2    4    4    0    0 -0.27651754913E+03 -0.30256575061E+03  0.46749771725E+03  0.62855194115E+03  0.92279134535E+02 0.  0.
          2    1    3    3  502    0  0.36643850419E+02  0.10492049043E+03 -0.76422658659E+02  0.13487588310E+03  0.00000000000E+00 0.  1.
         -2    1    3    3    0  502  0.14503906897E+03  0.11901421499E+03 -0.64371745631E+02  0.19835432068E+03  0.00000000000E+00 0. -1.
         13    1    5    5    0    0  0.25262244849E+02  0.76767962601E+02 -0.36121982331E+02  0.88522871080E+02  0.00000000000E+00 0. -1.
        -13    1    5    5    0    0  0.69572384894E+02  0.18630825898E+01 -0.10646251186E+02  0.70406892283E+02  0.00000000000E+00 0.  1.
          5    1    6    6  503    0 -0.17015054669E+03 -0.11815624720E+03  0.23164620743E+03  0.31079601463E+03  0.47000000000E+01 0. -1.
         -5    1    6    6    0  503 -0.10636700244E+03 -0.18440950341E+03  0.23585150981E+03  0.31775592652E+03  0.47000000000E+01 0.  1.
<mgrwt>
<rscale>  0 0.43465669E+03</rscale>
<asrwt>0</asrwt>
<pdfrwt beam="1">  1        1 0.64675141E-01 0.43465669E+03</pdfrwt>
<pdfrwt beam="2">  1       -1 0.10774208E+00 0.43465669E+03</pdfrwt>
<totfact> 0.47550125E+01</totfact>
</mgrwt>
</event>
<event>
12    1  0.3127365E-008  0.3661026E+03  0.7818608E-02  0.1056193E+00
         -2   -1    0    0    0  501 -0.00000000000E+00  0.00000000000E+00  0.77031259658E+02  0.77031259658E+02  0.00000000000E+00 0.  1.
          2   -1    0    0  501    0  0.00000000000E+00 -0.00000000000E+00 -0.21812461678E+04  0.21812461678E+04  0.00000000000E+00 0. -1.
         23    2    1    2    0    0 -0.90319182629E+02  0.14705233091E+03 -0.53205895852E+03  0.56670832494E+03  0.91047501044E+02 0.  0.
    5000000    2    1    2    0    0  0.90319182629E+02 -0.14705233091E+03 -0.15721559496E+04  0.16915691025E+04  0.59995812842E+03 0.  0.
         23    2    4    4    0    0 -0.75856237038E+02 -0.28752687685E+03 -0.46747748259E+03  0.56152772227E+03  0.91390987195E+02 0.  0.
         23    2    4    4    0    0  0.16617541967E+03  0.14047454594E+03 -0.11046784670E+04  0.11300413802E+04  0.96600400466E+02 0.  0.
          2    1    3    3  502    0  0.40972169582E+01  0.78095135721E+02 -0.21309600847E+03  0.22699239246E+03  0.00000000000E+00 0. -1.
         -2    1    3    3    0  502 -0.94416399587E+02  0.68957195188E+02 -0.31896295005E+03  0.33971593249E+03  0.00000000000E+00 0.  1.
         13    1    5    5    0    0 -0.68249692873E+02 -0.15550748906E+03 -0.32781758482E+03  0.36919502793E+03  0.00000000000E+00 0. -1.
        -13    1    5    5    0    0 -0.76065441646E+01 -0.13201938780E+03 -0.13965989777E+03  0.19233269434E+03  0.00000000000E+00 0.  1.
          5    1    6    6  503    0  0.37693354991E+02  0.88570760763E+02 -0.54425102355E+03  0.55271768138E+03  0.47000000000E+01 0. -1.
         -5    1    6    6    0  503  0.12848206468E+03  0.51903785180E+02 -0.56042744348E+03  0.57732369886E+03  0.47000000000E+01 0.  1.
<mgrwt>
<rscale>  0 0.36610256E+03</rscale>
<asrwt>0</asrwt>
<pdfrwt beam="1">  1        2 0.33557630E+00 0.36610256E+03</pdfrwt>
<pdfrwt beam="2">  1       -2 0.11850964E-01 0.36610256E+03</pdfrwt>
<totfact> 0.29587686E+02</totfact>
</mgrwt>
</event>
<event>
12    1  0.3127365E-008  0.6978938E+03  0.7818608E-02  0.9720841E-01
          1   -1    0    0  501    0  0.00000000000E+00  0.00000000000E+00  0.24311554519E+04  0.24311554519E+04  0.00000000000E+00 0. -1.
         -1   -1    0    0    0  501 -0.00000000000E+00 -0.00000000000E+00 -0.30939352816E+03  0.30939352816E+03  0.00000000000E+00 0.  1.
         23    2    1    2    0    0 -0.35311776070E+03 -0.58321992860E+03  0.40507364939E+03  0.79836544736E+03  0.92005913267E+02 0.  0.
    5000000    2    1    2    0    0  0.35311776070E+03  0.58321992860E+03  0.17166882744E+04  0.19421835327E+04  0.60018380963E+03 0.  0.
         23    2    4    4    0    0  0.19174370082E+03  0.41300967813E+03  0.43528827832E+03  0.63630422395E+03  0.89802779119E+02 0.  0.
         23    2    4    4    0    0  0.16137405988E+03  0.17021025046E+03  0.12813999961E+04  0.13058793088E+04  0.91223366577E+02 0.  0.
          3    1    3    3  502    0 -0.28415058879E+03 -0.51449922322E+03  0.32080919449E+03  0.66960402259E+03  0.00000000000E+00 0. -1.
         -3    1    3    3    0  502 -0.68967171915E+02 -0.68720705378E+02  0.84264454898E+02  0.12876142477E+03  0.00000000000E+00 0.  1.
         13    1    5    5    0    0  0.15582669658E+03  0.23254558778E+03  0.27148391642E+03  0.38995246716E+03  0.00000000000E+00 0.  1.
        -13    1    5    5    0    0  0.35917004244E+02  0.18046409035E+03  0.16380436190E+03  0.24635175680E+03  0.00000000000E+00 0. -1.
          5    1    6    6  503    0  0.11024502951E+03  0.61037676562E+02  0.52589493348E+03  0.54080230727E+03  0.47000000000E+01 0. -1.
         -5    1    6    6    0  503  0.51129030375E+02  0.10917257390E+03  0.75550506257E+03  0.76507700149E+03  0.47000000000E+01 0.  1.
<mgrwt>
<rscale>  0 0.69789381E+03</rscale>
<asrwt>0</asrwt>
<pdfrwt beam="1">  1        1 0.37402390E+00 0.69789381E+03</pdfrwt>
<pdfrwt beam="2">  1       -1 0.47599006E-01 0.69789381E+03</pdfrwt>
<totfact> 0.70959291E+00</totfact>
</mgrwt>
</event>
<event>
12    1  0.3127365E-008  0.6577317E+03  0.7818608E-02  0.9792378E-01
          2   -1    0    0  501    0  0.00000000000E+00  0.00000000000E+00  0.24495865889E+04  0.24495865889E+04  0.00000000000E+00 0. -1.
         -2   -1    0    0    0  501 -0.00000000000E+00 -0.00000000000E+00 -0.29798522027E+03  0.29798522027E+03  0.00000000000E+00 0.  1.
         23    2    1    2    0    0  0.34246992628E+03 -0.51164335735E+03  0.26923112796E+03  0.67817154577E+03  0.91469501522E+02 0.  0.
    5000000    2    1    2    0    0 -0.34246992628E+03  0.51164335735E+03  0.18823702407E+04  0.20694002634E+04  0.60002929234E+03 0.  0.
         23    2    4    4    0    0  0.30294391405E+02  0.36653386086E+02  0.12232300994E+02  0.10209396492E+03  0.89511606077E+02 0.  0.
         23    2    4    4    0    0 -0.37276431768E+03  0.47498997126E+03  0.18701379397E+04  0.19673062985E+04  0.91156180776E+02 0.  0.
          4    1    3    3  502    0  0.21155212487E+03 -0.38953585896E+03  0.19827947564E+03  0.48559987377E+03  0.00000000000E+00 0. -1.
         -4    1    3    3    0  502  0.13091780141E+03 -0.12210749839E+03  0.70951652322E+02  0.19257167200E+03  0.00000000000E+00 0.  1.
         13    1    5    5    0    0 -0.20034096422E+02 -0.78686094522E+01 -0.18333571557E+02  0.28273660538E+02  0.00000000000E+00 0. -1.
        -13    1    5    5    0    0  0.50328487827E+02  0.44521995538E+02  0.30565872551E+02  0.73820304378E+02  0.00000000000E+00 0.  1.
          5    1    6    6  503    0 -0.76566786102E+02  0.81663931651E+02  0.46783982655E+03  0.48106929207E+03  0.47000000000E+01 0. -1.
         -5    1    6    6    0  503 -0.29619753158E+03  0.39332603961E+03  0.14022981131E+04  0.14862370064E+04  0.47000000000E+01 0.  1.
<mgrwt>
<rscale>  0 0.65773169E+03</rscale>
<asrwt>0</asrwt>
<pdfrwt beam="1">  1        2 0.37685946E+00 0.65773169E+03</pdfrwt>
<pdfrwt beam="2">  1       -2 0.45843882E-01 0.65773169E+03</pdfrwt>
<totfact> 0.17824125E+01</totfact>
</mgrwt>
</event>
<event>
12    1  0.3127365E-008  0.8990082E+03  0.7818608E-02  0.9426822E-01
         -2   -1    0    0    0  501 -0.00000000000E+00  0.00000000000E+00  0.38650780520E+03  0.38650780520E+03  0.00000000000E+00 0.  1.
          2   -1    0    0  501    0  0.00000000000E+00 -0.00000000000E+00 -0.29415286109E+04  0.29415286109E+04  0.00000000000E+00 0. -1.
         23    2    1    2    0    0 -0.77526503072E+03  0.44105450883E+03 -0.54901048740E+03  0.10521350416E+04  0.10005340030E+03 0.  0.
    5000000    2    1    2    0    0  0.77526503072E+03 -0.44105450883E+03 -0.20060103183E+04  0.22759013745E+04  0.60007059723E+03 0.  0.
         23    2    4    4    0    0  0.49827461979E+03 -0.26133790258E+03 -0.17712244791E+04  0.18606967097E+04  0.91547769410E+02 0.  0.
         23    2    4    4    0    0  0.27699041093E+03 -0.17971660625E+03 -0.23478583914E+03  0.41520466473E+03  0.90822778229E+02 0.  0.
          4    1    3    3  502    0 -0.33650058364E+03  0.23091422878E+03 -0.20824609178E+03  0.45817077447E+03  0.00000000000E+00 0. -1.
         -4    1    3    3    0  502 -0.43876444708E+03  0.21014028005E+03 -0.34076439562E+03  0.59396426714E+03  0.00000000000E+00 0.  1.
         13    1    5    5    0    0  0.19738852459E+02 -0.30767476816E+02 -0.16184817987E+03  0.16592496272E+03  0.00000000000E+00 0. -1.
        -13    1    5    5    0    0  0.47853576733E+03 -0.23057042577E+03 -0.16093762993E+04  0.16947717470E+04  0.00000000000E+00 0.  1.
          5    1    6    6  503    0  0.23605789658E+03 -0.12491797987E+03 -0.21758832499E+03  0.34452082870E+03  0.47000000000E+01 0. -1.
         -5    1    6    6    0  503  0.40932514347E+02 -0.54798626374E+02 -0.17197514148E+02  0.70683836032E+02  0.47000000000E+01 0.  1.
<mgrwt>
<rscale>  0 0.89900818E+03</rscale>
<asrwt>0</asrwt>
<pdfrwt beam="1">  1        2 0.45254286E+00 0.89900818E+03</pdfrwt>
<pdfrwt beam="2">  1       -2 0.59462739E-01 0.89900818E+03</pdfrwt>
<totfact> 0.51826808E+00</totfact>
</mgrwt>
</event>
<event>
12    1  0.3127365E-008  0.5905082E+03  0.7818608E-02  0.9925297E-01
         -2   -1    0    0    0  501 -0.00000000000E+00  0.00000000000E+00  0.55550317907E+03  0.55550317907E+03  0.00000000000E+00 0.  1.
          2   -1    0    0  501    0  0.00000000000E+00 -0.00000000000E+00 -0.12942058087E+04  0.12942058087E+04  0.00000000000E+00 0. -1.
         23    2    1    2    0    0  0.34916214035E+02 -0.47793338351E+03 -0.93731721891E+03  0.10564665330E+04  0.88985984428E+02 0.  0.
    5000000    2    1    2    0    0 -0.34916214035E+02  0.47793338351E+03  0.19861458932E+03  0.79324245472E+03  0.60012196744E+03 0.  0.
         23    2    4    4    0    0  0.13562085854E+03  0.48569812799E+03  0.27863499514E+03  0.58380990341E+03  0.94344337431E+02 0.  0.
         23    2    4    4    0    0 -0.17053707257E+03 -0.77647444722E+01 -0.80020405818E+02  0.20943255131E+03  0.91189603699E+02 0.  0.
          1    1    3    3  502    0  0.51993909203E+02 -0.26972766333E+03 -0.46618509669E+03  0.54109603892E+03  0.00000000000E+00 0. -1.
         -1    1    3    3    0  502 -0.17077695169E+02 -0.20820572018E+03 -0.47113212223E+03  0.51537049410E+03  0.00000000000E+00 0.  1.
         13    1    5    5    0    0  0.81690006019E+02  0.31267236023E+03  0.22842817567E+03  0.39574827021E+03  0.00000000000E+00 0.  1.
        -13    1    5    5    0    0  0.53930852521E+02  0.17302576776E+03  0.50206819471E+02  0.18806163320E+03  0.00000000000E+00 0. -1.
          5    1    6    6  503    0 -0.22311896519E+02  0.32170979790E+02 -0.10235485496E+02  0.40738775513E+02  0.47000000000E+01 0. -1.
         -5    1    6    6    0  503 -0.14822517606E+03 -0.39935724263E+02 -0.69784920322E+02  0.16869377580E+03  0.47000000000E+01 0.  1.
<mgrwt>
<rscale>  0 0.59050818E+03</rscale>
<asrwt>0</asrwt>
<pdfrwt beam="1">  1        2 0.19910858E+00 0.59050818E+03</pdfrwt>
<pdfrwt beam="2">  1       -2 0.85462029E-01 0.59050818E+03</pdfrwt>
<totfact> 0.20657120E+01</totfact>
</mgrwt>
</event>
<event>
12    1  0.3127365E-008  0.5869347E+03  0.7818608E-02  0.9932889E-01
          1   -1    0    0  501    0  0.00000000000E+00  0.00000000000E+00  0.67148575130E+03  0.67148575130E+03  0.00000000000E+00 0. -1.
         -1   -1    0    0    0  501 -0.00000000000E+00 -0.00000000000E+00 -0.13362509042E+04  0.13362509042E+04  0.00000000000E+00 0.  1.
         23    2    1    2    0    0  0.15820095093E+01 -0.56837198228E+03 -0.96885068700E+03  0.11270202069E+04  0.91943896287E+02 0.  0.
    5000000    2    1    2    0    0 -0.15820095093E+01  0.56837198228E+03  0.30408553408E+03  0.88071644862E+03  0.60012018616E+03 0.  0.
         23    2    4    4    0    0 -0.56985402943E+02  0.29307637650E+03 -0.14432118924E+03  0.34378448018E+03  0.90653541233E+02 0.  0.
         23    2    4    4    0    0  0.55403393434E+02  0.27529560578E+03  0.44840672332E+03  0.53693196844E+03  0.91488483673E+02 0.  0.
          2    1    3    3  502    0  0.75330976990E+01 -0.25634828183E+03 -0.34964883942E+03  0.43361907254E+03  0.00000000000E+00 0. -1.
         -2    1    3    3    0  502 -0.59510881897E+01 -0.31202370046E+03 -0.61920184757E+03  0.69340113436E+03  0.00000000000E+00 0.  1.
         11    1    5    5    0    0 -0.30954429116E+02  0.28037706997E+03 -0.12255316006E+03  0.30755284926E+03  0.00000000000E+00 0. -1.
        -11    1    5    5    0    0 -0.26030973827E+02  0.12699306529E+02 -0.21768029181E+02  0.36231630920E+02  0.00000000000E+00 0.  1.
          5    1    6    6  503    0  0.36320327792E+02  0.27188297366E+03  0.40510024878E+03  0.48925230622E+03  0.47000000000E+01 0. -1.
         -5    1    6    6    0  503  0.19083065642E+02  0.34126321194E+01  0.43306474537E+02  0.47679662216E+02  0.47000000000E+01 0.  1.
<mgrwt>
<rscale>  0 0.58693471E+03</rscale>
<asrwt>0</asrwt>
<pdfrwt beam="1">  1        1 0.10330550E+00 0.58693471E+03</pdfrwt>
<pdfrwt beam="2">  1       -1 0.20557706E+00 0.58693471E+03</pdfrwt>
<totfact> 0.42675457E+00</totfact>
</mgrwt>
</event>
<event>
12    1  0.3127365E-008  0.5224654E+03  0.7818608E-02  0.1008076E+00
         -2   -1    0    0    0  501 -0.00000000000E+00  0.00000000000E+00  0.18480152226E+04  0.18480152226E+04  0.00000000000E+00 0.  1.
          2   -1    0    0  501    0  0.00000000000E+00 -0.00000000000E+00 -0.22806997338E+03  0.22806997338E+03  0.00000000000E+00 0. -1.
         23    2    1    2    0    0  0.22225618332E+02  0.50300220671E+03  0.56478408253E+03  0.76205599823E+03  0.90791445004E+02 0.  0.
    5000000    2    1    2    0    0 -0.22225618332E+02 -0.50300220671E+03  0.10551611666E+04  0.13140291977E+04  0.59983534972E+03 0.  0.
         23    2    4    4    0    0 -0.42142728937E+02 -0.39162239093E+03  0.10917572817E+04  0.11641927256E+04  0.90921029113E+02 0.  0.
         23    2    4    4    0    0  0.19917110605E+02 -0.11137981579E+03 -0.36596115011E+02  0.14983647214E+03  0.91156667838E+02 0.  0.
          3    1    3    3  502    0  0.48708627050E+02  0.29871232873E+03  0.29526798117E+03  0.42282947673E+03  0.00000000000E+00 0. -1.
         -3    1    3    3    0  502 -0.26483008718E+02  0.20428987798E+03  0.26951610136E+03  0.33922652150E+03  0.00000000000E+00 0.  1.
         13    1    5    5    0    0 -0.69263314371E+01 -0.54501413031E+02  0.26527800639E+03  0.27090736196E+03  0.00000000000E+00 0.  1.
        -13    1    5    5    0    0 -0.35216397500E+02 -0.33712097790E+03  0.82647927527E+03  0.89328536361E+03  0.00000000000E+00 0. -1.
          5    1    6    6  503    0  0.40800296434E+02 -0.11365963336E+03 -0.19648498157E+02  0.12243908658E+03  0.47000000000E+01 0. -1.
         -5    1    6    6    0  503 -0.20883185828E+02  0.22798175702E+01 -0.16947616854E+02  0.27397385560E+02  0.47000000000E+01 0.  1.
<mgrwt>
<rscale>  0 0.52246541E+03</rscale>
<asrwt>0</asrwt>
<pdfrwt beam="1">  1        2 0.35087689E-01 0.52246541E+03</pdfrwt>
<pdfrwt beam="2">  1       -2 0.28431002E+00 0.52246541E+03</pdfrwt>
<totfact> 0.63202749E+00</totfact>
</mgrwt>
</event>
<event>
12    1  0.3127365E-008  0.1143708E+04  0.7818608E-02  0.9163608E-01
         -1   -1    0    0    0  501 -0.00000000000E+00  0.00000000000E+00  0.61962416269E+03  0.61962416269E+03  0.00000000000E+00 0.  1.
          1   -1    0    0  501    0  0.00000000000E+00 -0.00000000000E+00 -0.21388891775E+04  0.21388891775E+04  0.00000000000E+00 0. -1.
         23    2    1    2    0    0  0.57618251163E+03 -0.90164631791E+03 -0.76891835416E+03  0.13205208137E+04  0.87105767214E+02 0.  0.
    5000000    2    1    2    0    0 -0.57618251163E+03  0.90164631791E+03 -0.75034666062E+03  0.14379925265E+04  0.59987500847E+03 0.  0.
         23    2    4    4    0    0 -0.57348305432E+03  0.38547059267E+03 -0.36001976520E+03  0.78443886623E+03  0.90882958379E+02 0.  0.
         23    2    4    4    0    0 -0.26994573163E+01  0.51617572525E+03 -0.39032689542E+03  0.65355366024E+03  0.91283268624E+02 0.  0.
          1    1    3    3  502    0  0.42857024962E+03 -0.59699940217E+03 -0.51657714873E+03  0.89829432573E+03  0.00000000000E+00 0. -1.
         -1    1    3    3    0  502  0.14761226201E+03 -0.30464691574E+03 -0.25234120543E+03  0.42222648795E+03  0.00000000000E+00 0.  1.
         13    1    5    5    0    0 -0.38717710834E+03  0.21931410805E+03 -0.26105951153E+03  0.51590392494E+03  0.00000000000E+00 0. -1.
        -13    1    5    5    0    0 -0.18630594598E+03  0.16615648462E+03 -0.98960253668E+02  0.26853494129E+03  0.00000000000E+00 0.  1.
          5    1    6    6  503    0  0.26052458098E+02  0.17945279275E+03 -0.17957722476E+03  0.25524910392E+03  0.47000000000E+01 0. -1.
         -5    1    6    6    0  503 -0.28751915414E+02  0.33672293250E+03 -0.21074967066E+03  0.39830455633E+03  0.47000000000E+01 0.  1.
<mgrwt>
<rscale>  0 0.11437077E+04</rscale>
<asrwt>0</asrwt>
<pdfrwt beam="1">  1        1 0.32905988E+00 0.11437077E+04</pdfrwt>
<pdfrwt beam="2">  1       -1 0.95326794E-01 0.11437077E+04</pdfrwt>
<totfact> 0.25328811E+00</totfact>
</mgrwt>
</event>
<event>
12    1  0.3127365E-008  0.9851800E+03  0.7818608E-02  0.9324950E-01
          1   -1    0    0  501    0  0.00000000000E+00  0.00000000000E+00  0.20560616335E+04  0.20560616335E+04  0.00000000000E+00 0. -1.
         -1   -1    0    0    0  501 -0.00000000000E+00 -0.00000000000E+00 -0.56074274112E+03  0.56074274112E+03  0.00000000000E+00 0.  1.
         23    2    1    2    0    0  0.26546685687E+03 -0.85997569215E+03  0.19482806871E+03  0.92523843737E+03  0.89874058787E+02 0.  0.
    5000000    2    1    2    0    0 -0.26546685687E+03  0.85997569215E+03  0.13004908236E+04  0.16915659372E+04  0.60007340752E+03 0.  0.
         23    2    4    4    0    0 -0.75976271499E-02  0.78358939460E+03  0.91669779565E+03  0.12096365706E+04  0.94198965236E+02 0.  0.
         23    2    4    4    0    0 -0.26545925924E+03  0.76386297551E+02  0.38379302799E+03  0.48192936660E+03  0.93034086690E+02 0.  0.
          4    1    3    3  502    0  0.13131446262E+03 -0.43670756580E+03  0.52863874688E+02  0.45907687304E+03  0.00000000000E+00 0. -1.
         -4    1    3    3    0  502  0.13415239425E+03 -0.42326812636E+03  0.14196419402E+03  0.46616156433E+03  0.00000000000E+00 0.  1.
         11    1    5    5    0    0 -0.35230991847E+02  0.13181798862E+03  0.15272806786E+03  0.20480006744E+03  0.00000000000E+00 0.  1.
        -11    1    5    5    0    0  0.35223394220E+02  0.65177140598E+03  0.76396972779E+03  0.10048365032E+04  0.00000000000E+00 0. -1.
          5    1    6    6  503    0 -0.11597891332E+03  0.60105651609E+02  0.24279536812E+03  0.27574531450E+03  0.47000000000E+01 0. -1.
         -5    1    6    6    0  503 -0.14948034593E+03  0.16280645942E+02  0.14099765987E+03  0.20618405210E+03  0.47000000000E+01 0.  1.
<mgrwt>
<rscale>  0 0.98518002E+03</rscale>
<asrwt>0</asrwt>
<pdfrwt beam="1">  1        1 0.31631717E+00 0.98518002E+03</pdfrwt>
<pdfrwt beam="2">  1       -1 0.86268115E-01 0.98518002E+03</pdfrwt>
<totfact> 0.36699200E+00</totfact>
</mgrwt>
</event>
<event>
12    1  0.3127365E-008  0.1018353E+04  0.7818608E-02  0.9288641E-01
         -2   -1    0    0    0  501 -0.00000000000E+00  0.00000000000E+00  0.77978138103E+03  0.77978138103E+03  0.00000000000E+00 0.  1.
          2   -1    0    0  501    0  0.00000000000E+00 -0.00000000000E+00 -0.20256036502E+04  0.20256036502E+04  0.00000000000E+00 0. -1.
         23    2    1    2    0    0  0.96788037978E+03 -0.24685950056E+03 -0.12964692184E+04  0.16390825743E+04  0.89594690698E+02 0.  0.
    5000000    2    1    2    0    0 -0.96788037978E+03  0.24685950056E+03  0.50646949217E+02  0.11663024569E+04  0.59997022006E+03 0.  0.
         23    2    4    4    0    0 -0.66189938907E+03  0.36583210480E+02  0.27368087699E+03  0.72281605787E+03  0.90070519834E+02 0.  0.
         23    2    4    4    0    0 -0.30598099071E+03  0.21027629008E+03 -0.22303392778E+03  0.44348639904E+03  0.95370689170E+02 0.  0.
          3    1    3    3  502    0  0.67965853236E+03 -0.17154694062E+03 -0.84075118808E+03  0.10946353885E+04  0.00000000000E+00 0. -1.
         -3    1    3    3    0  502  0.28822184742E+03 -0.75312559944E+02 -0.45571803032E+03  0.54444718585E+03  0.00000000000E+00 0.  1.
         11    1    5    5    0    0 -0.26841289760E+03  0.46169516689E+02  0.14601174266E+03  0.30902513953E+03  0.00000000000E+00 0.  1.
        -11    1    5    5    0    0 -0.39348649147E+03 -0.95863062094E+01  0.12766913433E+03  0.41379091834E+03  0.00000000000E+00 0. -1.
          5    1    6    6  503    0 -0.13330878810E+03  0.80248703628E+02 -0.41322643103E+02  0.16106128725E+03  0.47000000000E+01 0. -1.
         -5    1    6    6    0  503 -0.17267220261E+03  0.13002758645E+03 -0.18171128467E+03  0.28242511179E+03  0.47000000000E+01 0.  1.
<mgrwt>
<rscale>  0 0.10183533E+04</rscale>
<asrwt>0</asrwt>
<pdfrwt beam="1">  1        2 0.31163133E+00 0.10183533E+04</pdfrwt>
<pdfrwt beam="2">  1       -2 0.11996637E+00 0.10183533E+04</pdfrwt>
<totfact> 0.34253965E+00</totfact>
</mgrwt>
</event>
<event>
12    1  0.3127365E-008  0.1205949E+04  0.7818608E-02  0.9107666E-01
          1   -1    0    0  501    0  0.00000000000E+00  0.00000000000E+00  0.17945340894E+04  0.17945340894E+04  0.00000000000E+00 0. -1.
         -1   -1    0    0    0  501 -0.00000000000E+00 -0.00000000000E+00 -0.90717507902E+03  0.90717507902E+03  0.00000000000E+00 0.  1.
         23    2    1    2    0    0 -0.51575689806E+03  0.10871136811E+04  0.38663527530E+03  0.12670581553E+04  0.90156525601E+02 0.  0.
    5000000    2    1    2    0    0  0.51575689806E+03 -0.10871136811E+04  0.50072373507E+03  0.14346510131E+04  0.59973155407E+03 0.  0.
         23    2    4    4    0    0  0.40599820814E+03 -0.85077559096E+03  0.10728100257E+03  0.95329301952E+03  0.92761610443E+02 0.  0.
         23    2    4    4    0    0  0.10975868992E+03 -0.23633809019E+03  0.39344273250E+03  0.48135799360E+03  0.94898215773E+02 0.  0.
          4    1    3    3  502    0 -0.32239329384E+03  0.76965370486E+03  0.28368779495E+03  0.88135295218E+03  0.00000000000E+00 0. -1.
         -4    1    3    3    0  502 -0.19336360423E+03  0.31745997629E+03  0.10294748034E+03  0.38570520310E+03  0.00000000000E+00 0.  1.
         11    1    5    5    0    0  0.35691811504E+03 -0.69464962930E+03  0.61738746535E+02  0.78341580349E+03  0.00000000000E+00 0.  1.
        -11    1    5    5    0    0  0.49080093097E+02 -0.15612596166E+03  0.45542256034E+02  0.16987721603E+03  0.00000000000E+00 0. -1.
          5    1    6    6  503    0  0.45952894363E+02 -0.11489672349E+03  0.10673132702E+03  0.16348269552E+03  0.47000000000E+01 0. -1.
         -5    1    6    6    0  503  0.63805795561E+02 -0.12144136670E+03  0.28671140548E+03  0.31787529808E+03  0.47000000000E+01 0.  1.
<mgrwt>
<rscale>  0 0.12059487E+04</rscale>
<asrwt>0</asrwt>
<pdfrwt beam="1">  1        1 0.27608217E+00 0.12059487E+04</pdfrwt>
<pdfrwt beam="2">  1       -1 0.13956540E+00 0.12059487E+04</pdfrwt>
<totfact> 0.17045551E+00</totfact>
</mgrwt>
</event>
<event>
12    1  0.3127365E-008  0.7751480E+03  0.7818608E-02  0.9596703E-01
         -2   -1    0    0    0  501 -0.00000000000E+00  0.00000000000E+00  0.15605898359E+03  0.15605898359E+03  0.00000000000E+00 0.  1.
          2   -1    0    0  501    0  0.00000000000E+00 -0.00000000000E+00 -0.41901127747E+04  0.41901127747E+04  0.00000000000E+00 0. -1.
         23    2    1    2    0    0  0.42996752160E+03 -0.53433170686E+03 -0.14521823815E+04  0.16084524522E+04  0.88899826559E+02 0.  0.
    5000000    2    1    2    0    0 -0.42996752160E+03  0.53433170686E+03 -0.25818714095E+04  0.27377193060E+04  0.59888611671E+03 0.  0.
         23    2    4    4    0    0 -0.11455413909E+03  0.53552609509E+03 -0.12749725069E+04  0.13904992444E+04  0.89567883820E+02 0.  0.
         23    2    4    4    0    0 -0.31541338251E+03 -0.11943882277E+01 -0.13068989026E+04  0.13472200617E+04  0.86776290534E+02 0.  0.
          1    1    3    3  502    0  0.21984383088E+03 -0.24695570081E+03 -0.60368924271E+03  0.68830162712E+03  0.00000000000E+00 0. -1.
         -1    1    3    3    0  502  0.21012369073E+03 -0.28737600605E+03 -0.84849313884E+03  0.92015082509E+03  0.00000000000E+00 0.  1.
         13    1    5    5    0    0 -0.90268917089E+02  0.41548246700E+03 -0.88668303345E+03  0.98335190018E+03  0.00000000000E+00 0.  1.
        -13    1    5    5    0    0 -0.24285222004E+02  0.12004362809E+03 -0.38828947348E+03  0.40714734417E+03  0.00000000000E+00 0. -1.
          5    1    6    6  503    0 -0.18383104239E+03  0.76239227766E+01 -0.92590537814E+03  0.94402056948E+03  0.47000000000E+01 0. -1.
         -5    1    6    6    0  503 -0.13158234012E+03 -0.88183110043E+01 -0.38099352446E+03  0.40319949221E+03  0.47000000000E+01 0.  1.
<mgrwt>
<rscale>  0 0.77514796E+03</rscale>
<asrwt>0</asrwt>
<pdfrwt beam="1">  1        2 0.64463259E+00 0.77514796E+03</pdfrwt>
<pdfrwt beam="2">  1       -2 0.24009080E-01 0.77514796E+03</pdfrwt>
<totfact> 0.40535472E+00</totfact>
</mgrwt>
</event>
<event>
12    1  0.3127365E-008  0.2231477E+04  0.7818608E-02  0.8505440E-01
         -2   -1    0    0    0  501 -0.00000000000E+00  0.00000000000E+00  0.10748386539E+04  0.10748386539E+04  0.00000000000E+00 0.  1.
          2   -1    0    0  501    0  0.00000000000E+00 -0.00000000000E+00 -0.54702498901E+04  0.54702498901E+04  0.00000000000E+00 0. -1.
         23    2    1    2    0    0 -0.14411699239E+04  0.16739417122E+04 -0.94444190867E+03  0.24040245684E+04  0.91170177495E+02 0.  0.
    5000000    2    1    2    0    0  0.14411699239E+04 -0.16739417122E+04 -0.34509693275E+04  0.41410639756E+04  0.60014160400E+03 0.  0.
         23    2    4    4    0    0  0.90687397440E+03 -0.73488689753E+03 -0.14364091747E+04  0.18532172481E+04  0.93078966365E+02 0.  0.
         23    2    4    4    0    0  0.53429594946E+03 -0.93905481470E+03 -0.20145601528E+04  0.22878467274E+04  0.92162532040E+02 0.  0.
          3    1    3    3  502    0 -0.51435210452E+03  0.65550763849E+03 -0.33138224336E+03  0.89669534557E+03  0.00000000000E+00 0.  1.
         -3    1    3    3    0  502 -0.92681781934E+03  0.10184340737E+04 -0.61305966530E+03  0.15073292228E+04  0.00000000000E+00 0. -1.
         11    1    5    5    0    0  0.28065820875E+03 -0.17377613572E+03 -0.39914431819E+03  0.51796077287E+03  0.00000000000E+00 0. -1.
        -11    1    5    5    0    0  0.62621576564E+03 -0.56111076182E+03 -0.10372648565E+04  0.13352564753E+04  0.00000000000E+00 0.  1.
          5    1    6    6  503    0  0.54386010980E+01 -0.22069777687E+02 -0.71090197816E+02  0.74783418580E+02  0.47000000000E+01 0. -1.
         -5    1    6    6    0  503  0.52885734836E+03 -0.91698503701E+03 -0.19434699550E+04  0.22130633089E+04  0.47000000000E+01 0.  1.
<mgrwt>
<rscale>  0 0.22314766E+04</rscale>
<asrwt>0</asrwt>
<pdfrwt beam="1">  1        2 0.84157690E+00 0.22314766E+04</pdfrwt>
<pdfrwt beam="2">  1       -2 0.16535979E+00 0.22314766E+04</pdfrwt>
<totfact> 0.13931350E-03</totfact>
</mgrwt>
</event>
<event>
12    1  0.3127365E-008  0.3778524E+03  0.7818608E-02  0.1051730E+00
          1   -1    0    0  501    0  0.00000000000E+00  0.00000000000E+00  0.67769050797E+03  0.67769050797E+03  0.00000000000E+00 0. -1.
         -1   -1    0    0    0  501 -0.00000000000E+00 -0.00000000000E+00 -0.40166881469E+03  0.40166881469E+03  0.00000000000E+00 0.  1.
         23    2    1    2    0    0 -0.32398106266E+03  0.10252230435E+03  0.13356060469E+03  0.37508373600E+03  0.85876784043E+02 0.  0.
    5000000    2    1    2    0    0  0.32398106266E+03 -0.10252230435E+03  0.14246108859E+03  0.70427558666E+03  0.60019529184E+03 0.  0.
         23    2    4    4    0    0  0.12245069406E+03 -0.11501751548E+03  0.35198866441E+03  0.40002173135E+03  0.88871617148E+02 0.  0.
         23    2    4    4    0    0  0.20153036860E+03  0.12495211125E+02 -0.20952757582E+03  0.30425385531E+03  0.88870600723E+02 0.  0.
          3    1    3    3  502    0 -0.13901101137E+03  0.13781770088E+01  0.64414246829E+02  0.15321604306E+03  0.00000000000E+00 0. -1.
         -3    1    3    3    0  502 -0.18497005128E+03  0.10114412734E+03  0.69146357858E+02  0.22186769295E+03  0.00000000000E+00 0.  1.
         11    1    5    5    0    0  0.85981623656E+02 -0.12183912378E+03  0.30991729339E+03  0.34392781282E+03  0.00000000000E+00 0.  1.
        -11    1    5    5    0    0  0.36469070403E+02  0.68216083045E+01  0.42071371017E+02  0.56093918522E+02  0.00000000000E+00 0. -1.
          5    1    6    6  503    0  0.42696947934E+02  0.39627974595E+02 -0.43603223933E+02  0.72915957586E+02  0.47000000000E+01 0.  1.
         -5    1    6    6    0  503  0.15883342067E+03 -0.27132763470E+02 -0.16592435189E+03  0.23133789773E+03  0.47000000000E+01 0. -1.
<mgrwt>
<rscale>  0 0.37785241E+03</rscale>
<asrwt>0</asrwt>
<pdfrwt beam="1">  1        1 0.10426008E+00 0.37785241E+03</pdfrwt>
<pdfrwt beam="2">  1       -1 0.61795202E-01 0.37785241E+03</pdfrwt>
<totfact> 0.80681422E+01</totfact>
</mgrwt>
</event>
<event>
12    1  0.3127365E-008  0.4108474E+03  0.7818608E-02  0.1040087E+00
         -1   -1    0    0    0  501 -0.00000000000E+00  0.00000000000E+00  0.23096186169E+03  0.23096186169E+03  0.00000000000E+00 0.  1.
          1   -1    0    0  501    0  0.00000000000E+00 -0.00000000000E+00 -0.80213324738E+03  0.80213324738E+03  0.00000000000E+00 0. -1.
         23    2    1    2    0    0 -0.14463875524E+03 -0.13668654304E+03 -0.21852263113E+03  0.30925028089E+03  0.90994589682E+02 0.  0.
    5000000    2    1    2    0    0  0.14463875524E+03  0.13668654304E+03 -0.35264875456E+03  0.72384482819E+03  0.59998884209E+03 0.  0.
         23    2    4    4    0    0 -0.17144335074E+03  0.21567584841E+03 -0.20292067168E+03  0.35397092997E+03  0.90607539243E+02 0.  0.
         23    2    4    4    0    0  0.31608210598E+03 -0.78989305365E+02 -0.14972808289E+03  0.36987389822E+03  0.90779919016E+02 0.  0.
          1    1    3    3  502    0 -0.11872406746E+03 -0.78134543232E+02 -0.97573460143E+02  0.17239777019E+03  0.00000000000E+00 0. -1.
         -1    1    3    3    0  502 -0.25914687772E+02 -0.58551999811E+02 -0.12094917098E+03  0.13685251070E+03  0.00000000000E+00 0.  1.
         13    1    5    5    0    0 -0.17948381334E+00  0.52940447559E+02 -0.47958754691E+02  0.71433643010E+02  0.00000000000E+00 0.  1.
        -13    1    5    5    0    0 -0.17126386693E+03  0.16273540085E+03 -0.15496191698E+03  0.28253728696E+03  0.00000000000E+00 0. -1.
          5    1    6    6  503    0  0.29364932393E+03 -0.74520002135E+02 -0.10727753855E+03  0.32142451126E+03  0.47000000000E+01 0. -1.
         -5    1    6    6    0  503  0.22432782049E+02 -0.44693032295E+01 -0.42450544340E+02  0.48449386958E+02  0.47000000000E+01 0.  1.
<mgrwt>
<rscale>  0 0.41084745E+03</rscale>
<asrwt>0</asrwt>
<pdfrwt beam="1">  1        1 0.12340512E+00 0.41084745E+03</pdfrwt>
<pdfrwt beam="2">  1       -1 0.35532593E-01 0.41084745E+03</pdfrwt>
<totfact> 0.17341344E+02</totfact>
</mgrwt>
</event>
<event>
12    1  0.3127365E-008  0.9022670E+03  0.7818608E-02  0.9422752E-01
          2   -1    0    0  501    0  0.00000000000E+00  0.00000000000E+00  0.79374393532E+03  0.79374393532E+03  0.00000000000E+00 0. -1.
         -2   -1    0    0    0  501 -0.00000000000E+00 -0.00000000000E+00 -0.11868978382E+04  0.11868978382E+04  0.00000000000E+00 0.  1.
         23    2    1    2    0    0 -0.59175542499E+03  0.64477363535E+03 -0.16680547970E+03  0.89562710517E+03  0.91740501474E+02 0.  0.
    5000000    2    1    2    0    0  0.59175542499E+03 -0.64477363535E+03 -0.22634842314E+03  0.10850146683E+04  0.60009640722E+03 0.  0.
         23    2    4    4    0    0  0.53716151191E+03 -0.63729041392E+03 -0.36279556130E+03  0.91323240238E+03  0.87699714340E+02 0.  0.
         23    2    4    4    0    0  0.54593913080E+02 -0.74832214250E+01  0.13644713816E+03  0.17178226594E+03  0.88627486876E+02 0.  0.
          2    1    3    3  502    0 -0.26871920819E+03  0.35837273226E+03 -0.73017554262E+02  0.45384203343E+03  0.00000000000E+00 0. -1.
         -2    1    3    3    0  502 -0.32303621680E+03  0.28640090309E+03 -0.93787925434E+02  0.44178507174E+03  0.00000000000E+00 0.  1.
         11    1    5    5    0    0  0.43324894913E+03 -0.46013097747E+03 -0.28960843451E+03  0.69519652883E+03  0.00000000000E+00 0. -1.
        -11    1    5    5    0    0  0.10391256278E+03 -0.17715943645E+03 -0.73187126793E+02  0.21803587355E+03  0.00000000000E+00 0.  1.
          5    1    6    6  503    0  0.14690759636E+02  0.29246909824E+02  0.10692900173E+02  0.34750946275E+02  0.47000000000E+01 0. -1.
         -5    1    6    6    0  503  0.39903153443E+02 -0.36730131249E+02  0.12575423799E+03  0.13703131966E+03  0.47000000000E+01 0.  1.
<mgrwt>
<rscale>  0 0.90226697E+03</rscale>
<asrwt>0</asrwt>
<pdfrwt beam="1">  1        2 0.12211445E+00 0.90226697E+03</pdfrwt>
<pdfrwt beam="2">  1       -2 0.18259967E+00 0.90226697E+03</pdfrwt>
<totfact> 0.60673397E+00</totfact>
</mgrwt>
</event>
<event>
12    1  0.3127365E-008  0.6249921E+03  0.7818608E-02  0.9854870E-01
         -1   -1    0    0    0  501 -0.00000000000E+00  0.00000000000E+00  0.18477209911E+03  0.18477209911E+03  0.00000000000E+00 0.  1.
          1   -1    0    0  501    0  0.00000000000E+00 -0.00000000000E+00 -0.34365941821E+04  0.34365941821E+04  0.00000000000E+00 0. -1.
         23    2    1    2    0    0 -0.50222428711E+03 -0.11191293245E+03 -0.24127523398E+04  0.24686038453E+04  0.88754453125E+02 0.  0.
    5000000    2    1    2    0    0  0.50222428711E+03  0.11191293245E+03 -0.83906974318E+03  0.11527624359E+04  0.60005788105E+03 0.  0.
         23    2    4    4    0    0  0.44368004582E+03 -0.13417844040E+03 -0.71781577076E+03  0.85838591329E+03  0.81921050198E+02 0.  0.
         23    2    4    4    0    0  0.58544241293E+02  0.24609137285E+03 -0.12125397243E+03  0.29437652258E+03  0.89255919902E+02 0.  0.
          4    1    3    3  502    0 -0.48087732934E+03 -0.12531252162E+03 -0.22961304058E+04  0.23492894828E+04  0.00000000000E+00 0.  1.
         -4    1    3    3    0  502 -0.21346957774E+02  0.13399589168E+02 -0.11662193401E+03  0.11931436246E+03  0.00000000000E+00 0. -1.
         11    1    5    5    0    0  0.11133018833E+03 -0.68831666516E+02 -0.22719775270E+03  0.26220417231E+03  0.00000000000E+00 0. -1.
        -11    1    5    5    0    0  0.33234985749E+03 -0.65346773884E+02 -0.49061801806E+03  0.59618174098E+03  0.00000000000E+00 0.  1.
          5    1    6    6  503    0 -0.82887148713E+01  0.16298864583E+02 -0.35335705813E+02  0.40063173691E+02  0.47000000000E+01 0. -1.
         -5    1    6    6    0  503  0.66832956164E+02  0.22979250827E+03 -0.85918266612E+02  0.25431334889E+03  0.47000000000E+01 0.  1.
<mgrwt>
<rscale>  0 0.62499207E+03</rscale>
<asrwt>0</asrwt>
<pdfrwt beam="1">  1        1 0.52870677E+00 0.62499207E+03</pdfrwt>
<pdfrwt beam="2">  1       -1 0.28426478E-01 0.62499207E+03</pdfrwt>
<totfact> 0.34866448E+00</totfact>
</mgrwt>
</event>
<event>
12    1  0.3127365E-008  0.3378826E+03  0.7818608E-02  0.1067701E+00
          2   -1    0    0  501    0  0.00000000000E+00  0.00000000000E+00  0.20504940312E+03  0.20504940312E+03  0.00000000000E+00 0. -1.
         -2   -1    0    0    0  501 -0.00000000000E+00 -0.00000000000E+00 -0.68119233806E+03  0.68119233806E+03  0.00000000000E+00 0.  1.
         23    2    1    2    0    0  0.38808808736E+02 -0.94487091004E+02 -0.77795547807E+02  0.15872094056E+03  0.93307318648E+02 0.  0.
    5000000    2    1    2    0    0 -0.38808808736E+02  0.94487091004E+02 -0.39834738713E+03  0.72752080061E+03  0.60014326663E+03 0.  0.
         23    2    4    4    0    0  0.15065256448E+03  0.24449948481E+03 -0.70394368525E+02  0.30893528762E+03  0.89495539351E+02 0.  0.
         23    2    4    4    0    0 -0.18946137321E+03 -0.15001239380E+03 -0.32795301861E+03  0.41858551299E+03  0.96235747192E+02 0.  0.
          1    1    3    3  502    0  0.19724774228E+02  0.12932526212E+02  0.18233147297E+01  0.23656741727E+02  0.00000000000E+00 0. -1.
         -1    1    3    3    0  502  0.19084034508E+02 -0.10741961722E+03 -0.79618862536E+02  0.13506419884E+03  0.00000000000E+00 0.  1.
         13    1    5    5    0    0  0.11234810212E+03  0.23615052069E+03 -0.63765170620E+02  0.26917496440E+03  0.00000000000E+00 0.  1.
        -13    1    5    5    0    0  0.38304462355E+02  0.83489641134E+01 -0.66291979052E+01  0.39760323225E+02  0.00000000000E+00 0. -1.
          5    1    6    6  503    0 -0.64161574783E+02 -0.41677857278E+02 -0.18307953969E+03  0.19847911557E+03  0.47000000000E+01 0. -1.
         -5    1    6    6    0  503 -0.12529979843E+03 -0.10833453652E+03 -0.14487347892E+03  0.22010639742E+03  0.47000000000E+01 0.  1.
<mgrwt>
<rscale>  0 0.33788258E+03</rscale>
<asrwt>0</asrwt>
<pdfrwt beam="1">  1        2 0.31546061E-01 0.33788258E+03</pdfrwt>
<pdfrwt beam="2">  1       -2 0.10479882E+00 0.33788258E+03</pdfrwt>
<totfact> 0.12768710E+02</totfact>
</mgrwt>
</event>
<event>
12    1  0.3127365E-008  0.9043400E+03  0.7818608E-02  0.9420172E-01
         -1   -1    0    0    0  501 -0.00000000000E+00  0.00000000000E+00  0.15860839478E+04  0.15860839478E+04  0.00000000000E+00 0.  1.
          1   -1    0    0  501    0  0.00000000000E+00 -0.00000000000E+00 -0.19759379437E+04  0.19759379437E+04  0.00000000000E+00 0. -1.
         23    2    1    2    0    0  0.73613877069E+03 -0.44432742193E+03  0.13071233923E+04  0.15672476210E+04  0.91468001331E+02 0.  0.
    5000000    2    1    2    0    0 -0.73613877069E+03  0.44432742193E+03 -0.16969773882E+04  0.19947742706E+04  0.60005415334E+03 0.  0.
         23    2    4    4    0    0 -0.23310395135E+03 -0.28726790443E+02 -0.90788114266E+03  0.94212979506E+03  0.90541156013E+02 0.  0.
         23    2    4    4    0    0 -0.50303481934E+03  0.47305421238E+03 -0.78909624554E+03  0.10526444755E+04  0.92537504821E+02 0.  0.
          3    1    3    3  502    0  0.18971055675E+03 -0.93688768671E+02  0.38797346485E+03  0.44191751509E+03  0.00000000000E+00 0. -1.
         -3    1    3    3    0  502  0.54642821394E+03 -0.35063865326E+03  0.91914992741E+03  0.11253301059E+04  0.00000000000E+00 0.  1.
         11    1    5    5    0    0 -0.13278565588E+03 -0.60574728674E+02 -0.55684283574E+03  0.57565204063E+03  0.00000000000E+00 0.  1.
        -11    1    5    5    0    0 -0.10031829547E+03  0.31847938231E+02 -0.35103830691E+03  0.36647775443E+03  0.00000000000E+00 0. -1.
          5    1    6    6  503    0 -0.46253157960E+03  0.39368231507E+03 -0.69249924811E+03  0.92113979718E+03  0.47000000000E+01 0. -1.
         -5    1    6    6    0  503 -0.40503239747E+02  0.79371897303E+02 -0.96596997430E+02  0.13150467833E+03  0.47000000000E+01 0.  1.
<mgrwt>
<rscale>  0 0.90434004E+03</rscale>
<asrwt>0</asrwt>
<pdfrwt beam="1">  1        1 0.30399045E+00 0.90434004E+03</pdfrwt>
<pdfrwt beam="2">  1       -1 0.24401292E+00 0.90434004E+03</pdfrwt>
<totfact> 0.24434684E-01</totfact>
</mgrwt>
</event>
<event>
12    1  0.3127365E-008  0.1394328E+04  0.7818608E-02  0.8957935E-01
          2   -1    0    0  501    0  0.00000000000E+00  0.00000000000E+00  0.22024725111E+04  0.22024725111E+04  0.00000000000E+00 0.  1.
         -2   -1    0    0    0  501 -0.00000000000E+00 -0.00000000000E+00 -0.96172854448E+03  0.96172854448E+03  0.00000000000E+00 0. -1.
         23    2    1    2    0    0 -0.13539347587E+04 -0.30457187600E+03  0.71549804979E+03  0.15636610889E+04  0.84824426449E+02 0.  0.
    5000000    2    1    2    0    0  0.13539347587E+04  0.30457187600E+03  0.52524591679E+03  0.16005399666E+04  0.59995129249E+03 0.  0.
         23    2    4    4    0    0  0.79235589470E+03  0.10952394698E+03  0.47773770625E+01  0.80503873160E+03  0.90780929776E+02 0.  0.
         23    2    4    4    0    0  0.56157886396E+03  0.19504792902E+03  0.52046853973E+03  0.79550123504E+03  0.92304924323E+02 0.  0.
          2    1    3    3  502    0 -0.42621874304E+03 -0.92870642760E+02  0.18121498083E+03  0.47236240587E+03  0.00000000000E+00 0. -1.
         -2    1    3    3    0  502 -0.92771601562E+03 -0.21170123324E+03  0.53428306896E+03  0.10912986830E+04  0.00000000000E+00 0.  1.
         11    1    5    5    0    0  0.59279085313E+03  0.12144719855E+03  0.35505835288E+01  0.60511405886E+03  0.00000000000E+00 0. -1.
        -11    1    5    5    0    0  0.19956504157E+03 -0.11923251574E+02  0.12267935337E+01  0.19992467274E+03  0.00000000000E+00 0.  1.
          5    1    6    6  503    0  0.48218414101E+02  0.28078859286E+02  0.85578903025E+02  0.10227060399E+03  0.47000000000E+01 0. -1.
         -5    1    6    6    0  503  0.51336044985E+03  0.16696906974E+03  0.43488963670E+03  0.69323063106E+03  0.47000000000E+01 0.  1.
<mgrwt>
<rscale>  0 0.13943278E+04</rscale>
<asrwt>0</asrwt>
<pdfrwt beam="1">  1        2 0.33884192E+00 0.13943278E+04</pdfrwt>
<pdfrwt beam="2">  1       -2 0.14795824E+00 0.13943278E+04</pdfrwt>
<totfact> 0.15263966E+00</totfact>
</mgrwt>
</event>
<event>
12    1  0.3127365E-008  0.1283196E+04  0.7818608E-02  0.9042998E-01
          2   -1    0    0  501    0  0.00000000000E+00  0.00000000000E+00  0.10500604550E+04  0.10500604550E+04  0.00000000000E+00 0.  1.
         -2   -1    0    0    0  501 -0.00000000000E+00 -0.00000000000E+00 -0.18463323536E+04  0.18463323536E+04  0.00000000000E+00 0. -1.
         23    2    1    2    0    0 -0.90722975370E+03 -0.89672048806E+03 -0.30407167960E+01  0.12788348391E+04  0.90751529697E+02 0.  0.
    5000000    2    1    2    0    0  0.90722975370E+03  0.89672048806E+03 -0.79323118182E+03  0.16175579694E+04  0.60008717442E+03 0.  0.
         23    2    4    4    0    0  0.31262134235E+03  0.25422839426E+03  0.25933230465E+02  0.41444574920E+03  0.93426797243E+02 0.  0.
         23    2    4    4    0    0  0.59460841135E+03  0.64249209380E+03 -0.81916441228E+03  0.12031122202E+04  0.10046604725E+03 0.  0.
          4    1    3    3  502    0 -0.11364873669E+03 -0.13138751375E+03 -0.28493532268E+02  0.17604145961E+03  0.00000000000E+00 0.  1.
         -4    1    3    3    0  502 -0.79358101701E+03 -0.76533297431E+03  0.25452815472E+02  0.11027933795E+04  0.00000000000E+00 0. -1.
         11    1    5    5    0    0  0.13966386375E+03  0.17164361702E+03  0.20037250834E+01  0.22129514458E+03  0.00000000000E+00 0.  1.
        -11    1    5    5    0    0  0.17295747860E+03  0.82584777243E+02  0.23929505381E+02  0.19315060461E+03  0.00000000000E+00 0. -1.
          5    1    6    6  503    0  0.29297755548E+03  0.27588114913E+03 -0.31948629658E+03  0.51384807109E+03  0.47000000000E+01 0. -1.
         -5    1    6    6    0  503  0.30163085587E+03  0.36661094468E+03 -0.49967811570E+03  0.68926414914E+03  0.47000000000E+01 0.  1.
<mgrwt>
<rscale>  0 0.12831958E+04</rscale>
<asrwt>0</asrwt>
<pdfrwt beam="1">  1        2 0.16154776E+00 0.12831958E+04</pdfrwt>
<pdfrwt beam="2">  1       -2 0.28405113E+00 0.12831958E+04</pdfrwt>
<totfact> 0.90067072E-01</totfact>
</mgrwt>
</event>
<event>
12    1  0.3127365E-008  0.1155619E+04  0.7818608E-02  0.9152615E-01
          1   -1    0    0  501    0  0.00000000000E+00  0.00000000000E+00  0.27758881575E+04  0.27758881575E+04  0.00000000000E+00 0. -1.
         -1   -1    0    0    0  501 -0.00000000000E+00 -0.00000000000E+00 -0.56232886223E+03  0.56232886223E+03  0.00000000000E+00 0.  1.
         23    2    1    2    0    0  0.66039654094E+03 -0.89120992520E+03  0.15660047942E+04  0.19213870922E+04  0.94755582725E+02 0.  0.
    5000000    2    1    2    0    0 -0.66039654094E+03  0.89120992520E+03  0.64755450109E+03  0.14168299276E+04  0.59808150763E+03 0.  0.
         23    2    4    4    0    0 -0.62358190118E+03  0.90923060989E+03  0.69247774622E+03  0.13052654420E+04  0.92939527355E+02 0.  0.
         23    2    4    4    0    0 -0.36814639751E+02 -0.18020684693E+02 -0.44923245124E+02  0.11156448554E+03  0.93533275925E+02 0.  0.
          1    1    3    3  502    0  0.42915993466E+03 -0.64942212483E+03  0.10750270930E+04  0.13272567937E+04  0.00000000000E+00 0. -1.
         -1    1    3    3    0  502  0.23123660628E+03 -0.24178780037E+03  0.49097770118E+03  0.59413029846E+03  0.00000000000E+00 0.  1.
         13    1    5    5    0    0 -0.59222976251E+03  0.88377782895E+03  0.68147188169E+03  0.12634093826E+04  0.00000000000E+00 0.  1.
        -13    1    5    5    0    0 -0.31352138672E+02  0.25452780946E+02  0.11005864525E+02  0.41856059431E+02  0.00000000000E+00 0. -1.
          5    1    6    6  503    0 -0.23236805067E+02  0.33214553281E+02  0.16629443936E+01  0.40841290913E+02  0.47000000000E+01 0. -1.
         -5    1    6    6    0  503 -0.13577834685E+02 -0.51235237974E+02 -0.46586189518E+02  0.70723194630E+02  0.47000000000E+01 0.  1.
<mgrwt>
<rscale>  0 0.11556192E+04</rscale>
<asrwt>0</asrwt>
<pdfrwt beam="1">  1        1 0.42705971E+00 0.11556192E+04</pdfrwt>
<pdfrwt beam="2">  1       -1 0.86512135E-01 0.11556192E+04</pdfrwt>
<totfact> 0.11427828E+00</totfact>
</mgrwt>
</event>
<event>
12    1  0.3127365E-008  0.1488461E+04  0.7818608E-02  0.8892163E-01
          2   -1    0    0  501    0  0.00000000000E+00  0.00000000000E+00  0.11970568601E+04  0.11970568601E+04  0.00000000000E+00 0.  1.
         -2   -1    0    0    0  501 -0.00000000000E+00 -0.00000000000E+00 -0.35653579292E+04  0.35653579292E+04  0.00000000000E+00 0. -1.
         23    2    1    2    0    0 -0.14019562562E+04  0.34365925328E+03  0.47095057199E+03  0.15212841676E+04  0.94488363322E+02 0.  0.
    5000000    2    1    2    0    0  0.14019562562E+04 -0.34365925328E+03 -0.28392516411E+04  0.32411306217E+04  0.59999566603E+03 0.  0.
         23    2    4    4    0    0  0.48501397424E+03  0.12248943943E+03 -0.69231762502E+03  0.85877174741E+03  0.89123522421E+02 0.  0.
         23    2    4    4    0    0  0.91694228191E+03 -0.46614869271E+03 -0.21469340161E+04  0.23823588743E+04  0.90721467764E+02 0.  0.
          3    1    3    3  502    0 -0.21425735948E+03  0.65598522796E+02  0.40220390134E+02  0.22765557772E+03  0.00000000000E+00 0. -1.
         -3    1    3    3    0  502 -0.11876988967E+04  0.27806073048E+03  0.43073018186E+03  0.12936285899E+04  0.00000000000E+00 0.  1.
         11    1    5    5    0    0  0.34082624042E+03  0.95317134225E+02 -0.55228927920E+03  0.65595070711E+03  0.00000000000E+00 0. -1.
        -11    1    5    5    0    0  0.14418773382E+03  0.27172305204E+02 -0.14002834582E+03  0.20282104030E+03  0.00000000000E+00 0.  1.
          5    1    6    6  503    0  0.23891536155E+03 -0.16561249088E+03 -0.58279382134E+03  0.65129008538E+03  0.47000000000E+01 0. -1.
         -5    1    6    6    0  503  0.67802692036E+03 -0.30053620183E+03 -0.15641401947E+04  0.17310687890E+04  0.47000000000E+01 0.  1.
<mgrwt>
<rscale>  0 0.14884611E+04</rscale>
<asrwt>0</asrwt>
<pdfrwt beam="1">  1        2 0.18416259E+00 0.14884611E+04</pdfrwt>
<pdfrwt beam="2">  1       -2 0.54851660E+00 0.14884611E+04</pdfrwt>
<totfact> 0.15302584E-02</totfact>
</mgrwt>
</event>
<event>
12    1  0.3127365E-008  0.8331108E+03  0.7818608E-02  0.9513290E-01
         -2   -1    0    0    0  501 -0.00000000000E+00  0.00000000000E+00  0.16972394341E+04  0.16972394341E+04  0.00000000000E+00 0.  1.
          2   -1    0    0  501    0  0.00000000000E+00 -0.00000000000E+00 -0.72955756184E+03  0.72955756184E+03  0.00000000000E+00 0. -1.
         23    2    1    2    0    0 -0.61716712569E+03 -0.50176610907E+03 -0.26349252123E+03  0.84299030813E+03  0.92411371706E+02 0.  0.
    5000000    2    1    2    0    0  0.61716712569E+03  0.50176610907E+03  0.12311743935E+04  0.15838066878E+04  0.59999062321E+03 0.  0.
         23    2    4    4    0    0  0.98836859262E+01  0.42957885382E+02 -0.30415542559E+02  0.10758798691E+03  0.93311320500E+02 0.  0.
         23    2    4    4    0    0  0.60728343977E+03  0.45880822368E+03  0.12615899361E+04  0.14762187009E+04  0.91182914120E+02 0.  0.
          1    1    3    3  502    0 -0.56700829854E+03 -0.42377738774E+03 -0.22767694637E+03  0.74358757176E+03  0.00000000000E+00 0. -1.
         -1    1    3    3    0  502 -0.50158827155E+02 -0.77988721328E+02 -0.35815574864E+02  0.99402736375E+02  0.00000000000E+00 0.  1.
         11    1    5    5    0    0 -0.25359252294E+02  0.56067417357E+02 -0.40607327007E+01  0.61669575287E+02  0.00000000000E+00 0. -1.
        -11    1    5    5    0    0  0.35242938220E+02 -0.13109531975E+02 -0.26354809858E+02  0.45918411620E+02  0.00000000000E+00 0.  1.
          5    1    6    6  503    0  0.25312648488E+03  0.24750679829E+03  0.57244510691E+03  0.67308849565E+03  0.47000000000E+01 0. -1.
         -5    1    6    6    0  503  0.35415695489E+03  0.21130142539E+03  0.68914482918E+03  0.80313020529E+03  0.47000000000E+01 0.  1.
<mgrwt>
<rscale>  0 0.83311085E+03</rscale>
<asrwt>0</asrwt>
<pdfrwt beam="1">  1        2 0.11223962E+00 0.83311085E+03</pdfrwt>
<pdfrwt beam="2">  1       -2 0.26111376E+00 0.83311085E+03</pdfrwt>
<totfact> 0.21792787E+00</totfact>
</mgrwt>
</event>
<event>
12    1  0.3127365E-008  0.1068518E+04  0.7818608E-02  0.9236432E-01
         -1   -1    0    0    0  501 -0.00000000000E+00  0.00000000000E+00  0.69423086051E+03  0.69423086051E+03  0.00000000000E+00 0.  1.
          1   -1    0    0  501    0  0.00000000000E+00 -0.00000000000E+00 -0.22875248501E+04  0.22875248501E+04  0.00000000000E+00 0. -1.
         23    2    1    2    0    0  0.57374754149E+03  0.80209700756E+03  0.29045819113E+02  0.99066089187E+03  0.89551617383E+02 0.  0.
    5000000    2    1    2    0    0 -0.57374754149E+03 -0.80209700756E+03 -0.16223398087E+04  0.19910948188E+04  0.59993855639E+03 0.  0.
         23    2    4    4    0    0 -0.62547730965E+03 -0.42696321450E+03 -0.11157589063E+04  0.13516248721E+04  0.91936970196E+02 0.  0.
         23    2    4    4    0    0  0.51729768160E+02 -0.37513379306E+03 -0.50658090242E+03  0.63946994666E+03  0.94320042248E+02 0.  0.
          3    1    3    3  502    0  0.31399902783E+03  0.36744829631E+03 -0.23250386768E+01  0.48334154151E+03  0.00000000000E+00 0. -1.
         -3    1    3    3    0  502  0.25974851366E+03  0.43464871124E+03  0.31370857789E+02  0.50731935036E+03  0.00000000000E+00 0.  1.
         13    1    5    5    0    0 -0.21736387998E+03 -0.12633323295E+03 -0.44179137606E+03  0.50831757989E+03  0.00000000000E+00 0.  1.
        -13    1    5    5    0    0 -0.40811342968E+03 -0.30062998155E+03 -0.67396753026E+03  0.84330729223E+03  0.00000000000E+00 0. -1.
          5    1    6    6  503    0  0.68898014744E+02 -0.35709261186E+03 -0.45974308280E+03  0.58621485998E+03  0.47000000000E+01 0. -1.
         -5    1    6    6    0  503 -0.17168246583E+02 -0.18041181198E+02 -0.46837819622E+02  0.53255086674E+02  0.47000000000E+01 0.  1.
<mgrwt>
<rscale>  0 0.10685176E+04</rscale>
<asrwt>0</asrwt>
<pdfrwt beam="1">  1        1 0.35192690E+00 0.10685176E+04</pdfrwt>
<pdfrwt beam="2">  1       -1 0.10680475E+00 0.10685176E+04</pdfrwt>
<totfact> 0.15606386E+00</totfact>
</mgrwt>
</event>
<event>
12    1  0.3127365E-008  0.8434492E+03  0.7818608E-02  0.9499172E-01
         -1   -1    0    0    0  501 -0.00000000000E+00  0.00000000000E+00  0.39641557061E+03  0.39641557061E+03  0.00000000000E+00 0.  1.
          1   -1    0    0  501    0  0.00000000000E+00 -0.00000000000E+00 -0.24495252145E+04  0.24495252145E+04  0.00000000000E+00 0. -1.
         23    2    1    2    0    0  0.75262876196E+03 -0.25630108764E+03 -0.15145945541E+04  0.17136373237E+04  0.10205837909E+03 0.  0.
    5000000    2    1    2    0    0 -0.75262876196E+03  0.25630108764E+03 -0.53851508973E+03  0.11323034614E+04  0.59997693795E+03 0.  0.
         23    2    4    4    0    0  0.37414077125E+01  0.22365064395E+02 -0.27974123863E+03  0.29440863043E+03  0.88921801843E+02 0.  0.
         23    2    4    4    0    0 -0.75637016967E+03  0.23393602324E+03 -0.25877385110E+03  0.83789483101E+03  0.91005193736E+02 0.  0.
          4    1    3    3  502    0  0.55294047600E+03 -0.22352289387E+03 -0.10656740933E+04  0.12212153484E+04  0.00000000000E+00 0. -1.
         -4    1    3    3    0  502  0.19968828596E+03 -0.32778193769E+02 -0.44892046083E+03  0.49242197523E+03  0.00000000000E+00 0.  1.
         11    1    5    5    0    0  0.40146149902E+02 -0.11263430535E+02 -0.14341387302E+03  0.14935232571E+03  0.00000000000E+00 0. -1.
        -11    1    5    5    0    0 -0.36404742190E+02  0.33628494930E+02 -0.13632736561E+03  0.14505630472E+03  0.00000000000E+00 0.  1.
          5    1    6    6  503    0 -0.33799806925E+03  0.15150298831E+03 -0.12554603780E+03  0.39112625569E+03  0.47000000000E+01 0. -1.
         -5    1    6    6    0  503 -0.41837210042E+03  0.82433034933E+02 -0.13322781330E+03  0.44676857533E+03  0.47000000000E+01 0.  1.
<mgrwt>
<rscale>  0 0.84344924E+03</rscale>
<asrwt>0</asrwt>
<pdfrwt beam="1">  1        1 0.37685003E+00 0.84344924E+03</pdfrwt>
<pdfrwt beam="2">  1       -1 0.60987011E-01 0.84344924E+03</pdfrwt>
<totfact> 0.41714228E+00</totfact>
</mgrwt>
</event>
<event>
12    1  0.3127365E-008  0.1204081E+04  0.7818608E-02  0.9109292E-01
          1   -1    0    0  501    0  0.00000000000E+00  0.00000000000E+00  0.20064262556E+04  0.20064262556E+04  0.00000000000E+00 0. -1.
         -1   -1    0    0    0  501 -0.00000000000E+00 -0.00000000000E+00 -0.80050741325E+03  0.80050741325E+03  0.00000000000E+00 0.  1.
         23    2    1    2    0    0  0.10941997465E+04 -0.28621103308E+03  0.14257907692E+03  0.11425228642E+04  0.76418985998E+02 0.  0.
    5000000    2    1    2    0    0 -0.10941997465E+04  0.28621103308E+03  0.10633397654E+04  0.16644108046E+04  0.60031827321E+03 0.  0.
         23    2    4    4    0    0 -0.11346515318E+04  0.30552344989E+03  0.96544346390E+03  0.15235180143E+04  0.90815091889E+02 0.  0.
         23    2    4    4    0    0  0.40451785347E+02 -0.19312416806E+02  0.97896301500E+02  0.14089279027E+03  0.90872306681E+02 0.  0.
          1    1    3    3  502    0  0.88645125823E+03 -0.26125482375E+03  0.12459352706E+03  0.93250922952E+03  0.00000000000E+00 0. -1.
         -1    1    3    3    0  502  0.20774848826E+03 -0.24956209330E+02  0.17985549864E+02  0.21001363470E+03  0.00000000000E+00 0.  1.
         11    1    5    5    0    0 -0.83027550887E+03  0.26481064079E+03  0.71396310566E+03  0.11265990468E+04  0.00000000000E+00 0. -1.
        -11    1    5    5    0    0 -0.30437602296E+03  0.40712809096E+02  0.25148035824E+03  0.39691896749E+03  0.00000000000E+00 0.  1.
          5    1    6    6  503    0  0.51013750243E+02  0.20173303260E+02  0.77240815225E+02  0.94855671496E+02  0.47000000000E+01 0. -1.
         -5    1    6    6    0  503 -0.10561964897E+02 -0.39485720066E+02  0.20655486275E+02  0.46037118773E+02  0.47000000000E+01 0.  1.
<mgrwt>
<rscale>  0 0.12040808E+04</rscale>
<asrwt>0</asrwt>
<pdfrwt beam="1">  1        1 0.30868096E+00 0.12040808E+04</pdfrwt>
<pdfrwt beam="2">  1       -1 0.12315499E+00 0.12040808E+04</pdfrwt>
<totfact> 0.16857153E+00</totfact>
</mgrwt>
</event>
<event>
12    1  0.3127365E-008  0.7790726E+03  0.7818608E-02  0.9590813E-01
         -1   -1    0    0    0  501 -0.00000000000E+00  0.00000000000E+00  0.74075914882E+03  0.74075914882E+03  0.00000000000E+00 0.  1.
          1   -1    0    0  501    0  0.00000000000E+00 -0.00000000000E+00 -0.10882112135E+04  0.10882112135E+04  0.00000000000E+00 0. -1.
         23    2    1    2    0    0  0.67920667771E+03  0.36163537742E+03  0.47925884169E+02  0.77612575195E+03  0.89288494367E+02 0.  0.
    5000000    2    1    2    0    0 -0.67920667771E+03 -0.36163537742E+03 -0.39537794882E+03  0.10528446103E+04  0.60004682638E+03 0.  0.
         23    2    4    4    0    0 -0.22161214334E+03 -0.85591389126E+02 -0.44076097114E+03  0.50868234406E+03  0.89719928123E+02 0.  0.
         23    2    4    4    0    0 -0.45759453436E+03 -0.27604398829E+03  0.45383022323E+02  0.54416226628E+03  0.91977779761E+02 0.  0.
          2    1    3    3  502    0  0.13539939829E+03  0.52150080541E+02 -0.21111391897E+02  0.14662305012E+03  0.00000000000E+00 0. -1.
         -2    1    3    3    0  502  0.54380727941E+03  0.30948529688E+03  0.69037276066E+02  0.62950270183E+03  0.00000000000E+00 0.  1.
         13    1    5    5    0    0 -0.48304700045E+02 -0.60113464946E+02 -0.16260051972E+03  0.17996083387E+03  0.00000000000E+00 0. -1.
        -13    1    5    5    0    0 -0.17330744330E+03 -0.25477924181E+02 -0.27816045142E+03  0.32872151019E+03  0.00000000000E+00 0.  1.
          5    1    6    6  503    0 -0.14731921790E+02 -0.91377991526E+01  0.19364359579E+02  0.26412067600E+02  0.47000000000E+01 0. -1.
         -5    1    6    6    0  503 -0.44286261257E+03 -0.26690618914E+03  0.26018662744E+02  0.51775019868E+03  0.47000000000E+01 0.  1.
<mgrwt>
<rscale>  0 0.77907263E+03</rscale>
<asrwt>0</asrwt>
<pdfrwt beam="1">  1        1 0.16741711E+00 0.77907263E+03</pdfrwt>
<pdfrwt beam="2">  1       -1 0.11396295E+00 0.77907263E+03</pdfrwt>
<totfact> 0.93470514E+00</totfact>
</mgrwt>
</event>
<event>
12    1  0.3127365E-008  0.8261404E+03  0.7818608E-02  0.9522932E-01
         -2   -1    0    0    0  501 -0.00000000000E+00  0.00000000000E+00  0.10183548080E+04  0.10183548080E+04  0.00000000000E+00 0.  1.
          2   -1    0    0  501    0  0.00000000000E+00 -0.00000000000E+00 -0.82197764693E+03  0.82197764693E+03  0.00000000000E+00 0. -1.
         23    2    1    2    0    0  0.70851245925E+03  0.13812356838E+03 -0.28993305135E+03  0.78360495580E+03  0.94379698201E+02 0.  0.
    5000000    2    1    2    0    0 -0.70851245925E+03 -0.13812356838E+03  0.48631021246E+03  0.10567274992E+04  0.59925567139E+03 0.  0.
         23    2    4    4    0    0 -0.63480899710E+03 -0.31951872608E+03  0.42322453678E+03  0.83232246236E+03  0.92558055837E+02 0.  0.
         23    2    4    4    0    0 -0.73703462149E+02  0.18139515769E+03  0.63085675678E+02  0.22440503680E+03  0.89673934339E+02 0.  0.
          3    1    3    3  502    0  0.13708655550E+03  0.58455838580E+02 -0.36440489143E+02  0.15342007043E+03  0.00000000000E+00 0. -1.
         -3    1    3    3    0  502  0.57142590375E+03  0.79667729803E+02 -0.25349256220E+03  0.63018488537E+03  0.00000000000E+00 0.  1.
         11    1    5    5    0    0 -0.51943241891E+03 -0.28637858611E+03  0.31976571923E+03  0.67384927661E+03  0.00000000000E+00 0. -1.
        -11    1    5    5    0    0 -0.11537657819E+03 -0.33140139968E+02  0.10345881754E+03  0.15847318575E+03  0.00000000000E+00 0.  1.
          5    1    6    6  503    0  0.23309004049E+01  0.10531800846E+03  0.47379376888E+02  0.11560368228E+03  0.47000000000E+01 0. -1.
         -5    1    6    6    0  503 -0.76034362554E+02  0.76077149235E+02  0.15706298790E+02  0.10880135452E+03  0.47000000000E+01 0.  1.
<mgrwt>
<rscale>  0 0.82614044E+03</rscale>
<asrwt>0</asrwt>
<pdfrwt beam="1">  1        2 0.12645810E+00 0.82614044E+03</pdfrwt>
<pdfrwt beam="2">  1       -2 0.15666997E+00 0.82614044E+03</pdfrwt>
<totfact> 0.89329735E+00</totfact>
</mgrwt>
</event>
<event>
12    1  0.3127365E-008  0.7057199E+03  0.7818608E-02  0.9707500E-01
          1   -1    0    0  501    0  0.00000000000E+00  0.00000000000E+00  0.95789755933E+03  0.95789755933E+03  0.00000000000E+00 0. -1.
         -1   -1    0    0    0  501 -0.00000000000E+00 -0.00000000000E+00 -0.79316337720E+03  0.79316337720E+03  0.00000000000E+00 0.  1.
         23    2    1    2    0    0  0.32092306075E+03 -0.60762763910E+03 -0.26566349471E+03  0.74228597614E+03  0.90600326839E+02 0.  0.
    5000000    2    1    2    0    0 -0.32092306075E+03  0.60762763910E+03  0.43039767683E+03  0.10087749604E+04  0.60015148236E+03 0.  0.
         23    2    4    4    0    0 -0.61693890858E+02  0.29790662891E+03  0.49542028993E+03  0.58886871807E+03  0.93651522802E+02 0.  0.
         23    2    4    4    0    0 -0.25922916989E+03  0.30972101020E+03 -0.65022613100E+02  0.41990624233E+03  0.94691316669E+02 0.  0.
          3    1    3    3  502    0  0.22960900870E+03 -0.37832315393E+03 -0.20713404414E+03  0.48862379999E+03  0.00000000000E+00 0. -1.
         -3    1    3    3    0  502  0.91314052051E+02 -0.22930448517E+03 -0.58529450566E+02  0.25366217614E+03  0.00000000000E+00 0.  1.
         13    1    5    5    0    0 -0.27288006392E+02  0.26122456943E+03  0.37002257738E+03  0.45376163207E+03  0.00000000000E+00 0.  1.
        -13    1    5    5    0    0 -0.34405884466E+02  0.36682059480E+02  0.12539771255E+03  0.13510708600E+03  0.00000000000E+00 0. -1.
          5    1    6    6  503    0 -0.13568384406E+03  0.11227479709E+03  0.62519201501E+01  0.17628644901E+03  0.47000000000E+01 0. -1.
         -5    1    6    6    0  503 -0.12354532584E+03  0.19744621311E+03 -0.71274533250E+02  0.24361979332E+03  0.47000000000E+01 0.  1.
<mgrwt>
<rscale>  0 0.70571989E+03</rscale>
<asrwt>0</asrwt>
<pdfrwt beam="1">  1        1 0.14736886E+00 0.70571989E+03</pdfrwt>
<pdfrwt beam="2">  1       -1 0.12202513E+00 0.70571989E+03</pdfrwt>
<totfact> 0.10080321E+01</totfact>
</mgrwt>
</event>
<event>
12    1  0.3127365E-008  0.2122498E+04  0.7818608E-02  0.8551397E-01
         -2   -1    0    0    0  501 -0.00000000000E+00  0.00000000000E+00  0.18588763357E+04  0.18588763357E+04  0.00000000000E+00 0.  1.
          2   -1    0    0  501    0  0.00000000000E+00 -0.00000000000E+00 -0.32912614312E+04  0.32912614312E+04  0.00000000000E+00 0. -1.
         23    2    1    2    0    0  0.13340746322E+04 -0.16260791845E+04 -0.19857128636E+04  0.28940207404E+04  0.91716033527E+02 0.  0.
    5000000    2    1    2    0    0 -0.13340746322E+04  0.16260791845E+04  0.55332776809E+03  0.22561170264E+04  0.60000314942E+03 0.  0.
         23    2    4    4    0    0 -0.89734352671E+02  0.29517784569E+03 -0.68069813325E+02  0.32886032888E+03  0.91287467859E+02 0.  0.
         23    2    4    4    0    0 -0.12443402796E+04  0.13309013388E+04  0.62139758142E+03  0.19272566975E+04  0.92208020418E+02 0.  0.
          1    1    3    3  502    0  0.58579442846E+03 -0.73313529009E+03 -0.94650272550E+03  0.13328577851E+04  0.00000000000E+00 0.  1.
         -1    1    3    3    0  502  0.74828020376E+03 -0.89294389441E+03 -0.10392101381E+04  0.15611629553E+04  0.00000000000E+00 0. -1.
         13    1    5    5    0    0 -0.99225120671E+02  0.21797356921E+03 -0.74484677439E+02  0.25081082238E+03  0.00000000000E+00 0. -1.
        -13    1    5    5    0    0  0.94907680002E+01  0.77204276481E+02  0.64148641134E+01  0.78049506506E+02  0.00000000000E+00 0.  1.
          5    1    6    6  503    0 -0.42300988936E+03  0.51623505392E+03  0.23494096600E+03  0.70757002826E+03  0.47000000000E+01 0. -1.
         -5    1    6    6    0  503 -0.82133039020E+03  0.81466628488E+03  0.38645661541E+03  0.12196866693E+04  0.47000000000E+01 0.  1.
<mgrwt>
<rscale>  0 0.21224983E+04</rscale>
<asrwt>0</asrwt>
<pdfrwt beam="1">  1        2 0.50634791E+00 0.21224983E+04</pdfrwt>
<pdfrwt beam="2">  1       -2 0.28598097E+00 0.21224983E+04</pdfrwt>
<totfact> 0.38192562E-02</totfact>
</mgrwt>
</event>
<event>
12    1  0.4667061E-008  0.9262227E+03  0.7818608E-02  0.9393383E-01
          2   -1    0    0  501    0  0.00000000000E+00  0.00000000000E+00  0.97503913955E+03  0.97503913955E+03  0.00000000000E+00 0. -1.
         -2   -1    0    0    0  501 -0.00000000000E+00 -0.00000000000E+00 -0.93477278016E+03  0.93477278016E+03  0.00000000000E+00 0.  1.
         23    2    1    2    0    0 -0.82250783717E+03 -0.24119220216E+03 -0.16291389965E+02  0.86190801034E+03  0.89034758998E+02 0.  0.
    5000000    2    1    2    0    0  0.82250783717E+03  0.24119220216E+03  0.56557749355E+02  0.10479039094E+04  0.60017581065E+03 0.  0.
         23    2    4    4    0    0 -0.25042910506E+02 -0.59361154665E+02 -0.74660731064E+02  0.13452762727E+03  0.91501714115E+02 0.  0.
         23    2    4    4    0    0  0.84755074768E+03  0.30055335683E+03  0.13121848042E+03  0.91337628211E+03  0.91451369202E+02 0.  0.
          3    1    3    3  502    0 -0.41997177367E+03 -0.14144636419E+03  0.32477588548E+02  0.44434013816E+03  0.00000000000E+00 0. -1.
         -3    1    3    3    0  502 -0.40253606350E+03 -0.99745837972E+02 -0.48768978514E+02  0.41756787218E+03  0.00000000000E+00 0.  1.
         11    1    5    5    0    0 -0.34694372369E+02 -0.45006783893E+01  0.69992666605E+01  0.35678359181E+02  0.00000000000E+00 0.  1.
        -11    1    5    5    0    0  0.96514618631E+01 -0.54860476276E+02 -0.81659997724E+02  0.98849268089E+02  0.00000000000E+00 0. -1.
          5    1    6    6  503    0  0.54934415355E+03  0.14825986157E+03  0.80991299755E+02  0.57475357000E+03  0.47000000000E+01 0. -1.
         -5    1    6    6    0  503  0.29820659413E+03  0.15229349526E+03  0.50227180665E+02  0.33862271211E+03  0.47000000000E+01 0.  1.
<mgrwt>
<rscale>  0 0.92622266E+03</rscale>
<asrwt>0</asrwt>
<pdfrwt beam="1">  1        2 0.15000602E+00 0.92622266E+03</pdfrwt>
<pdfrwt beam="2">  1       -2 0.14381120E+00 0.92622266E+03</pdfrwt>
<totfact> 0.87397063E+00</totfact>
</mgrwt>
</event>
<event>
12    1  0.3127365E-008  0.6921009E+03  0.7818608E-02  0.9730837E-01
          1   -1    0    0  501    0  0.00000000000E+00  0.00000000000E+00  0.12018606295E+04  0.12018606295E+04  0.00000000000E+00 0. -1.
         -1   -1    0    0    0  501 -0.00000000000E+00 -0.00000000000E+00 -0.67715526588E+03  0.67715526588E+03  0.00000000000E+00 0.  1.
         23    2    1    2    0    0 -0.41530042331E+03 -0.52147815431E+03  0.69650163052E+03  0.96582636939E+03  0.57377238243E+02 0.  0.
    5000000    2    1    2    0    0  0.41530042331E+03  0.52147815431E+03 -0.17179626688E+03  0.91318952602E+03  0.59998937166E+03 0.  0.
         23    2    4    4    0    0  0.23975660101E+03  0.42570952180E+03  0.15376607038E+03  0.52032926951E+03  0.91579034921E+02 0.  0.
         23    2    4    4    0    0  0.17554382230E+03  0.95768632510E+02 -0.32556233726E+03  0.39286025651E+03  0.91438947843E+02 0.  0.
          3    1    3    3  502    0 -0.27805179332E+03 -0.30582123405E+03  0.44038759729E+03  0.60397074665E+03  0.00000000000E+00 0. -1.
         -3    1    3    3    0  502 -0.13724862999E+03 -0.21565692026E+03  0.25611403324E+03  0.36185562274E+03  0.00000000000E+00 0.  1.
         13    1    5    5    0    0  0.45886426829E+02  0.16857006283E+03  0.63455193578E+02  0.18587090101E+03  0.00000000000E+00 0. -1.
        -13    1    5    5    0    0  0.19387017418E+03  0.25713945896E+03  0.90310876801E+02  0.33445836850E+03  0.00000000000E+00 0.  1.
          5    1    6    6  503    0 -0.11805113783E+01 -0.10974006394E+02 -0.94573915185E+01  0.15275950962E+02  0.47000000000E+01 0. -1.
         -5    1    6    6    0  503  0.17672433368E+03  0.10674263890E+03 -0.31610494574E+03  0.37758430554E+03  0.47000000000E+01 0.  1.
<mgrwt>
<rscale>  0 0.69210095E+03</rscale>
<asrwt>0</asrwt>
<pdfrwt beam="1">  1        1 0.18490163E+00 0.69210095E+03</pdfrwt>
<pdfrwt beam="2">  1       -1 0.10417773E+00 0.69210095E+03</pdfrwt>
<totfact> 0.96422489E+00</totfact>
</mgrwt>
</event>
<event>
12    1  0.3127365E-008  0.7174537E+03  0.7818608E-02  0.9687841E-01
         -2   -1    0    0    0  501 -0.00000000000E+00  0.00000000000E+00  0.85287582423E+03  0.85287582423E+03  0.00000000000E+00 0.  1.
          2   -1    0    0  501    0  0.00000000000E+00 -0.00000000000E+00 -0.62135831762E+03  0.62135831762E+03  0.00000000000E+00 0. -1.
         23    2    1    2    0    0 -0.12977621792E+03  0.58517384683E+03  0.61619658514E+02  0.60933044221E+03  0.90643851083E+02 0.  0.
    5000000    2    1    2    0    0  0.12977621792E+03 -0.58517384683E+03  0.16989784810E+03  0.86490369964E+03  0.59993569081E+03 0.  0.
         23    2    4    4    0    0 -0.22477837601E+03 -0.18295157762E+03  0.68791844058E+02  0.31180425004E+03  0.92157335376E+02 0.  0.
         23    2    4    4    0    0  0.35455459393E+03 -0.40222226921E+03  0.10110600404E+03  0.55309944959E+03  0.90580699701E+02 0.  0.
          3    1    3    3  502    0 -0.11192216375E+03  0.49020858417E+03  0.17557522162E+02  0.50312949955E+03  0.00000000000E+00 0. -1.
         -3    1    3    3    0  502 -0.17854054174E+02  0.94965262657E+02  0.44062136353E+02  0.10620094266E+03  0.00000000000E+00 0.  1.
         13    1    5    5    0    0 -0.11813636369E+03 -0.49222439973E+02  0.14717071412E+01  0.12798912041E+03  0.00000000000E+00 0. -1.
        -13    1    5    5    0    0 -0.10664201232E+03 -0.13372913764E+03  0.67320136916E+02  0.18381512963E+03  0.00000000000E+00 0.  1.
          5    1    6    6  503    0  0.92063540216E+02 -0.96485962112E+02  0.65187570660E+02  0.14851513623E+03  0.47000000000E+01 0. -1.
         -5    1    6    6    0  503  0.26249105371E+03 -0.30573630710E+03  0.35918433380E+02  0.40458431336E+03  0.47000000000E+01 0.  1.
<mgrwt>
<rscale>  0 0.71745373E+03</rscale>
<asrwt>0</asrwt>
<pdfrwt beam="1">  1        2 0.95593587E-01 0.71745373E+03</pdfrwt>
<pdfrwt beam="2">  1       -2 0.13121167E+00 0.71745373E+03</pdfrwt>
<totfact> 0.20495400E+01</totfact>
</mgrwt>
</event>
<event>
12    1  0.3127365E-008  0.5050886E+03  0.7818608E-02  0.1012459E+00
         -1   -1    0    0    0  501 -0.00000000000E+00  0.00000000000E+00  0.48296872380E+03  0.48296872380E+03  0.00000000000E+00 0.  1.
          1   -1    0    0  501    0  0.00000000000E+00 -0.00000000000E+00 -0.70244640909E+03  0.70244640909E+03  0.00000000000E+00 0. -1.
         23    2    1    2    0    0  0.21573505598E+03  0.33858255253E+03 -0.21321664458E+03  0.46350054722E+03  0.90507792436E+02 0.  0.
    5000000    2    1    2    0    0 -0.21573505598E+03 -0.33858255253E+03 -0.62610407108E+01  0.72191458568E+03  0.59995142231E+03 0.  0.
         23    2    4    4    0    0  0.13051606963E+03 -0.12958763714E+03 -0.18102114114E+03  0.27187692903E+03  0.85562905916E+02 0.  0.
         23    2    4    4    0    0 -0.34625112561E+03 -0.20899491539E+03  0.17476010043E+03  0.45003765665E+03  0.91782803683E+02 0.  0.
          2    1    3    3  502    0  0.15709752712E+03  0.27073581021E+03 -0.12304511351E+03  0.33632961795E+03  0.00000000000E+00 0. -1.
         -2    1    3    3    0  502  0.58637528859E+02  0.67846742324E+02 -0.90171531071E+02  0.12717092927E+03  0.00000000000E+00 0.  1.
         11    1    5    5    0    0  0.10961459431E+03 -0.50105788121E+02 -0.10259554931E+03  0.15827759168E+03  0.00000000000E+00 0. -1.
        -11    1    5    5    0    0  0.20901475324E+02 -0.79481849014E+02 -0.78425591832E+02  0.11359933736E+03  0.00000000000E+00 0.  1.
          5    1    6    6  503    0 -0.11476269895E+03 -0.61988180171E+02  0.10375176353E+03  0.16673191052E+03  0.47000000000E+01 0. -1.
         -5    1    6    6    0  503 -0.23148842666E+03 -0.14700673522E+03  0.71008336906E+02  0.28330574613E+03  0.47000000000E+01 0.  1.
<mgrwt>
<rscale>  0 0.50508860E+03</rscale>
<asrwt>0</asrwt>
<pdfrwt beam="1">  1        1 0.10806868E+00 0.50508860E+03</pdfrwt>
<pdfrwt beam="2">  1       -1 0.74302881E-01 0.50508860E+03</pdfrwt>
<totfact> 0.51872585E+01</totfact>
</mgrwt>
</event>
<event>
12    1  0.3127365E-008  0.7561314E+03  0.7818608E-02  0.9625780E-01
         -2   -1    0    0    0  501 -0.00000000000E+00  0.00000000000E+00  0.29742282408E+03  0.29742282408E+03  0.00000000000E+00 0.  1.
          2   -1    0    0  501    0  0.00000000000E+00 -0.00000000000E+00 -0.23012319354E+04  0.23012319354E+04  0.00000000000E+00 0. -1.
         23    2    1    2    0    0 -0.22618407611E+03  0.59479404264E+03 -0.13864010669E+04  0.15280750001E+04  0.89253000805E+02 0.  0.
    5000000    2    1    2    0    0  0.22618407611E+03 -0.59479404264E+03 -0.61740804448E+03  0.10705797595E+04  0.60000761538E+03 0.  0.
         23    2    4    4    0    0  0.24145465215E+02 -0.64078845542E+03 -0.47702327447E+03  0.80338077203E+03  0.81710540315E+02 0.  0.
         23    2    4    4    0    0  0.20203861090E+03  0.45994412778E+02 -0.14038477001E+03  0.26719898742E+03  0.93553882476E+02 0.  0.
          3    1    3    3  502    0 -0.66921967134E+02  0.29748103942E+03 -0.63209879118E+03  0.70179940176E+03  0.00000000000E+00 0. -1.
         -3    1    3    3    0  502 -0.15926210898E+03  0.29731300322E+03 -0.75430227569E+03  0.82627559831E+03  0.00000000000E+00 0.  1.
         11    1    5    5    0    0  0.51767401314E+02 -0.29490388686E+03 -0.22478370799E+03  0.37440069672E+03  0.00000000000E+00 0.  1.
        -11    1    5    5    0    0 -0.27621936100E+02 -0.34588456856E+03 -0.25223956648E+03  0.42898007532E+03  0.00000000000E+00 0. -1.
          5    1    6    6  503    0  0.14525066628E+03  0.70636413555E+02 -0.12194886887E+03  0.20243733745E+03  0.47000000000E+01 0.  1.
         -5    1    6    6    0  503  0.56787944617E+02 -0.24642000776E+02 -0.18435901146E+02  0.64761649973E+02  0.47000000000E+01 0. -1.
<mgrwt>
<rscale>  0 0.75613140E+03</rscale>
<asrwt>0</asrwt>
<pdfrwt beam="1">  1        2 0.35403569E+00 0.75613140E+03</pdfrwt>
<pdfrwt beam="2">  1       -2 0.45757357E-01 0.75613140E+03</pdfrwt>
<totfact> 0.21313579E+01</totfact>
</mgrwt>
</event>
<event>
12    1  0.3127365E-008  0.5381725E+03  0.7818608E-02  0.1004269E+00
         -2   -1    0    0    0  501 -0.00000000000E+00  0.00000000000E+00  0.14477262249E+03  0.14477262249E+03  0.00000000000E+00 0.  1.
          2   -1    0    0  501    0  0.00000000000E+00 -0.00000000000E+00 -0.27425452847E+04  0.27425452847E+04  0.00000000000E+00 0. -1.
         23    2    1    2    0    0 -0.41466600768E+03 -0.55695788651E+02 -0.45298905128E+03  0.62124044557E+03  0.75436674357E+02 0.  0.
    5000000    2    1    2    0    0  0.41466600768E+03  0.55695788651E+02 -0.21447836110E+04  0.22660774617E+04  0.59996700371E+03 0.  0.
         23    2    4    4    0    0 -0.66938549826E+02  0.13712351002E+03 -0.10392123169E+04  0.10543161673E+04  0.91305611370E+02 0.  0.
         23    2    4    4    0    0  0.48160455751E+03 -0.81427721372E+02 -0.11055712941E+04  0.12117612944E+04  0.86626350005E+02 0.  0.
          3    1    3    3  502    0 -0.29526017926E+03 -0.72032996884E+01 -0.29629237690E+03  0.41835347923E+03  0.00000000000E+00 0. -1.
         -3    1    3    3    0  502 -0.11940582842E+03 -0.48492488963E+02 -0.15669667438E+03  0.20288696634E+03  0.00000000000E+00 0.  1.
         11    1    5    5    0    0 -0.70695118945E+02  0.11611809138E+03 -0.10038581195E+04  0.10130213892E+04  0.00000000000E+00 0. -1.
        -11    1    5    5    0    0  0.37565691193E+01  0.21005418648E+02 -0.35354197405E+02  0.41294778099E+02  0.00000000000E+00 0.  1.
          5    1    6    6  503    0  0.32851892140E+03 -0.92362176535E+02 -0.80088686839E+03  0.87057298334E+03  0.47000000000E+01 0. -1.
         -5    1    6    6    0  503  0.15308563611E+03  0.10934455164E+02 -0.30468442572E+03  0.34118831101E+03  0.47000000000E+01 0.  1.
<mgrwt>
<rscale>  0 0.53817248E+03</rscale>
<asrwt>0</asrwt>
<pdfrwt beam="1">  1        2 0.42193003E+00 0.53817248E+03</pdfrwt>
<pdfrwt beam="2">  1       -2 0.22272712E-01 0.53817248E+03</pdfrwt>
<totfact> 0.47946157E+01</totfact>
</mgrwt>
</event>
<event>
12    1  0.3127365E-008  0.8449950E+03  0.7818608E-02  0.9497079E-01
          1   -1    0    0  501    0  0.00000000000E+00  0.00000000000E+00  0.12709592716E+04  0.12709592716E+04  0.00000000000E+00 0. -1.
         -1   -1    0    0    0  501 -0.00000000000E+00 -0.00000000000E+00 -0.80242168448E+03  0.80242168448E+03  0.00000000000E+00 0.  1.
         23    2    1    2    0    0  0.24731712675E+03 -0.76394645992E+03 -0.24318776495E+03  0.84405742948E+03  0.92264296621E+02 0.  0.
    5000000    2    1    2    0    0 -0.24731712675E+03  0.76394645992E+03  0.71172535204E+03  0.12293235266E+04  0.59991949580E+03 0.  0.
         23    2    4    4    0    0 -0.24577276975E+03  0.23403056415E+03  0.19151745961E+02  0.35307091049E+03  0.95486748601E+02 0.  0.
         23    2    4    4    0    0 -0.15443569995E+01  0.52991589578E+03  0.69257360608E+03  0.87625261608E+03  0.85715842853E+02 0.  0.
          1    1    3    3  502    0  0.30529747448E+02 -0.11591167746E+03 -0.35347335092E+01  0.11991695790E+03  0.00000000000E+00 0. -1.
         -1    1    3    3    0  502  0.21678737930E+03 -0.64803478246E+03 -0.23965303144E+03  0.72414047158E+03  0.00000000000E+00 0.  1.
         11    1    5    5    0    0 -0.43294791374E+02  0.95258118972E+02  0.24810327690E+02  0.10753650799E+03  0.00000000000E+00 0.  1.
        -11    1    5    5    0    0 -0.20247797837E+03  0.13877244518E+03 -0.56585817290E+01  0.24553440251E+03  0.00000000000E+00 0. -1.
          5    1    6    6  503    0 -0.42897456577E+02  0.25109790277E+03  0.33802056634E+03  0.42328517790E+03  0.47000000000E+01 0. -1.
         -5    1    6    6    0  503  0.41353099578E+02  0.27881799301E+03  0.35455303974E+03  0.45296743819E+03  0.47000000000E+01 0.  1.
<mgrwt>
<rscale>  0 0.84499503E+03</rscale>
<asrwt>0</asrwt>
<pdfrwt beam="1">  1        1 0.19553220E+00 0.84499503E+03</pdfrwt>
<pdfrwt beam="2">  1       -1 0.12344949E+00 0.84499503E+03</pdfrwt>
<totfact> 0.56086573E+00</totfact>
</mgrwt>
</event>
<event>
12    1  0.3127365E-008  0.4942775E+03  0.7818608E-02  0.1015283E+00
          1   -1    0    0  501    0  0.00000000000E+00  0.00000000000E+00  0.30144475080E+03  0.30144475080E+03  0.00000000000E+00 0. -1.
         -1   -1    0    0    0  501 -0.00000000000E+00 -0.00000000000E+00 -0.11797173246E+04  0.11797173246E+04  0.00000000000E+00 0.  1.
         23    2    1    2    0    0 -0.10325282264E+03  0.41861481279E+03 -0.22588384014E+03  0.49557828237E+03  0.93138702227E+02 0.  0.
    5000000    2    1    2    0    0  0.10325282264E+03 -0.41861481279E+03 -0.65238873367E+03  0.98558379305E+03  0.59988736145E+03 0.  0.
         23    2    4    4    0    0  0.51773743993E+02 -0.46334113890E+03 -0.19374937178E+03  0.51293712367E+03  0.90554636579E+02 0.  0.
         23    2    4    4    0    0  0.51479078650E+02  0.44726326113E+02 -0.45863936189E+03  0.47264666938E+03  0.91620248911E+02 0.  0.
          1    1    3    3  502    0 -0.88513367311E+02  0.27113681554E+03 -0.10366715665E+03  0.30347432890E+03  0.00000000000E+00 0. -1.
         -1    1    3    3    0  502 -0.14739455332E+02  0.14747799725E+03 -0.12221668349E+03  0.19210395347E+03  0.00000000000E+00 0.  1.
         13    1    5    5    0    0  0.34203971057E+01 -0.36440904006E+03 -0.13985888008E+03  0.39034107384E+03  0.00000000000E+00 0. -1.
        -13    1    5    5    0    0  0.48353346887E+02 -0.98932098845E+02 -0.53890491700E+02  0.12259604983E+03  0.00000000000E+00 0.  1.
          5    1    6    6  503    0  0.26439100315E+02  0.47893993132E+02 -0.43263044735E+03  0.43610096833E+03  0.47000000000E+01 0. -1.
         -5    1    6    6    0  503  0.25039978335E+02 -0.31676670192E+01 -0.26008914538E+02  0.36545701044E+02  0.47000000000E+01 0. -1.
<mgrwt>
<rscale>  0 0.49427749E+03</rscale>
<asrwt>0</asrwt>
<pdfrwt beam="1">  1        1 0.46376116E-01 0.49427749E+03</pdfrwt>
<pdfrwt beam="2">  1       -1 0.18149497E+00 0.49427749E+03</pdfrwt>
<totfact> 0.18762968E+01</totfact>
</mgrwt>
</event>
<event>
12    1  0.3127365E-008  0.4133489E+03  0.7818608E-02  0.1039253E+00
          1   -1    0    0  501    0  0.00000000000E+00  0.00000000000E+00  0.28706491419E+04  0.28706491419E+04  0.00000000000E+00 0. -1.
         -1   -1    0    0    0  501 -0.00000000000E+00 -0.00000000000E+00 -0.11297592116E+03  0.11297592116E+03  0.00000000000E+00 0.  1.
         23    2    1    2    0    0  0.35390933439E+03  0.98076459123E+02  0.55841315552E+03  0.67464827162E+03  0.91946883282E+02 0.  0.
    5000000    2    1    2    0    0 -0.35390933439E+03 -0.98076459123E+02  0.21992600653E+04  0.23089767915E+04  0.59979844960E+03 0.  0.
         23    2    4    4    0    0 -0.11917437775E+03 -0.15997925061E+03  0.18984389860E+04  0.19110367331E+04  0.90525791384E+02 0.  0.
         23    2    4    4    0    0 -0.23473495663E+03  0.61902791486E+02  0.30082107927E+03  0.39794005835E+03  0.94501390714E+02 0.  0.
          3    1    3    3  502    0  0.17193573721E+03  0.34053701942E+02  0.18812350641E+03  0.25712255057E+03  0.00000000000E+00 0. -1.
         -3    1    3    3    0  502  0.18197359718E+03  0.64022757181E+02  0.37028964910E+03  0.41752572105E+03  0.00000000000E+00 0.  1.
         11    1    5    5    0    0 -0.94913491311E+01 -0.58910316542E+02  0.84330766871E+03  0.84541607224E+03  0.00000000000E+00 0. -1.
        -11    1    5    5    0    0 -0.10968302862E+03 -0.10106893407E+03  0.10551313173E+04  0.10656206609E+04  0.00000000000E+00 0.  1.
          5    1    6    6  503    0 -0.66976065814E+02 -0.85503506774E+01  0.36172088042E+02  0.76742503490E+02  0.47000000000E+01 0. -1.
         -5    1    6    6    0  503 -0.16775889082E+03  0.70453142163E+02  0.26464899123E+03  0.32119755486E+03  0.47000000000E+01 0.  1.
<mgrwt>
<rscale>  0 0.41334895E+03</rscale>
<asrwt>0</asrwt>
<pdfrwt beam="1">  1        1 0.44163827E+00 0.41334895E+03</pdfrwt>
<pdfrwt beam="2">  1       -1 0.17380913E-01 0.41334895E+03</pdfrwt>
<totfact> 0.21622962E+01</totfact>
</mgrwt>
</event>
<event>
12    1  0.3127365E-008  0.3814986E+03  0.7818608E-02  0.1050381E+00
          1   -1    0    0  501    0  0.00000000000E+00  0.00000000000E+00  0.10164681029E+04  0.10164681029E+04  0.00000000000E+00 0. -1.
         -1   -1    0    0    0  501 -0.00000000000E+00 -0.00000000000E+00 -0.28076804820E+03  0.28076804820E+03  0.00000000000E+00 0.  1.
         23    2    1    2    0    0 -0.28818232606E+03 -0.16920315415E+03  0.97282908922E+02  0.35952266657E+03  0.90076761621E+02 0.  0.
    5000000    2    1    2    0    0  0.28818232606E+03  0.16920315415E+03  0.63841714580E+03  0.93771348454E+03  0.60004280399E+03 0.  0.
         23    2    4    4    0    0  0.20567938388E+03  0.19932811843E+03  0.72502293773E+03  0.78478736702E+03  0.90538629588E+02 0.  0.
         23    2    4    4    0    0  0.82502942178E+02 -0.30124964283E+02 -0.86605791931E+02  0.15292611752E+03  0.90396821200E+02 0.  0.
          3    1    3    3  502    0 -0.68378790459E+02 -0.86357158162E+02  0.44287892944E+02  0.11872082889E+03  0.00000000000E+00 0. -1.
         -3    1    3    3    0  502 -0.21980353560E+03 -0.82845995985E+02  0.52995015978E+02  0.24080183768E+03  0.00000000000E+00 0.  1.
         13    1    5    5    0    0  0.15970545507E+03  0.19263540330E+03  0.65051124185E+03  0.69697855545E+03  0.00000000000E+00 0.  1.
        -13    1    5    5    0    0  0.45973928812E+02  0.66927151263E+01  0.74511695881E+02  0.87808811570E+02  0.00000000000E+00 0. -1.
          5    1    6    6  503    0  0.87784392220E+02 -0.49324071384E+02 -0.85926575037E+02  0.13245538809E+03  0.47000000000E+01 0. -1.
         -5    1    6    6    0  503 -0.52814500429E+01  0.19199107101E+02 -0.67921689337E+00  0.20470729435E+02  0.47000000000E+01 0. -1.
<mgrwt>
<rscale>  0 0.38149862E+03</rscale>
<asrwt>0</asrwt>
<pdfrwt beam="1">  1        1 0.15637971E+00 0.38149862E+03</pdfrwt>
<pdfrwt beam="2">  1       -1 0.43195085E-01 0.38149862E+03</pdfrwt>
<totfact> 0.82845880E+01</totfact>
</mgrwt>
</event>
<event>
12    1  0.3127365E-008  0.8421084E+03  0.7818608E-02  0.9500990E-01
          1   -1    0    0  501    0  0.00000000000E+00  0.00000000000E+00  0.96690439395E+03  0.96690439395E+03  0.00000000000E+00 0. -1.
         -1   -1    0    0    0  501 -0.00000000000E+00 -0.00000000000E+00 -0.10861612109E+04  0.10861612109E+04  0.00000000000E+00 0.  1.
         23    2    1    2    0    0 -0.81397633710E+03  0.12974863621E+03 -0.49583151928E+03  0.96623702545E+03  0.91503594829E+02 0.  0.
    5000000    2    1    2    0    0  0.81397633710E+03 -0.12974863621E+03  0.37657470234E+03  0.10868285794E+04  0.59999639047E+03 0.  0.
         23    2    4    4    0    0  0.61481500365E+03 -0.39932657006E+02 -0.22335360919E+02  0.62331381928E+03  0.91810365191E+02 0.  0.
         23    2    4    4    0    0  0.19916133346E+03 -0.89815979202E+02  0.39891006326E+03  0.46351476011E+03  0.89356294716E+02 0.  0.
          1    1    3    3  502    0 -0.32185549296E+03  0.73039678806E+01 -0.20420023704E+03  0.38123751534E+03  0.00000000000E+00 0. -1.
         -1    1    3    3    0  502 -0.49212084414E+03  0.12244466833E+03 -0.29163128225E+03  0.58499951011E+03  0.00000000000E+00 0.  1.
         11    1    5    5    0    0  0.94898166602E+02 -0.29019863607E+02 -0.28494239477E+02  0.10324599843E+03  0.00000000000E+00 0.  1.
        -11    1    5    5    0    0  0.51991683704E+03 -0.10912793398E+02  0.61588785582E+01  0.52006782085E+03  0.00000000000E+00 0. -1.
          5    1    6    6  503    0  0.20785589741E+03 -0.82919866611E+02  0.38203098083E+03  0.44277481713E+03  0.47000000000E+01 0. -1.
         -5    1    6    6    0  503 -0.86945639557E+01 -0.68961125909E+01  0.16879082425E+02  0.20739942978E+02  0.47000000000E+01 0.  1.
<mgrwt>
<rscale>  0 0.84210841E+03</rscale>
<asrwt>0</asrwt>
<pdfrwt beam="1">  1        1 0.14875452E+00 0.84210841E+03</pdfrwt>
<pdfrwt beam="2">  1       -1 0.16710172E+00 0.84210841E+03</pdfrwt>
<totfact> 0.42505085E+00</totfact>
</mgrwt>
</event>
<event>
12    1  0.3127365E-008  0.2312237E+04  0.7818608E-02  0.8473112E-01
          2   -1    0    0  501    0  0.00000000000E+00  0.00000000000E+00  0.35128242962E+04  0.35128242962E+04  0.00000000000E+00 0. -1.
         -2   -1    0    0    0  501 -0.00000000000E+00 -0.00000000000E+00 -0.15868818470E+04  0.15868818470E+04  0.00000000000E+00 0.  1.
         23    2    1    2    0    0  0.18525240851E+04  0.13474887537E+04  0.53768930305E+03  0.23547526547E+04  0.90436998049E+02 0.  0.
    5000000    2    1    2    0    0 -0.18525240851E+04 -0.13474887537E+04  0.13882531461E+04  0.27449534886E+04  0.59995952309E+03 0.  0.
         23    2    4    4    0    0  0.32530142378E+01 -0.73172989902E+02  0.41606962321E+02  0.12012227862E+03  0.85635004261E+02 0.  0.
         23    2    4    4    0    0 -0.18557770994E+04 -0.12743157638E+04  0.13466461838E+04  0.26248312099E+04  0.92160880878E+02 0.  0.
          3    1    3    3  502    0  0.13147845227E+04  0.91905578895E+03  0.40549385592E+03  0.16546138980E+04  0.00000000000E+00 0. -1.
         -3    1    3    3    0  502  0.53773956246E+03  0.42843296478E+03  0.13219544713E+03  0.70013875667E+03  0.00000000000E+00 0.  1.
         13    1    5    5    0    0  0.19450187046E+02 -0.37293794656E+02  0.62669573228E+02  0.75475905457E+02  0.00000000000E+00 0.  1.
        -13    1    5    5    0    0 -0.16197172809E+02 -0.35879195246E+02 -0.21062610907E+02  0.44646373164E+02  0.00000000000E+00 0. -1.
          5    1    6    6  503    0 -0.76334238463E+03 -0.53968610333E+03  0.50889594182E+03  0.10644011724E+04  0.47000000000E+01 0. -1.
         -5    1    6    6    0  503 -0.10924347147E+04 -0.73462966050E+03  0.83775024196E+03  0.15604300375E+04  0.47000000000E+01 0.  1.
<mgrwt>
<rscale>  0 0.23122375E+04</rscale>
<asrwt>0</asrwt>
<pdfrwt beam="1">  1        2 0.54043450E+00 0.23122375E+04</pdfrwt>
<pdfrwt beam="2">  1       -2 0.24413567E+00 0.23122375E+04</pdfrwt>
<totfact> 0.47918419E-02</totfact>
</mgrwt>
</event>
<event>
12    1  0.3127365E-008  0.1225650E+04  0.7818608E-02  0.9090697E-01
         -1   -1    0    0    0  501 -0.00000000000E+00  0.00000000000E+00  0.56550489712E+03  0.56550489712E+03  0.00000000000E+00 0.  1.
          1   -1    0    0  501    0  0.00000000000E+00 -0.00000000000E+00 -0.27562786253E+04  0.27562786253E+04  0.00000000000E+00 0. -1.
         23    2    1    2    0    0  0.10548980102E+04  0.50386412621E+03 -0.11832963211E+04  0.16658689390E+04  0.90775926818E+02 0.  0.
    5000000    2    1    2    0    0 -0.10548980102E+04 -0.50386412621E+03 -0.10074774071E+04  0.16559145834E+04  0.60029452115E+03 0.  0.
         23    2    4    4    0    0 -0.37666066966E+03 -0.45265285061E+03 -0.65235940064E+03  0.88340443770E+03  0.89792815509E+02 0.  0.
         23    2    4    4    0    0 -0.67823734055E+03 -0.51211275592E+02 -0.35511800650E+03  0.77251014573E+03  0.89636163745E+02 0.  0.
          2    1    3    3  502    0  0.64221806295E+03  0.34439455184E+03 -0.69618530319E+03  0.10078321408E+04  0.00000000000E+00 0.  1.
         -2    1    3    3    0  502  0.41267994726E+03  0.15946957436E+03 -0.48711101791E+03  0.65803679820E+03  0.00000000000E+00 0. -1.
         11    1    5    5    0    0 -0.20297810016E+03 -0.31117356878E+03 -0.39763994700E+03  0.54419355610E+03  0.00000000000E+00 0. -1.
        -11    1    5    5    0    0 -0.17368256949E+03 -0.14147928183E+03 -0.25471945365E+03  0.33921088160E+03  0.00000000000E+00 0.  1.
          5    1    6    6  503    0 -0.88913456033E+02 -0.33098488791E+02 -0.32492379043E+02  0.10039401038E+03  0.47000000000E+01 0. -1.
         -5    1    6    6    0  503 -0.58932388452E+03 -0.18112786801E+02 -0.32262562745E+03  0.67211613535E+03  0.47000000000E+01 0.  1.
<mgrwt>
<rscale>  0 0.12256501E+04</rscale>
<asrwt>0</asrwt>
<pdfrwt beam="1">  1        1 0.42404287E+00 0.12256501E+04</pdfrwt>
<pdfrwt beam="2">  1       -1 0.87000753E-01 0.12256501E+04</pdfrwt>
<totfact> 0.11544602E+00</totfact>
</mgrwt>
</event>
<event>
12    1  0.3127365E-008  0.1022381E+04  0.7818608E-02  0.9284332E-01
         -2   -1    0    0    0  501 -0.00000000000E+00  0.00000000000E+00  0.15848480581E+04  0.15848480581E+04  0.00000000000E+00 0.  1.
          2   -1    0    0  501    0  0.00000000000E+00 -0.00000000000E+00 -0.69679394147E+03  0.69679394147E+03  0.00000000000E+00 0. -1.
         23    2    1    2    0    0  0.74094489312E+03 -0.61386040246E+03  0.37527571663E+03  0.10371241280E+04  0.94713594823E+02 0.  0.
    5000000    2    1    2    0    0 -0.74094489312E+03  0.61386040246E+03  0.51277840001E+03  0.12445178716E+04  0.60004926198E+03 0.  0.
         23    2    4    4    0    0 -0.75235387055E+03  0.41875354578E+03  0.24259372319E+03  0.89913775971E+03  0.90587624786E+02 0.  0.
         23    2    4    4    0    0  0.11408977425E+02  0.19510685668E+03  0.27018467682E+03  0.34538011187E+03  0.89948939964E+02 0.  0.
          2    1    3    3  502    0  0.48535764037E+03 -0.35825033616E+03  0.26771027636E+03  0.65998798057E+03  0.00000000000E+00 0. -1.
         -2    1    3    3    0  502  0.25558725275E+03 -0.25561006630E+03  0.10756544027E+03  0.37713614744E+03  0.00000000000E+00 0.  1.
         13    1    5    5    0    0 -0.55814657411E+03  0.26853398602E+03  0.19192698103E+03  0.64843971647E+03  0.00000000000E+00 0. -1.
        -13    1    5    5    0    0 -0.19420729644E+03  0.15021955976E+03  0.50666742156E+02  0.25069804324E+03  0.00000000000E+00 0.  1.
          5    1    6    6  503    0  0.48655371932E+02  0.77069244006E+02  0.11242420384E+03  0.14480436871E+03  0.47000000000E+01 0. -1.
         -5    1    6    6    0  503 -0.37246394508E+02  0.11803761267E+03  0.15776047298E+03  0.20057574316E+03  0.47000000000E+01 0.  1.
<mgrwt>
<rscale>  0 0.10223814E+04</rscale>
<asrwt>0</asrwt>
<pdfrwt beam="1">  1        2 0.10719907E+00 0.10223814E+04</pdfrwt>
<pdfrwt beam="2">  1       -2 0.24382278E+00 0.10223814E+04</pdfrwt>
<totfact> 0.28766757E+00</totfact>
</mgrwt>
</event>
<event>
12    1  0.3127365E-008  0.1054608E+04  0.7818608E-02  0.9250600E-01
         -2   -1    0    0    0  501 -0.00000000000E+00  0.00000000000E+00  0.26545729466E+04  0.26545729466E+04  0.00000000000E+00 0.  1.
          2   -1    0    0  501    0  0.00000000000E+00 -0.00000000000E+00 -0.23708605700E+04  0.23708605700E+04  0.00000000000E+00 0. -1.
         23    2    1    2    0    0 -0.70299011591E+03  0.69410629390E+03 -0.21297397276E+04  0.23494967158E+04  0.91459609941E+02 0.  0.
    5000000    2    1    2    0    0  0.70299011591E+03 -0.69410629390E+03  0.24134521042E+04  0.26759368007E+04  0.59992337190E+03 0.  0.
         23    2    4    4    0    0  0.30776791294E+03  0.83301518325E+01  0.94392360593E+03  0.99744133571E+03  0.95430418042E+02 0.  0.
         23    2    4    4    0    0  0.39522220298E+03 -0.70243644573E+03  0.14695284982E+04  0.16784954650E+04  0.90639224298E+02 0.  0.
          3    1    3    3  502    0 -0.43170634189E+03  0.42837526528E+03 -0.12036760447E+04  0.13485962161E+04  0.00000000000E+00 0. -1.
         -3    1    3    3    0  502 -0.27128377402E+03  0.26573102861E+03 -0.92606368290E+03  0.10009004998E+04  0.00000000000E+00 0.  1.
         11    1    5    5    0    0  0.30439469425E+03  0.71080224738E+00  0.84476946751E+03  0.89793768624E+03  0.00000000000E+00 0. -1.
        -11    1    5    5    0    0  0.33732186830E+01  0.76193495851E+01  0.99154138418E+02  0.99503649470E+02  0.00000000000E+00 0.  1.
          5    1    6    6  503    0  0.64180136131E+02 -0.72603765471E+02  0.22276746204E+03  0.24297701286E+03  0.47000000000E+01 0. -1.
         -5    1    6    6    0  503  0.33104206684E+03 -0.62983268026E+03  0.12467610362E+04  0.14355184522E+04  0.47000000000E+01 0.  1.
<mgrwt>
<rscale>  0 0.10546075E+04</rscale>
<asrwt>0</asrwt>
<pdfrwt beam="1">  1        2 0.36474778E+00 0.10546075E+04</pdfrwt>
<pdfrwt beam="2">  1       -2 0.40839584E+00 0.10546075E+04</pdfrwt>
<totfact> 0.27480351E-02</totfact>
</mgrwt>
</event>
<event>
12    1  0.3127365E-008  0.1275327E+04  0.7818608E-02  0.9049363E-01
         -2   -1    0    0    0  501 -0.00000000000E+00  0.00000000000E+00  0.17991587605E+04  0.17991587605E+04  0.00000000000E+00 0. -1.
          2   -1    0    0  501    0  0.00000000000E+00 -0.00000000000E+00 -0.10407481967E+04  0.10407481967E+04  0.00000000000E+00 0.  1.
         23    2    1    2    0    0  0.77060588157E+03  0.10073845064E+04  0.66177926000E+03  0.14335086167E+04  0.91313725860E+02 0.  0.
    5000000    2    1    2    0    0 -0.77060588157E+03 -0.10073845064E+04  0.96631303822E+02  0.14063983406E+04  0.59996809497E+03 0.  0.
         23    2    4    4    0    0 -0.59671181569E+03 -0.74086554145E+03  0.32057141689E+03  0.10081985603E+04  0.93549784146E+02 0.  0.
         23    2    4    4    0    0 -0.17389406588E+03 -0.26651896498E+03 -0.22394011307E+03  0.39819978030E+03  0.84512637790E+02 0.  0.
          2    1    3    3  502    0  0.62467228134E+03  0.82082874640E+03  0.49705557594E+03  0.11450063474E+04  0.00000000000E+00 0. -1.
         -2    1    3    3    0  502  0.14593360024E+03  0.18655576004E+03  0.16472368406E+03  0.28850226927E+03  0.00000000000E+00 0.  1.
         11    1    5    5    0    0 -0.16739749550E+03 -0.16691875905E+03  0.47044094331E+02  0.24103306917E+03  0.00000000000E+00 0.  1.
        -11    1    5    5    0    0 -0.42931432019E+03 -0.57394678240E+03  0.27352732256E+03  0.76716549110E+03  0.00000000000E+00 0. -1.
          5    1    6    6  503    0 -0.80671282110E+01 -0.75875277359E+02 -0.47932098444E+02  0.90231437609E+02  0.47000000000E+01 0. -1.
         -5    1    6    6    0  503 -0.16582693767E+03 -0.19064368763E+03 -0.17600801463E+03  0.30796834269E+03  0.47000000000E+01 0.  1.
<mgrwt>
<rscale>  0 0.12753269E+04</rscale>
<asrwt>0</asrwt>
<pdfrwt beam="1">  1        2 0.16011511E+00 0.12753269E+04</pdfrwt>
<pdfrwt beam="2">  1       -2 0.27679366E+00 0.12753269E+04</pdfrwt>
<totfact> 0.10114047E+00</totfact>
</mgrwt>
</event>
<event>
12    1  0.3127365E-008  0.6314634E+03  0.7818608E-02  0.9842197E-01
          2   -1    0    0  501    0  0.00000000000E+00  0.00000000000E+00  0.35880843395E+04  0.35880843395E+04  0.00000000000E+00 0. -1.
         -2   -1    0    0    0  501 -0.00000000000E+00 -0.00000000000E+00 -0.16723271198E+03  0.16723271198E+03  0.00000000000E+00 0.  1.
         23    2    1    2    0    0  0.22302181442E+03  0.57067791627E+03  0.89971022879E+03  0.10922986608E+04  0.90696498229E+02 0.  0.
    5000000    2    1    2    0    0 -0.22302181442E+03 -0.57067791627E+03  0.25211413988E+04  0.26630183907E+04  0.60008414644E+03 0.  0.
         23    2    4    4    0    0 -0.75508475169E+02 -0.39195846770E+03  0.22759837503E+04  0.23122952809E+04  0.85290471751E+02 0.  0.
         23    2    4    4    0    0 -0.14751333925E+03 -0.17871944857E+03  0.24515764850E+03  0.35072310976E+03  0.95935397771E+02 0.  0.
          3    1    3    3  502    0  0.15754758241E+03  0.37032636200E+03  0.66074235951E+03  0.77365581544E+03  0.00000000000E+00 0. -1.
         -3    1    3    3    0  502  0.65474232005E+02  0.20035155428E+03  0.23896786928E+03  0.31864284537E+03  0.00000000000E+00 0.  1.
         13    1    5    5    0    0 -0.51951150166E+02 -0.93804989584E+02  0.70293588740E+03  0.71106761976E+03  0.00000000000E+00 0. -1.
        -13    1    5    5    0    0 -0.23557325002E+02 -0.29815347812E+03  0.15730478629E+04  0.16012276612E+04  0.00000000000E+00 0.  1.
          5    1    6    6  503    0 -0.16997701010E+02  0.46753849407E+01  0.52156407901E+00  0.18252207895E+02  0.47000000000E+01 0. -1.
         -5    1    6    6    0  503 -0.13051563824E+03 -0.18339483351E+03  0.24463608443E+03  0.33247090187E+03  0.47000000000E+01 0.  1.
<mgrwt>
<rscale>  0 0.63146341E+03</rscale>
<asrwt>0</asrwt>
<pdfrwt beam="1">  1        2 0.55201292E+00 0.63146341E+03</pdfrwt>
<pdfrwt beam="2">  1       -2 0.25728112E-01 0.63146341E+03</pdfrwt>
<totfact> 0.10638428E+01</totfact>
</mgrwt>
</event>
<event>
12    1  0.3127365E-008  0.4125164E+03  0.7818608E-02  0.1039530E+00
         -2   -1    0    0    0  501 -0.00000000000E+00  0.00000000000E+00  0.16800402207E+03  0.16800402207E+03  0.00000000000E+00 0.  1.
          2   -1    0    0  501    0  0.00000000000E+00 -0.00000000000E+00 -0.24284438340E+04  0.24284438340E+04  0.00000000000E+00 0. -1.
         23    2    1    2    0    0  0.18825259435E+03  0.21173992329E+03 -0.66393945222E+02  0.30425695687E+03  0.88833020008E+02 0.  0.
    5000000    2    1    2    0    0 -0.18825259435E+03 -0.21173992329E+03 -0.21940458667E+04  0.22921908992E+04  0.60002418186E+03 0.  0.
         23    2    4    4    0    0  0.13669337803E+03 -0.54144228166E+02 -0.19934934482E+03  0.26293461755E+03  0.88191693400E+02 0.  0.
         23    2    4    4    0    0 -0.32494597238E+03 -0.15759569512E+03 -0.19946965219E+04  0.20292562817E+04  0.92954581133E+02 0.  0.
          2    1    3    3  502    0  0.54772910730E+02  0.43384584545E+02 -0.55321617542E+02  0.89122249149E+02  0.00000000000E+00 0. -1.
         -2    1    3    3    0  502  0.13347968362E+03  0.16835533874E+03 -0.11072327679E+02  0.21513470772E+03  0.00000000000E+00 0.  1.
         13    1    5    5    0    0  0.48269826872E+02  0.22031175039E+02 -0.45997927928E+02  0.70222206128E+02  0.00000000000E+00 0. -1.
        -13    1    5    5    0    0  0.88423551154E+02 -0.76175403205E+02 -0.15335141690E+03  0.19271241142E+03  0.00000000000E+00 0.  1.
          5    1    6    6  503    0 -0.12684821039E+03 -0.18123584336E+02 -0.80306108597E+03  0.81323313421E+03  0.47000000000E+01 0. -1.
         -5    1    6    6    0  503 -0.19809776199E+03 -0.13947211079E+03 -0.11916354359E+04  0.12160231475E+04  0.47000000000E+01 0.  1.
<mgrwt>
<rscale>  0 0.41251637E+03</rscale>
<asrwt>0</asrwt>
<pdfrwt beam="1">  1        2 0.37360677E+00 0.41251637E+03</pdfrwt>
<pdfrwt beam="2">  1       -2 0.25846771E-01 0.41251637E+03</pdfrwt>
<totfact> 0.56898067E+01</totfact>
</mgrwt>
</event>
<event>
12    1  0.3127365E-008  0.1109156E+04  0.7818608E-02  0.9196313E-01
         -1   -1    0    0    0  501 -0.00000000000E+00  0.00000000000E+00  0.56287721044E+03  0.56287721044E+03  0.00000000000E+00 0.  1.
          1   -1    0    0  501    0  0.00000000000E+00 -0.00000000000E+00 -0.38987983049E+04  0.38987983049E+04  0.00000000000E+00 0. -1.
         23    2    1    2    0    0 -0.10946449982E+04 -0.10297383595E+02 -0.29612539647E+04  0.31584699492E+04  0.92486043009E+02 0.  0.
    5000000    2    1    2    0    0  0.10946449982E+04  0.10297383595E+02 -0.37466712971E+03  0.13032055661E+04  0.59967956550E+03 0.  0.
         23    2    4    4    0    0  0.29752399623E+03  0.71335862900E+02 -0.38222900967E+03  0.49797755161E+03  0.90957640724E+02 0.  0.
         23    2    4    4    0    0  0.79712100198E+03 -0.61038479305E+02  0.75618799624E+01  0.80522801452E+03  0.95955122722E+02 0.  0.
          2    1    3    3  502    0 -0.65860350221E+03 -0.93600614887E+01 -0.19094852719E+04  0.20198960834E+04  0.00000000000E+00 0. -1.
         -2    1    3    3    0  502 -0.43604149600E+03 -0.93732210658E+00 -0.10517686928E+04  0.11385738658E+04  0.00000000000E+00 0.  1.
         11    1    5    5    0    0  0.20125000543E+02 -0.18755897847E+02 -0.31455168351E+02  0.41787880622E+02  0.00000000000E+00 0. -1.
        -11    1    5    5    0    0  0.27739899568E+03  0.90091760747E+02 -0.35077384132E+03  0.45618967099E+03  0.00000000000E+00 0.  1.
          5    1    6    6  503    0  0.36489790348E+03 -0.72350652881E+02  0.20991012539E+02  0.37262287844E+03  0.47000000000E+01 0. -1.
         -5    1    6    6    0  503  0.43222309851E+03  0.11312173576E+02 -0.13429132577E+02  0.43260513607E+03  0.47000000000E+01 0.  1.
<mgrwt>
<rscale>  0 0.11091562E+04</rscale>
<asrwt>0</asrwt>
<pdfrwt beam="1">  1        1 0.59981514E+00 0.11091562E+04</pdfrwt>
<pdfrwt beam="2">  1       -1 0.86596492E-01 0.11091562E+04</pdfrwt>
<totfact> 0.15907868E-01</totfact>
</mgrwt>
</event>
<event>
12    1  0.3742015E-008  0.1969349E+04  0.7818608E-02  0.8621086E-01
         -2   -1    0    0    0  501 -0.00000000000E+00  0.00000000000E+00  0.12821371380E+04  0.12821371380E+04  0.00000000000E+00 0.  1.
          2   -1    0    0  501    0  0.00000000000E+00 -0.00000000000E+00 -0.30843543066E+04  0.30843543066E+04  0.00000000000E+00 0. -1.
         23    2    1    2    0    0  0.15875845714E+04 -0.11060148449E+04 -0.69505823953E+03  0.20579373860E+04  0.91141207738E+02 0.  0.
    5000000    2    1    2    0    0 -0.15875845714E+04  0.11060148449E+04 -0.11071589291E+04  0.23085540586E+04  0.59993944557E+03 0.  0.
         23    2    4    4    0    0 -0.20113883525E+03 -0.36344298657E+02 -0.16288494787E+03  0.27690870147E+03  0.91483242289E+02 0.  0.
         23    2    4    4    0    0 -0.13864457362E+04  0.11423591436E+04 -0.94427398120E+03  0.20316453571E+04  0.93345128448E+02 0.  0.
          2    1    3    3  502    0  0.76370967831E+03 -0.52216395568E+03 -0.37995778717E+03  0.10001377852E+04  0.00000000000E+00 0. -1.
         -2    1    3    3    0  502  0.82387489312E+03 -0.58385088927E+03 -0.31510045236E+03  0.10577996008E+04  0.00000000000E+00 0.  1.
         13    1    5    5    0    0 -0.86282256921E+02 -0.53052865482E+01 -0.12512770892E+03  0.15208457339E+03  0.00000000000E+00 0.  1.
        -13    1    5    5    0    0 -0.11485657833E+03 -0.31039012109E+02 -0.37757238948E+02  0.12482412808E+03  0.00000000000E+00 0. -1.
          5    1    6    6  503    0 -0.46334218605E+03  0.43256190599E+03 -0.30951216937E+03  0.70541878121E+03  0.47000000000E+01 0. -1.
         -5    1    6    6    0  503 -0.92310355014E+03  0.70979723761E+03 -0.63476181183E+03  0.13262265759E+04  0.47000000000E+01 0.  1.
<mgrwt>
<rscale>  0 0.19693492E+04</rscale>
<asrwt>0</asrwt>
<pdfrwt beam="1">  1        2 0.47451605E+00 0.19693492E+04</pdfrwt>
<pdfrwt beam="2">  1       -2 0.19725187E+00 0.19693492E+04</pdfrwt>
<totfact> 0.19148377E-01</totfact>
</mgrwt>
</event>
<event>
12    1  0.3127365E-008  0.6330751E+03  0.7818608E-02  0.9839066E-01
          3   -1    0    0  501    0  0.00000000000E+00  0.00000000000E+00  0.59787681219E+03  0.59787681219E+03  0.00000000000E+00 0.  1.
         -3   -1    0    0    0  501 -0.00000000000E+00 -0.00000000000E+00 -0.11803357208E+04  0.11803357208E+04  0.00000000000E+00 0. -1.
         23    2    1    2    0    0  0.60299243680E+03 -0.10888309853E+03 -0.67451041996E+03  0.91572571582E+03  0.90187981436E+02 0.  0.
    5000000    2    1    2    0    0 -0.60299243680E+03  0.10888309853E+03  0.92051511371E+02  0.86248681715E+03  0.59996218300E+03 0.  0.
         23    2    4    4    0    0 -0.79933198669E+02  0.96775983119E+01 -0.21060833020E+03  0.24323908889E+03  0.91249183319E+02 0.  0.
         23    2    4    4    0    0 -0.52305923813E+03  0.99205500218E+02  0.30265984158E+03  0.61924772826E+03  0.91826310957E+02 0.  0.
          4    1    3    3  502    0  0.30228795757E+03 -0.88235263652E+01 -0.33245658598E+03  0.44942546153E+03  0.00000000000E+00 0. -1.
         -4    1    3    3    0  502  0.30070447922E+03 -0.10005957217E+03 -0.34205383398E+03  0.46630025429E+03  0.00000000000E+00 0.  1.
         13    1    5    5    0    0 -0.96171499736E+02  0.30109597046E+01 -0.20187594465E+03  0.22363345069E+03  0.00000000000E+00 0. -1.
        -13    1    5    5    0    0  0.16238301067E+02  0.66666386074E+01 -0.87323855533E+01  0.19605638202E+02  0.00000000000E+00 0.  1.
          5    1    6    6  503    0 -0.28652692443E+03  0.66908917164E+02  0.11655835703E+03  0.31651606943E+03  0.47000000000E+01 0. -1.
         -5    1    6    6    0  503 -0.23653231370E+03  0.32296583054E+02  0.18610148455E+03  0.30273165882E+03  0.47000000000E+01 0.  1.
<mgrwt>
<rscale>  0 0.63307505E+03</rscale>
<asrwt>0</asrwt>
<pdfrwt beam="1">  1        3 0.91981049E-01 0.63307505E+03</pdfrwt>
<pdfrwt beam="2">  1       -3 0.18159011E+00 0.63307505E+03</pdfrwt>
<totfact> 0.53592227E-01</totfact>
</mgrwt>
</event>
<event>
12    1  0.3127365E-008  0.2171671E+04  0.7818608E-02  0.8530312E-01
         -2   -1    0    0    0  501 -0.00000000000E+00  0.00000000000E+00  0.12642684141E+04  0.12642684141E+04  0.00000000000E+00 0. -1.
          2   -1    0    0  501    0  0.00000000000E+00 -0.00000000000E+00 -0.44020441764E+04  0.44020441764E+04  0.00000000000E+00 0.  1.
         23    2    1    2    0    0  0.18751986045E+04  0.10765660104E+04 -0.25540785345E+04  0.33476601743E+04  0.90262403613E+02 0.  0.
    5000000    2    1    2    0    0 -0.18751986045E+04 -0.10765660104E+04 -0.58369722784E+03  0.23186524161E+04  0.60006865599E+03 0.  0.
         23    2    4    4    0    0 -0.16446047702E+04 -0.96196737043E+03 -0.31282244737E+03  0.19329441177E+04  0.91153752534E+02 0.  0.
         23    2    4    4    0    0 -0.23059383428E+03 -0.11459863998E+03 -0.27087478047E+03  0.38570829841E+03  0.95348728756E+02 0.  0.
          3    1    3    3  502    0  0.17287843209E+04  0.10194543760E+04 -0.23685355302E+04  0.31045036658E+04  0.00000000000E+00 0. -1.
         -3    1    3    3    0  502  0.14641428366E+03  0.57111634456E+02 -0.18554300423E+03  0.24315650859E+03  0.00000000000E+00 0.  1.
         11    1    5    5    0    0 -0.10085903277E+04 -0.62622482593E+03 -0.22635039088E+03  0.12085720836E+04  0.00000000000E+00 0.  1.
        -11    1    5    5    0    0 -0.63601444255E+03 -0.33574254450E+03 -0.86472056484E+02  0.72437203416E+03  0.00000000000E+00 0. -1.
          5    1    6    6  503    0 -0.18621720171E+03 -0.47497286905E+02 -0.21009783884E+03  0.28477364759E+03  0.47000000000E+01 0. -1.
         -5    1    6    6    0  503 -0.44376632576E+02 -0.67101353076E+02 -0.60776941628E+02  0.10093465082E+03  0.47000000000E+01 0.  1.
<mgrwt>
<rscale>  0 0.21716714E+04</rscale>
<asrwt>0</asrwt>
<pdfrwt beam="1">  1        2 0.67723758E+00 0.21716714E+04</pdfrwt>
<pdfrwt beam="2">  1       -2 0.19450283E+00 0.21716714E+04</pdfrwt>
<totfact> 0.19500751E-02</totfact>
</mgrwt>
</event>
<event>
12    1  0.3127365E-008  0.8157607E+03  0.7818608E-02  0.9537480E-01
         -2   -1    0    0    0  501 -0.00000000000E+00  0.00000000000E+00  0.10179227207E+04  0.10179227207E+04  0.00000000000E+00 0.  1.
          2   -1    0    0  501    0  0.00000000000E+00 -0.00000000000E+00 -0.15153810602E+04  0.15153810602E+04  0.00000000000E+00 0. -1.
         23    2    1    2    0    0 -0.63924611656E+03  0.31176783501E+03 -0.11789696946E+04  0.13799180872E+04  0.91485551872E+02 0.  0.
    5000000    2    1    2    0    0  0.63924611656E+03 -0.31176783501E+03  0.68151135504E+03  0.11533856937E+04  0.60000504244E+03 0.  0.
         23    2    4    4    0    0 -0.82193956386E+02 -0.12978089855E+03  0.72115876609E+02  0.18765338718E+03  0.80088488343E+02 0.  0.
         23    2    4    4    0    0  0.72144007295E+03 -0.18198693647E+03  0.60939547844E+03  0.96573230656E+03  0.87641399386E+02 0.  0.
          3    1    3    3  502    0 -0.31512996221E+03  0.11767849266E+03 -0.49360289770E+03  0.59732649475E+03  0.00000000000E+00 0. -1.
         -3    1    3    3    0  502 -0.32411615435E+03  0.19408934236E+03 -0.68536679689E+03  0.78259159247E+03  0.00000000000E+00 0.  1.
         13    1    5    5    0    0 -0.21257686579E+02 -0.10486440202E+03  0.38323794874E+02  0.11365361984E+03  0.00000000000E+00 0.  1.
        -13    1    5    5    0    0 -0.60936269807E+02 -0.24916496526E+02  0.33792081735E+02  0.73999767332E+02  0.00000000000E+00 0. -1.
          5    1    6    6  503    0  0.49103845484E+03 -0.13572372283E+03  0.36555549161E+03  0.62705071606E+03  0.47000000000E+01 0. -1.
         -5    1    6    6    0  503  0.23040161811E+03 -0.46263213640E+02  0.24383998683E+03  0.33868159050E+03  0.47000000000E+01 0.  1.
<mgrwt>
<rscale>  0 0.81576068E+03</rscale>
<asrwt>0</asrwt>
<pdfrwt beam="1">  1        2 0.23313555E+00 0.81576068E+03</pdfrwt>
<pdfrwt beam="2">  1       -2 0.15660350E+00 0.81576068E+03</pdfrwt>
<totfact> 0.33790249E+00</totfact>
</mgrwt>
</event>
<event>
12    1  0.3127365E-008  0.2104425E+04  0.7818608E-02  0.8559297E-01
         -2   -1    0    0    0  501 -0.00000000000E+00  0.00000000000E+00  0.11536855970E+04  0.11536855970E+04  0.00000000000E+00 0.  1.
          2   -1    0    0  501    0  0.00000000000E+00 -0.00000000000E+00 -0.46230147813E+04  0.46230147813E+04  0.00000000000E+00 0. -1.
         23    2    1    2    0    0 -0.62957857911E+03 -0.19890066545E+04 -0.28236067487E+04  0.35118944409E+04  0.90171136328E+02 0.  0.
    5000000    2    1    2    0    0  0.62957857911E+03  0.19890066545E+04 -0.64572243567E+03  0.22648059374E+04  0.59989316653E+03 0.  0.
         23    2    4    4    0    0  0.53766026632E+03  0.10992965350E+04 -0.59756185386E+03  0.13648210517E+04  0.90138227251E+02 0.  0.
         23    2    4    4    0    0  0.91918312793E+02  0.88971011946E+03 -0.48160581813E+02  0.89998488572E+03  0.87294215069E+02 0.  0.
          3    1    3    3  502    0 -0.27870908480E+02 -0.15410349166E+03 -0.23411822999E+03  0.28166650368E+03  0.00000000000E+00 0. -1.
         -3    1    3    3    0  502 -0.60170767063E+03 -0.18349031628E+04 -0.25894885187E+04  0.32302279372E+04  0.00000000000E+00 0.  1.
         11    1    5    5    0    0  0.33405038346E+03  0.61766266487E+03 -0.38031586152E+03  0.79858436046E+03  0.00000000000E+00 0.  1.
        -11    1    5    5    0    0  0.20360988286E+03  0.48163387017E+03 -0.21724599234E+03  0.56623669122E+03  0.00000000000E+00 0. -1.
          5    1    6    6  503    0  0.17857599705E+02  0.43285600941E+03  0.10920219892E+02  0.43338730940E+03  0.47000000000E+01 0.  1.
         -5    1    6    6    0  503  0.74060713088E+02  0.45685411005E+03 -0.59080801705E+02  0.46659757632E+03  0.47000000000E+01 0. -1.
<mgrwt>
<rscale>  0 0.21044245E+04</rscale>
<asrwt>0</asrwt>
<pdfrwt beam="1">  1        2 0.71123304E+00 0.21044245E+04</pdfrwt>
<pdfrwt beam="2">  1       -2 0.17749009E+00 0.21044245E+04</pdfrwt>
<totfact> 0.15609726E-02</totfact>
</mgrwt>
</event>
<event>
12    1  0.3127365E-008  0.5905354E+03  0.7818608E-02  0.9925239E-01
         -1   -1    0    0    0  501 -0.00000000000E+00  0.00000000000E+00  0.18931954461E+03  0.18931954461E+03  0.00000000000E+00 0.  1.
          1   -1    0    0  501    0  0.00000000000E+00 -0.00000000000E+00 -0.21202485283E+04  0.21202485283E+04  0.00000000000E+00 0. -1.
         23    2    1    2    0    0  0.27065605999E+03  0.40376513498E+03 -0.71251091611E+03  0.86710740568E+03  0.89008203886E+02 0.  0.
    5000000    2    1    2    0    0 -0.27065605999E+03 -0.40376513498E+03 -0.12184180676E+04  0.14424606673E+04  0.59989099184E+03 0.  0.
         23    2    4    4    0    0  0.76398252396E+02 -0.30077555852E+03 -0.26365595131E+03  0.41723815825E+03  0.90942786774E+02 0.  0.
         23    2    4    4    0    0 -0.34705431239E+03 -0.10298957646E+03 -0.95476211632E+03  0.10252225090E+04  0.91961653172E+02 0.  0.
          4    1    3    3  502    0  0.11133931956E+03  0.24485016312E+03 -0.37661918071E+03  0.46280671315E+03  0.00000000000E+00 0. -1.
         -4    1    3    3    0  502  0.15931674043E+03  0.15891497187E+03 -0.33589173540E+03  0.40430069252E+03  0.00000000000E+00 0.  1.
         11    1    5    5    0    0  0.32868077003E+02 -0.22335474329E+03 -0.22991947956E+03  0.32222758869E+03  0.00000000000E+00 0.  1.
        -11    1    5    5    0    0  0.43530175393E+02 -0.77420815233E+02 -0.33736471749E+02  0.95010569555E+02  0.00000000000E+00 0. -1.
          5    1    6    6  503    0  0.44262664723E+01 -0.20464216183E+01 -0.30334265349E+02  0.31081141076E+02  0.47000000000E+01 0. -1.
         -5    1    6    6    0  503 -0.35148057886E+03 -0.10094315484E+03 -0.92442785097E+03  0.99414136796E+03  0.47000000000E+01 0.  1.
<mgrwt>
<rscale>  0 0.59053539E+03</rscale>
<asrwt>0</asrwt>
<pdfrwt beam="1">  1        1 0.32619208E+00 0.59053539E+03</pdfrwt>
<pdfrwt beam="2">  1       -1 0.29126084E-01 0.59053539E+03</pdfrwt>
<totfact> 0.28258058E+01</totfact>
</mgrwt>
</event>
<event>
12    1  0.3127365E-008  0.9375447E+03  0.7818608E-02  0.9379828E-01
         -2   -1    0    0    0  501 -0.00000000000E+00  0.00000000000E+00  0.10315077285E+04  0.10315077285E+04  0.00000000000E+00 0.  1.
          2   -1    0    0  501    0  0.00000000000E+00 -0.00000000000E+00 -0.13673117665E+04  0.13673117665E+04  0.00000000000E+00 0. -1.
         23    2    1    2    0    0  0.40881678714E+03  0.74703259636E+03 -0.87604467114E+03  0.12253795516E+04  0.94402934924E+02 0.  0.
    5000000    2    1    2    0    0 -0.40881678714E+03 -0.74703259636E+03  0.54024063321E+03  0.11734399434E+04  0.59992707351E+03 0.  0.
         23    2    4    4    0    0 -0.54794517213E+03 -0.57506398857E+03  0.38272353798E+03  0.88657875834E+03  0.92747429115E+02 0.  0.
         23    2    4    4    0    0  0.13912838500E+03 -0.17196860780E+03  0.15751709523E+03  0.28686118506E+03  0.92454283975E+02 0.  0.
          4    1    3    3  502    0  0.31906239813E+03  0.65128595620E+03 -0.75362269867E+03  0.10459069665E+04  0.00000000000E+00 0.  1.
         -4    1    3    3    0  502  0.89754389002E+02  0.95746640166E+02 -0.12242197247E+03  0.17947258507E+03  0.00000000000E+00 0. -1.
         13    1    5    5    0    0 -0.49657239053E+03 -0.53749467697E+03  0.32513817967E+03  0.80074933823E+03  0.00000000000E+00 0.  1.
        -13    1    5    5    0    0 -0.51372781607E+02 -0.37569311599E+02  0.57585358318E+02  0.85829420111E+02  0.00000000000E+00 0. -1.
          5    1    6    6  503    0  0.61879753079E+02 -0.98934059971E+02  0.13424362815E+03  0.17793395899E+03  0.47000000000E+01 0. -1.
         -5    1    6    6    0  503  0.77248631919E+02 -0.73034547826E+02  0.23273467080E+02  0.10892722607E+03  0.47000000000E+01 0.  1.
<mgrwt>
<rscale>  0 0.93754474E+03</rscale>
<asrwt>0</asrwt>
<pdfrwt beam="1">  1        2 0.21035565E+00 0.93754474E+03</pdfrwt>
<pdfrwt beam="2">  1       -2 0.15869350E+00 0.93754474E+03</pdfrwt>
<totfact> 0.38885307E+00</totfact>
</mgrwt>
</event>
<event>
12    1  0.3127365E-008  0.3515734E+03  0.7818608E-02  0.1061971E+00
         -2   -1    0    0    0  501 -0.00000000000E+00  0.00000000000E+00  0.45511755964E+03  0.45511755964E+03  0.00000000000E+00 0.  1.
          2   -1    0    0  501    0  0.00000000000E+00 -0.00000000000E+00 -0.57032978326E+03  0.57032978326E+03  0.00000000000E+00 0. -1.
         23    2    1    2    0    0 -0.22473738235E+03 -0.13317599673E+03  0.15534815298E+03  0.31724339088E+03  0.90926251946E+02 0.  0.
    5000000    2    1    2    0    0  0.22473738235E+03  0.13317599673E+03 -0.27056037660E+03  0.70820395201E+03  0.60008931263E+03 0.  0.
         23    2    4    4    0    0  0.22938495116E+02  0.19575740040E+03  0.12550836957E+03  0.25010866295E+03  0.89190011108E+02 0.  0.
         23    2    4    4    0    0  0.20179888724E+03 -0.62581403675E+02 -0.39606874617E+03  0.45809528906E+03  0.91332465146E+02 0.  0.
          1    1    3    3  502    0 -0.15865566042E+03 -0.13623916531E+03  0.13092233109E+03  0.24672532405E+03  0.00000000000E+00 0.  1.
         -1    1    3    3    0  502 -0.66081721933E+02  0.30631685814E+01  0.24425821890E+02  0.70518066837E+02  0.00000000000E+00 0. -1.
         11    1    5    5    0    0 -0.20491954228E+01  0.63202288751E+02 -0.36683106829E+01  0.63341810903E+02  0.00000000000E+00 0.  1.
        -11    1    5    5    0    0  0.24987690539E+02  0.13255511165E+03  0.12917668025E+03  0.18676685205E+03  0.00000000000E+00 0. -1.
          5    1    6    6  503    0  0.11940592346E+03 -0.82047013540E+02 -0.23618408614E+03  0.27711820499E+03  0.47000000000E+01 0. -1.
         -5    1    6    6    0  503  0.82392963776E+02  0.19465609864E+02 -0.15988466003E+03  0.18097708407E+03  0.47000000000E+01 0.  1.
<mgrwt>
<rscale>  0 0.35157343E+03</rscale>
<asrwt>0</asrwt>
<pdfrwt beam="1">  1        2 0.87743043E-01 0.35157343E+03</pdfrwt>
<pdfrwt beam="2">  1       -2 0.70018087E-01 0.35157343E+03</pdfrwt>
<totfact> 0.10219823E+02</totfact>
</mgrwt>
</event>
<event>
12    1  0.3127365E-008  0.7639227E+03  0.7818608E-02  0.9613758E-01
          1   -1    0    0  501    0  0.00000000000E+00  0.00000000000E+00  0.15514615107E+04  0.15514615107E+04  0.00000000000E+00 0. -1.
         -1   -1    0    0    0  501 -0.00000000000E+00 -0.00000000000E+00 -0.50110591390E+03  0.50110591390E+03  0.00000000000E+00 0.  1.
         23    2    1    2    0    0 -0.45823513874E+03  0.45808507026E+03 -0.33190999979E+02  0.65473188965E+03  0.88038803176E+02 0.  0.
    5000000    2    1    2    0    0  0.45823513874E+03 -0.45808507026E+03  0.10835465967E+04  0.13978355349E+04  0.60004131639E+03 0.  0.
         23    2    4    4    0    0 -0.12771858955E+03 -0.54450665030E+02  0.22258693376E+03  0.27725692898E+03  0.89719276337E+02 0.  0.
         23    2    4    4    0    0  0.58595372829E+03 -0.40363440523E+03  0.86095966297E+03  0.11205786059E+04  0.90456431584E+02 0.  0.
          4    1    3    3  502    0 -0.12684992524E+03  0.17080842451E+03  0.16275063097E+02  0.21338064367E+03  0.00000000000E+00 0. -1.
         -4    1    3    3    0  502 -0.33138521350E+03  0.28727664576E+03 -0.49466063077E+02  0.44135124597E+03  0.00000000000E+00 0.  1.
         13    1    5    5    0    0 -0.68357829463E+02  0.16677253126E+02  0.11933844077E+03  0.13853731290E+03  0.00000000000E+00 0. -1.
        -13    1    5    5    0    0 -0.59360760085E+02 -0.71127918156E+02  0.10324849299E+03  0.13871961607E+03  0.00000000000E+00 0.  1.
          5    1    6    6  503    0  0.33481676441E+03 -0.26183468105E+03  0.45596330684E+03  0.62336529669E+03  0.47000000000E+01 0. -1.
         -5    1    6    6    0  503  0.25113696388E+03 -0.14179972418E+03  0.40499635613E+03  0.49721330924E+03  0.47000000000E+01 0.  1.
<mgrwt>
<rscale>  0 0.76392266E+03</rscale>
<asrwt>0</asrwt>
<pdfrwt beam="1">  1        1 0.23868638E+00 0.76392266E+03</pdfrwt>
<pdfrwt beam="2">  1       -1 0.77093218E-01 0.76392266E+03</pdfrwt>
<totfact> 0.10542865E+01</totfact>
</mgrwt>
</event>
<event>
12    1  0.3127365E-008  0.5759169E+03  0.7818608E-02  0.9956670E-01
          2   -1    0    0  501    0  0.00000000000E+00  0.00000000000E+00  0.78955638211E+03  0.78955638211E+03  0.00000000000E+00 0. -1.
         -2   -1    0    0    0  501 -0.00000000000E+00 -0.00000000000E+00 -0.67128097111E+03  0.67128097111E+03  0.00000000000E+00 0.  1.
         23    2    1    2    0    0 -0.41567592282E+03 -0.20789393503E+03 -0.33341790461E+03  0.57917056155E+03  0.90910281150E+02 0.  0.
    5000000    2    1    2    0    0  0.41567592282E+03  0.20789393503E+03  0.45169331561E+03  0.88166679166E+03  0.59774837442E+03 0.  0.
         23    2    4    4    0    0  0.29466124747E+03 -0.11954681996E+03  0.39341098758E+02  0.33370575529E+03  0.93247606611E+02 0.  0.
         23    2    4    4    0    0  0.12101467535E+03  0.32744075499E+03  0.41235221685E+03  0.54796103637E+03  0.91460083978E+02 0.  0.
          4    1    3    3  502    0 -0.21672511468E+03 -0.60160480343E+02 -0.17597968495E+03  0.28558345232E+03  0.00000000000E+00 0. -1.
         -4    1    3    3    0  502 -0.19895080815E+03 -0.14773345469E+03 -0.15743821966E+03  0.29358710923E+03  0.00000000000E+00 0.  1.
         11    1    5    5    0    0  0.17411154441E+03 -0.11577064031E+03  0.41076817552E+02  0.21308443396E+03  0.00000000000E+00 0. -1.
        -11    1    5    5    0    0  0.12054970306E+03 -0.37761796514E+01 -0.17357187939E+01  0.12062132133E+03  0.00000000000E+00 0.  1.
          5    1    6    6  503    0  0.10470852844E+03  0.27512031101E+03  0.38985918198E+03  0.48853590783E+03  0.47000000000E+01 0. -1.
         -5    1    6    6    0  503  0.16306146916E+02  0.52320443978E+02  0.22493034870E+02  0.59425128548E+02  0.47000000000E+01 0.  1.
<mgrwt>
<rscale>  0 0.57591688E+03</rscale>
<asrwt>0</asrwt>
<pdfrwt beam="1">  1        2 0.12147021E+00 0.57591688E+03</pdfrwt>
<pdfrwt beam="2">  1       -2 0.10327400E+00 0.57591688E+03</pdfrwt>
<totfact> 0.27684882E+01</totfact>
</mgrwt>
</event>
<event>
12    1  0.3127365E-008  0.7796098E+03  0.7818608E-02  0.9590009E-01
         -1   -1    0    0    0  501 -0.00000000000E+00  0.00000000000E+00  0.25018479021E+03  0.25018479021E+03  0.00000000000E+00 0.  1.
          1   -1    0    0  501    0  0.00000000000E+00 -0.00000000000E+00 -0.27450778001E+04  0.27450778001E+04  0.00000000000E+00 0. -1.
         23    2    1    2    0    0  0.70587062010E+03 -0.32985043438E+02 -0.87260701222E+03  0.11268366430E+04  0.94744271109E+02 0.  0.
    5000000    2    1    2    0    0 -0.70587062010E+03  0.32985043438E+02 -0.16222859976E+04  0.18684259472E+04  0.59988525297E+03 0.  0.
         23    2    4    4    0    0 -0.68943967760E+03  0.14600910580E+03 -0.98283175363E+03  0.12127732849E+04  0.90636949554E+02 0.  0.
         23    2    4    4    0    0 -0.16430942502E+02 -0.11302406236E+03 -0.63945424399E+03  0.65565266230E+03  0.89074513077E+02 0.  0.
          4    1    3    3  502    0  0.49033604847E+03 -0.59157033262E+02 -0.56679091001E+03  0.75178516258E+03  0.00000000000E+00 0. -1.
         -4    1    3    3    0  502  0.21553457163E+03  0.26171989824E+02 -0.30581610222E+03  0.37505148046E+03  0.00000000000E+00 0.  1.
         11    1    5    5    0    0 -0.51765710490E+03  0.14752766062E+03 -0.72566534104E+03  0.90350621253E+03  0.00000000000E+00 0.  1.
        -11    1    5    5    0    0 -0.17178257270E+03 -0.15185548180E+01 -0.25716641259E+03  0.30926707237E+03  0.00000000000E+00 0. -1.
          5    1    6    6  503    0  0.26215644738E+02 -0.13685418392E+02 -0.72085638228E+02  0.78057542520E+02  0.47000000000E+01 0. -1.
         -5    1    6    6    0  503 -0.42646587239E+02 -0.99338643970E+02 -0.56736860577E+03  0.57759511978E+03  0.47000000000E+01 0.  1.
<mgrwt>
<rscale>  0 0.77960978E+03</rscale>
<asrwt>0</asrwt>
<pdfrwt beam="1">  1        1 0.42231967E+00 0.77960978E+03</pdfrwt>
<pdfrwt beam="2">  1       -1 0.38489967E-01 0.77960978E+03</pdfrwt>
<totfact> 0.62912579E+00</totfact>
</mgrwt>
</event>
<event>
12    1  0.3127365E-008  0.5348745E+03  0.7818608E-02  0.1005057E+00
         -1   -1    0    0    0  501 -0.00000000000E+00  0.00000000000E+00  0.19321674162E+04  0.19321674162E+04  0.00000000000E+00 0.  1.
          1   -1    0    0  501    0  0.00000000000E+00 -0.00000000000E+00 -0.24097442016E+03  0.24097442016E+03  0.00000000000E+00 0. -1.
         23    2    1    2    0    0  0.36383198127E+03 -0.11972390585E+03  0.13057182031E+04  0.13636582365E+04  0.89197733564E+02 0.  0.
    5000000    2    1    2    0    0 -0.36383198127E+03  0.11972390585E+03  0.38547479291E+03  0.80948359990E+03  0.59997113123E+03 0.  0.
         23    2    4    4    0    0  0.62174872906E+02  0.22701931017E+03  0.68171728136E+02  0.26039116334E+03  0.88049369191E+02 0.  0.
         23    2    4    4    0    0 -0.42600685418E+03 -0.10729540432E+03  0.31730306477E+03  0.54909243656E+03  0.88471042602E+02 0.  0.
          3    1    3    3  502    0  0.25440187529E+03 -0.50076510223E+02  0.96028381344E+03  0.99467229447E+03  0.00000000000E+00 0. -1.
         -3    1    3    3    0  502  0.10943010598E+03 -0.69647395627E+02  0.34543438968E+03  0.36898594198E+03  0.00000000000E+00 0.  1.
         11    1    5    5    0    0 -0.48590079447E+01  0.69717845613E+02 -0.13044822391E+02  0.71093989523E+02  0.00000000000E+00 0. -1.
        -11    1    5    5    0    0  0.67033880851E+02  0.15730146456E+03  0.81216550526E+02  0.18929717382E+03  0.00000000000E+00 0.  1.
          5    1    6    6  503    0 -0.18981365107E+03 -0.37485757556E+02  0.19239239541E+03  0.27289435312E+03  0.47000000000E+01 0. -1.
         -5    1    6    6    0  503 -0.23619320311E+03 -0.69809646768E+02  0.12491066936E+03  0.27619808344E+03  0.47000000000E+01 0.  1.
<mgrwt>
<rscale>  0 0.53487452E+03</rscale>
<asrwt>0</asrwt>
<pdfrwt beam="1">  1        1 0.37072989E-01 0.53487452E+03</pdfrwt>
<pdfrwt beam="2">  1       -1 0.29725652E+00 0.53487452E+03</pdfrwt>
<totfact> 0.43544650E+00</totfact>
</mgrwt>
</event>
<event>
12    1  0.3127365E-008  0.1265314E+04  0.7818608E-02  0.9057533E-01
         -2   -1    0    0    0  501 -0.00000000000E+00  0.00000000000E+00  0.68659451663E+03  0.68659451663E+03  0.00000000000E+00 0.  1.
          2   -1    0    0  501    0  0.00000000000E+00 -0.00000000000E+00 -0.39764729308E+04  0.39764729308E+04  0.00000000000E+00 0. -1.
         23    2    1    2    0    0 -0.12133560423E+04  0.38190372642E+02 -0.12879933646E+03  0.12241493619E+04  0.90890049476E+02 0.  0.
    5000000    2    1    2    0    0  0.12133560423E+04 -0.38190372642E+02 -0.31610790777E+04  0.34389180856E+04  0.60003772668E+03 0.  0.
         23    2    4    4    0    0  0.63630404602E+03 -0.26822511085E+03 -0.20180962873E+04  0.21349225327E+04  0.91400474790E+02 0.  0.
         23    2    4    4    0    0  0.57705199632E+03  0.23003473821E+03 -0.11429827905E+04  0.13039955529E+04  0.89943067457E+02 0.  0.
          3    1    3    3  502    0 -0.70600201762E+03 -0.19918460071E+01 -0.11276832558E+03  0.71495420244E+03  0.00000000000E+00 0. -1.
         -3    1    3    3    0  502 -0.50735402472E+03  0.40182218649E+02 -0.16031010882E+02  0.50919515945E+03  0.00000000000E+00 0.  1.
         13    1    5    5    0    0  0.27105830977E+03 -0.12262189151E+03 -0.73486822824E+03  0.79280517686E+03  0.00000000000E+00 0. -1.
        -13    1    5    5    0    0  0.36524573625E+03 -0.14560321934E+03 -0.12832280590E+04  0.13421173558E+04  0.00000000000E+00 0.  1.
          5    1    6    6  503    0  0.19808562230E+03  0.11410473769E+03 -0.47782653663E+03  0.52971510648E+03  0.47000000000E+01 0. -1.
         -5    1    6    6    0  503  0.37896637402E+03  0.11593000052E+03 -0.66515625385E+03  0.77428044641E+03  0.47000000000E+01 0.  1.
<mgrwt>
<rscale>  0 0.12653138E+04</rscale>
<asrwt>0</asrwt>
<pdfrwt beam="1">  1        2 0.61176507E+00 0.12653138E+04</pdfrwt>
<pdfrwt beam="2">  1       -2 0.10562993E+00 0.12653138E+04</pdfrwt>
<totfact> 0.25933306E-01</totfact>
</mgrwt>
</event>
<event>
12    1  0.3127365E-008  0.7423065E+03  0.7818608E-02  0.9647498E-01
          1   -1    0    0  501    0  0.00000000000E+00  0.00000000000E+00  0.34956742010E+03  0.34956742010E+03  0.00000000000E+00 0. -1.
         -1   -1    0    0    0  501 -0.00000000000E+00 -0.00000000000E+00 -0.18363562954E+04  0.18363562954E+04  0.00000000000E+00 0.  1.
         23    2    1    2    0    0  0.63200377294E+03 -0.17202350861E+03 -0.91140354031E+03  0.11275969255E+04  0.10861655729E+03 0.  0.
    5000000    2    1    2    0    0 -0.63200377294E+03  0.17202350861E+03 -0.57538533500E+03  0.10583267900E+04  0.59997204456E+03 0.  0.
         23    2    4    4    0    0 -0.40538137443E+03  0.34372273156E+03 -0.53087020799E+03  0.75659842234E+03  0.90214300589E+02 0.  0.
         23    2    4    4    0    0 -0.22662239851E+03 -0.17169922295E+03 -0.44515127014E+02  0.30172836770E+03  0.90664638519E+02 0.  0.
          3    1    3    3  502    0  0.29419595085E+03 -0.87077983214E+02 -0.51892294116E+03  0.60283899303E+03  0.00000000000E+00 0. -1.
         -3    1    3    3    0  502  0.33780782209E+03 -0.84945525399E+02 -0.39248059916E+03  0.52475793244E+03  0.00000000000E+00 0.  1.
         11    1    5    5    0    0 -0.21951881056E+03  0.23193032492E+03 -0.27744623589E+03  0.42303262004E+03  0.00000000000E+00 0.  1.
        -11    1    5    5    0    0 -0.18586256387E+03  0.11179240664E+03 -0.25342397210E+03  0.33356580230E+03  0.00000000000E+00 0. -1.
          5    1    6    6  503    0 -0.16981860277E+03 -0.86246907671E+02 -0.55456667658E+02  0.19842988413E+03  0.47000000000E+01 0. -1.
         -5    1    6    6    0  503 -0.56803795738E+02 -0.85452315274E+02  0.10941540645E+02  0.10329848357E+03  0.47000000000E+01 0.  1.
<mgrwt>
<rscale>  0 0.74230653E+03</rscale>
<asrwt>0</asrwt>
<pdfrwt beam="1">  1        1 0.53779604E-01 0.74230653E+03</pdfrwt>
<pdfrwt beam="2">  1       -1 0.28251635E+00 0.74230653E+03</pdfrwt>
<totfact> 0.32206936E+00</totfact>
</mgrwt>
</event>
<event>
12    1  0.3127365E-008  0.7391263E+03  0.7818608E-02  0.9652566E-01
          2   -1    0    0  501    0  0.00000000000E+00  0.00000000000E+00  0.12705946566E+04  0.12705946566E+04  0.00000000000E+00 0. -1.
         -2   -1    0    0    0  501 -0.00000000000E+00 -0.00000000000E+00 -0.67039611531E+03  0.67039611531E+03  0.00000000000E+00 0.  1.
         23    2    1    2    0    0  0.44066496691E+03  0.54581846082E+03 -0.18283929023E+03  0.73054897884E+03  0.90378090259E+02 0.  0.
    5000000    2    1    2    0    0 -0.44066496691E+03 -0.54581846082E+03  0.78303783150E+03  0.12104417931E+04  0.59993139908E+03 0.  0.
         23    2    4    4    0    0 -0.12723188313E+03 -0.38548558812E+03  0.73347582639E+03  0.84327800365E+03  0.91345020735E+02 0.  0.
         23    2    4    4    0    0 -0.31343308377E+03 -0.16033287270E+03  0.49562005112E+02  0.36716378941E+03  0.91683847181E+02 0.  0.
          1    1    3    3  502    0  0.20410609999E+03  0.22463407139E+03 -0.36695969383E+02  0.30572268521E+03  0.00000000000E+00 0. -1.
         -1    1    3    3    0  502  0.23655886691E+03  0.32118438943E+03 -0.14614332085E+03  0.42482629363E+03  0.00000000000E+00 0.  1.
         11    1    5    5    0    0 -0.53587630671E+01 -0.15272023223E+03  0.29059024243E+03  0.32832129793E+03  0.00000000000E+00 0.  1.
        -11    1    5    5    0    0 -0.12187312007E+03 -0.23276535589E+03  0.44288558395E+03  0.51495670572E+03  0.00000000000E+00 0. -1.
          5    1    6    6  503    0 -0.25608066280E+03 -0.94874354968E+02  0.15442947043E+02  0.27356721972E+03  0.47000000000E+01 0. -1.
         -5    1    6    6    0  503 -0.57352420972E+02 -0.65458517733E+02  0.34119058069E+02  0.93596569695E+02  0.47000000000E+01 0.  1.
<mgrwt>
<rscale>  0 0.73912628E+03</rscale>
<asrwt>0</asrwt>
<pdfrwt beam="1">  1        2 0.19547610E+00 0.73912628E+03</pdfrwt>
<pdfrwt beam="2">  1       -2 0.10313786E+00 0.73912628E+03</pdfrwt>
<totfact> 0.13487012E+01</totfact>
</mgrwt>
</event>
<event>
12    1  0.3127365E-008  0.4013494E+03  0.7818608E-02  0.1043313E+00
          1   -1    0    0  501    0  0.00000000000E+00  0.00000000000E+00  0.22837999620E+04  0.22837999620E+04  0.00000000000E+00 0. -1.
         -1   -1    0    0    0  501 -0.00000000000E+00 -0.00000000000E+00 -0.13196442013E+04  0.13196442013E+04  0.00000000000E+00 0.  1.
         23    2    1    2    0    0 -0.94245343494E+02 -0.34502484521E+03  0.21747289229E+04  0.22058085758E+04  0.90671145020E+02 0.  0.
    5000000    2    1    2    0    0  0.94245343494E+02  0.34502484521E+03 -0.12105731622E+04  0.13976355875E+04  0.59997793764E+03 0.  0.
         23    2    4    4    0    0  0.11827160028E+03  0.30903664706E+03 -0.23076096970E+03  0.41263245039E+03  0.86735767264E+02 0.  0.
         23    2    4    4    0    0 -0.24026256782E+02  0.35988198149E+02 -0.97981219251E+03  0.98500313706E+03  0.91251498605E+02 0.  0.
          3    1    3    3  502    0 -0.56370390945E+02 -0.91598746627E+02  0.82395621301E+03  0.83094632337E+03  0.00000000000E+00 0. -1.
         -3    1    3    3    0  502 -0.37874952549E+02 -0.25342609858E+03  0.13507727099E+04  0.13748622524E+04  0.00000000000E+00 0.  1.
         13    1    5    5    0    0 -0.30932759640E+01  0.88012120806E+02 -0.41508887675E+02  0.97358561621E+02  0.00000000000E+00 0. -1.
        -13    1    5    5    0    0  0.12136487624E+03  0.22102452625E+03 -0.18925208203E+03  0.31527388877E+03  0.00000000000E+00 0.  1.
          5    1    6    6  503    0 -0.26011610725E+02  0.64506840877E+02 -0.77880512146E+03  0.78191894952E+03  0.47000000000E+01 0. -1.
         -5    1    6    6    0  503  0.19853539436E+01 -0.28518642728E+02 -0.20100707105E+03  0.20308418754E+03  0.47000000000E+01 0.  1.
<mgrwt>
<rscale>  0 0.40134938E+03</rscale>
<asrwt>0</asrwt>
<pdfrwt beam="1">  1        1 0.35135384E+00 0.40134938E+03</pdfrwt>
<pdfrwt beam="2">  1       -1 0.20302218E+00 0.40134938E+03</pdfrwt>
<totfact> 0.33144645E-01</totfact>
</mgrwt>
</event>
<event>
12    1  0.3127365E-008  0.9199925E+03  0.7818608E-02  0.9400929E-01
         -1   -1    0    0    0  501 -0.00000000000E+00  0.00000000000E+00  0.16875829165E+04  0.16875829165E+04  0.00000000000E+00 0.  1.
          1   -1    0    0  501    0  0.00000000000E+00 -0.00000000000E+00 -0.59415650853E+03  0.59415650853E+03  0.00000000000E+00 0. -1.
         23    2    1    2    0    0  0.88726490838E+02  0.90314322933E+03  0.43794629419E+03  0.10116249845E+04  0.89711035596E+02 0.  0.
    5000000    2    1    2    0    0 -0.88726490838E+02 -0.90314322933E+03  0.65548011379E+03  0.12701144405E+04  0.59999702459E+03 0.  0.
         23    2    4    4    0    0  0.28840655447E+02 -0.53286964688E+03  0.47924175567E+02  0.54337307398E+03  0.90419726545E+02 0.  0.
         23    2    4    4    0    0 -0.11756714628E+03 -0.37027358245E+03  0.60755593823E+03  0.72674136652E+03  0.90023530187E+02 0.  0.
          2    1    3    3  502    0 -0.10462480894E+02  0.25790926286E+02  0.22684940421E+02  0.35906014915E+02  0.00000000000E+00 0. -1.
         -2    1    3    3    0  502  0.99188971732E+02  0.87735230305E+03  0.41526135377E+03  0.97571896964E+03  0.00000000000E+00 0.  1.
         13    1    5    5    0    0  0.42473275098E+02 -0.50390339328E+03  0.29760227526E+02  0.50656517843E+03  0.00000000000E+00 0. -1.
        -13    1    5    5    0    0 -0.13632619652E+02 -0.28966253600E+02  0.18163948041E+02  0.36807895547E+02  0.00000000000E+00 0.  1.
          5    1    6    6  503    0 -0.93663740487E+02 -0.33973991354E+03  0.49541288812E+03  0.60799023418E+03  0.47000000000E+01 0. -1.
         -5    1    6    6    0  503 -0.23903405798E+02 -0.30533668909E+02  0.11214305011E+03  0.11875113234E+03  0.47000000000E+01 0.  1.
<mgrwt>
<rscale>  0 0.91999247E+03</rscale>
<asrwt>0</asrwt>
<pdfrwt beam="1">  1        1 0.91408694E-01 0.91999247E+03</pdfrwt>
<pdfrwt beam="2">  1       -1 0.25962814E+00 0.91999247E+03</pdfrwt>
<totfact> 0.21374317E+00</totfact>
</mgrwt>
</event>
<event>
12    1  0.3127365E-008  0.1735652E+04  0.7818608E-02  0.8741288E-01
          2   -1    0    0  501    0  0.00000000000E+00  0.00000000000E+00  0.21256029712E+04  0.21256029712E+04  0.00000000000E+00 0. -1.
         -2   -1    0    0    0  501 -0.00000000000E+00 -0.00000000000E+00 -0.21185190855E+04  0.21185190855E+04  0.00000000000E+00 0.  1.
         23    2    1    2    0    0  0.17037046562E+03  0.16834142675E+04  0.12111733504E+04  0.20825109428E+04  0.83673473887E+02 0.  0.
    5000000    2    1    2    0    0 -0.17037046562E+03 -0.16834142675E+04 -0.12040894647E+04  0.21616111140E+04  0.59985121271E+03 0.  0.
         23    2    4    4    0    0  0.18186187425E+03 -0.29382255326E+03 -0.21821774679E+03  0.41929778476E+03  0.93734802393E+02 0.  0.
         23    2    4    4    0    0 -0.35223233987E+03 -0.13895917143E+04 -0.98587171794E+03  0.17423133292E+04  0.93166192281E+02 0.  0.
          1    1    3    3  502    0  0.12787352629E+03  0.12095581465E+04  0.82422241908E+03  0.14692600671E+04  0.00000000000E+00 0. -1.
         -1    1    3    3    0  502  0.42496939327E+02  0.47385612100E+03  0.38695093136E+03  0.61325087569E+03  0.00000000000E+00 0.  1.
         11    1    5    5    0    0  0.14837783658E+02 -0.19668662790E+02  0.87459374056E+01  0.26143977144E+02  0.00000000000E+00 0. -1.
        -11    1    5    5    0    0  0.16702409059E+03 -0.27415389047E+03 -0.22696368420E+03  0.39315380762E+03  0.00000000000E+00 0.  1.
          5    1    6    6  503    0 -0.78131790264E+02 -0.30939056559E+03 -0.26730482612E+03  0.41629443762E+03  0.47000000000E+01 0. -1.
         -5    1    6    6    0  503 -0.27410054960E+03 -0.10802011487E+04 -0.71856689181E+03  0.13260188916E+04  0.47000000000E+01 0.  1.
<mgrwt>
<rscale>  0 0.17356516E+04</rscale>
<asrwt>0</asrwt>
<pdfrwt beam="1">  1        2 0.32701584E+00 0.17356516E+04</pdfrwt>
<pdfrwt beam="2">  1       -2 0.32592601E+00 0.17356516E+04</pdfrwt>
<totfact> 0.11416026E-01</totfact>
</mgrwt>
</event>
<event>
12    1  0.3127365E-008  0.1003491E+04  0.7818608E-02  0.9304725E-01
          2   -1    0    0  501    0  0.00000000000E+00  0.00000000000E+00  0.22441253871E+04  0.22441253871E+04  0.00000000000E+00 0.  1.
         -2   -1    0    0    0  501 -0.00000000000E+00 -0.00000000000E+00 -0.56077972680E+03  0.56077972680E+03  0.00000000000E+00 0. -1.
         23    2    1    2    0    0 -0.34672050122E+03  0.84766197785E+03  0.13973868066E+04  0.16732775412E+04  0.91770953283E+02 0.  0.
    5000000    2    1    2    0    0  0.34672050122E+03 -0.84766197785E+03  0.28595885373E+03  0.11316275728E+04  0.60005213335E+03 0.  0.
         23    2    4    4    0    0  0.23503230653E+03 -0.90329858846E+03  0.25395110746E+03  0.97150436345E+03  0.90227701984E+02 0.  0.
         23    2    4    4    0    0  0.11168819469E+03  0.55636610608E+02  0.32007746268E+02  0.16012320930E+03  0.95106577389E+02 0.  0.
          2    1    3    3  502    0 -0.31741761838E+03  0.68295545000E+03  0.11404682147E+04  0.13666930306E+04  0.00000000000E+00 0. -1.
         -2    1    3    3    0  502 -0.29302882839E+02  0.16470652785E+03  0.25691859193E+03  0.30658451060E+03  0.00000000000E+00 0.  1.
         11    1    5    5    0    0  0.86786969965E+02 -0.26875900880E+03  0.11667179172E+03  0.30557436075E+03  0.00000000000E+00 0. -1.
        -11    1    5    5    0    0  0.14824533656E+03 -0.63453957966E+03  0.13727931574E+03  0.66593000270E+03  0.00000000000E+00 0.  1.
          5    1    6    6  503    0  0.14929655246E+01  0.40959216004E+02  0.25851148777E+02  0.48685297727E+02  0.47000000000E+01 0. -1.
         -5    1    6    6    0  503  0.11019522917E+03  0.14677394604E+02  0.61565974914E+01  0.11143791157E+03  0.47000000000E+01 0.  1.
<mgrwt>
<rscale>  0 0.10034906E+04</rscale>
<asrwt>0</asrwt>
<pdfrwt beam="1">  1        2 0.34525005E+00 0.10034906E+04</pdfrwt>
<pdfrwt beam="2">  1       -2 0.86273806E-01 0.10034906E+04</pdfrwt>
<totfact> 0.57063973E+00</totfact>
</mgrwt>
</event>
<event>
12    1  0.3127365E-008  0.8080936E+03  0.7818608E-02  0.9548375E-01
         -2   -1    0    0    0  501 -0.00000000000E+00  0.00000000000E+00  0.31646165332E+03  0.31646165332E+03  0.00000000000E+00 0.  1.
          2   -1    0    0  501    0  0.00000000000E+00 -0.00000000000E+00 -0.21966887063E+04  0.21966887063E+04  0.00000000000E+00 0. -1.
         23    2    1    2    0    0  0.18226586119E+03 -0.69951234195E+03 -0.85170980032E+03  0.11200825196E+04  0.81467208276E+02 0.  0.
    5000000    2    1    2    0    0 -0.18226586119E+03  0.69951234195E+03 -0.10285172527E+04  0.13930678401E+04  0.60020988600E+03 0.  0.
         23    2    4    4    0    0 -0.18431899042E+02 -0.52414567858E+02 -0.32954518635E+03  0.34952777924E+03  0.10238465113E+03 0.  0.
         23    2    4    4    0    0 -0.16383396215E+03  0.75192690981E+03 -0.69897206633E+03  0.10435400608E+04  0.90433755762E+02 0.  0.
          1    1    3    3  502    0  0.60497910898E+02 -0.35797520350E+03 -0.38676819209E+03  0.53046760312E+03  0.00000000000E+00 0. -1.
         -1    1    3    3    0  502  0.12176795029E+03 -0.34153713845E+03 -0.46494160823E+03  0.58961491647E+03  0.00000000000E+00 0.  1.
         13    1    5    5    0    0  0.41187369254E+02 -0.76138061232E+01 -0.12220030542E+03  0.12917927107E+03  0.00000000000E+00 0.  1.
        -13    1    5    5    0    0 -0.59619268296E+02 -0.44800761735E+02 -0.20734488093E+03  0.22034850817E+03  0.00000000000E+00 0. -1.
          5    1    6    6  503    0 -0.10292658265E+03  0.28265325506E+03 -0.24893835332E+03  0.39048577152E+03  0.47000000000E+01 0. -1.
         -5    1    6    6    0  503 -0.60907379498E+02  0.46927365475E+03 -0.45003371301E+03  0.65305428930E+03  0.47000000000E+01 0.  1.
<mgrwt>
<rscale>  0 0.80809362E+03</rscale>
<asrwt>0</asrwt>
<pdfrwt beam="1">  1        2 0.33795211E+00 0.80809362E+03</pdfrwt>
<pdfrwt beam="2">  1       -2 0.48686408E-01 0.80809362E+03</pdfrwt>
<totfact> 0.21339893E+01</totfact>
</mgrwt>
</event>
<event>
12    1  0.3127365E-008  0.2146968E+04  0.7818608E-02  0.8540831E-01
         -2   -1    0    0    0  501 -0.00000000000E+00  0.00000000000E+00  0.17612000363E+04  0.17612000363E+04  0.00000000000E+00 0.  1.
          2   -1    0    0  501    0  0.00000000000E+00 -0.00000000000E+00 -0.28530253352E+04  0.28530253352E+04  0.00000000000E+00 0. -1.
         23    2    1    2    0    0 -0.14288291527E+04 -0.15525397705E+04  0.10684602855E+03  0.21144755659E+04  0.87512047997E+02 0.  0.
    5000000    2    1    2    0    0  0.14288291527E+04  0.15525397705E+04 -0.11986713275E+04  0.24997498056E+04  0.60000304417E+03 0.  0.
         23    2    4    4    0    0  0.49907939332E+03  0.19151321852E+03 -0.26208541215E+03  0.60176710492E+03  0.87620383456E+02 0.  0.
         23    2    4    4    0    0  0.92974975933E+03  0.13610265519E+04 -0.93658591531E+03  0.18979827007E+04  0.91199042046E+02 0.  0.
          1    1    3    3  502    0 -0.12380306745E+04 -0.13553721420E+04  0.12157291335E+03  0.18397101857E+04  0.00000000000E+00 0. -1.
         -1    1    3    3    0  502 -0.19079847815E+03 -0.19716762850E+03 -0.14726884799E+02  0.27476538015E+03  0.00000000000E+00 0.  1.
         11    1    5    5    0    0  0.14794243820E+03  0.68150303477E+02 -0.37730482002E+02  0.16719754232E+03  0.00000000000E+00 0.  1.
        -11    1    5    5    0    0  0.35113695512E+03  0.12336291504E+03 -0.22435493015E+03  0.43456956260E+03  0.00000000000E+00 0. -1.
          5    1    6    6  503    0  0.36819674143E+03  0.57472690420E+03 -0.34208056905E+03  0.76349267221E+03  0.47000000000E+01 0. -1.
         -5    1    6    6    0  503  0.56155301790E+03  0.78629964774E+03 -0.59450534626E+03  0.11344900285E+04  0.47000000000E+01 0.  1.
<mgrwt>
<rscale>  0 0.21469684E+04</rscale>
<asrwt>0</asrwt>
<pdfrwt beam="1">  1        2 0.43892697E+00 0.21469684E+04</pdfrwt>
<pdfrwt beam="2">  1       -2 0.27095385E+00 0.21469684E+04</pdfrwt>
<totfact> 0.89767326E-02</totfact>
</mgrwt>
</event>
<event>
12    1  0.3127365E-008  0.7369563E+03  0.7818608E-02  0.9656039E-01
          2   -1    0    0  501    0  0.00000000000E+00  0.00000000000E+00  0.18285415393E+04  0.18285415393E+04  0.00000000000E+00 0. -1.
         -2   -1    0    0    0  501 -0.00000000000E+00 -0.00000000000E+00 -0.39068143678E+03  0.39068143678E+03  0.00000000000E+00 0.  1.
         23    2    1    2    0    0  0.62122038827E+02  0.69803665256E+03  0.33646205908E+03  0.78250214255E+03  0.89378799821E+02 0.  0.
    5000000    2    1    2    0    0 -0.62122038827E+02 -0.69803665256E+03  0.11013980435E+04  0.14367208336E+04  0.59997898914E+03 0.  0.
         23    2    4    4    0    0  0.73039900754E+02 -0.99942180068E+02 -0.20736544200E+02  0.15486112973E+03  0.90712175466E+02 0.  0.
         23    2    4    4    0    0 -0.13516193958E+03 -0.59809447250E+03  0.11221345877E+04  0.12818597038E+04  0.89400892181E+02 0.  0.
          1    1    3    3  502    0  0.84192230427E+02  0.53707804818E+03  0.24828407492E+03  0.59765051942E+03  0.00000000000E+00 0. -1.
         -1    1    3    3    0  502 -0.22070191600E+02  0.16095860438E+03  0.88177984163E+02  0.18485162312E+03  0.00000000000E+00 0.  1.
         13    1    5    5    0    0  0.13152083627E+02 -0.85816271610E+02  0.75372358232E+01  0.87144820274E+02  0.00000000000E+00 0.  1.
        -13    1    5    5    0    0  0.59887817126E+02 -0.14125908459E+02 -0.28273780023E+02  0.67716309459E+02  0.00000000000E+00 0. -1.
          5    1    6    6  503    0  0.10156422077E+02 -0.98695505927E+02  0.19207620048E+03  0.21623901727E+03  0.47000000000E+01 0. -1.
         -5    1    6    6    0  503 -0.14531836166E+03 -0.49939896657E+03  0.93005838721E+03  0.10656206866E+04  0.47000000000E+01 0.  1.
<mgrwt>
<rscale>  0 0.73695629E+03</rscale>
<asrwt>0</asrwt>
<pdfrwt beam="1">  1        2 0.28131408E+00 0.73695629E+03</pdfrwt>
<pdfrwt beam="2">  1       -2 0.60104837E-01 0.73695629E+03</pdfrwt>
<totfact> 0.22152236E+01</totfact>
</mgrwt>
</event>
<event>
12    1  0.3127365E-008  0.1686969E+04  0.7818608E-02  0.8768832E-01
          1   -1    0    0  501    0  0.00000000000E+00  0.00000000000E+00  0.20660756774E+04  0.20660756774E+04  0.00000000000E+00 0. -1.
         -1   -1    0    0    0  501 -0.00000000000E+00 -0.00000000000E+00 -0.15178041462E+04  0.15178041462E+04  0.00000000000E+00 0.  1.
         23    2    1    2    0    0 -0.76193098834E+03  0.14998053209E+04  0.62298135884E+03  0.17962748933E+04  0.92427740323E+02 0.  0.
    5000000    2    1    2    0    0  0.76193098834E+03 -0.14998053209E+04 -0.74709827619E+02  0.17876049304E+04  0.59999583086E+03 0.  0.
         23    2    4    4    0    0  0.37345606143E+03 -0.63276989853E+03  0.24666421328E+03  0.78063096841E+03  0.93135924507E+02 0.  0.
         23    2    4    4    0    0  0.38847492691E+03 -0.86703542239E+03 -0.32137404090E+03  0.10069739619E+04  0.89733457249E+02 0.  0.
          1    1    3    3  502    0 -0.16457780141E+03  0.26637642638E+03  0.14253952621E+03  0.34403454736E+03  0.00000000000E+00 0. -1.
         -1    1    3    3    0  502 -0.59735318693E+03  0.12334288945E+04  0.48044183263E+03  0.14522403459E+04  0.00000000000E+00 0.  1.
         11    1    5    5    0    0  0.30226374776E+03 -0.55296648987E+03  0.18320621346E+03  0.65627724993E+03  0.00000000000E+00 0. -1.
        -11    1    5    5    0    0  0.71192313680E+02 -0.79803408659E+02  0.63457999818E+02  0.12435371849E+03  0.00000000000E+00 0.  1.
          5    1    6    6  503    0  0.17071970824E+03 -0.47466644835E+03 -0.14603430287E+03  0.52516812888E+03  0.47000000000E+01 0. -1.
         -5    1    6    6    0  503  0.21775521867E+03 -0.39236897404E+03 -0.17533973802E+03  0.48180583306E+03  0.47000000000E+01 0.  1.
<mgrwt>
<rscale>  0 0.16869687E+04</rscale>
<asrwt>0</asrwt>
<pdfrwt beam="1">  1        1 0.31785780E+00 0.16869687E+04</pdfrwt>
<pdfrwt beam="2">  1       -1 0.23350833E+00 0.16869687E+04</pdfrwt>
<totfact> 0.22223878E-01</totfact>
</mgrwt>
</event>
<event>
12    1  0.3127365E-008  0.5133438E+03  0.7818608E-02  0.1010354E+00
          2   -1    0    0  501    0  0.00000000000E+00  0.00000000000E+00  0.12610051539E+04  0.12610051539E+04  0.00000000000E+00 0. -1.
         -2   -1    0    0    0  501 -0.00000000000E+00 -0.00000000000E+00 -0.22347177099E+03  0.22347177099E+03  0.00000000000E+00 0.  1.
         23    2    1    2    0    0  0.32309188450E+03  0.13247388489E+03  0.31215022084E+03  0.48034706286E+03  0.10657318810E+03 0.  0.
    5000000    2    1    2    0    0 -0.32309188450E+03 -0.13247388489E+03  0.72538316211E+03  0.10041298621E+04  0.60013194549E+03 0.  0.
         23    2    4    4    0    0 -0.45042245213E+03  0.36782843964E+02  0.43871536560E+03  0.63635752644E+03  0.90809506428E+02 0.  0.
         23    2    4    4    0    0  0.12733056763E+03 -0.16925672885E+03  0.28666779651E+03  0.36777233562E+03  0.90648505622E+02 0.  0.
          3    1    3    3  502    0  0.24596814992E+03  0.13539515199E+03  0.20215100895E+03  0.34597284341E+03  0.00000000000E+00 0. -1.
         -3    1    3    3    0  502  0.77123734583E+02 -0.29212671020E+01  0.10999921189E+03  0.13437421945E+03  0.00000000000E+00 0.  1.
         13    1    5    5    0    0 -0.19650455437E+03 -0.14332518335E+02  0.14424667349E+03  0.24418551100E+03  0.00000000000E+00 0.  1.
        -13    1    5    5    0    0 -0.25391789776E+03  0.51115362300E+02  0.29446869210E+03  0.39217201544E+03  0.00000000000E+00 0. -1.
          5    1    6    6  503    0  0.37411057039E+02 -0.63012555949E+02  0.37806837503E+02  0.82593076937E+02  0.47000000000E+01 0. -1.
         -5    1    6    6    0  503  0.89919510591E+02 -0.10624417291E+03  0.24886095901E+03  0.28517925868E+03  0.47000000000E+01 0.  1.
<mgrwt>
<rscale>  0 0.51334375E+03</rscale>
<asrwt>0</asrwt>
<pdfrwt beam="1">  1        2 0.19400079E+00 0.51334375E+03</pdfrwt>
<pdfrwt beam="2">  1       -2 0.34380273E-01 0.51334375E+03</pdfrwt>
<totfact> 0.14306109E+02</totfact>
</mgrwt>
</event>
<event>
12    1  0.3127365E-008  0.5666000E+03  0.7818608E-02  0.9977231E-01
         -3   -1    0    0    0  501 -0.00000000000E+00  0.00000000000E+00  0.58165125156E+03  0.58165125156E+03  0.00000000000E+00 0.  1.
          3   -1    0    0  501    0  0.00000000000E+00 -0.00000000000E+00 -0.57457687223E+03  0.57457687223E+03  0.00000000000E+00 0. -1.
         23    2    1    2    0    0  0.17892663931E+03 -0.37007064145E+03  0.67685680876E+02  0.42649224861E+03  0.91363366906E+02 0.  0.
    5000000    2    1    2    0    0 -0.17892663931E+03  0.37007064145E+03 -0.60611301544E+02  0.72973587518E+03  0.59989473722E+03 0.  0.
         23    2    4    4    0    0 -0.23912884195E+03  0.49833105180E+03 -0.64557955332E+02  0.56419909228E+03  0.92932480270E+02 0.  0.
         23    2    4    4    0    0  0.60202202644E+02 -0.12826041035E+03  0.39466537882E+01  0.16553678291E+03  0.85509136073E+02 0.  0.
          2    1    3    3  502    0  0.63826474233E+02 -0.69759564298E+02 -0.11569558290E+02  0.95257914649E+02  0.00000000000E+00 0. -1.
         -2    1    3    3    0  502  0.11510016507E+03 -0.30031107715E+03  0.79255239166E+02  0.33123433396E+03  0.00000000000E+00 0.  1.
         13    1    5    5    0    0 -0.38501152774E+02  0.90202319724E+02  0.23795099308E+02  0.10092078081E+03  0.00000000000E+00 0. -1.
        -13    1    5    5    0    0 -0.20062768918E+03  0.40812873208E+03 -0.88353054640E+02  0.46327831147E+03  0.00000000000E+00 0.  1.
          5    1    6    6  503    0  0.71360990011E+02 -0.55774131766E+02 -0.81449609628E+01  0.91058086179E+02  0.47000000000E+01 0. -1.
         -5    1    6    6    0  503 -0.11158787367E+02 -0.72486278586E+02  0.12091614751E+02  0.74478696726E+02  0.47000000000E+01 0.  1.
<mgrwt>
<rscale>  0 0.56659996E+03</rscale>
<asrwt>0</asrwt>
<pdfrwt beam="1">  1        3 0.88396442E-01 0.56659996E+03</pdfrwt>
<pdfrwt beam="2">  1       -3 0.89484807E-01 0.56659996E+03</pdfrwt>
<totfact> 0.34296515E+00</totfact>
</mgrwt>
</event>
<event>
12    1  0.3127365E-008  0.8452932E+03  0.7818608E-02  0.9496676E-01
          1   -1    0    0  501    0  0.00000000000E+00  0.00000000000E+00  0.41395903701E+03  0.41395903701E+03  0.00000000000E+00 0. -1.
         -1   -1    0    0    0  501 -0.00000000000E+00 -0.00000000000E+00 -0.22373427897E+04  0.22373427897E+04  0.00000000000E+00 0.  1.
         23    2    1    2    0    0 -0.24527199979E+03 -0.77411898328E+03 -0.12404713609E+04  0.14855202407E+04  0.92642507706E+02 0.  0.
    5000000    2    1    2    0    0  0.24527199979E+03  0.77411898328E+03 -0.58291239179E+03  0.11657815860E+04  0.59986773172E+03 0.  0.
         23    2    4    4    0    0  0.19413075303E+03  0.15059056991E+03  0.53687903393E+02  0.26788116064E+03  0.92269476200E+02 0.  0.
         23    2    4    4    0    0  0.51141246769E+02  0.62352841336E+03 -0.63660029518E+03  0.89790042534E+03  0.97786137079E+02 0.  0.
          3    1    3    3  502    0 -0.14049812408E+03 -0.57813240477E+03 -0.91432933140E+03  0.10908597190E+04  0.00000000000E+00 0. -1.
         -3    1    3    3    0  502 -0.10477387572E+03 -0.19598657851E+03 -0.32614202946E+03  0.39466052167E+03  0.00000000000E+00 0.  1.
         13    1    5    5    0    0  0.84918223278E+02  0.47311511838E+02  0.65324442523E+02  0.11711860052E+03  0.00000000000E+00 0. -1.
        -13    1    5    5    0    0  0.10921252975E+03  0.10327905807E+03 -0.11636539130E+02  0.15076256012E+03  0.00000000000E+00 0.  1.
          5    1    6    6  503    0  0.24730106862E+02  0.21630246485E+03 -0.15869037330E+03  0.26944954827E+03  0.47000000000E+01 0. -1.
         -5    1    6    6    0  503  0.26411139907E+02  0.40722594852E+03 -0.47790992188E+03  0.62845087707E+03  0.47000000000E+01 0.  1.
<mgrwt>
<rscale>  0 0.84529322E+03</rscale>
<asrwt>0</asrwt>
<pdfrwt beam="1">  1        1 0.63686006E-01 0.84529322E+03</pdfrwt>
<pdfrwt beam="2">  1       -1 0.34420658E+00 0.84529322E+03</pdfrwt>
<totfact> 0.10154738E+00</totfact>
</mgrwt>
</event>
<event>
12    1  0.3127365E-008  0.3618450E+03  0.7818608E-02  0.1057856E+00
          2   -1    0    0  501    0  0.00000000000E+00  0.00000000000E+00  0.10885112422E+04  0.10885112422E+04  0.00000000000E+00 0. -1.
         -2   -1    0    0    0  501 -0.00000000000E+00 -0.00000000000E+00 -0.19571939698E+03  0.19571939698E+03  0.00000000000E+00 0.  1.
         23    2    1    2    0    0  0.15321264636E+03  0.12592839683E+02 -0.21359463949E+02  0.17994337898E+03  0.91053271888E+02 0.  0.
    5000000    2    1    2    0    0 -0.15321264636E+03 -0.12592839683E+02  0.91415130914E+03  0.11042872602E+04  0.60012085647E+03 0.  0.
         23    2    4    4    0    0 -0.20120326528E+03 -0.23241374811E+03  0.28130541418E+03  0.42643742461E+03  0.90648975682E+02 0.  0.
         23    2    4    4    0    0  0.47990618911E+02  0.21982090842E+03  0.63284589495E+03  0.67784983557E+03  0.91444745788E+02 0.  0.
          3    1    3    3  502    0  0.30476269065E+02  0.42155000597E+02 -0.73159750531E+00  0.52022901556E+02  0.00000000000E+00 0. -1.
         -3    1    3    3    0  502  0.12273637730E+03 -0.29562160914E+02 -0.20627866444E+02  0.12792047742E+03  0.00000000000E+00 0.  1.
         13    1    5    5    0    0 -0.16287964932E+03 -0.16330099443E+03  0.25334804431E+03  0.34261089665E+03  0.00000000000E+00 0.  1.
        -13    1    5    5    0    0 -0.38323615952E+02 -0.69112753672E+02  0.27957369876E+02  0.83826527962E+02  0.00000000000E+00 0. -1.
          5    1    6    6  503    0  0.34470865519E+01 -0.42734635563E+01  0.29965702338E+01  0.78239586930E+01  0.47000000000E+01 0. -1.
         -5    1    6    6    0  503  0.44543532359E+02  0.22409437198E+03  0.62984932472E+03  0.67002587687E+03  0.47000000000E+01 0.  1.
<mgrwt>
<rscale>  0 0.36184503E+03</rscale>
<asrwt>0</asrwt>
<pdfrwt beam="1">  1        2 0.16746326E+00 0.36184503E+03</pdfrwt>
<pdfrwt beam="2">  1       -2 0.30110677E-01 0.36184503E+03</pdfrwt>
<totfact> 0.23502258E+02</totfact>
</mgrwt>
</event>
<event>
12    1  0.3127365E-008  0.5866854E+03  0.7818608E-02  0.9933421E-01
         -2   -1    0    0    0  501 -0.00000000000E+00  0.00000000000E+00  0.57272204460E+03  0.57272204460E+03  0.00000000000E+00 0.  1.
          2   -1    0    0  501    0  0.00000000000E+00 -0.00000000000E+00 -0.84892104811E+03  0.84892104811E+03  0.00000000000E+00 0. -1.
         23    2    1    2    0    0 -0.86382222433E+02 -0.51295768807E+03  0.10867088136E+03  0.53920068636E+03  0.91326565733E+02 0.  0.
    5000000    2    1    2    0    0  0.86382222433E+02  0.51295768807E+03 -0.38486988486E+03  0.88244240635E+03  0.59999357842E+03 0.  0.
         23    2    4    4    0    0 -0.13324147334E+03  0.26111124526E+03 -0.43379680045E+03  0.53250335517E+03  0.97199725146E+02 0.  0.
         23    2    4    4    0    0  0.21962369577E+03  0.25184644281E+03  0.48926915588E+02  0.34993905118E+03  0.91664049499E+02 0.  0.
          2    1    3    3  502    0 -0.12101026310E+01 -0.77327100614E+02 -0.14200835178E+02  0.78629565416E+02  0.00000000000E+00 0. -1.
         -2    1    3    3    0  502 -0.85172119802E+02 -0.43563058746E+03  0.12287171654E+03  0.46057112094E+03  0.00000000000E+00 0.  1.
         13    1    5    5    0    0 -0.12936349342E+03  0.16554201002E+03 -0.26154068504E+03  0.33547369560E+03  0.00000000000E+00 0. -1.
        -13    1    5    5    0    0 -0.38779799206E+01  0.95569235241E+02 -0.17225611542E+03  0.19702965957E+03  0.00000000000E+00 0.  1.
          5    1    6    6  503    0  0.18380061021E+03  0.24987700603E+03  0.41406441227E+02  0.31298205353E+03  0.47000000000E+01 0. -1.
         -5    1    6    6    0  503  0.35823085561E+02  0.19694367742E+01  0.75204743610E+01  0.36956997645E+02  0.47000000000E+01 0.  1.
<mgrwt>
<rscale>  0 0.58668544E+03</rscale>
<asrwt>0</asrwt>
<pdfrwt beam="1">  1        2 0.13060324E+00 0.58668544E+03</pdfrwt>
<pdfrwt beam="2">  1       -2 0.88111084E-01 0.58668544E+03</pdfrwt>
<totfact> 0.36373198E+01</totfact>
</mgrwt>
</event>
<event>
12    1  0.3127365E-008  0.1166669E+04  0.7818608E-02  0.9142542E-01
         -2   -1    0    0    0  501 -0.00000000000E+00  0.00000000000E+00  0.15860508682E+04  0.15860508682E+04  0.00000000000E+00 0.  1.
          2   -1    0    0  501    0  0.00000000000E+00 -0.00000000000E+00 -0.97145910979E+03  0.97145910979E+03  0.00000000000E+00 0. -1.
         23    2    1    2    0    0  0.10004616249E+04 -0.48287818981E+03 -0.77468628342E+02  0.11177218199E+04  0.95947221586E+02 0.  0.
    5000000    2    1    2    0    0 -0.10004616249E+04  0.48287818981E+03  0.69206038676E+03  0.14397881581E+04  0.59995629193E+03 0.  0.
         23    2    4    4    0    0 -0.89078705832E+03  0.56774334597E+03  0.46295294080E+03  0.11566877993E+04  0.88131433573E+02 0.  0.
         23    2    4    4    0    0 -0.10967456653E+03 -0.84865156157E+02  0.22910744596E+03  0.28310035874E+03  0.91787722766E+02 0.  0.
          2    1    3    3  502    0  0.43271402557E+03 -0.20764040089E+03 -0.81142310025E+02  0.48676486981E+03  0.00000000000E+00 0. -1.
         -2    1    3    3    0  502  0.56774759929E+03 -0.27523778892E+03  0.36736816829E+01  0.63095695010E+03  0.00000000000E+00 0.  1.
         11    1    5    5    0    0 -0.73920249415E+03  0.48350472703E+03  0.35217637844E+03  0.95090764533E+03  0.00000000000E+00 0. -1.
        -11    1    5    5    0    0 -0.15158456417E+03  0.84238618941E+02  0.11077656237E+03  0.20578015401E+03  0.00000000000E+00 0.  1.
          5    1    6    6  503    0 -0.18122047605E+02 -0.70495482164E+02  0.89317648161E+02  0.11531588740E+03  0.47000000000E+01 0. -1.
         -5    1    6    6    0  503 -0.91552518925E+02 -0.14369673994E+02  0.13978979780E+03  0.16778447133E+03  0.47000000000E+01 0.  1.
<mgrwt>
<rscale>  0 0.11666691E+04</rscale>
<asrwt>0</asrwt>
<pdfrwt beam="1">  1        2 0.14945525E+00 0.11666691E+04</pdfrwt>
<pdfrwt beam="2">  1       -2 0.24400783E+00 0.11666691E+04</pdfrwt>
<totfact> 0.17976967E+00</totfact>
</mgrwt>
</event>
<event>
12    1  0.3127365E-008  0.1522096E+04  0.7818608E-02  0.8869891E-01
         -1   -1    0    0    0  501 -0.00000000000E+00  0.00000000000E+00  0.10845131681E+04  0.10845131681E+04  0.00000000000E+00 0.  1.
          1   -1    0    0  501    0  0.00000000000E+00 -0.00000000000E+00 -0.25757210511E+04  0.25757210511E+04  0.00000000000E+00 0. -1.
         23    2    1    2    0    0  0.14654573530E+04  0.66670427005E+02 -0.14646554548E+04  0.20750548192E+04  0.92880042176E+02 0.  0.
    5000000    2    1    2    0    0 -0.14654573530E+04 -0.66670427005E+02 -0.26552428171E+02  0.15851793999E+04  0.60006541235E+03 0.  0.
         23    2    4    4    0    0 -0.11526519143E+04 -0.28366572439E+03 -0.69400779339E+02  0.11926406891E+04  0.92209903884E+02 0.  0.
         23    2    4    4    0    0 -0.31280543873E+03  0.21699529739E+03  0.42848351168E+02  0.39253871082E+03  0.85536288869E+02 0.  0.
          3    1    3    3  502    0  0.59566827523E+03 -0.15411500990E+02 -0.57051889468E+03  0.82495455491E+03  0.00000000000E+00 0. -1.
         -3    1    3    3    0  502  0.86978907777E+03  0.82081927996E+02 -0.89413656013E+03  0.12501002643E+04  0.00000000000E+00 0.  1.
         13    1    5    5    0    0 -0.21785718817E+03 -0.49252344891E+02 -0.49103194704E+02  0.22868902826E+03  0.00000000000E+00 0.  1.
        -13    1    5    5    0    0 -0.93479472611E+03 -0.23441337950E+03 -0.20297584636E+02  0.96395166081E+03  0.00000000000E+00 0. -1.
          5    1    6    6  503    0 -0.17975929088E+03  0.80848660821E+02  0.44471468452E+02  0.20211311219E+03  0.47000000000E+01 0. -1.
         -5    1    6    6    0  503 -0.13304614785E+03  0.13614663656E+03 -0.16231172836E+01  0.19042559864E+03  0.47000000000E+01 0.  1.
<mgrwt>
<rscale>  0 0.15220964E+04</rscale>
<asrwt>0</asrwt>
<pdfrwt beam="1">  1        1 0.39626478E+00 0.15220964E+04</pdfrwt>
<pdfrwt beam="2">  1       -1 0.16684818E+00 0.15220964E+04</pdfrwt>
<totfact> 0.29464952E-01</totfact>
</mgrwt>
</event>
<event>
12    1  0.3206244E-008  0.9729384E+03  0.7818608E-02  0.9338734E-01
          2   -1    0    0  501    0  0.00000000000E+00  0.00000000000E+00  0.16703360601E+04  0.16703360601E+04  0.00000000000E+00 0. -1.
         -2   -1    0    0    0  501 -0.00000000000E+00 -0.00000000000E+00 -0.68276302024E+03  0.68276302024E+03  0.00000000000E+00 0.  1.
         23    2    1    2    0    0 -0.18861296020E+02  0.88078245380E+03 -0.20870915517E+02  0.88582006797E+03  0.90045090309E+02 0.  0.
    5000000    2    1    2    0    0  0.18861296020E+02 -0.88078245380E+03  0.10084439554E+04  0.14672790124E+04  0.59984582154E+03 0.  0.
         23    2    4    4    0    0  0.26502464483E+03 -0.22707897981E+03  0.31862450639E+03  0.48148660017E+03  0.92221714545E+02 0.  0.
         23    2    4    4    0    0 -0.24616334881E+03 -0.65370347399E+03  0.68981944899E+03  0.98579241221E+03  0.89505204081E+02 0.  0.
          3    1    3    3  502    0 -0.42112053915E+02  0.29224639732E+03 -0.29733387308E+02  0.29675824529E+03  0.00000000000E+00 0. -1.
         -3    1    3    3    0  502  0.23250757895E+02  0.58853605648E+03  0.88624717914E+01  0.58906182267E+03  0.00000000000E+00 0.  1.
         13    1    5    5    0    0  0.15249092556E+03 -0.18739844481E+03  0.21721220395E+03  0.32488890569E+03  0.00000000000E+00 0. -1.
        -13    1    5    5    0    0  0.11253371927E+03 -0.39680534995E+02  0.10141230244E+03  0.15659769448E+03  0.00000000000E+00 0.  1.
          5    1    6    6  503    0 -0.13325896280E+03 -0.42780229892E+03  0.39278336111E+03  0.59588053911E+03  0.47000000000E+01 0. -1.
         -5    1    6    6    0  503 -0.11290438601E+03 -0.22590117508E+03  0.29703608788E+03  0.38991187310E+03  0.47000000000E+01 0.  1.
<mgrwt>
<rscale>  0 0.97293835E+03</rscale>
<asrwt>0</asrwt>
<pdfrwt beam="1">  1        2 0.25697478E+00 0.97293835E+03</pdfrwt>
<pdfrwt beam="2">  1       -2 0.10504046E+00 0.97293835E+03</pdfrwt>
<totfact> 0.74772537E+00</totfact>
</mgrwt>
</event>
<event>
12    1  0.3127365E-008  0.9732574E+03  0.7818608E-02  0.9338372E-01
         -2   -1    0    0    0  501 -0.00000000000E+00  0.00000000000E+00  0.52779595555E+03  0.52779595555E+03  0.00000000000E+00 0.  1.
          2   -1    0    0  501    0  0.00000000000E+00 -0.00000000000E+00 -0.24468994670E+04  0.24468994670E+04  0.00000000000E+00 0. -1.
         23    2    1    2    0    0  0.79805710880E+03  0.47860130075E+03 -0.24358604791E+03  0.96634630747E+03  0.92394097352E+02 0.  0.
    5000000    2    1    2    0    0 -0.79805710880E+03 -0.47860130075E+03 -0.16755174635E+04  0.20083491151E+04  0.60012752266E+03 0.  0.
         23    2    4    4    0    0 -0.14900009361E+03  0.52110642871E+02 -0.68251838018E+03  0.70552619683E+03  0.83781430701E+02 0.  0.
         23    2    4    4    0    0 -0.64905701519E+03 -0.53071194362E+03 -0.99299908335E+03  0.13028229182E+04  0.91488801047E+02 0.  0.
          1    1    3    3  502    0  0.30779837299E+03  0.23216201277E+03 -0.12133540592E+03  0.40417981063E+03  0.00000000000E+00 0. -1.
         -1    1    3    3    0  502  0.49025873581E+03  0.24643928798E+03 -0.12225064199E+03  0.56216649684E+03  0.00000000000E+00 0.  1.
         13    1    5    5    0    0 -0.36068440062E+02 -0.13674163739E+02 -0.27156668862E+03  0.27429251081E+03  0.00000000000E+00 0. -1.
        -13    1    5    5    0    0 -0.11293165355E+03  0.65784806610E+02 -0.41095169156E+03  0.43123368601E+03  0.00000000000E+00 0.  1.
          5    1    6    6  503    0 -0.58528656876E+03 -0.44108584792E+03 -0.87633292460E+03  0.11424091113E+04  0.47000000000E+01 0. -1.
         -5    1    6    6    0  503 -0.63770446427E+02 -0.89626095695E+02 -0.11666615875E+03  0.16041380696E+03  0.47000000000E+01 0.  1.
<mgrwt>
<rscale>  0 0.97325741E+03</rscale>
<asrwt>0</asrwt>
<pdfrwt beam="1">  1        2 0.37644607E+00 0.97325741E+03</pdfrwt>
<pdfrwt beam="2">  1       -2 0.81199378E-01 0.97325741E+03</pdfrwt>
<totfact> 0.50578740E+00</totfact>
</mgrwt>
</event>
<event>
12    1  0.3127365E-008  0.6529049E+03  0.7818608E-02  0.9801344E-01
         -2   -1    0    0    0  501 -0.00000000000E+00  0.00000000000E+00  0.31114278442E+03  0.31114278442E+03  0.00000000000E+00 0. -1.
          2   -1    0    0  501    0  0.00000000000E+00 -0.00000000000E+00 -0.21727759217E+04  0.21727759217E+04  0.00000000000E+00 0.  1.
         23    2    1    2    0    0 -0.11089209360E+01  0.57254019328E+03 -0.14424181912E+04  0.15546225832E+04  0.92074074682E+02 0.  0.
    5000000    2    1    2    0    0  0.11089209360E+01 -0.57254019328E+03 -0.41921494614E+03  0.92929612299E+03  0.60003884083E+03 0.  0.
         23    2    4    4    0    0  0.13622797498E+03 -0.24963067630E+02 -0.30205011501E+03  0.34459304314E+03  0.91262684000E+02 0.  0.
         23    2    4    4    0    0 -0.13511905404E+03 -0.54757712565E+03 -0.11716483113E+03  0.58470307985E+03  0.10026079309E+03 0.  0.
          2    1    3    3  502    0 -0.37893776110E+02  0.33387466142E+03 -0.76865598059E+03  0.83889227217E+03  0.00000000000E+00 0. -1.
         -2    1    3    3    0  502  0.36784855174E+02  0.23866553186E+03 -0.67376221058E+03  0.71573031099E+03  0.00000000000E+00 0.  1.
         13    1    5    5    0    0  0.76143728950E+02 -0.49397094139E+02 -0.11429354377E+03  0.14594846527E+03  0.00000000000E+00 0. -1.
        -13    1    5    5    0    0  0.60084246026E+02  0.24434026509E+02 -0.18775657125E+03  0.19864457787E+03  0.00000000000E+00 0.  1.
          5    1    6    6  503    0  0.15895843500E+02 -0.57923644346E+02 -0.80901404230E+01  0.60789528597E+02  0.47000000000E+01 0. -1.
         -5    1    6    6    0  503 -0.15101489754E+03 -0.48965348131E+03 -0.10907469071E+03  0.52391355126E+03  0.47000000000E+01 0.  1.
<mgrwt>
<rscale>  0 0.65290487E+03</rscale>
<asrwt>0</asrwt>
<pdfrwt beam="1">  1        2 0.33427322E+00 0.65290487E+03</pdfrwt>
<pdfrwt beam="2">  1       -2 0.47868121E-01 0.65290487E+03</pdfrwt>
<totfact> 0.23285130E+01</totfact>
</mgrwt>
</event>
<event>
12    1  0.3127365E-008  0.4161500E+03  0.7818608E-02  0.1038327E+00
         -2   -1    0    0    0  501 -0.00000000000E+00  0.00000000000E+00  0.46402067097E+03  0.46402067097E+03  0.00000000000E+00 0.  1.
          2   -1    0    0  501    0  0.00000000000E+00 -0.00000000000E+00 -0.99256034687E+03  0.99256034687E+03  0.00000000000E+00 0. -1.
         23    2    1    2    0    0  0.38083204942E+03 -0.50293009315E+02 -0.62533551611E+03  0.73771127990E+03  0.74906529311E+02 0.  0.
    5000000    2    1    2    0    0 -0.38083204942E+03  0.50293009315E+02  0.96795840210E+02  0.71886973794E+03  0.59986817618E+03 0.  0.
         23    2    4    4    0    0 -0.17728667564E+03 -0.47577463279E+02  0.32525718501E+03  0.38481638500E+03  0.92721267185E+02 0.  0.
         23    2    4    4    0    0 -0.20354537378E+03  0.97870472594E+02 -0.22846134480E+03  0.33405335294E+03  0.91584430718E+02 0.  0.
          2    1    3    3  502    0  0.20536174452E+03  0.80744457099E+01 -0.35446376947E+03  0.40973553258E+03  0.00000000000E+00 0. -1.
         -2    1    3    3    0  502  0.17547030490E+03 -0.58367455025E+02 -0.27087174664E+03  0.32797574733E+03  0.00000000000E+00 0.  1.
         13    1    5    5    0    0 -0.89767036609E+02 -0.67240153640E+02  0.14351167852E+03  0.18213994893E+03  0.00000000000E+00 0. -1.
        -13    1    5    5    0    0 -0.87519639028E+02  0.19662690360E+02  0.18174550649E+03  0.20267643607E+03  0.00000000000E+00 0.  1.
          5    1    6    6  503    0 -0.27243000954E+02  0.50191131662E+02 -0.81274328174E+02  0.99443135604E+02  0.47000000000E+01 0. -1.
         -5    1    6    6    0  503 -0.17630237283E+03  0.47679340932E+02 -0.14718701663E+03  0.23461021734E+03  0.47000000000E+01 0.  1.
<mgrwt>
<rscale>  0 0.41615001E+03</rscale>
<asrwt>0</asrwt>
<pdfrwt beam="1">  1        2 0.15270159E+00 0.41615001E+03</pdfrwt>
<pdfrwt beam="2">  1       -2 0.71387795E-01 0.41615001E+03</pdfrwt>
<totfact> 0.47881819E+01</totfact>
</mgrwt>
</event>
<event>
12    1  0.3127365E-008  0.4205566E+03  0.7818608E-02  0.1036885E+00
          2   -1    0    0  501    0  0.00000000000E+00  0.00000000000E+00  0.36326637724E+03  0.36326637724E+03  0.00000000000E+00 0.  1.
         -2   -1    0    0    0  501 -0.00000000000E+00 -0.00000000000E+00 -0.85573027911E+03  0.85573027911E+03  0.00000000000E+00 0. -1.
         23    2    1    2    0    0 -0.30579476573E+03  0.23459133689E+03 -0.13193689040E+03  0.41989275942E+03  0.10177942954E+03 0.  0.
    5000000    2    1    2    0    0  0.30579476573E+03 -0.23459133689E+03 -0.36052701148E+03  0.79910389693E+03  0.60003648055E+03 0.  0.
         23    2    4    4    0    0  0.14676065514E+03 -0.24594688376E+01  0.13798189714E+03  0.21951567657E+03  0.87197416456E+02 0.  0.
         23    2    4    4    0    0  0.15903411058E+03 -0.23213186805E+03 -0.49850890862E+03  0.57958822036E+03  0.90743157938E+02 0.  0.
          2    1    3    3  502    0 -0.22454253878E+03  0.11085993301E+03 -0.76762904525E+02  0.26191949141E+03  0.00000000000E+00 0. -1.
         -2    1    3    3    0  502 -0.81252226946E+02  0.12373140388E+03 -0.55173985876E+02  0.15797326802E+03  0.00000000000E+00 0.  1.
         11    1    5    5    0    0  0.85761960258E+02  0.50240405427E+01  0.22670617492E+02  0.88849939269E+02  0.00000000000E+00 0.  1.
        -11    1    5    5    0    0  0.60998694883E+02 -0.74835093803E+01  0.11531127965E+03  0.13066573730E+03  0.00000000000E+00 0. -1.
          5    1    6    6  503    0 -0.37041673812E+00  0.66588940291E+01 -0.18988734402E+02  0.20667368300E+02  0.47000000000E+01 0. -1.
         -5    1    6    6    0  503  0.15940452732E+03 -0.23879076208E+03 -0.47952017421E+03  0.55892085206E+03  0.47000000000E+01 0.  1.
<mgrwt>
<rscale>  0 0.42055663E+03</rscale>
<asrwt>0</asrwt>
<pdfrwt beam="1">  1        2 0.55887135E-01 0.42055663E+03</pdfrwt>
<pdfrwt beam="2">  1       -2 0.13165081E+00 0.42055663E+03</pdfrwt>
<totfact> 0.38806318E+01</totfact>
</mgrwt>
</event>
<event>
12    1  0.3127365E-008  0.1025182E+04  0.7818608E-02  0.9281349E-01
          3   -1    0    0  501    0  0.00000000000E+00  0.00000000000E+00  0.94102863993E+03  0.94102863993E+03  0.00000000000E+00 0. -1.
         -3   -1    0    0    0  501 -0.00000000000E+00 -0.00000000000E+00 -0.12466259249E+04  0.12466259249E+04  0.00000000000E+00 0.  1.
         23    2    1    2    0    0  0.75491998156E+03  0.58950544084E+03  0.14210302509E+03  0.97193045798E+03  0.83873130861E+02 0.  0.
    5000000    2    1    2    0    0 -0.75491998156E+03 -0.58950544084E+03 -0.44770031003E+03  0.12157241068E+04  0.60010723458E+03 0.  0.
         23    2    4    4    0    0 -0.12419273772E+03 -0.40326750333E+03 -0.33210828283E+02  0.43308878590E+03  0.91730158676E+02 0.  0.
         23    2    4    4    0    0 -0.63072724383E+03 -0.18623793751E+03 -0.41448948174E+03  0.78263532093E+03  0.90637131539E+02 0.  0.
          4    1    3    3  502    0  0.34775583335E+03  0.31053952104E+03  0.97862509993E+02  0.47638848078E+03  0.00000000000E+00 0.  1.
         -4    1    3    3    0  502  0.40716414820E+03  0.27896591980E+03  0.44240515092E+02  0.49554197720E+03  0.00000000000E+00 0. -1.
         13    1    5    5    0    0 -0.85747675057E+01 -0.14247804688E+03 -0.38260029411E+02  0.14777466065E+03  0.00000000000E+00 0.  1.
        -13    1    5    5    0    0 -0.11561797022E+03 -0.26078945645E+03  0.50492011286E+01  0.28531412525E+03  0.00000000000E+00 0. -1.
          5    1    6    6  503    0 -0.74469055436E+02  0.38241000412E+01 -0.31845916882E+02  0.81218941021E+02  0.47000000000E+01 0. -1.
         -5    1    6    6    0  503 -0.55625818840E+03 -0.19006203755E+03 -0.38264356486E+03  0.70141637991E+03  0.47000000000E+01 0.  1.
<mgrwt>
<rscale>  0 0.10251815E+04</rscale>
<asrwt>0</asrwt>
<pdfrwt beam="1">  1        3 0.14477364E+00 0.10251815E+04</pdfrwt>
<pdfrwt beam="2">  1       -3 0.19178860E+00 0.10251815E+04</pdfrwt>
<totfact> 0.14833700E-01</totfact>
</mgrwt>
</event>
<event>
12    1  0.3127365E-008  0.7205997E+03  0.7818608E-02  0.9682638E-01
         -2   -1    0    0    0  501 -0.00000000000E+00  0.00000000000E+00  0.21398019267E+03  0.21398019267E+03  0.00000000000E+00 0.  1.
          2   -1    0    0  501    0  0.00000000000E+00 -0.00000000000E+00 -0.26747091785E+04  0.26747091785E+04  0.00000000000E+00 0. -1.
         23    2    1    2    0    0 -0.44087042476E+03  0.45071333481E+03 -0.11623800736E+04  0.13256000621E+04  0.92622068680E+02 0.  0.
    5000000    2    1    2    0    0  0.44087042476E+03 -0.45071333481E+03 -0.12983489122E+04  0.15630893090E+04  0.60002420664E+03 0.  0.
         23    2    4    4    0    0 -0.86820418877E+02  0.10962583787E+02 -0.39938041556E+03  0.41895311717E+03  0.91427756569E+02 0.  0.
         23    2    4    4    0    0  0.52769084364E+03 -0.46167591860E+03 -0.89896849664E+03  0.11441361919E+04  0.96441626322E+02 0.  0.
          3    1    3    3  502    0 -0.36925731072E+03  0.41868056185E+03 -0.10364967543E+04  0.11772722268E+04  0.00000000000E+00 0. -1.
         -3    1    3    3    0  502 -0.71613114044E+02  0.32032772963E+02 -0.12588331930E+03  0.14832783530E+03  0.00000000000E+00 0.  1.
         11    1    5    5    0    0  0.45680944768E+01  0.89181476100E+01 -0.19269745805E+03  0.19295779638E+03  0.00000000000E+00 0. -1.
        -11    1    5    5    0    0 -0.91388513353E+02  0.20444361774E+01 -0.20668295751E+03  0.22599532079E+03  0.00000000000E+00 0.  1.
          5    1    6    6  503    0  0.48188672903E+03 -0.43834854493E+03 -0.86277184831E+03  0.10810927891E+04  0.47000000000E+01 0. -1.
         -5    1    6    6    0  503  0.45804114615E+02 -0.23327373669E+02 -0.36196648326E+02  0.63043402732E+02  0.47000000000E+01 0.  1.
<mgrwt>
<rscale>  0 0.72059973E+03</rscale>
<asrwt>0</asrwt>
<pdfrwt beam="1">  1        2 0.41149370E+00 0.72059973E+03</pdfrwt>
<pdfrwt beam="2">  1       -2 0.32920031E-01 0.72059973E+03</pdfrwt>
<totfact> 0.24937306E+01</totfact>
</mgrwt>
</event>
<event>
12    1  0.3127365E-008  0.1722290E+04  0.7818608E-02  0.8748753E-01
          2   -1    0    0  501    0  0.00000000000E+00  0.00000000000E+00  0.21727548412E+04  0.21727548412E+04  0.00000000000E+00 0. -1.
         -2   -1    0    0    0  501 -0.00000000000E+00 -0.00000000000E+00 -0.14549015768E+04  0.14549015768E+04  0.00000000000E+00 0.  1.
         23    2    1    2    0    0  0.15584823057E+04  0.69917063941E+03  0.10152188107E+03  0.17151509731E+04  0.11717289800E+03 0.  0.
    5000000    2    1    2    0    0 -0.15584823057E+04 -0.69917063941E+03  0.61633138332E+03  0.19125054450E+04  0.60008834598E+03 0.  0.
         23    2    4    4    0    0 -0.12476637853E+03 -0.42368546440E+02  0.23905576289E+03  0.28858029512E+03  0.93643932130E+02 0.  0.
         23    2    4    4    0    0 -0.14337159271E+04 -0.65680209297E+03  0.37727562043E+03  0.16239251499E+04  0.88688497312E+02 0.  0.
          1    1    3    3  502    0  0.56840885845E+03  0.23677641337E+03 -0.17197391414E+02  0.61599306049E+03  0.00000000000E+00 0. -1.
         -1    1    3    3    0  502  0.99007344722E+03  0.46239422604E+03  0.11871927249E+03  0.10991579126E+04  0.00000000000E+00 0.  1.
         11    1    5    5    0    0 -0.13085307779E+01  0.19048780354E+02  0.57563048053E+02  0.60647116889E+02  0.00000000000E+00 0. -1.
        -11    1    5    5    0    0 -0.12345784775E+03 -0.61417326794E+02  0.18149271483E+03  0.22793317823E+03  0.00000000000E+00 0.  1.
          5    1    6    6  503    0 -0.11533413357E+04 -0.49242780208E+03  0.28520540820E+03  0.12860970383E+04  0.47000000000E+01 0. -1.
         -5    1    6    6    0  503 -0.28037459142E+03 -0.16437429089E+03  0.92070212230E+02  0.33782811162E+03  0.47000000000E+01 0.  1.
<mgrwt>
<rscale>  0 0.17222900E+04</rscale>
<asrwt>0</asrwt>
<pdfrwt beam="1">  1        2 0.33426998E+00 0.17222900E+04</pdfrwt>
<pdfrwt beam="2">  1       -2 0.22383101E+00 0.17222900E+04</pdfrwt>
<totfact> 0.45860808E-01</totfact>
</mgrwt>
</event>
<event>
12    1  0.3127365E-008  0.6147100E+03  0.7818608E-02  0.9875349E-01
         -2   -1    0    0    0  501 -0.00000000000E+00  0.00000000000E+00  0.25831571231E+03  0.25831571231E+03  0.00000000000E+00 0. -1.
          2   -1    0    0  501    0  0.00000000000E+00 -0.00000000000E+00 -0.15446412754E+04  0.15446412754E+04  0.00000000000E+00 0.  1.
         23    2    1    2    0    0 -0.34898824936E+03 -0.32005203608E+03 -0.35859038023E+03  0.60088342053E+03  0.90816960336E+02 0.  0.
    5000000    2    1    2    0    0  0.34898824936E+03  0.32005203608E+03 -0.92773518289E+03  0.12020735672E+04  0.60005182061E+03 0.  0.
         23    2    4    4    0    0 -0.12803571446E+03 -0.35634665984E+02 -0.18206714384E+03  0.24373359228E+03  0.92707311152E+02 0.  0.
         23    2    4    4    0    0  0.47702396382E+03  0.35568670207E+03 -0.74566803905E+03  0.95833997493E+03  0.91267688753E+02 0.  0.
          2    1    3    3  502    0 -0.14047408195E+03 -0.78225314189E+02 -0.94396796061E+02  0.18644817668E+03  0.00000000000E+00 0. -1.
         -2    1    3    3    0  502 -0.20851416741E+03 -0.24182672189E+03 -0.26419358417E+03  0.41443524385E+03  0.00000000000E+00 0.  1.
         11    1    5    5    0    0 -0.99303623787E+02  0.94643831574E+01 -0.15361331562E+03  0.18316068077E+03  0.00000000000E+00 0. -1.
        -11    1    5    5    0    0 -0.28732090673E+02 -0.45099049141E+02 -0.28453828228E+02  0.60572911509E+02  0.00000000000E+00 0.  1.
          5    1    6    6  503    0  0.20522723520E+03  0.17432963054E+03 -0.40418092640E+03  0.48568853128E+03  0.47000000000E+01 0. -1.
         -5    1    6    6    0  503  0.27179672862E+03  0.18135707153E+03 -0.34148711265E+03  0.47265144365E+03  0.47000000000E+01 0.  1.
<mgrwt>
<rscale>  0 0.61470998E+03</rscale>
<asrwt>0</asrwt>
<pdfrwt beam="1">  1        2 0.23763712E+00 0.61470998E+03</pdfrwt>
<pdfrwt beam="2">  1       -2 0.39740879E-01 0.61470998E+03</pdfrwt>
<totfact> 0.74311032E+01</totfact>
</mgrwt>
</event>
<event>
12    1  0.3127365E-008  0.1079214E+04  0.7818608E-02  0.9225691E-01
          2   -1    0    0  501    0  0.00000000000E+00  0.00000000000E+00  0.76212337161E+03  0.76212337161E+03  0.00000000000E+00 0.  1.
         -2   -1    0    0    0  501 -0.00000000000E+00 -0.00000000000E+00 -0.16059521381E+04  0.16059521381E+04  0.00000000000E+00 0. -1.
         23    2    1    2    0    0  0.94804976422E+03  0.31183738013E+03 -0.15245853577E+03  0.10137565002E+04  0.91748185171E+02 0.  0.
    5000000    2    1    2    0    0 -0.94804976422E+03 -0.31183738013E+03 -0.69137023075E+03  0.13543190095E+04  0.60012188477E+03 0.  0.
         23    2    4    4    0    0 -0.31258933497E+03 -0.40042072066E+03 -0.32316656672E+03  0.60889824214E+03  0.90948301580E+02 0.  0.
         23    2    4    4    0    0 -0.63546042925E+03  0.88583340528E+02 -0.36820366402E+03  0.74542076741E+03  0.91767188722E+02 0.  0.
          1    1    3    3  502    0  0.63325241638E+03  0.25125651090E+03 -0.90697840302E+02  0.68728782570E+03  0.00000000000E+00 0. -1.
         -1    1    3    3    0  502  0.31479734784E+03  0.60580869231E+02 -0.61760695472E+02  0.32646867450E+03  0.00000000000E+00 0.  1.
         11    1    5    5    0    0 -0.11924940895E+03 -0.13267893250E+03 -0.65561801522E+02  0.19005912365E+03  0.00000000000E+00 0.  1.
        -11    1    5    5    0    0 -0.19333992602E+03 -0.26774178816E+03 -0.25760476520E+03  0.41883911849E+03  0.00000000000E+00 0. -1.
          5    1    6    6  503    0 -0.37538580817E+03  0.75665765903E+01 -0.20420125115E+03  0.42742484605E+03  0.47000000000E+01 0. -1.
         -5    1    6    6    0  503 -0.26007462108E+03  0.81016763938E+02 -0.16400241287E+03  0.31799592135E+03  0.47000000000E+01 0.  1.
<mgrwt>
<rscale>  0 0.10792143E+04</rscale>
<asrwt>0</asrwt>
<pdfrwt beam="1">  1        2 0.11724975E+00 0.10792143E+04</pdfrwt>
<pdfrwt beam="2">  1       -2 0.24706956E+00 0.10792143E+04</pdfrwt>
<totfact> 0.24325616E+00</totfact>
</mgrwt>
</event>
<event>
12    1  0.3127365E-008  0.4339529E+03  0.7818608E-02  0.1032618E+00
          1   -1    0    0  501    0  0.00000000000E+00  0.00000000000E+00  0.56611165144E+03  0.56611165144E+03  0.00000000000E+00 0. -1.
         -1   -1    0    0    0  501 -0.00000000000E+00 -0.00000000000E+00 -0.37582944516E+03  0.37582944516E+03  0.00000000000E+00 0.  1.
         23    2    1    2    0    0  0.14619420149E+03 -0.17987055941E+03  0.16452893874E+03  0.29810986686E+03  0.89852981824E+02 0.  0.
    5000000    2    1    2    0    0 -0.14619420149E+03  0.17987055941E+03  0.25753267534E+02  0.64383122974E+03  0.60010770609E+03 0.  0.
         23    2    4    4    0    0 -0.35795971602E+03  0.92001610323E+02 -0.49898625119E+02  0.38521336618E+03  0.96436559991E+02 0.  0.
         23    2    4    4    0    0  0.21176551452E+03  0.87868949083E+02  0.75651892653E+02  0.25861786356E+03  0.92706014570E+02 0.  0.
          4    1    3    3  502    0 -0.26521467353E+01 -0.45725485093E+02  0.15368315862E+02  0.48311892963E+02  0.00000000000E+00 0. -1.
         -4    1    3    3    0  502  0.14884634823E+03 -0.13414507431E+03  0.14916062288E+03  0.24979797389E+03  0.00000000000E+00 0.  1.
         11    1    5    5    0    0 -0.19101489493E+03  0.79861993111E+02  0.10398041795E+02  0.20729869103E+03  0.00000000000E+00 0.  1.
        -11    1    5    5    0    0 -0.16694482109E+03  0.12139617212E+02 -0.60296666914E+02  0.17791467515E+03  0.00000000000E+00 0. -1.
          5    1    6    6  503    0  0.18165222355E+03  0.10742594043E+03  0.64445241189E+02  0.22071053919E+03  0.47000000000E+01 0. -1.
         -5    1    6    6    0  503  0.30113290977E+02 -0.19556991350E+02  0.11206651464E+02  0.37907324374E+02  0.47000000000E+01 0.  1.
<mgrwt>
<rscale>  0 0.43395295E+03</rscale>
<asrwt>0</asrwt>
<pdfrwt beam="1">  1        1 0.87094100E-01 0.43395295E+03</pdfrwt>
<pdfrwt beam="2">  1       -1 0.57819915E-01 0.43395295E+03</pdfrwt>
<totfact> 0.11783116E+02</totfact>
</mgrwt>
</event>
<event>
12    1  0.3127365E-008  0.4712183E+03  0.7818608E-02  0.1021577E+00
         -1   -1    0    0    0  501 -0.00000000000E+00  0.00000000000E+00  0.10731654453E+04  0.10731654453E+04  0.00000000000E+00 0.  1.
          1   -1    0    0  501    0  0.00000000000E+00 -0.00000000000E+00 -0.41460187976E+03  0.41460187976E+03  0.00000000000E+00 0. -1.
         23    2    1    2    0    0 -0.26055045412E+03  0.33592969895E+03  0.61252825477E+03  0.75102708468E+03  0.90086165727E+02 0.  0.
    5000000    2    1    2    0    0  0.26055045412E+03 -0.33592969895E+03  0.46035310807E+02  0.73674024042E+03  0.59994302249E+03 0.  0.
         23    2    4    4    0    0  0.22236511976E+03 -0.98526038512E+02  0.28507057616E+03  0.38550541722E+03  0.90529368512E+02 0.  0.
         23    2    4    4    0    0  0.38185334357E+02 -0.23740366044E+03 -0.23903526536E+03  0.35123482320E+03  0.91702918123E+02 0.  0.
          1    1    3    3  502    0 -0.12406270496E+03  0.90095397787E+02  0.21011025828E+03  0.26010585556E+03  0.00000000000E+00 0. -1.
         -1    1    3    3    0  502 -0.13648774916E+03  0.24583430116E+03  0.40241799649E+03  0.49092122912E+03  0.00000000000E+00 0.  1.
         11    1    5    5    0    0  0.74362781497E+02  0.91842835622E+01  0.64429419519E+02  0.98819656122E+02  0.00000000000E+00 0.  1.
        -11    1    5    5    0    0  0.14800233827E+03 -0.10771032207E+03  0.22064115664E+03  0.28668576110E+03  0.00000000000E+00 0. -1.
          5    1    6    6  503    0  0.84763413398E+01 -0.20685864879E+03 -0.16141274359E+03  0.26256144563E+03  0.47000000000E+01 0. -1.
         -5    1    6    6    0  503  0.29708993018E+02 -0.30545011652E+02 -0.77622521766E+02  0.88673377563E+02  0.47000000000E+01 0.  1.
<mgrwt>
<rscale>  0 0.47121834E+03</rscale>
<asrwt>0</asrwt>
<pdfrwt beam="1">  1        1 0.63784905E-01 0.47121834E+03</pdfrwt>
<pdfrwt beam="2">  1       -1 0.16510237E+00 0.47121834E+03</pdfrwt>
<totfact> 0.16341096E+01</totfact>
</mgrwt>
</event>
<event>
12    1  0.3127365E-008  0.6004686E+03  0.7818608E-02  0.9904434E-01
          3   -1    0    0  501    0  0.00000000000E+00  0.00000000000E+00  0.32297792726E+03  0.32297792726E+03  0.00000000000E+00 0. -1.
         -3   -1    0    0    0  501 -0.00000000000E+00 -0.00000000000E+00 -0.11568869272E+04  0.11568869272E+04  0.00000000000E+00 0.  1.
         23    2    1    2    0    0  0.38558150473E+03 -0.24714308950E+03 -0.29872549518E+03  0.55455345239E+03  0.92411074008E+02 0.  0.
    5000000    2    1    2    0    0 -0.38558150473E+03  0.24714308950E+03 -0.53518350480E+03  0.92531140212E+03  0.60002250258E+03 0.  0.
         23    2    4    4    0    0 -0.19856371479E+01 -0.15709837048E+03 -0.19186199757E+03  0.26429002756E+03  0.91402143269E+02 0.  0.
         23    2    4    4    0    0 -0.38359586758E+03  0.40424145998E+03 -0.34332150722E+03  0.66102137455E+03  0.92318214338E+02 0.  0.
          3    1    3    3  502    0  0.19832266625E+03 -0.99066331667E+02 -0.96898807095E+02  0.24194089534E+03  0.00000000000E+00 0. -1.
         -3    1    3    3    0  502  0.18725883848E+03 -0.14807675784E+03 -0.20182668809E+03  0.31261255705E+03  0.00000000000E+00 0.  1.
         13    1    5    5    0    0  0.41484286936E+02 -0.43393943465E+02 -0.63624170150E+02  0.87475799049E+02  0.00000000000E+00 0. -1.
        -13    1    5    5    0    0 -0.43469924084E+02 -0.11370442701E+03 -0.12823782742E+03  0.17681422851E+03  0.00000000000E+00 0.  1.
          5    1    6    6  503    0 -0.26502327114E+03  0.25209556535E+03 -0.17743508458E+03  0.40656464130E+03  0.47000000000E+01 0. -1.
         -5    1    6    6    0  503 -0.11857259644E+03  0.15214589464E+03 -0.16588642264E+03  0.25445673326E+03  0.47000000000E+01 0.  1.
<mgrwt>
<rscale>  0 0.60046861E+03</rscale>
<asrwt>0</asrwt>
<pdfrwt beam="1">  1        3 0.49688912E-01 0.60046861E+03</pdfrwt>
<pdfrwt beam="2">  1       -3 0.17798260E+00 0.60046861E+03</pdfrwt>
<totfact> 0.21545638E+00</totfact>
</mgrwt>
</event>
<event>
12    1  0.3127365E-008  0.6046792E+03  0.7818608E-02  0.9895745E-01
          2   -1    0    0  501    0  0.00000000000E+00  0.00000000000E+00  0.81833553841E+03  0.81833553841E+03  0.00000000000E+00 0. -1.
         -2   -1    0    0    0  501 -0.00000000000E+00 -0.00000000000E+00 -0.58533865342E+03  0.58533865342E+03  0.00000000000E+00 0.  1.
         23    2    1    2    0    0 -0.52333153022E+03  0.93254819019E+02 -0.77245053218E+02  0.54405541402E+03  0.86354753688E+02 0.  0.
    5000000    2    1    2    0    0  0.52333153022E+03 -0.93254819019E+02  0.31024193821E+03  0.85961877781E+03  0.60010168400E+03 0.  0.
         23    2    4    4    0    0  0.31154314765E+03 -0.24470362249E+03 -0.47042594700E+02  0.40888077451E+03  0.89618560256E+02 0.  0.
         23    2    4    4    0    0  0.21178838257E+03  0.15144880347E+03  0.35728453291E+03  0.45073800329E+03  0.87871787823E+02 0.  0.
          1    1    3    3  502    0 -0.43174787174E+03  0.10806918418E+03 -0.53351623027E+02  0.44825391131E+03  0.00000000000E+00 0. -1.
         -1    1    3    3    0  502 -0.91583658475E+02 -0.14814365163E+02 -0.23893430191E+02  0.95801502708E+02  0.00000000000E+00 0.  1.
         11    1    5    5    0    0  0.29897450955E+03 -0.22719847374E+03 -0.64676746384E+02  0.38103541221E+03  0.00000000000E+00 0.  1.
        -11    1    5    5    0    0  0.12568638098E+02 -0.17505148749E+02  0.17634151684E+02  0.27845362306E+02  0.00000000000E+00 0. -1.
          5    1    6    6  503    0  0.11233096260E+03  0.28002408604E+02  0.13991002602E+03  0.18165705444E+03  0.47000000000E+01 0. -1.
         -5    1    6    6    0  503  0.99457419966E+02  0.12344639487E+03  0.21737450688E+03  0.26908094885E+03  0.47000000000E+01 0.  1.
<mgrwt>
<rscale>  0 0.60467923E+03</rscale>
<asrwt>0</asrwt>
<pdfrwt beam="1">  1        2 0.12589778E+00 0.60467923E+03</pdfrwt>
<pdfrwt beam="2">  1       -2 0.90052101E-01 0.60467923E+03</pdfrwt>
<totfact> 0.36268781E+01</totfact>
</mgrwt>
</event>
<event>
12    1  0.3127365E-008  0.4780826E+03  0.7818608E-02  0.1019663E+00
          2   -1    0    0  501    0  0.00000000000E+00  0.00000000000E+00  0.28477715789E+03  0.28477715789E+03  0.00000000000E+00 0. -1.
         -2   -1    0    0    0  501 -0.00000000000E+00 -0.00000000000E+00 -0.10285602175E+04  0.10285602175E+04  0.00000000000E+00 0.  1.
         23    2    1    2    0    0  0.26151306200E+03  0.13665054910E+03 -0.52631866720E+03  0.61022812404E+03  0.91129412126E+02 0.  0.
    5000000    2    1    2    0    0 -0.26151306200E+03 -0.13665054910E+03 -0.21746439240E+03  0.70310925134E+03  0.60000783594E+03 0.  0.
         23    2    4    4    0    0  0.42487117685E+02 -0.29439135712E+03 -0.13985707767E+03  0.34083273814E+03  0.90197155702E+02 0.  0.
         23    2    4    4    0    0 -0.30400017969E+03  0.15774080802E+03 -0.77607314728E+02  0.36227651320E+03  0.89011824767E+02 0.  0.
          2    1    3    3  502    0  0.19846811274E+03  0.13891290612E+03 -0.45130709519E+03  0.51221526865E+03  0.00000000000E+00 0.  1.
         -2    1    3    3    0  502  0.63044949263E+02 -0.22623570228E+01 -0.75011572004E+02  0.98012855388E+02  0.00000000000E+00 0. -1.
         13    1    5    5    0    0  0.17913952258E+02 -0.17723151027E+03 -0.34672424443E+02  0.18147753287E+03  0.00000000000E+00 0.  1.
        -13    1    5    5    0    0  0.24573165427E+02 -0.11715984685E+03 -0.10518465323E+03  0.15935520528E+03  0.00000000000E+00 0. -1.
          5    1    6    6  503    0 -0.25076852832E+03  0.89487307181E+02 -0.47431400533E+02  0.27048966837E+03  0.47000000000E+01 0.  1.
         -5    1    6    6    0  503 -0.53231651372E+02  0.68253500842E+02 -0.30175914195E+02  0.91786844823E+02  0.47000000000E+01 0. -1.
<mgrwt>
<rscale>  0 0.47808259E+03</rscale>
<asrwt>0</asrwt>
<pdfrwt beam="1">  1        2 0.43811871E-01 0.47808259E+03</pdfrwt>
<pdfrwt beam="2">  1       -2 0.15824003E+00 0.47808259E+03</pdfrwt>
<totfact> 0.31296245E+01</totfact>
</mgrwt>
</event>
<event>
12    1  0.3127365E-008  0.1180385E+04  0.7818608E-02  0.9130200E-01
         -1   -1    0    0    0  501 -0.00000000000E+00  0.00000000000E+00  0.34306749384E+04  0.34306749384E+04  0.00000000000E+00 0. -1.
          1   -1    0    0  501    0  0.00000000000E+00 -0.00000000000E+00 -0.50362268485E+03  0.50362268485E+03  0.00000000000E+00 0.  1.
         23    2    1    2    0    0 -0.58125297228E+03  0.96519626843E+03  0.59832114457E+03  0.12786071904E+04  0.85961042405E+02 0.  0.
    5000000    2    1    2    0    0  0.58125297228E+03 -0.96519626843E+03  0.23287311089E+04  0.26556904329E+04  0.60020350142E+03 0.  0.
         23    2    4    4    0    0  0.48444007745E+03 -0.32723003737E+03  0.14115053595E+04  0.15304529384E+04  0.90427488346E+02 0.  0.
         23    2    4    4    0    0  0.96812894829E+02 -0.63796623105E+03  0.91722574942E+03  0.11252374945E+04  0.92101547376E+02 0.  0.
          4    1    3    3  502    0 -0.16278733307E+03  0.22998786844E+03  0.11515583885E+03  0.30439284265E+03  0.00000000000E+00 0. -1.
         -4    1    3    3    0  502 -0.41846563922E+03  0.73520839999E+03  0.48316530572E+03  0.97421434770E+03  0.00000000000E+00 0.  1.
         11    1    5    5    0    0  0.29001752615E+03 -0.17872215678E+03  0.70970359723E+03  0.78722993510E+03  0.00000000000E+00 0.  1.
        -11    1    5    5    0    0  0.19442255131E+03 -0.14850788059E+03  0.70180176230E+03  0.74322300329E+03  0.00000000000E+00 0. -1.
          5    1    6    6  503    0  0.74078811609E+01 -0.22486230414E+03  0.38032211799E+03  0.44191055198E+03  0.47000000000E+01 0. -1.
         -5    1    6    6    0  503  0.89405013669E+02 -0.41310392692E+03  0.53690363143E+03  0.68332694250E+03  0.47000000000E+01 0.  1.
<mgrwt>
<rscale>  0 0.11803855E+04</rscale>
<asrwt>0</asrwt>
<pdfrwt beam="1">  1        1 0.77480415E-01 0.11803855E+04</pdfrwt>
<pdfrwt beam="2">  1       -1 0.52779613E+00 0.11803855E+04</pdfrwt>
<totfact> 0.43261437E-02</totfact>
</mgrwt>
</event>
<event>
12    1  0.3127365E-008  0.8768547E+03  0.7818608E-02  0.9454986E-01
         -2   -1    0    0    0  501 -0.00000000000E+00  0.00000000000E+00  0.47773691499E+03  0.47773691499E+03  0.00000000000E+00 0. -1.
          2   -1    0    0  501    0  0.00000000000E+00 -0.00000000000E+00 -0.18833313431E+04  0.18833313431E+04  0.00000000000E+00 0.  1.
         23    2    1    2    0    0  0.75408003955E+03 -0.23869306761E+03 -0.10250660849E+04  0.12980085627E+04  0.91949246936E+02 0.  0.
    5000000    2    1    2    0    0 -0.75408003955E+03  0.23869306761E+03 -0.38052834329E+03  0.10630596954E+04  0.59973578296E+03 0.  0.
         23    2    4    4    0    0 -0.61296703791E+03 -0.58683286954E+02 -0.11869391825E+03  0.63368970242E+03  0.91115723093E+02 0.  0.
         23    2    4    4    0    0 -0.14111300164E+03  0.29737635456E+03 -0.26183442503E+03  0.42936999298E+03  0.86346680608E+02 0.  0.
          3    1    3    3  502    0  0.29009241782E+03 -0.63088796792E+02 -0.44199952858E+03  0.53244472992E+03  0.00000000000E+00 0. -1.
         -3    1    3    3    0  502  0.46398762173E+03 -0.17560427081E+03 -0.58306655628E+03  0.76556383281E+03  0.00000000000E+00 0.  1.
         11    1    5    5    0    0 -0.11115120905E+03  0.22622062634E+02 -0.10251838141E+02  0.11389227005E+03  0.00000000000E+00 0. -1.
        -11    1    5    5    0    0 -0.50181582886E+03 -0.81305349588E+02 -0.10844208011E+03  0.51979743238E+03  0.00000000000E+00 0.  1.
          5    1    6    6  503    0 -0.73897653365E+02  0.70393305175E+02 -0.61754617189E+02  0.11938091694E+03  0.47000000000E+01 0. -1.
         -5    1    6    6    0  503 -0.67215348279E+02  0.22698304939E+03 -0.20007980784E+03  0.30998907603E+03  0.47000000000E+01 0.  1.
<mgrwt>
<rscale>  0 0.87685468E+03</rscale>
<asrwt>0</asrwt>
<pdfrwt beam="1">  1        2 0.28974329E+00 0.87685468E+03</pdfrwt>
<pdfrwt beam="2">  1       -2 0.73497986E-01 0.87685468E+03</pdfrwt>
<totfact> 0.13151128E+01</totfact>
</mgrwt>
</event>
<event>
12    1  0.3127365E-008  0.9459910E+03  0.7818608E-02  0.9369849E-01
         -1   -1    0    0    0  501 -0.00000000000E+00  0.00000000000E+00  0.18148844002E+04  0.18148844002E+04  0.00000000000E+00 0.  1.
          1   -1    0    0  501    0  0.00000000000E+00 -0.00000000000E+00 -0.68338832278E+03  0.68338832278E+03  0.00000000000E+00 0. -1.
         23    2    1    2    0    0 -0.20425432563E+03  0.91446805004E+03  0.44158457608E+02  0.94252161478E+03  0.91789873443E+02 0.  0.
    5000000    2    1    2    0    0  0.20425432563E+03 -0.91446805004E+03  0.10873376198E+04  0.15557511082E+04  0.60007230159E+03 0.  0.
         23    2    4    4    0    0  0.39475619831E+02 -0.10143667762E+03 -0.46436232540E+02  0.14795929610E+03  0.88813881128E+02 0.  0.
         23    2    4    4    0    0  0.16477870580E+03 -0.81303137242E+03  0.11337738524E+04  0.14077918121E+04  0.90898864320E+02 0.  0.
          4    1    3    3  502    0 -0.96903672847E+02  0.25383908753E+03  0.26477221154E+02  0.27299385965E+03  0.00000000000E+00 0.  1.
         -4    1    3    3    0  502 -0.10735065278E+03  0.66062896251E+03  0.17681236454E+02  0.66952775513E+03  0.00000000000E+00 0. -1.
         11    1    5    5    0    0 -0.25620099451E+01 -0.51357013244E+02 -0.62198526774E+02  0.80701694140E+02  0.00000000000E+00 0. -1.
        -11    1    5    5    0    0  0.42037629777E+02 -0.50079664377E+02  0.15762294234E+02  0.67257601956E+02  0.00000000000E+00 0.  1.
          5    1    6    6  503    0  0.10694068854E+03 -0.68869804189E+03  0.96210810437E+03  0.11880300494E+04  0.47000000000E+01 0. -1.
         -5    1    6    6    0  503  0.57838017253E+02 -0.12433333053E+03  0.17166574800E+03  0.21976176272E+03  0.47000000000E+01 0.  1.
<mgrwt>
<rscale>  0 0.94599100E+03</rscale>
<asrwt>0</asrwt>
<pdfrwt beam="1">  1        1 0.10513667E+00 0.94599100E+03</pdfrwt>
<pdfrwt beam="2">  1       -1 0.27921298E+00 0.94599100E+03</pdfrwt>
<totfact> 0.12965954E+00</totfact>
</mgrwt>
</event>
<event>
12    1  0.3127365E-008  0.8445355E+03  0.7818608E-02  0.9497701E-01
          2   -1    0    0  501    0  0.00000000000E+00  0.00000000000E+00  0.20655770678E+04  0.20655770678E+04  0.00000000000E+00 0. -1.
         -2   -1    0    0    0  501 -0.00000000000E+00 -0.00000000000E+00 -0.41671713740E+03  0.41671713740E+03  0.00000000000E+00 0.  1.
         23    2    1    2    0    0 -0.79223904853E+03 -0.15804226542E+03  0.98277926963E+03  0.12755610591E+04  0.92632903953E+02 0.  0.
    5000000    2    1    2    0    0  0.79223904853E+03  0.15804226542E+03  0.66608066080E+03  0.12067331462E+04  0.59993447283E+03 0.  0.
         23    2    4    4    0    0  0.10254851253E+03  0.13268809132E+03  0.43161424546E+03  0.47182309085E+03  0.90575080327E+02 0.  0.
         23    2    4    4    0    0  0.68969053601E+03  0.25354174102E+02  0.23446641534E+03  0.73491005531E+03  0.93821212317E+02 0.  0.
          3    1    3    3  502    0 -0.34415458690E+03 -0.81989275334E+02  0.36177981898E+03  0.50601310099E+03  0.00000000000E+00 0. -1.
         -3    1    3    3    0  502 -0.44808446163E+03 -0.76052990084E+02  0.62099945065E+03  0.76954795806E+03  0.00000000000E+00 0.  1.
         13    1    5    5    0    0  0.24506296917E+02 -0.11127761468E+02  0.64947433804E+02  0.70303305908E+02  0.00000000000E+00 0.  1.
        -13    1    5    5    0    0  0.78042215608E+02  0.14381585278E+03  0.36666681166E+03  0.40151978494E+03  0.00000000000E+00 0. -1.
          5    1    6    6  503    0  0.43371685637E+03  0.18856805369E+02  0.99438070483E+02  0.44539410691E+03  0.47000000000E+01 0. -1.
         -5    1    6    6    0  503  0.25597367964E+03  0.64973687326E+01  0.13502834485E+03  0.28951594841E+03  0.47000000000E+01 0.  1.
<mgrwt>
<rscale>  0 0.84453551E+03</rscale>
<asrwt>0</asrwt>
<pdfrwt beam="1">  1        2 0.31778108E+00 0.84453551E+03</pdfrwt>
<pdfrwt beam="2">  1       -2 0.64110330E-01 0.84453551E+03</pdfrwt>
<totfact> 0.14128801E+01</totfact>
</mgrwt>
</event>
<event>
12    1  0.3127365E-008  0.1107443E+04  0.7818608E-02  0.9197968E-01
         -2   -1    0    0    0  501 -0.00000000000E+00  0.00000000000E+00  0.10805809540E+04  0.10805809540E+04  0.00000000000E+00 0.  1.
          2   -1    0    0  501    0  0.00000000000E+00 -0.00000000000E+00 -0.12673017745E+04  0.12673017745E+04  0.00000000000E+00 0. -1.
         23    2    1    2    0    0 -0.79554345099E+03 -0.74131380080E+03  0.10071135838E+02  0.10904653382E+04  0.81102973885E+02 0.  0.
    5000000    2    1    2    0    0  0.79554345099E+03  0.74131380080E+03 -0.19679195637E+03  0.12574173903E+04  0.59994656906E+03 0.  0.
         23    2    4    4    0    0  0.43176456441E+03  0.55456404257E+03  0.13704457280E+03  0.72146089313E+03  0.88106123470E+02 0.  0.
         23    2    4    4    0    0  0.36377888659E+03  0.18674975823E+03 -0.33383652917E+03  0.53595649720E+03  0.92692977921E+02 0.  0.
          3    1    3    3  502    0 -0.77343772199E+02 -0.67588823388E+02  0.24588133207E+02  0.10561668637E+03  0.00000000000E+00 0. -1.
         -3    1    3    3    0  502 -0.71819967879E+03 -0.67372497741E+03 -0.14516997370E+02  0.98484865184E+03  0.00000000000E+00 0.  1.
         13    1    5    5    0    0  0.15335460503E+03  0.13323956728E+03  0.32125366622E+02  0.20567560953E+03  0.00000000000E+00 0. -1.
        -13    1    5    5    0    0  0.27840995937E+03  0.42132447529E+03  0.10491920618E+03  0.51578528360E+03  0.00000000000E+00 0.  1.
          5    1    6    6  503    0  0.26565046954E+03  0.87754534394E+02 -0.22095497922E+03  0.35653081650E+03  0.47000000000E+01 0. -1.
         -5    1    6    6    0  503  0.98128417049E+02  0.98995223836E+02 -0.11288154995E+03  0.17942568070E+03  0.47000000000E+01 0.  1.
<mgrwt>
<rscale>  0 0.11074430E+04</rscale>
<asrwt>0</asrwt>
<pdfrwt beam="1">  1        2 0.19496950E+00 0.11074430E+04</pdfrwt>
<pdfrwt beam="2">  1       -2 0.16624322E+00 0.11074430E+04</pdfrwt>
<totfact> 0.38406772E+00</totfact>
</mgrwt>
</event>
<event>
12    1  0.3127365E-008  0.7825973E+03  0.7818608E-02  0.9585554E-01
         -1   -1    0    0    0  501 -0.00000000000E+00  0.00000000000E+00  0.14902946447E+04  0.14902946447E+04  0.00000000000E+00 0.  1.
          1   -1    0    0  501    0  0.00000000000E+00 -0.00000000000E+00 -0.73896238946E+03  0.73896238946E+03  0.00000000000E+00 0. -1.
         23    2    1    2    0    0 -0.45525580634E+03 -0.61398274092E+03  0.96485566935E+03  0.12343738701E+04  0.92193997393E+02 0.  0.
    5000000    2    1    2    0    0  0.45525580634E+03  0.61398274092E+03 -0.21352341413E+03  0.99488316403E+03  0.59997300467E+03 0.  0.
         23    2    4    4    0    0  0.36707664355E+03  0.52845460633E+03 -0.39206031746E+03  0.75887173286E+03  0.90363052283E+02 0.  0.
         23    2    4    4    0    0  0.88179162793E+02  0.85528134595E+02  0.17853690333E+03  0.23601143117E+03  0.93463058120E+02 0.  0.
          4    1    3    3  502    0 -0.32765240042E+03 -0.38855319582E+03  0.59020231737E+03  0.77888924560E+03  0.00000000000E+00 0. -1.
         -4    1    3    3    0  502 -0.12760340592E+03 -0.22542954510E+03  0.37465335198E+03  0.45548462450E+03  0.00000000000E+00 0.  1.
         13    1    5    5    0    0  0.13963873724E+03  0.17870375105E+03 -0.18729967257E+03  0.29413462041E+03  0.00000000000E+00 0.  1.
        -13    1    5    5    0    0  0.22743790631E+03  0.34975085528E+03 -0.20476064489E+03  0.46473711245E+03  0.00000000000E+00 0. -1.
          5    1    6    6  503    0  0.96905451283E+02  0.98049756780E+02  0.16512027958E+03  0.21515394029E+03  0.47000000000E+01 0. -1.
         -5    1    6    6    0  503 -0.87262884902E+01 -0.12521622185E+02  0.13416623752E+02  0.20857490881E+02  0.47000000000E+01 0.  1.
<mgrwt>
<rscale>  0 0.78259728E+03</rscale>
<asrwt>0</asrwt>
<pdfrwt beam="1">  1        1 0.11368652E+00 0.78259728E+03</pdfrwt>
<pdfrwt beam="2">  1       -1 0.22927610E+00 0.78259728E+03</pdfrwt>
<totfact> 0.24817014E+00</totfact>
</mgrwt>
</event>
<event>
12    1  0.3127365E-008  0.5166409E+03  0.7818608E-02  0.1009524E+00
         -1   -1    0    0    0  501 -0.00000000000E+00  0.00000000000E+00  0.24315842606E+03  0.24315842606E+03  0.00000000000E+00 0.  1.
          1   -1    0    0  501    0  0.00000000000E+00 -0.00000000000E+00 -0.12300625718E+04  0.12300625718E+04  0.00000000000E+00 0. -1.
         23    2    1    2    0    0 -0.35784343560E+03  0.23768530696E+00 -0.19611367204E+03  0.41798753114E+03  0.90559499375E+02 0.  0.
    5000000    2    1    2    0    0  0.35784343560E+03 -0.23768530696E+00 -0.79079047372E+03  0.10552334667E+04  0.60009675480E+03 0.  0.
         23    2    4    4    0    0  0.28978208588E+03 -0.26394617719E+03 -0.37368343540E+03  0.54885290742E+03  0.89213016684E+02 0.  0.
         23    2    4    4    0    0  0.68061349723E+02  0.26370849188E+03 -0.41710703832E+03  0.50638055933E+03  0.90931146644E+02 0.  0.
          1    1    3    3  502    0 -0.23280837036E+03  0.27361199034E+02 -0.87668614471E+02  0.25026817314E+03  0.00000000000E+00 0. -1.
         -1    1    3    3    0  502 -0.12503506524E+03 -0.27123513727E+02 -0.10844505756E+03  0.16771935800E+03  0.00000000000E+00 0.  1.
         11    1    5    5    0    0  0.22811352954E+03 -0.17063129539E+03 -0.30619752451E+03  0.41821973332E+03  0.00000000000E+00 0.  1.
        -11    1    5    5    0    0  0.61668556345E+02 -0.93314881800E+02 -0.67485910881E+02  0.13063317410E+03  0.00000000000E+00 0. -1.
          5    1    6    6  503    0  0.38110197679E+01  0.58264776129E+01  0.32726448747E+01  0.90150938719E+01  0.47000000000E+01 0. -1.
         -5    1    6    6    0  503  0.64250329955E+02  0.25788201427E+03 -0.42037968320E+03  0.49736546546E+03  0.47000000000E+01 0.  1.
<mgrwt>
<rscale>  0 0.51664093E+03</rscale>
<asrwt>0</asrwt>
<pdfrwt beam="1">  1        1 0.18924039E+00 0.51664093E+03</pdfrwt>
<pdfrwt beam="2">  1       -1 0.37408990E-01 0.51664093E+03</pdfrwt>
<totfact> 0.73438600E+01</totfact>
</mgrwt>
</event>
<event>
12    1  0.3127365E-008  0.4219105E+03  0.7818608E-02  0.1036446E+00
          2   -1    0    0  501    0  0.00000000000E+00  0.00000000000E+00  0.12399341663E+04  0.12399341663E+04  0.00000000000E+00 0. -1.
         -2   -1    0    0    0  501 -0.00000000000E+00 -0.00000000000E+00 -0.19635679064E+03  0.19635679064E+03  0.00000000000E+00 0.  1.
         23    2    1    2    0    0  0.25482463401E+03  0.95215620397E+02  0.52257642236E+03  0.59612362566E+03  0.90970607288E+02 0.  0.
    5000000    2    1    2    0    0 -0.25482463401E+03 -0.95215620397E+02  0.52100095329E+03  0.84016733127E+03  0.60036450824E+03 0.  0.
         23    2    4    4    0    0  0.12922656421E+03  0.61776263486E+02  0.55297594551E+01  0.17207218510E+03  0.95196885541E+02 0.  0.
         23    2    4    4    0    0 -0.38405119822E+03 -0.15699188388E+03  0.51547119383E+03  0.66809514618E+03  0.92188926764E+02 0.  0.
          4    1    3    3  502    0  0.22237482247E+03  0.78859451770E+02  0.36655712277E+03  0.43592831871E+03  0.00000000000E+00 0. -1.
         -4    1    3    3    0  502  0.32449811538E+02  0.16356168626E+02  0.15601929960E+03  0.16019530695E+03  0.00000000000E+00 0.  1.
         11    1    5    5    0    0  0.56905389163E+02 -0.95649881912E+00 -0.36396617267E+02  0.67556287304E+02  0.00000000000E+00 0. -1.
        -11    1    5    5    0    0  0.72321175046E+02  0.62732762305E+02  0.41926376722E+02  0.10451589779E+03  0.00000000000E+00 0.  1.
          5    1    6    6  503    0 -0.27441241225E+03 -0.83732967005E+02  0.29772897077E+03  0.41349487518E+03  0.47000000000E+01 0. -1.
         -5    1    6    6    0  503 -0.10963878597E+03 -0.73258916877E+02  0.21774222306E+03  0.25460027100E+03  0.47000000000E+01 0.  1.
<mgrwt>
<rscale>  0 0.42191047E+03</rscale>
<asrwt>0</asrwt>
<pdfrwt beam="1">  1        2 0.19075910E+00 0.42191047E+03</pdfrwt>
<pdfrwt beam="2">  1       -2 0.30208738E-01 0.42191047E+03</pdfrwt>
<totfact> 0.18916078E+02</totfact>
</mgrwt>
</event>
<event>
12    1  0.3127365E-008  0.5900184E+03  0.7818608E-02  0.9926334E-01
          2   -1    0    0  501    0  0.00000000000E+00  0.00000000000E+00  0.22285884556E+04  0.22285884556E+04  0.00000000000E+00 0. -1.
         -2   -1    0    0    0  501 -0.00000000000E+00 -0.00000000000E+00 -0.17521445878E+03  0.17521445878E+03  0.00000000000E+00 0.  1.
         23    2    1    2    0    0  0.39551270046E+03  0.23032925231E+03  0.55822024760E+03  0.72907216153E+03  0.10224730407E+03 0.  0.
    5000000    2    1    2    0    0 -0.39551270046E+03 -0.23032925231E+03  0.14951537493E+04  0.16747307529E+04  0.59979704906E+03 0.  0.
         23    2    4    4    0    0 -0.46729678796E+03 -0.23469537664E+01  0.76393414261E+03  0.90023376695E+03  0.91943812584E+02 0.  0.
         23    2    4    4    0    0  0.71784087497E+02 -0.22798229855E+03  0.73121960665E+03  0.77449698595E+03  0.89635843435E+02 0.  0.
          2    1    3    3  502    0  0.11194071176E+03  0.38941779269E+02  0.88246804323E+02  0.14776563740E+03  0.00000000000E+00 0. -1.
         -2    1    3    3    0  502  0.28357198870E+03  0.19138747304E+03  0.46997344327E+03  0.58130652413E+03  0.00000000000E+00 0.  1.
         11    1    5    5    0    0 -0.47001409498E+02  0.28205881183E+02  0.84152066979E+02  0.10043044660E+03  0.00000000000E+00 0. -1.
        -11    1    5    5    0    0 -0.42029537846E+03 -0.30552834949E+02  0.67978207563E+03  0.79980332034E+03  0.00000000000E+00 0.  1.
          5    1    6    6  503    0  0.25906053604E+02 -0.30070836504E+02  0.52342459903E+02  0.65857436407E+02  0.47000000000E+01 0. -1.
         -5    1    6    6    0  503  0.45878033894E+02 -0.19791146204E+03  0.67887714675E+03  0.70863954955E+03  0.47000000000E+01 0.  1.
<mgrwt>
<rscale>  0 0.59001844E+03</rscale>
<asrwt>0</asrwt>
<pdfrwt beam="1">  1        2 0.34285974E+00 0.59001844E+03</pdfrwt>
<pdfrwt beam="2">  1       -2 0.26956072E-01 0.59001844E+03</pdfrwt>
<totfact> 0.65644547E+01</totfact>
</mgrwt>
</event>
<event>
12    1  0.3127365E-008  0.4327287E+03  0.7818608E-02  0.1033001E+00
          2   -1    0    0  501    0  0.00000000000E+00  0.00000000000E+00  0.11177704026E+04  0.11177704026E+04  0.00000000000E+00 0. -1.
         -2   -1    0    0    0  501 -0.00000000000E+00 -0.00000000000E+00 -0.26307446907E+03  0.26307446907E+03  0.00000000000E+00 0.  1.
         23    2    1    2    0    0  0.19181568625E+03  0.27930426112E+03  0.11343996928E+03  0.36895587005E+03  0.91954769518E+02 0.  0.
    5000000    2    1    2    0    0 -0.19181568625E+03 -0.27930426112E+03  0.74125596426E+03  0.10118890016E+04  0.59971228045E+03 0.  0.
         23    2    4    4    0    0 -0.14607038021E+03  0.64770182013E+02 -0.10044542729E+01  0.18763980115E+03  0.98366425141E+02 0.  0.
         23    2    4    4    0    0 -0.45745306045E+02 -0.34407444313E+03  0.74226041854E+03  0.82424920049E+03  0.89198431298E+02 0.  0.
          4    1    3    3  502    0  0.95882458945E+02  0.11247969711E+03  0.46094139123E+01  0.14787283352E+03  0.00000000000E+00 0. -1.
         -4    1    3    3    0  502  0.95933227309E+02  0.16682456401E+03  0.10883055537E+03  0.22108303653E+03  0.00000000000E+00 0.  1.
         13    1    5    5    0    0 -0.10845057764E+03  0.79390435345E+02 -0.30288622830E+02  0.13777434336E+03  0.00000000000E+00 0. -1.
        -13    1    5    5    0    0 -0.37619802568E+02 -0.14620253332E+02  0.29284168557E+02  0.49865457792E+02  0.00000000000E+00 0.  1.
          5    1    6    6  503    0  0.65817855605E+01 -0.12111424859E+03  0.34431434335E+03  0.36508415215E+03  0.47000000000E+01 0. -1.
         -5    1    6    6    0  503 -0.52327091605E+02 -0.22296019454E+03  0.39794607519E+03  0.45916504835E+03  0.47000000000E+01 0.  1.
<mgrwt>
<rscale>  0 0.43272866E+03</rscale>
<asrwt>0</asrwt>
<pdfrwt beam="1">  1        2 0.17196468E+00 0.43272866E+03</pdfrwt>
<pdfrwt beam="2">  1       -2 0.40472996E-01 0.43272866E+03</pdfrwt>
<totfact> 0.12819646E+02</totfact>
</mgrwt>
</event>
<event>
12    1  0.3127365E-008  0.1621130E+04  0.7818608E-02  0.8807671E-01
          2   -1    0    0  501    0  0.00000000000E+00  0.00000000000E+00  0.22272557871E+04  0.22272557871E+04  0.00000000000E+00 0. -1.
         -2   -1    0    0    0  501 -0.00000000000E+00 -0.00000000000E+00 -0.14744206812E+04  0.14744206812E+04  0.00000000000E+00 0.  1.
         23    2    1    2    0    0 -0.28934388468E+03 -0.15844058914E+04 -0.36178165452E+03  0.16531520723E+04  0.89240664526E+02 0.  0.
    5000000    2    1    2    0    0  0.28934388468E+03  0.15844058914E+04  0.11146167604E+04  0.20485243960E+04  0.60001647143E+03 0.  0.
         23    2    4    4    0    0  0.15659121558E+03  0.12051758731E+04  0.51854630787E+03  0.13244380281E+04  0.90973199601E+02 0.  0.
         23    2    4    4    0    0  0.13275266910E+03  0.37923001832E+03  0.59607045257E+03  0.72408636788E+03  0.86962093884E+02 0.  0.
          3    1    3    3  502    0 -0.63098577014E+02 -0.57098573958E+03 -0.14282363299E+03  0.59194994329E+03  0.00000000000E+00 0. -1.
         -3    1    3    3    0  502 -0.22624530767E+03 -0.10134201518E+04 -0.21895802153E+03  0.10612021290E+04  0.00000000000E+00 0.  1.
         13    1    5    5    0    0  0.40880391717E+02  0.11507359083E+03  0.42413056647E+02  0.12927492065E+03  0.00000000000E+00 0.  1.
        -13    1    5    5    0    0  0.11571082387E+03  0.10901022822E+04  0.47613325122E+03  0.11951631074E+04  0.00000000000E+00 0. -1.
          5    1    6    6  503    0  0.60022016082E+02  0.28846385868E+03  0.42480315777E+03  0.51700469343E+03  0.47000000000E+01 0. -1.
         -5    1    6    6    0  503  0.72730653015E+02  0.90766159648E+02  0.17126729480E+03  0.20708167445E+03  0.47000000000E+01 0.  1.
<mgrwt>
<rscale>  0 0.16211302E+04</rscale>
<asrwt>0</asrwt>
<pdfrwt beam="1">  1        2 0.34265474E+00 0.16211302E+04</pdfrwt>
<pdfrwt beam="2">  1       -2 0.22683395E+00 0.16211302E+04</pdfrwt>
<totfact> 0.41302204E-01</totfact>
</mgrwt>
</event>
<event>
12    1  0.3127365E-008  0.7471407E+03  0.7818608E-02  0.9639847E-01
         -2   -1    0    0    0  501 -0.00000000000E+00  0.00000000000E+00  0.55945518860E+03  0.55945518860E+03  0.00000000000E+00 0. -1.
          2   -1    0    0  501    0  0.00000000000E+00 -0.00000000000E+00 -0.13701216439E+04  0.13701216439E+04  0.00000000000E+00 0.  1.
         23    2    1    2    0    0  0.23531939089E+03  0.58349511108E+03 -0.84693027090E+03  0.10590122127E+04  0.91510778097E+02 0.  0.
    5000000    2    1    2    0    0 -0.23531939089E+03 -0.58349511108E+03  0.36263815591E+02  0.87056461980E+03  0.60060463913E+03 0.  0.
         23    2    4    4    0    0 -0.38694200347E+03 -0.20400221153E+03 -0.24071092095E+02  0.44760722938E+03  0.91824822144E+02 0.  0.
         23    2    4    4    0    0  0.15162261258E+03 -0.37949289956E+03  0.60334907687E+02  0.42295739042E+03  0.90820567960E+02 0.  0.
          3    1    3    3  502    0  0.93569092768E+02  0.20150500233E+03 -0.37164034980E+03  0.43298497743E+03  0.00000000000E+00 0. -1.
         -3    1    3    3    0  502  0.14175029812E+03  0.38199010875E+03 -0.47528992111E+03  0.62602723527E+03  0.00000000000E+00 0.  1.
         11    1    5    5    0    0 -0.24763867356E+03 -0.81565740777E+02 -0.27018931807E+02  0.26212192847E+03  0.00000000000E+00 0. -1.
        -11    1    5    5    0    0 -0.13930332992E+03 -0.12243647075E+03  0.29478397121E+01  0.18548530091E+03  0.00000000000E+00 0.  1.
          5    1    6    6  503    0  0.42929845014E+02 -0.30359930757E+02  0.11396365034E+02  0.54006148951E+02  0.47000000000E+01 0. -1.
         -5    1    6    6    0  503  0.10869276757E+03 -0.34913296880E+03  0.48938542653E+02  0.36895124147E+03  0.47000000000E+01 0.  1.
<mgrwt>
<rscale>  0 0.74714068E+03</rscale>
<asrwt>0</asrwt>
<pdfrwt beam="1">  1        2 0.21078794E+00 0.74714068E+03</pdfrwt>
<pdfrwt beam="2">  1       -2 0.86070030E-01 0.74714068E+03</pdfrwt>
<totfact> 0.18019238E+01</totfact>
</mgrwt>
</event>
<event>
12    1  0.3127365E-008  0.9244954E+03  0.7818608E-02  0.9395469E-01
          4   -1    0    0  501    0  0.00000000000E+00  0.00000000000E+00  0.64505946721E+03  0.64505946721E+03  0.00000000000E+00 0. -1.
         -4   -1    0    0    0  501 -0.00000000000E+00 -0.00000000000E+00 -0.14253272833E+04  0.14253272833E+04  0.00000000000E+00 0.  1.
         23    2    1    2    0    0 -0.83734935456E+03 -0.20613649515E+03 -0.36443985015E+03  0.94053432502E+03  0.90234228245E+02 0.  0.
    5000000    2    1    2    0    0  0.83734935456E+03  0.20613649515E+03 -0.41582796597E+03  0.11298524255E+04  0.60000617495E+03 0.  0.
         23    2    4    4    0    0  0.89598376623E+03  0.18531233302E+03 -0.43641644774E+03  0.10177523336E+04  0.90735475787E+02 0.  0.
         23    2    4    4    0    0 -0.58634411667E+02  0.20824162130E+02  0.20588481771E+02  0.11210009193E+03  0.90944516436E+02 0.  0.
          3    1    3    3  502    0 -0.26344277836E+03 -0.71718446831E+02 -0.71088875398E+02  0.28213341044E+03  0.00000000000E+00 0. -1.
         -3    1    3    3    0  502 -0.57390657620E+03 -0.13441804831E+03 -0.29335097476E+03  0.65840091457E+03  0.00000000000E+00 0.  1.
         13    1    5    5    0    0  0.70641304008E+03  0.10776039800E+03 -0.33578869154E+03  0.78954780219E+03  0.00000000000E+00 0.  1.
        -13    1    5    5    0    0  0.18957072615E+03  0.77551935015E+02 -0.10062775620E+03  0.22820453141E+03  0.00000000000E+00 0. -1.
          5    1    6    6  503    0  0.26934878620E+00  0.12931182060E+01  0.44988602461E+02  0.45252724281E+02  0.47000000000E+01 0. -1.
         -5    1    6    6    0  503 -0.58903760453E+02  0.19531043924E+02 -0.24400120689E+02  0.66847367652E+02  0.47000000000E+01 0.  1.
<mgrwt>
<rscale>  0 0.92449538E+03</rscale>
<asrwt>0</asrwt>
<pdfrwt beam="1">  1        4 0.99239919E-01 0.92449538E+03</pdfrwt>
<pdfrwt beam="2">  1       -4 0.21928112E+00 0.92449538E+03</pdfrwt>
<totfact> 0.16124560E-01</totfact>
</mgrwt>
</event>
<event>
12    1  0.3127365E-008  0.6387477E+03  0.7818608E-02  0.9828125E-01
         -2   -1    0    0    0  501 -0.00000000000E+00  0.00000000000E+00  0.33056351144E+03  0.33056351144E+03  0.00000000000E+00 0.  1.
          2   -1    0    0  501    0  0.00000000000E+00 -0.00000000000E+00 -0.18323136728E+04  0.18323136728E+04  0.00000000000E+00 0. -1.
         23    2    1    2    0    0 -0.40636420837E+03 -0.48579703475E+03 -0.38892832458E+03  0.74882683079E+03  0.91355087616E+02 0.  0.
    5000000    2    1    2    0    0  0.40636420837E+03  0.48579703475E+03 -0.11128218368E+04  0.14140503534E+04  0.60002944335E+03 0.  0.
         23    2    4    4    0    0  0.29420946336E+03  0.31068897651E+03 -0.21315004040E+03  0.48620269721E+03  0.88731474679E+02 0.  0.
         23    2    4    4    0    0  0.11215474501E+03  0.17510805824E+03 -0.89967179636E+03  0.92784765623E+03  0.90831784703E+02 0.  0.
          1    1    3    3  502    0 -0.15579483455E+03 -0.22365277559E+03 -0.12244353964E+03  0.29880598203E+03  0.00000000000E+00 0. -1.
         -1    1    3    3    0  502 -0.25056937383E+03 -0.26214425916E+03 -0.26648478495E+03  0.45002084876E+03  0.00000000000E+00 0.  1.
         13    1    5    5    0    0  0.13056119316E+03  0.18892917951E+03 -0.14282971826E+03  0.27044553693E+03  0.00000000000E+00 0.  1.
        -13    1    5    5    0    0  0.16364827021E+03  0.12175979700E+03 -0.70320322140E+02  0.21575716028E+03  0.00000000000E+00 0. -1.
          5    1    6    6  503    0  0.47993348038E+02  0.62068346714E+02 -0.53357311638E+03  0.53933125410E+03  0.47000000000E+01 0. -1.
         -5    1    6    6    0  503  0.64161396968E+02  0.11303971153E+03 -0.36609867998E+03  0.38851640213E+03  0.47000000000E+01 0.  1.
<mgrwt>
<rscale>  0 0.63874774E+03</rscale>
<asrwt>0</asrwt>
<pdfrwt beam="1">  1        2 0.28189442E+00 0.63874774E+03</pdfrwt>
<pdfrwt beam="2">  1       -2 0.50855923E-01 0.63874774E+03</pdfrwt>
<totfact> 0.31615373E+01</totfact>
</mgrwt>
</event>
<event>
12    1  0.3127365E-008  0.6056427E+03  0.7818608E-02  0.9893768E-01
         -2   -1    0    0    0  501 -0.00000000000E+00  0.00000000000E+00  0.36059971036E+03  0.36059971036E+03  0.00000000000E+00 0.  1.
          2   -1    0    0  501    0  0.00000000000E+00 -0.00000000000E+00 -0.15031099483E+04  0.15031099483E+04  0.00000000000E+00 0. -1.
         23    2    1    2    0    0  0.59671899328E+03  0.47288977909E+02 -0.62835907672E+03  0.87262055131E+03  0.91223313324E+02 0.  0.
    5000000    2    1    2    0    0 -0.59671899328E+03 -0.47288977909E+02 -0.51415116126E+03  0.99108910738E+03  0.59966357050E+03 0.  0.
         23    2    4    4    0    0 -0.13065227955E+03 -0.37908527118E+02  0.11789237459E+03  0.20050769285E+03  0.88304293909E+02 0.  0.
         23    2    4    4    0    0 -0.46606671373E+03 -0.93804507909E+01 -0.63204353584E+03  0.79058141454E+03  0.90740108623E+02 0.  0.
          2    1    3    3  502    0  0.45628476007E+03  0.66355820150E+02 -0.51407909318E+03  0.69056222832E+03  0.00000000000E+00 0. -1.
         -2    1    3    3    0  502  0.14043423321E+03 -0.19066842241E+02 -0.11427998354E+03  0.18205832299E+03  0.00000000000E+00 0.  1.
         11    1    5    5    0    0 -0.58732718830E+02 -0.16129412424E+02  0.10896796945E+03  0.12483472502E+03  0.00000000000E+00 0.  1.
        -11    1    5    5    0    0 -0.71919560724E+02 -0.21779114694E+02  0.89244051409E+01  0.75672967821E+02  0.00000000000E+00 0. -1.
          5    1    6    6  503    0 -0.43453062805E+03  0.10803145410E+02 -0.60095374634E+03  0.74168798690E+03  0.47000000000E+01 0. -1.
         -5    1    6    6    0  503 -0.31536085677E+02 -0.20183596201E+02 -0.31089789501E+02  0.48893427643E+02  0.47000000000E+01 0.  1.
<mgrwt>
<rscale>  0 0.60564269E+03</rscale>
<asrwt>0</asrwt>
<pdfrwt beam="1">  1        2 0.23124769E+00 0.60564269E+03</pdfrwt>
<pdfrwt beam="2">  1       -2 0.55476878E-01 0.60564269E+03</pdfrwt>
<totfact> 0.40175759E+01</totfact>
</mgrwt>
</event>
<event>
12    1  0.3127365E-008  0.4954782E+03  0.7818608E-02  0.1014966E+00
         -1   -1    0    0    0  501 -0.00000000000E+00  0.00000000000E+00  0.12276300849E+03  0.12276300849E+03  0.00000000000E+00 0.  1.
          1   -1    0    0  501    0  0.00000000000E+00 -0.00000000000E+00 -0.24065899686E+04  0.24065899686E+04  0.00000000000E+00 0. -1.
         23    2    1    2    0    0 -0.30979969615E+03  0.20028759397E+03 -0.71921244499E+03  0.81350236145E+03  0.91807292854E+02 0.  0.
    5000000    2    1    2    0    0  0.30979969615E+03 -0.20028759397E+03 -0.15646145151E+04  0.17158506156E+04  0.60002815119E+03 0.  0.
         23    2    4    4    0    0  0.42941748076E+03 -0.20903284903E+03 -0.14417317294E+04  0.15216321445E+04  0.93165973613E+02 0.  0.
         23    2    4    4    0    0 -0.11961778461E+03  0.87452550629E+01 -0.12288278568E+03  0.19421847117E+03  0.90750987032E+02 0.  0.
          2    1    3    3  502    0 -0.13552669269E+03  0.35175939245E+02 -0.27258679796E+03  0.30644476428E+03  0.00000000000E+00 0. -1.
         -2    1    3    3    0  502 -0.17427300347E+03  0.16511165472E+03 -0.44662564703E+03  0.50705759717E+03  0.00000000000E+00 0.  1.
         13    1    5    5    0    0  0.31434258091E+02 -0.63667991244E+01 -0.18825721271E+03  0.19096970139E+03  0.00000000000E+00 0. -1.
        -13    1    5    5    0    0  0.39798322267E+03 -0.20266604991E+03 -0.12534745167E+04  0.13306624431E+04  0.00000000000E+00 0.  1.
          5    1    6    6  503    0 -0.90212395933E+02  0.30456572890E+02 -0.12511829278E+03  0.15729766814E+03  0.47000000000E+01 0. -1.
         -5    1    6    6    0  503 -0.29405388675E+02 -0.21711317827E+02  0.22355071002E+01  0.36920803037E+02  0.47000000000E+01 0.  1.
<mgrwt>
<rscale>  0 0.49547822E+03</rscale>
<asrwt>0</asrwt>
<pdfrwt beam="1">  1        1 0.37024462E+00 0.49547822E+03</pdfrwt>
<pdfrwt beam="2">  1       -1 0.18886616E-01 0.49547822E+03</pdfrwt>
<totfact> 0.38400362E+01</totfact>
</mgrwt>
</event>
<event>
12    1  0.3127365E-008  0.3796103E+03  0.7818608E-02  0.1051078E+00
          2   -1    0    0  501    0  0.00000000000E+00  0.00000000000E+00  0.86348760961E+03  0.86348760961E+03  0.00000000000E+00 0. -1.
         -2   -1    0    0    0  501 -0.00000000000E+00 -0.00000000000E+00 -0.21847386523E+03  0.21847386523E+03  0.00000000000E+00 0.  1.
         23    2    1    2    0    0 -0.63989463344E+01  0.17704083626E+03  0.31968900399E+03  0.37684447262E+03  0.91794842191E+02 0.  0.
    5000000    2    1    2    0    0  0.63989463344E+01 -0.17704083626E+03  0.32532474038E+03  0.70511700221E+03  0.59997449603E+03 0.  0.
         23    2    4    4    0    0  0.27546684209E+03 -0.78725413293E+02  0.26200055434E+03  0.39766416111E+03  0.86097751238E+02 0.  0.
         23    2    4    4    0    0 -0.26906789576E+03 -0.98315422966E+02  0.63324186044E+02  0.30745284110E+03  0.91944777139E+02 0.  0.
          1    1    3    3  502    0 -0.27903748483E+02  0.10530429273E+03  0.11279376393E+03  0.15681213737E+03  0.00000000000E+00 0. -1.
         -1    1    3    3    0  502  0.21504802149E+02  0.71736543534E+02  0.20689524007E+03  0.22003233525E+03  0.00000000000E+00 0.  1.
         13    1    5    5    0    0  0.25315031394E+02 -0.17618301884E+02  0.77054873202E+00  0.30852052138E+02  0.00000000000E+00 0.  1.
        -13    1    5    5    0    0  0.25015181070E+03 -0.61107111409E+02  0.26123000561E+03  0.36681210897E+03  0.00000000000E+00 0. -1.
          5    1    6    6  503    0 -0.20890932920E+03 -0.82528651347E+02  0.86736669969E+02  0.24083069995E+03  0.47000000000E+01 0. -1.
         -5    1    6    6    0  503 -0.60158566554E+02 -0.15786771620E+02 -0.23412483926E+02  0.66622141151E+02  0.47000000000E+01 0.  1.
<mgrwt>
<rscale>  0 0.37961032E+03</rscale>
<asrwt>0</asrwt>
<pdfrwt beam="1">  1        2 0.13284425E+00 0.37961032E+03</pdfrwt>
<pdfrwt beam="2">  1       -2 0.33611364E-01 0.37961032E+03</pdfrwt>
<totfact> 0.26545250E+02</totfact>
</mgrwt>
</event>
<event>
12    1  0.3127365E-008  0.3376740E+03  0.7818608E-02  0.1067791E+00
          1   -1    0    0  501    0  0.00000000000E+00  0.00000000000E+00  0.36445308514E+03  0.36445308514E+03  0.00000000000E+00 0. -1.
         -1   -1    0    0    0  501 -0.00000000000E+00 -0.00000000000E+00 -0.59654820066E+03  0.59654820066E+03  0.00000000000E+00 0.  1.
         23    2    1    2    0    0 -0.21688593049E+03 -0.14198578243E+03 -0.10764698710E+03  0.29566522848E+03  0.92900937812E+02 0.  0.
    5000000    2    1    2    0    0  0.21688593049E+03  0.14198578243E+03 -0.12444812842E+03  0.66533605731E+03  0.59998771924E+03 0.  0.
         23    2    4    4    0    0  0.96234071797E+02  0.21484320132E+03 -0.32028517438E+03  0.40764223475E+03  0.90393588819E+02 0.  0.
         23    2    4    4    0    0  0.12065185869E+03 -0.72857418893E+02  0.19583704596E+03  0.25769382256E+03  0.90492447862E+02 0.  0.
          2    1    3    3  502    0 -0.15310188273E+03 -0.11114648999E+03 -0.11958603676E+03  0.22381811572E+03  0.00000000000E+00 0. -1.
         -2    1    3    3    0  502 -0.63784047754E+02 -0.30839292441E+02  0.11939049664E+02  0.71847112768E+02  0.00000000000E+00 0.  1.
         11    1    5    5    0    0  0.10551152637E+03  0.21390729600E+03 -0.28750388137E+03  0.37356056440E+03  0.00000000000E+00 0. -1.
        -11    1    5    5    0    0 -0.92774545750E+01  0.93590532440E+00 -0.32781293013E+02  0.34081670349E+02  0.00000000000E+00 0.  1.
          5    1    6    6  503    0  0.13077204605E+03 -0.46544673886E+02  0.16073996923E+03  0.21243154757E+03  0.47000000000E+01 0. -1.
         -5    1    6    6    0  503 -0.10120187357E+02 -0.26312745007E+02  0.35097076729E+02  0.45262274986E+02  0.47000000000E+01 0.  1.
<mgrwt>
<rscale>  0 0.33767398E+03</rscale>
<asrwt>0</asrwt>
<pdfrwt beam="1">  1        1 0.56069706E-01 0.33767398E+03</pdfrwt>
<pdfrwt beam="2">  1       -1 0.91776646E-01 0.33767398E+03</pdfrwt>
<totfact> 0.83254388E+01</totfact>
</mgrwt>
</event>
<event>
12    1  0.3127365E-008  0.6009839E+03  0.7818608E-02  0.9903367E-01
         -1   -1    0    0    0  501 -0.00000000000E+00  0.00000000000E+00  0.22682878775E+03  0.22682878775E+03  0.00000000000E+00 0.  1.
          1   -1    0    0  501    0  0.00000000000E+00 -0.00000000000E+00 -0.20805036833E+04  0.20805036833E+04  0.00000000000E+00 0. -1.
         23    2    1    2    0    0 -0.45413593277E+03 -0.99581726715E+02 -0.12541808701E+04  0.13407311622E+04  0.91839145348E+02 0.  0.
    5000000    2    1    2    0    0  0.45413593277E+03  0.99581726715E+02 -0.59949402548E+03  0.96660130888E+03  0.59897331995E+03 0.  0.
         23    2    4    4    0    0  0.35240421680E+03 -0.20864083943E+03 -0.36027776668E+03  0.55325071993E+03  0.92555702369E+02 0.  0.
         23    2    4    4    0    0  0.10173171597E+03  0.30822256615E+03 -0.23921625881E+03  0.41335058896E+03  0.91015375612E+02 0.  0.
          1    1    3    3  502    0 -0.25528897865E+03 -0.47470916283E+02 -0.82426996282E+03  0.86420305607E+03  0.00000000000E+00 0. -1.
         -1    1    3    3    0  502 -0.19884695411E+03 -0.52110810432E+02 -0.42991090729E+03  0.47652810613E+03  0.00000000000E+00 0.  1.
         13    1    5    5    0    0  0.21394884098E+03 -0.11039807284E+03 -0.15271990286E+03  0.28510561162E+03  0.00000000000E+00 0.  1.
        -13    1    5    5    0    0  0.13845537582E+03 -0.98242766590E+02 -0.20755786381E+03  0.26814510831E+03  0.00000000000E+00 0. -1.
          5    1    6    6  503    0  0.81419639345E+02  0.27635411203E+03 -0.24039486174E+03  0.37524995997E+03  0.47000000000E+01 0. -1.
         -5    1    6    6    0  503  0.20312076623E+02  0.31868454113E+02  0.11786029289E+01  0.38100628987E+02  0.47000000000E+01 0.  1.
<mgrwt>
<rscale>  0 0.60098391E+03</rscale>
<asrwt>0</asrwt>
<pdfrwt beam="1">  1        1 0.32007749E+00 0.60098391E+03</pdfrwt>
<pdfrwt beam="2">  1       -1 0.34896736E-01 0.60098391E+03</pdfrwt>
<totfact> 0.21846766E+01</totfact>
</mgrwt>
</event>
<event>
12    1  0.3127365E-008  0.5265778E+03  0.7818608E-02  0.1007065E+00
          1   -1    0    0  501    0  0.00000000000E+00  0.00000000000E+00  0.19291131709E+04  0.19291131709E+04  0.00000000000E+00 0. -1.
         -1   -1    0    0    0  501 -0.00000000000E+00 -0.00000000000E+00 -0.20468341381E+03  0.20468341381E+03  0.00000000000E+00 0.  1.
         23    2    1    2    0    0  0.30462931238E+03 -0.36788208083E+03  0.75657991942E+03  0.89922450885E+03  0.89751320292E+02 0.  0.
    5000000    2    1    2    0    0 -0.30462931238E+03  0.36788208083E+03  0.96784983767E+03  0.12345720759E+04  0.59941526410E+03 0.  0.
         23    2    4    4    0    0 -0.36823652956E+02 -0.23457928952E+02  0.64581943776E+03  0.65378706277E+03  0.91915838680E+02 0.  0.
         23    2    4    4    0    0 -0.26780565943E+03  0.39134000978E+03  0.32203039991E+03  0.58078501308E+03  0.93492130590E+02 0.  0.
          1    1    3    3  502    0  0.15869924942E+03 -0.16164654303E+03  0.28327721334E+03  0.36271343543E+03  0.00000000000E+00 0. -1.
         -1    1    3    3    0  502  0.14593006296E+03 -0.20623553780E+03  0.47330270608E+03  0.53651107342E+03  0.00000000000E+00 0.  1.
         11    1    5    5    0    0  0.42133581589E+00  0.32162762986E+02  0.28514328660E+03  0.28695176379E+03  0.00000000000E+00 0. -1.
        -11    1    5    5    0    0 -0.37244988772E+02 -0.55620691938E+02  0.36067615116E+03  0.36683529898E+03  0.00000000000E+00 0.  1.
          5    1    6    6  503    0 -0.16919391055E+02  0.33539654984E+02  0.60850202441E+02  0.71665970915E+02  0.47000000000E+01 0. -1.
         -5    1    6    6    0  503 -0.25088626837E+03  0.35780035480E+03  0.26118019747E+03  0.50911904217E+03  0.47000000000E+01 0.  1.
<mgrwt>
<rscale>  0 0.52657776E+03</rscale>
<asrwt>0</asrwt>
<pdfrwt beam="1">  1        1 0.29678663E+00 0.52657776E+03</pdfrwt>
<pdfrwt beam="2">  1       -1 0.31489757E-01 0.52657776E+03</pdfrwt>
<totfact> 0.33426832E+01</totfact>
</mgrwt>
</event>
<event>
12    1  0.3127365E-008  0.4873129E+03  0.7818608E-02  0.1017145E+00
          1   -1    0    0  501    0  0.00000000000E+00  0.00000000000E+00  0.21220959474E+04  0.21220959474E+04  0.00000000000E+00 0. -1.
         -1   -1    0    0    0  501 -0.00000000000E+00 -0.00000000000E+00 -0.14663950157E+03  0.14663950157E+03  0.00000000000E+00 0.  1.
         23    2    1    2    0    0 -0.29958771136E+03  0.23545904617E+03  0.87506225590E+03  0.95871016039E+03  0.90539829469E+02 0.  0.
    5000000    2    1    2    0    0  0.29958771136E+03 -0.23545904617E+03  0.11003941899E+04  0.13100252886E+04  0.60008759716E+03 0.  0.
         23    2    4    4    0    0 -0.46128376633E+02  0.83512744710E+02  0.26593270113E+02  0.13410257450E+03  0.90410689708E+02 0.  0.
         23    2    4    4    0    0  0.34571608799E+03 -0.31897179088E+03  0.10738009198E+04  0.11759227141E+04  0.92104273575E+02 0.  0.
          1    1    3    3  502    0 -0.24548947740E+03  0.15304276344E+03  0.59049219058E+03  0.65754710713E+03  0.00000000000E+00 0. -1.
         -1    1    3    3    0  502 -0.54098233958E+02  0.82416282730E+02  0.28457006532E+03  0.30116305326E+03  0.00000000000E+00 0.  1.
         11    1    5    5    0    0  0.50533912088E-01  0.60544836975E+02 -0.20840539892E+02  0.64031304383E+02  0.00000000000E+00 0. -1.
        -11    1    5    5    0    0 -0.46178910545E+02  0.22967907735E+02  0.47433810005E+02  0.70071270121E+02  0.00000000000E+00 0.  1.
          5    1    6    6  503    0  0.11677286242E+02  0.21481354152E+00  0.66867191640E+02  0.68042019934E+02  0.47000000000E+01 0. -1.
         -5    1    6    6    0  503  0.33403880175E+03 -0.31918660442E+03  0.10069337282E+04  0.11078806941E+04  0.47000000000E+01 0.  1.
<mgrwt>
<rscale>  0 0.48731287E+03</rscale>
<asrwt>0</asrwt>
<pdfrwt beam="1">  1        1 0.32647628E+00 0.48731287E+03</pdfrwt>
<pdfrwt beam="2">  1       -1 0.22559925E-01 0.48731287E+03</pdfrwt>
<totfact> 0.44321524E+01</totfact>
</mgrwt>
</event>
<event>
12    1  0.3127365E-008  0.4812421E+03  0.7818608E-02  0.1018794E+00
         -1   -1    0    0    0  501 -0.00000000000E+00  0.00000000000E+00  0.57002841058E+03  0.57002841058E+03  0.00000000000E+00 0.  1.
          1   -1    0    0  501    0  0.00000000000E+00 -0.00000000000E+00 -0.74867001813E+03  0.74867001813E+03  0.00000000000E+00 0. -1.
         23    2    1    2    0    0  0.36170776595E+03  0.27729698428E+03  0.16205435607E+03  0.49179412721E+03  0.88734005878E+02 0.  0.
    5000000    2    1    2    0    0 -0.36170776595E+03 -0.27729698428E+03 -0.34069596361E+03  0.82690430150E+03  0.59997571516E+03 0.  0.
         23    2    4    4    0    0 -0.92325684161E+02 -0.21688860808E+02 -0.41649168982E+03  0.43695252747E+03  0.92020350659E+02 0.  0.
         23    2    4    4    0    0 -0.26938208179E+03 -0.25560812347E+03  0.75795726210E+02  0.38995177403E+03  0.91734263943E+02 0.  0.
          4    1    3    3  502    0  0.16369239710E+03  0.71338188318E+02  0.66092642393E+02  0.19040109075E+03  0.00000000000E+00 0. -1.
         -4    1    3    3    0  502  0.19801536885E+03  0.20595879596E+03  0.95961713674E+02  0.30139303646E+03  0.00000000000E+00 0.  1.
         11    1    5    5    0    0 -0.10205999906E+03 -0.13232536636E+02 -0.25553908397E+03  0.27548424070E+03  0.00000000000E+00 0.  1.
        -11    1    5    5    0    0  0.97343149001E+01 -0.84563241720E+01 -0.16095260585E+03  0.16146828678E+03  0.00000000000E+00 0. -1.
          5    1    6    6  503    0 -0.76140722752E+02 -0.22407941787E+02  0.11995315965E+02  0.80408352312E+02  0.47000000000E+01 0. -1.
         -5    1    6    6    0  503 -0.19324135904E+03 -0.23320018168E+03  0.63800410245E+02  0.30954342171E+03  0.47000000000E+01 0.  1.
<mgrwt>
<rscale>  0 0.48124215E+03</rscale>
<asrwt>0</asrwt>
<pdfrwt beam="1">  1        1 0.11518000E+00 0.48124215E+03</pdfrwt>
<pdfrwt beam="2">  1       -1 0.87696679E-01 0.48124215E+03</pdfrwt>
<totfact> 0.33310458E+01</totfact>
</mgrwt>
</event>
<event>
12    1  0.3127365E-008  0.5908457E+03  0.7818608E-02  0.9924582E-01
         -2   -1    0    0    0  501 -0.00000000000E+00  0.00000000000E+00  0.40060398924E+03  0.40060398924E+03  0.00000000000E+00 0.  1.
          2   -1    0    0  501    0  0.00000000000E+00 -0.00000000000E+00 -0.16164463754E+04  0.16164463754E+04  0.00000000000E+00 0. -1.
         23    2    1    2    0    0  0.50775231029E+02 -0.56541179805E+03 -0.10153893539E+04  0.11669749769E+04  0.92446909795E+02 0.  0.
    5000000    2    1    2    0    0 -0.50775231029E+02  0.56541179805E+03 -0.20045303224E+03  0.85007538777E+03  0.60014841605E+03 0.  0.
         23    2    4    4    0    0  0.11150913318E+02  0.82737370792E+02 -0.31685388141E+03  0.34143881609E+03  0.95990976527E+02 0.  0.
         23    2    4    4    0    0 -0.61926144348E+02  0.48267442726E+03  0.11640084917E+03  0.50863657168E+03  0.91392309734E+02 0.  0.
          1    1    3    3  502    0 -0.10074951536E+02 -0.21913210742E+03 -0.46046982347E+03  0.51005180470E+03  0.00000000000E+00 0. -1.
         -1    1    3    3    0  502  0.60850182565E+02 -0.34627969064E+03 -0.55491953044E+03  0.65692317217E+03  0.00000000000E+00 0.  1.
         13    1    5    5    0    0 -0.34344751357E+02  0.66530981578E+02 -0.23225076297E+03  0.24402120883E+03  0.00000000000E+00 0.  1.
        -13    1    5    5    0    0  0.45495664675E+02  0.16206389215E+02 -0.84603118432E+02  0.97417607259E+02  0.00000000000E+00 0. -1.
          5    1    6    6  503    0 -0.19212032595E+02  0.26255346300E+03  0.10686482161E+03  0.28415770837E+03  0.47000000000E+01 0. -1.
         -5    1    6    6    0  503 -0.42714111753E+02  0.22012096426E+03  0.95360275561E+01  0.22447886331E+03  0.47000000000E+01 0.  1.
<mgrwt>
<rscale>  0 0.59084574E+03</rscale>
<asrwt>0</asrwt>
<pdfrwt beam="1">  1        2 0.24868407E+00 0.59084574E+03</pdfrwt>
<pdfrwt beam="2">  1       -2 0.61631381E-01 0.59084574E+03</pdfrwt>
<totfact> 0.27989628E+01</totfact>
</mgrwt>
</event>
<event>
12    1  0.3127365E-008  0.9276504E+03  0.7818608E-02  0.9391662E-01
         -1   -1    0    0    0  501 -0.00000000000E+00  0.00000000000E+00  0.50687208332E+03  0.50687208332E+03  0.00000000000E+00 0. -1.
          1   -1    0    0  501    0  0.00000000000E+00 -0.00000000000E+00 -0.18272943209E+04  0.18272943209E+04  0.00000000000E+00 0.  1.
         23    2    1    2    0    0 -0.82686147076E+03  0.90594331206E+02 -0.89024270633E+03  0.12218003252E+04  0.91415173082E+02 0.  0.
    5000000    2    1    2    0    0  0.82686147076E+03 -0.90594331206E+02 -0.43017953128E+03  0.11123660790E+04  0.60033044232E+03 0.  0.
         23    2    4    4    0    0  0.35358988381E+03  0.24513414642E+03 -0.19881265928E+03  0.48169311615E+03  0.85937354947E+02 0.  0.
         23    2    4    4    0    0  0.47327158695E+03 -0.33572847763E+03 -0.23136687199E+03  0.63067296288E+03  0.86707271652E+02 0.  0.
          3    1    3    3  502    0 -0.49965780899E+03  0.99709335824E+01 -0.53946112038E+03  0.73537449371E+03  0.00000000000E+00 0.  1.
         -3    1    3    3    0  502 -0.32720366177E+03  0.80623397623E+02 -0.35078158594E+03  0.48642583151E+03  0.00000000000E+00 0. -1.
         13    1    5    5    0    0  0.25773031331E+03  0.15708189330E+03 -0.17646046921E+03  0.34962541783E+03  0.00000000000E+00 0. -1.
        -13    1    5    5    0    0  0.95859570501E+02  0.88052253126E+02 -0.22352190077E+02  0.13206769832E+03  0.00000000000E+00 0.  1.
          5    1    6    6  503    0  0.15613884860E+03 -0.16152871604E+03 -0.82023774411E+02  0.23920881195E+03  0.47000000000E+01 0.  1.
         -5    1    6    6    0  503  0.31713273835E+03 -0.17419976159E+03 -0.14934309758E+03  0.39146415093E+03  0.47000000000E+01 0. -1.
<mgrwt>
<rscale>  0 0.92765043E+03</rscale>
<asrwt>0</asrwt>
<pdfrwt beam="1">  1        1 0.28112220E+00 0.92765043E+03</pdfrwt>
<pdfrwt beam="2">  1       -1 0.77980322E-01 0.92765043E+03</pdfrwt>
<totfact> 0.65483458E+00</totfact>
</mgrwt>
</event>
<event>
12    1  0.3127365E-008  0.1170480E+04  0.7818608E-02  0.9139095E-01
          2   -1    0    0  501    0  0.00000000000E+00  0.00000000000E+00  0.16014343362E+04  0.16014343362E+04  0.00000000000E+00 0. -1.
         -2   -1    0    0    0  501 -0.00000000000E+00 -0.00000000000E+00 -0.12520272008E+04  0.12520272008E+04  0.00000000000E+00 0.  1.
         23    2    1    2    0    0  0.36747343041E+03  0.10407626199E+04  0.95117134696E+03  0.14604567906E+04  0.99917730519E+02 0.  0.
    5000000    2    1    2    0    0 -0.36747343041E+03 -0.10407626199E+04 -0.60176421156E+03  0.13930047463E+04  0.60009874510E+03 0.  0.
         23    2    4    4    0    0  0.11040230736E+03 -0.50651302561E+03 -0.18269759282E+03  0.55770921160E+03  0.94430078342E+02 0.  0.
         23    2    4    4    0    0 -0.47787573777E+03 -0.53424959434E+03 -0.41906661874E+03  0.83529553474E+03  0.91180862138E+02 0.  0.
          1    1    3    3  502    0  0.18172087007E+03  0.57209499033E+03  0.57724951997E+03  0.83278578331E+03  0.00000000000E+00 0. -1.
         -1    1    3    3    0  502  0.18575256035E+03  0.46866762962E+03  0.37392182699E+03  0.62767100732E+03  0.00000000000E+00 0.  1.
         13    1    5    5    0    0  0.90111754516E+02 -0.39780442475E+03 -0.18316598582E+03  0.44712220591E+03  0.00000000000E+00 0.  1.
        -13    1    5    5    0    0  0.20290552840E+02 -0.10870860086E+03  0.46839300333E+00  0.11058700569E+03  0.00000000000E+00 0. -1.
          5    1    6    6  503    0 -0.11751403059E+03 -0.10547259470E+03 -0.13218879600E+03  0.20598539610E+03  0.47000000000E+01 0. -1.
         -5    1    6    6    0  503 -0.36036170718E+03 -0.42877699963E+03 -0.28687782274E+03  0.62931013864E+03  0.47000000000E+01 0.  1.
<mgrwt>
<rscale>  0 0.11704805E+04</rscale>
<asrwt>0</asrwt>
<pdfrwt beam="1">  1        2 0.24637451E+00 0.11704805E+04</pdfrwt>
<pdfrwt beam="2">  1       -2 0.19261957E+00 0.11704805E+04</pdfrwt>
<totfact> 0.16128544E+00</totfact>
</mgrwt>
</event>
<event>
12    1  0.3127365E-008  0.5314887E+03  0.7818608E-02  0.1005872E+00
         -1   -1    0    0    0  501 -0.00000000000E+00  0.00000000000E+00  0.69820016079E+03  0.69820016079E+03  0.00000000000E+00 0.  1.
          1   -1    0    0  501    0  0.00000000000E+00 -0.00000000000E+00 -0.57495656899E+03  0.57495656899E+03  0.00000000000E+00 0. -1.
         23    2    1    2    0    0  0.14371826574E+03 -0.45018202272E+03 -0.65344894455E+02  0.48640722518E+03  0.94885404499E+02 0.  0.
    5000000    2    1    2    0    0 -0.14371826574E+03  0.45018202272E+03  0.18858848625E+03  0.78674950460E+03  0.60007530557E+03 0.  0.
         23    2    4    4    0    0  0.40527903307E+02  0.35904008873E+03  0.34846980832E+03  0.51035296548E+03  0.92068701553E+02 0.  0.
         23    2    4    4    0    0 -0.18424616905E+03  0.91141933989E+02 -0.15988132206E+03  0.27639653912E+03  0.92625626867E+02 0.  0.
          2    1    3    3  502    0  0.10564092719E+03 -0.41370659095E+03 -0.72834767579E+02  0.43314899545E+03  0.00000000000E+00 0. -1.
         -2    1    3    3    0  502  0.38077338554E+02 -0.36475431767E+02  0.74898731238E+01  0.53258229724E+02  0.00000000000E+00 0.  1.
         13    1    5    5    0    0 -0.17326986841E+02  0.48268274053E+02  0.82958336545E+02  0.97530181766E+02  0.00000000000E+00 0.  1.
        -13    1    5    5    0    0  0.57854890148E+02  0.31077181468E+03  0.26551147177E+03  0.41282278372E+03  0.00000000000E+00 0. -1.
          5    1    6    6  503    0 -0.87466879038E+02  0.79482688158E+02 -0.47254931527E+02  0.12736982060E+03  0.47000000000E+01 0.  1.
         -5    1    6    6    0  503 -0.96779290010E+02  0.11659245831E+02 -0.11262639054E+03  0.14902671852E+03  0.47000000000E+01 0. -1.
<mgrwt>
<rscale>  0 0.53148872E+03</rscale>
<asrwt>0</asrwt>
<pdfrwt beam="1">  1        1 0.88454857E-01 0.53148872E+03</pdfrwt>
<pdfrwt beam="2">  1       -1 0.10741541E+00 0.53148872E+03</pdfrwt>
<totfact> 0.30889375E+01</totfact>
</mgrwt>
</event>
<event>
12    1  0.3127365E-008  0.8163656E+03  0.7818608E-02  0.9536626E-01
         -2   -1    0    0    0  501 -0.00000000000E+00  0.00000000000E+00  0.47428560642E+03  0.47428560642E+03  0.00000000000E+00 0.  1.
          2   -1    0    0  501    0  0.00000000000E+00 -0.00000000000E+00 -0.21275113106E+04  0.21275113106E+04  0.00000000000E+00 0. -1.
         23    2    1    2    0    0 -0.72445823504E+03 -0.22013732889E+03 -0.14137570060E+04  0.16064711026E+04  0.93489858129E+02 0.  0.
    5000000    2    1    2    0    0  0.72445823504E+03  0.22013732889E+03 -0.23946869818E+03  0.99532581442E+03  0.60002336751E+03 0.  0.
         23    2    4    4    0    0  0.67050334429E+03  0.30948012891E+03 -0.30887348948E+02  0.74490384103E+03  0.92601399426E+02 0.  0.
         23    2    4    4    0    0  0.53954890753E+02 -0.89342800015E+02 -0.20858134923E+03  0.25042197339E+03  0.91168631434E+02 0.  0.
          2    1    3    3  502    0 -0.59333156735E+03 -0.14362094638E+03 -0.11053963499E+04  0.12627630084E+04  0.00000000000E+00 0. -1.
         -2    1    3    3    0  502 -0.13112666768E+03 -0.76516382515E+02 -0.30836065619E+03  0.34370809426E+03  0.00000000000E+00 0.  1.
         13    1    5    5    0    0  0.33568417807E+03  0.17472437652E+03 -0.58501446507E+02  0.38292935955E+03  0.00000000000E+00 0.  1.
        -13    1    5    5    0    0  0.33481916621E+03  0.13475575239E+03  0.27614097559E+02  0.36197448149E+03  0.00000000000E+00 0. -1.
          5    1    6    6  503    0 -0.17486505839E+01  0.13299889716E+02 -0.58481556283E+02  0.60184111446E+02  0.47000000000E+01 0. -1.
         -5    1    6    6    0  503  0.55703541337E+02 -0.10264268973E+03 -0.15009979295E+03  0.19023786194E+03  0.47000000000E+01 0.  1.
<mgrwt>
<rscale>  0 0.81636561E+03</rscale>
<asrwt>0</asrwt>
<pdfrwt beam="1">  1        2 0.32730945E+00 0.81636561E+03</pdfrwt>
<pdfrwt beam="2">  1       -2 0.72967013E-01 0.81636561E+03</pdfrwt>
<totfact> 0.98965999E+00</totfact>
</mgrwt>
</event>
<event>
12    1  0.3127365E-008  0.6440883E+03  0.7818608E-02  0.9817936E-01
          2   -1    0    0  501    0  0.00000000000E+00  0.00000000000E+00  0.16304225982E+04  0.16304225982E+04  0.00000000000E+00 0. -1.
         -2   -1    0    0    0  501 -0.00000000000E+00 -0.00000000000E+00 -0.28728363112E+03  0.28728363112E+03  0.00000000000E+00 0.  1.
         23    2    1    2    0    0  0.98731086065E+02  0.52490810646E+03  0.36649753316E+03  0.65319727189E+03  0.84082617738E+02 0.  0.
    5000000    2    1    2    0    0 -0.98731086065E+02 -0.52490810646E+03  0.97664143390E+03  0.12645089574E+04  0.59989837921E+03 0.  0.
         23    2    4    4    0    0 -0.42853159867E+02 -0.61726122809E+03  0.92340217320E+03  0.11152597411E+04  0.91021423826E+02 0.  0.
         23    2    4    4    0    0 -0.55877926198E+02  0.92353121634E+02  0.53239260705E+02  0.14924921633E+03  0.88257962716E+02 0.  0.
          4    1    3    3  502    0  0.68561600589E+02  0.19298151566E+03  0.17096352326E+03  0.26677909353E+03  0.00000000000E+00 0.  1.
         -4    1    3    3    0  502  0.30169485476E+02  0.33192659080E+03  0.19553400990E+03  0.38641817835E+03  0.00000000000E+00 0. -1.
         11    1    5    5    0    0 -0.51762054382E+02 -0.22914174241E+03  0.39494301554E+03  0.45952718517E+03  0.00000000000E+00 0.  1.
        -11    1    5    5    0    0  0.89088945154E+01 -0.38811948568E+03  0.52845915766E+03  0.65573255591E+03  0.00000000000E+00 0. -1.
          5    1    6    6  503    0 -0.40729439431E+02  0.10091198600E+03  0.65824028227E+02  0.12726746971E+03  0.47000000000E+01 0. -1.
         -5    1    6    6    0  503 -0.15148486767E+02 -0.85588643690E+01 -0.12584767523E+02  0.21981746615E+02  0.47000000000E+01 0.  1.
<mgrwt>
<rscale>  0 0.64408826E+03</rscale>
<asrwt>0</asrwt>
<pdfrwt beam="1">  1        2 0.25083424E+00 0.64408826E+03</pdfrwt>
<pdfrwt beam="2">  1       -2 0.44197483E-01 0.64408826E+03</pdfrwt>
<totfact> 0.53935601E+01</totfact>
</mgrwt>
</event>
<event>
12    1  0.3127365E-008  0.8173323E+03  0.7818608E-02  0.9535263E-01
          3   -1    0    0  501    0  0.00000000000E+00  0.00000000000E+00  0.97254936525E+03  0.97254936525E+03  0.00000000000E+00 0. -1.
         -3   -1    0    0    0  501 -0.00000000000E+00 -0.00000000000E+00 -0.90082117065E+03  0.90082117065E+03  0.00000000000E+00 0.  1.
         23    2    1    2    0    0 -0.43493776164E+03 -0.65951721071E+03  0.31041461482E+03  0.85375938644E+03  0.91728126126E+02 0.  0.
    5000000    2    1    2    0    0  0.43493776164E+03  0.65951721071E+03 -0.23868642022E+03  0.10196111495E+04  0.59875026613E+03 0.  0.
         23    2    4    4    0    0  0.99803947603E+01  0.15297303778E+03 -0.30100414569E+03  0.34943469645E+03  0.89446927244E+02 0.  0.
         23    2    4    4    0    0  0.42495736688E+03  0.50654417293E+03  0.62317725467E+02  0.67017645301E+03  0.89873335694E+02 0.  0.
          3    1    3    3  502    0 -0.88656382112E+02 -0.19977808142E+03  0.64688998181E+02  0.22793837410E+03  0.00000000000E+00 0. -1.
         -3    1    3    3    0  502 -0.34628137953E+03 -0.45973912929E+03  0.24572561664E+03  0.62582101234E+03  0.00000000000E+00 0.  1.
         11    1    5    5    0    0 -0.39749353098E+02  0.77533086735E+02 -0.14828531749E+03  0.17198815655E+03  0.00000000000E+00 0. -1.
        -11    1    5    5    0    0  0.49729747858E+02  0.75439951045E+02 -0.15271882820E+03  0.17744653990E+03  0.00000000000E+00 0.  1.
          5    1    6    6  503    0  0.34457895017E+03  0.43797065517E+03  0.79815148901E+02  0.56297912545E+03  0.47000000000E+01 0. -1.
         -5    1    6    6    0  503  0.80378416710E+02  0.68573517751E+02 -0.17497423435E+02  0.10719732756E+03  0.47000000000E+01 0.  1.
<mgrwt>
<rscale>  0 0.81733233E+03</rscale>
<asrwt>0</asrwt>
<pdfrwt beam="1">  1        3 0.14962298E+00 0.81733233E+03</pdfrwt>
<pdfrwt beam="2">  1       -3 0.13858787E+00 0.81733233E+03</pdfrwt>
<totfact> 0.33132387E-01</totfact>
</mgrwt>
</event>
<event>
12    1  0.3127365E-008  0.5785319E+03  0.7818608E-02  0.9950974E-01
         -2   -1    0    0    0  501 -0.00000000000E+00  0.00000000000E+00  0.21887843727E+04  0.21887843727E+04  0.00000000000E+00 0. -1.
          2   -1    0    0  501    0  0.00000000000E+00 -0.00000000000E+00 -0.17986804959E+03  0.17986804959E+03  0.00000000000E+00 0.  1.
         23    2    1    2    0    0 -0.36117386632E+03 -0.24660983000E+03  0.11483059888E+04  0.12320923215E+04  0.90453716257E+02 0.  0.
    5000000    2    1    2    0    0  0.36117386632E+03  0.24660983000E+03  0.86061033431E+03  0.11365601008E+04  0.59987977565E+03 0.  0.
         23    2    4    4    0    0 -0.13480704277E+03  0.20729600957E+02  0.81951240906E+02  0.18112990272E+03  0.86541207739E+02 0.  0.
         23    2    4    4    0    0  0.49598090909E+03  0.22588022904E+03  0.77865909341E+03  0.95543019808E+03  0.97559928232E+02 0.  0.
          3    1    3    3  502    0 -0.27380054175E+03 -0.14021788666E+03  0.83552209115E+03  0.89035103033E+03  0.00000000000E+00 0. -1.
         -3    1    3    3    0  502 -0.87373324565E+02 -0.10639194334E+03  0.31278389761E+03  0.34174129112E+03  0.00000000000E+00 0.  1.
         11    1    5    5    0    0 -0.14417030013E+03  0.63303074692E+01  0.71894816485E+02  0.16122658859E+03  0.00000000000E+00 0. -1.
        -11    1    5    5    0    0  0.93632573547E+01  0.14399293487E+02  0.10056424421E+02  0.19903314130E+02  0.00000000000E+00 0.  1.
          5    1    6    6  503    0  0.15634244674E+03  0.11069903654E+03  0.32272649949E+03  0.37532881693E+03  0.47000000000E+01 0. -1.
         -5    1    6    6    0  503  0.33963846235E+03  0.11518119251E+03  0.45593259391E+03  0.58010138115E+03  0.47000000000E+01 0.  1.
<mgrwt>
<rscale>  0 0.57853194E+03</rscale>
<asrwt>0</asrwt>
<pdfrwt beam="1">  1        2 0.27672009E-01 0.57853194E+03</pdfrwt>
<pdfrwt beam="2">  1       -2 0.33673604E+00 0.57853194E+03</pdfrwt>
<totfact> 0.39552552E+00</totfact>
</mgrwt>
</event>
<event>
12    1  0.3127365E-008  0.9004827E+03  0.7818608E-02  0.9424978E-01
         -2   -1    0    0    0  501 -0.00000000000E+00  0.00000000000E+00  0.59800390270E+03  0.59800390270E+03  0.00000000000E+00 0. -1.
          2   -1    0    0  501    0  0.00000000000E+00 -0.00000000000E+00 -0.14507748553E+04  0.14507748553E+04  0.00000000000E+00 0.  1.
         23    2    1    2    0    0  0.13264678650E+03  0.81501057789E+03 -0.49615776396E+03  0.96764446396E+03  0.91246204626E+02 0.  0.
    5000000    2    1    2    0    0 -0.13264678650E+03 -0.81501057789E+03 -0.35661318863E+03  0.10811342940E+04  0.59986747149E+03 0.  0.
         23    2    4    4    0    0  0.11923168843E+03 -0.66229498260E+03 -0.11320710674E+03  0.68824624574E+03  0.89533268972E+02 0.  0.
         23    2    4    4    0    0 -0.25187847492E+03 -0.15271559529E+03 -0.24340608189E+03  0.39288804828E+03  0.91376575809E+02 0.  0.
          1    1    3    3  502    0  0.91945726693E+02  0.45674797781E+03 -0.32804274354E+03  0.56981117353E+03  0.00000000000E+00 0. -1.
         -1    1    3    3    0  502  0.40701059802E+02  0.35826260008E+03 -0.16811502042E+03  0.39783329043E+03  0.00000000000E+00 0.  1.
         11    1    5    5    0    0  0.58797355929E+02 -0.16368850241E+03 -0.25597359852E+01  0.17394713890E+03  0.00000000000E+00 0.  1.
        -11    1    5    5    0    0  0.60434332499E+02 -0.49860648019E+03 -0.11064737076E+03  0.51429910684E+03  0.00000000000E+00 0. -1.
          5    1    6    6  503    0 -0.11603984862E+03 -0.43766970441E+02 -0.15179140242E+03  0.19607017626E+03  0.47000000000E+01 0.  1.
         -5    1    6    6    0  503 -0.13583862631E+03 -0.10894862485E+03 -0.91614679463E+02  0.19681787202E+03  0.47000000000E+01 0. -1.
<mgrwt>
<rscale>  0 0.90048273E+03</rscale>
<asrwt>0</asrwt>
<pdfrwt beam="1">  1        2 0.22319613E+00 0.90048273E+03</pdfrwt>
<pdfrwt beam="2">  1       -2 0.92000601E-01 0.90048273E+03</pdfrwt>
<totfact> 0.13673773E+01</totfact>
</mgrwt>
</event>
<event>
12    1  0.3127365E-008  0.6095628E+03  0.7818608E-02  0.9885763E-01
         -2   -1    0    0    0  501 -0.00000000000E+00  0.00000000000E+00  0.36694808418E+03  0.36694808418E+03  0.00000000000E+00 0.  1.
          2   -1    0    0  501    0  0.00000000000E+00 -0.00000000000E+00 -0.10432556070E+04  0.10432556070E+04  0.00000000000E+00 0. -1.
         23    2    1    2    0    0 -0.45263226194E+03  0.11682469910E+03 -0.24044457314E+03  0.53355930336E+03  0.91367185504E+02 0.  0.
    5000000    2    1    2    0    0  0.45263226194E+03 -0.11682469910E+03 -0.43586294973E+03  0.87664438787E+03  0.60000408079E+03 0.  0.
         23    2    4    4    0    0  0.32942464039E+03 -0.34375505261E+03 -0.24274195513E+03  0.54238154778E+03  0.92552453799E+02 0.  0.
         23    2    4    4    0    0  0.12320762155E+03  0.22693035351E+03 -0.19312099460E+03  0.33426284009E+03  0.88081918456E+02 0.  0.
          2    1    3    3  502    0 -0.35825062010E+03  0.12346465620E+03 -0.21460488056E+03  0.43547937137E+03  0.00000000000E+00 0. -1.
         -2    1    3    3    0  502 -0.94381641837E+02 -0.66399571010E+01 -0.25839692579E+02  0.98079931988E+02  0.00000000000E+00 0.  1.
         11    1    5    5    0    0  0.24007030537E+03 -0.18759947055E+03 -0.16373551272E+03  0.34588528589E+03  0.00000000000E+00 0. -1.
        -11    1    5    5    0    0  0.89354335022E+02 -0.15615558206E+03 -0.79006442415E+02  0.19649626189E+03  0.00000000000E+00 0.  1.
          5    1    6    6  503    0  0.73962873498E+02  0.17073246566E+03 -0.89766142792E+02  0.20664010230E+03  0.47000000000E+01 0. -1.
         -5    1    6    6    0  503  0.49244748052E+02  0.56197887847E+02 -0.10335485180E+03  0.12762273779E+03  0.47000000000E+01 0.  1.
<mgrwt>
<rscale>  0 0.60956278E+03</rscale>
<asrwt>0</asrwt>
<pdfrwt beam="1">  1        2 0.16050086E+00 0.60956278E+03</pdfrwt>
<pdfrwt beam="2">  1       -2 0.56453551E-01 0.60956278E+03</pdfrwt>
<totfact> 0.71551516E+01</totfact>
</mgrwt>
</event>
<event>
12    1  0.3127365E-008  0.1527887E+04  0.7818608E-02  0.8866117E-01
         -2   -1    0    0    0  501 -0.00000000000E+00  0.00000000000E+00  0.85181279822E+03  0.85181279822E+03  0.00000000000E+00 0.  1.
          2   -1    0    0  501    0  0.00000000000E+00 -0.00000000000E+00 -0.29200240594E+04  0.29200240594E+04  0.00000000000E+00 0. -1.
         23    2    1    2    0    0  0.89803289689E+01  0.15142817767E+04 -0.11340683401E+04  0.18941141563E+04  0.91801370039E+02 0.  0.
    5000000    2    1    2    0    0 -0.89803289689E+01 -0.15142817767E+04 -0.93414292105E+03  0.18777227013E+04  0.60007466233E+03 0.  0.
         23    2    4    4    0    0 -0.55584613690E+02 -0.11107349681E+03 -0.28792444232E+03  0.32996817817E+03  0.10272070457E+03 0.  0.
         23    2    4    4    0    0  0.46604284721E+02 -0.14032082799E+04 -0.64621847873E+03  0.15477545231E+04  0.82342609884E+02 0.  0.
          2    1    3    3  502    0 -0.21969022021E+02  0.12949463401E+04 -0.98445080166E+03  0.16268103892E+04  0.00000000000E+00 0.  1.
         -2    1    3    3    0  502  0.30949350990E+02  0.21933543666E+03 -0.14961753848E+03  0.26730376713E+03  0.00000000000E+00 0. -1.
         13    1    5    5    0    0 -0.14585538599E+02 -0.80063671837E+02 -0.25790268557E+03  0.27043802378E+03  0.00000000000E+00 0.  1.
        -13    1    5    5    0    0 -0.40999075091E+02 -0.31009824968E+02 -0.30021756753E+02  0.59530154387E+02  0.00000000000E+00 0. -1.
          5    1    6    6  503    0 -0.20588610021E+02 -0.17115094412E+03 -0.83473590881E+02  0.19158931836E+03  0.47000000000E+01 0. -1.
         -5    1    6    6    0  503  0.67192894742E+02 -0.12320573358E+04 -0.56274488785E+03  0.13561652048E+04  0.47000000000E+01 0.  1.
<mgrwt>
<rscale>  0 0.15278870E+04</rscale>
<asrwt>0</asrwt>
<pdfrwt beam="1">  1        2 0.44923447E+00 0.15278870E+04</pdfrwt>
<pdfrwt beam="2">  1       -2 0.13104812E+00 0.15278870E+04</pdfrwt>
<totfact> 0.78709263E-01</totfact>
</mgrwt>
</event>
<event>
12    1  0.3127365E-008  0.4763161E+03  0.7818608E-02  0.1020153E+00
          2   -1    0    0  501    0  0.00000000000E+00  0.00000000000E+00  0.15600744487E+04  0.15600744487E+04  0.00000000000E+00 0. -1.
         -2   -1    0    0    0  501 -0.00000000000E+00 -0.00000000000E+00 -0.15438734836E+03  0.15438734836E+03  0.00000000000E+00 0.  1.
         23    2    1    2    0    0 -0.16333005640E+03 -0.24868835844E+03  0.45888374798E+03  0.55471613118E+03  0.92806708151E+02 0.  0.
    5000000    2    1    2    0    0  0.16333005640E+03  0.24868835844E+03  0.94680335237E+03  0.11597456659E+04  0.60004234397E+03 0.  0.
         23    2    4    4    0    0 -0.15463378348E+03  0.28523879174E+03  0.42512635469E+03  0.54227324997E+03  0.89750124657E+02 0.  0.
         23    2    4    4    0    0  0.31796383988E+03 -0.36550433298E+02  0.52167699768E+03  0.61747241593E+03  0.81782375103E+02 0.  0.
          3    1    3    3  502    0 -0.12852763784E+03 -0.21488551884E+03  0.31212832307E+03  0.40014900969E+03  0.00000000000E+00 0. -1.
         -3    1    3    3    0  502 -0.34802418564E+02 -0.33802839602E+02  0.14675542492E+03  0.15456712149E+03  0.00000000000E+00 0.  1.
         13    1    5    5    0    0 -0.54623505637E+02  0.55329354179E+02  0.55055494084E+02  0.95268946833E+02  0.00000000000E+00 0.  1.
        -13    1    5    5    0    0 -0.10001027784E+03  0.22990943756E+03  0.37007086061E+03  0.44700430314E+03  0.00000000000E+00 0. -1.
          5    1    6    6  503    0  0.10266520423E+03  0.14894984226E+02  0.11900970500E+03  0.15794747418E+03  0.47000000000E+01 0. -1.
         -5    1    6    6    0  503  0.21529863565E+03 -0.51445417523E+02  0.40266729268E+03  0.45952494175E+03  0.47000000000E+01 0.  1.
<mgrwt>
<rscale>  0 0.47631614E+03</rscale>
<asrwt>0</asrwt>
<pdfrwt beam="1">  1        2 0.24001144E+00 0.47631614E+03</pdfrwt>
<pdfrwt beam="2">  1       -2 0.23751901E-01 0.47631614E+03</pdfrwt>
<totfact> 0.19259699E+02</totfact>
</mgrwt>
</event>
<event>
12    1  0.3127365E-008  0.9027552E+03  0.7818608E-02  0.9422144E-01
         -2   -1    0    0    0  501 -0.00000000000E+00  0.00000000000E+00  0.44261084446E+03  0.44261084446E+03  0.00000000000E+00 0.  1.
          2   -1    0    0  501    0  0.00000000000E+00 -0.00000000000E+00 -0.21204253996E+04  0.21204253996E+04  0.00000000000E+00 0. -1.
         23    2    1    2    0    0  0.18932688083E+03  0.84074940295E+03 -0.57377932774E+03  0.10393628724E+04  0.91368688861E+02 0.  0.
    5000000    2    1    2    0    0 -0.18932688083E+03 -0.84074940295E+03 -0.11040352274E+04  0.15236733716E+04  0.59998544455E+03 0.  0.
         23    2    4    4    0    0 -0.14873991647E+03 -0.82496923646E+03 -0.11390629039E+04  0.14171731062E+04  0.90650482469E+02 0.  0.
         23    2    4    4    0    0 -0.40586964361E+02 -0.15780166488E+02  0.35027676559E+02  0.10650026539E+03  0.90658993341E+02 0.  0.
          3    1    3    3  502    0  0.10849729546E+03  0.29604895279E+03 -0.22860632237E+03  0.38945795177E+03  0.00000000000E+00 0. -1.
         -3    1    3    3    0  502  0.80829585362E+02  0.54470045016E+03 -0.34517300537E+03  0.64990492067E+03  0.00000000000E+00 0.  1.
         13    1    5    5    0    0 -0.84513382697E+02 -0.66990629504E+03 -0.92109034231E+03  0.11420702144E+04  0.00000000000E+00 0.  1.
        -13    1    5    5    0    0 -0.64226533769E+02 -0.15506294142E+03 -0.21797256163E+03  0.27510289178E+03  0.00000000000E+00 0. -1.
          5    1    6    6  503    0 -0.74233727089E+01 -0.48721892413E+02  0.29135504605E+01  0.49593427377E+02  0.47000000000E+01 0. -1.
         -5    1    6    6    0  503 -0.33163591652E+02  0.32941725925E+02  0.32114126098E+02  0.56906838018E+02  0.47000000000E+01 0.  1.
<mgrwt>
<rscale>  0 0.90275524E+03</rscale>
<asrwt>0</asrwt>
<pdfrwt beam="1">  1        2 0.32621929E+00 0.90275524E+03</pdfrwt>
<pdfrwt beam="2">  1       -2 0.68093977E-01 0.90275524E+03</pdfrwt>
<totfact> 0.11484987E+01</totfact>
</mgrwt>
</event>
<event>
12    1  0.3127365E-008  0.8991169E+03  0.7818608E-02  0.9426686E-01
         -2   -1    0    0    0  501 -0.00000000000E+00  0.00000000000E+00  0.59463596114E+03  0.59463596114E+03  0.00000000000E+00 0. -1.
          2   -1    0    0  501    0  0.00000000000E+00 -0.00000000000E+00 -0.18632910434E+04  0.18632910434E+04  0.00000000000E+00 0.  1.
         23    2    1    2    0    0  0.53580527893E+03 -0.63016979646E+03 -0.11639472752E+04  0.14306288103E+04  0.87887792732E+02 0.  0.
    5000000    2    1    2    0    0 -0.53580527893E+03  0.63016979646E+03 -0.10470780705E+03  0.10272981942E+04  0.60014713674E+03 0.  0.
         23    2    4    4    0    0 -0.61417666288E+03  0.46795152368E+03 -0.20153000440E+03  0.80328971086E+03  0.92023992289E+02 0.  0.
         23    2    4    4    0    0  0.78371383951E+02  0.16221827278E+03  0.96822197346E+02  0.22400848338E+03  0.91369693454E+02 0.  0.
          1    1    3    3  502    0  0.31946032461E+03 -0.37384908158E+03 -0.76493949413E+03  0.90936816773E+03  0.00000000000E+00 0. -1.
         -1    1    3    3    0  502  0.21634495431E+03 -0.25632071488E+03 -0.39900778103E+03  0.52126064254E+03  0.00000000000E+00 0.  1.
         11    1    5    5    0    0 -0.48697875495E+03  0.40602767088E+03 -0.14166067343E+03  0.64967262809E+03  0.00000000000E+00 0.  1.
        -11    1    5    5    0    0 -0.12719790793E+03  0.61923852800E+02 -0.59869330972E+02  0.15361708277E+03  0.00000000000E+00 0. -1.
          5    1    6    6  503    0  0.52769560694E+02  0.30172294049E+02  0.57473654483E+02  0.83787259316E+02  0.47000000000E+01 0. -1.
         -5    1    6    6    0  503  0.25601823257E+02  0.13204597873E+03  0.39348542863E+02  0.14022122406E+03  0.47000000000E+01 0.  1.
<mgrwt>
<rscale>  0 0.89911685E+03</rscale>
<asrwt>0</asrwt>
<pdfrwt beam="1">  1        2 0.28666016E+00 0.89911685E+03</pdfrwt>
<pdfrwt beam="2">  1       -2 0.91482456E-01 0.89911685E+03</pdfrwt>
<totfact> 0.81912090E+00</totfact>
</mgrwt>
</event>
<event>
12    1  0.3127365E-008  0.4684868E+03  0.7818608E-02  0.1022348E+00
          2   -1    0    0  501    0  0.00000000000E+00  0.00000000000E+00  0.83639886789E+03  0.83639886789E+03  0.00000000000E+00 0. -1.
         -2   -1    0    0    0  501 -0.00000000000E+00 -0.00000000000E+00 -0.30373123420E+03  0.30373123420E+03  0.00000000000E+00 0.  1.
         23    2    1    2    0    0 -0.27674336999E+03 -0.11683802808E+03  0.28412400935E+03  0.42447487839E+03  0.95991937434E+02 0.  0.
    5000000    2    1    2    0    0  0.27674336999E+03  0.11683802808E+03  0.24854362434E+03  0.71565522371E+03  0.60012536055E+03 0.  0.
         23    2    4    4    0    0  0.40224395257E+03 -0.56213167631E+02  0.24597501177E+03  0.48364053167E+03  0.91893089325E+02 0.  0.
         23    2    4    4    0    0 -0.12550058257E+03  0.17305119571E+03  0.25686125678E+01  0.23201469204E+03  0.90150468604E+02 0.  0.
          2    1    3    3  502    0 -0.14969998246E+03 -0.14290106879E+02  0.15836401041E+03  0.21838830485E+03  0.00000000000E+00 0. -1.
         -2    1    3    3    0  502 -0.12704338753E+03 -0.10254792120E+03  0.12575999894E+03  0.20608657354E+03  0.00000000000E+00 0.  1.
         11    1    5    5    0    0  0.29412084615E+03 -0.21830265505E+02  0.21808840851E+03  0.36680537968E+03  0.00000000000E+00 0.  1.
        -11    1    5    5    0    0  0.10812310641E+03 -0.34382902126E+02  0.27886603256E+02  0.11683515199E+03  0.00000000000E+00 0. -1.
          5    1    6    6  503    0 -0.55680457890E+02  0.60077587899E+02 -0.41580877311E+02  0.91982005396E+02  0.47000000000E+01 0. -1.
         -5    1    6    6    0  503 -0.69820124682E+02  0.11297360781E+03  0.44149489879E+02  0.14003268664E+03  0.47000000000E+01 0.  1.
<mgrwt>
<rscale>  0 0.46848677E+03</rscale>
<asrwt>0</asrwt>
<pdfrwt beam="1">  1        2 0.12867675E+00 0.46848677E+03</pdfrwt>
<pdfrwt beam="2">  1       -2 0.46727883E-01 0.46848677E+03</pdfrwt>
<totfact> 0.14545698E+02</totfact>
</mgrwt>
</event>
<event>
12    1  0.3127365E-008  0.6882174E+03  0.7818608E-02  0.9737597E-01
          2   -1    0    0  501    0  0.00000000000E+00  0.00000000000E+00  0.13463368939E+04  0.13463368939E+04  0.00000000000E+00 0.  1.
         -2   -1    0    0    0  501 -0.00000000000E+00 -0.00000000000E+00 -0.40110826351E+03  0.40110826351E+03  0.00000000000E+00 0. -1.
         23    2    1    2    0    0 -0.29497089178E+03  0.47786005123E+03  0.11702960831E+03  0.58072336213E+03  0.90474518806E+02 0.  0.
    5000000    2    1    2    0    0  0.29497089178E+03 -0.47786005123E+03  0.82819902212E+03  0.11667217953E+04  0.59997339261E+03 0.  0.
         23    2    4    4    0    0  0.27154887024E+03  0.44262415711E+02  0.25836994216E+03  0.38832525639E+03  0.91342910859E+02 0.  0.
         23    2    4    4    0    0  0.23422021543E+02 -0.52212246694E+03  0.56982907996E+03  0.77839653892E+03  0.89641117000E+02 0.  0.
          4    1    3    3  502    0 -0.14076290290E+03  0.23305060604E+03  0.10695581497E+02  0.27247233854E+03  0.00000000000E+00 0. -1.
         -4    1    3    3    0  502 -0.15420798888E+03  0.24480944519E+03  0.10633402681E+03  0.30825102359E+03  0.00000000000E+00 0.  1.
         13    1    5    5    0    0  0.23077522294E+03  0.64136476789E+02  0.24092020449E+03  0.33972523619E+03  0.00000000000E+00 0. -1.
        -13    1    5    5    0    0  0.40773647298E+02 -0.19874061079E+02  0.17449737672E+02  0.48600020191E+02  0.00000000000E+00 0.  1.
          5    1    6    6  503    0 -0.11790336755E+02 -0.44354724574E+03  0.48682841796E+03  0.65870871391E+03  0.47000000000E+01 0. -1.
         -5    1    6    6    0  503  0.35212358298E+02 -0.78575221200E+02  0.83000661994E+02  0.11968782501E+03  0.47000000000E+01 0.  1.
<mgrwt>
<rscale>  0 0.68821738E+03</rscale>
<asrwt>0</asrwt>
<pdfrwt beam="1">  1        2 0.20712875E+00 0.68821738E+03</pdfrwt>
<pdfrwt beam="2">  1       -2 0.61708964E-01 0.68821738E+03</pdfrwt>
<totfact> 0.38942324E+01</totfact>
</mgrwt>
</event>
<event>
12    1  0.3127365E-008  0.6577584E+03  0.7818608E-02  0.9792329E-01
          2   -1    0    0  501    0  0.00000000000E+00  0.00000000000E+00  0.17203305561E+04  0.17203305561E+04  0.00000000000E+00 0. -1.
         -2   -1    0    0    0  501 -0.00000000000E+00 -0.00000000000E+00 -0.43615996897E+03  0.43615996897E+03  0.00000000000E+00 0.  1.
         23    2    1    2    0    0 -0.64275774552E+03  0.22656902127E+02  0.64250987873E+02  0.65254329728E+03  0.89630969778E+02 0.  0.
    5000000    2    1    2    0    0  0.64275774552E+03 -0.22656902127E+02  0.12199195993E+04  0.15039472278E+04  0.60000215055E+03 0.  0.
         23    2    4    4    0    0  0.39162525772E+03 -0.64476610716E+02  0.11560536037E+04  0.12258924133E+04  0.93939866240E+02 0.  0.
         23    2    4    4    0    0  0.25113248780E+03  0.41819708590E+02  0.63865995547E+02  0.27805481450E+03  0.91756198855E+02 0.  0.
          1    1    3    3  502    0 -0.57886650575E+03  0.47520533403E+02  0.57440007749E+02  0.58364714260E+03  0.00000000000E+00 0. -1.
         -1    1    3    3    0  502 -0.63891239767E+02 -0.24863631277E+02  0.68109801239E+01  0.68896154679E+02  0.00000000000E+00 0.  1.
         13    1    5    5    0    0  0.25350351640E+03 -0.34586155602E+01  0.64641157325E+03  0.69435143615E+03  0.00000000000E+00 0. -1.
        -13    1    5    5    0    0  0.13812174132E+03 -0.61017995156E+02  0.50964203046E+03  0.53154097713E+03  0.00000000000E+00 0.  1.
          5    1    6    6  503    0  0.18723777268E+03  0.42449485042E+01  0.12522628888E+02  0.18776290725E+03  0.47000000000E+01 0. -1.
         -5    1    6    6    0  503  0.63894715120E+02  0.37574760086E+02  0.51343366659E+02  0.90291907255E+02  0.47000000000E+01 0.  1.
<mgrwt>
<rscale>  0 0.65775841E+03</rscale>
<asrwt>0</asrwt>
<pdfrwt beam="1">  1        2 0.26466624E+00 0.65775841E+03</pdfrwt>
<pdfrwt beam="2">  1       -2 0.67101535E-01 0.65775841E+03</pdfrwt>
<totfact> 0.20280072E+01</totfact>
</mgrwt>
</event>
<event>
12    1  0.3127365E-008  0.1694189E+04  0.7818608E-02  0.8764685E-01
         -2   -1    0    0    0  501 -0.00000000000E+00  0.00000000000E+00  0.12203457438E+04  0.12203457438E+04  0.00000000000E+00 0.  1.
          2   -1    0    0  501    0  0.00000000000E+00 -0.00000000000E+00 -0.26824881547E+04  0.26824881547E+04  0.00000000000E+00 0. -1.
         23    2    1    2    0    0 -0.15404780373E+04 -0.69285139461E+03 -0.18478275971E+03  0.17017338431E+04  0.92939582548E+02 0.  0.
    5000000    2    1    2    0    0  0.15404780373E+04  0.69285139461E+03 -0.12773596513E+04  0.22011000555E+04  0.60006511074E+03 0.  0.
         23    2    4    4    0    0  0.17086260220E+03  0.13803057161E+03 -0.44057049242E+03  0.50054885148E+03  0.90555653586E+02 0.  0.
         23    2    4    4    0    0  0.13696154351E+04  0.55482082299E+03 -0.83678915885E+03  0.17005512040E+04  0.89362829952E+02 0.  0.
          1    1    3    3  502    0 -0.84041681030E+03 -0.41580092965E+03 -0.71560603558E+02  0.94037851321E+03  0.00000000000E+00 0. -1.
         -1    1    3    3    0  502 -0.70006122697E+03 -0.27705046496E+03 -0.11322215615E+03  0.76135532985E+03  0.00000000000E+00 0.  1.
         11    1    5    5    0    0  0.22985101375E+02  0.24137208386E+02 -0.16442251396E+02  0.37165405216E+02  0.00000000000E+00 0.  1.
        -11    1    5    5    0    0  0.14787750082E+03  0.11389336323E+03 -0.42412824102E+03  0.46338344626E+03  0.00000000000E+00 0. -1.
          5    1    6    6  503    0  0.17142213589E+03  0.74222912016E+02 -0.14026020274E+03  0.23364418207E+03  0.47000000000E+01 0. -1.
         -5    1    6    6    0  503  0.11981932992E+04  0.48059791098E+03 -0.69652895611E+03  0.14669070219E+04  0.47000000000E+01 0.  1.
<mgrwt>
<rscale>  0 0.16941892E+04</rscale>
<asrwt>0</asrwt>
<pdfrwt beam="1">  1        2 0.41269048E+00 0.16941892E+04</pdfrwt>
<pdfrwt beam="2">  1       -2 0.18774550E+00 0.16941892E+04</pdfrwt>
<totfact> 0.40263646E-01</totfact>
</mgrwt>
</event>
<event>
12    1  0.3127365E-008  0.6835518E+03  0.7818608E-02  0.9745782E-01
          2   -1    0    0  501    0  0.00000000000E+00  0.00000000000E+00  0.39596530626E+04  0.39596530626E+04  0.00000000000E+00 0.  1.
         -2   -1    0    0    0  501 -0.00000000000E+00 -0.00000000000E+00 -0.12380511110E+03  0.12380511110E+03  0.00000000000E+00 0. -1.
         23    2    1    2    0    0 -0.29892700831E+03 -0.48070090353E+03  0.17161719694E+04  0.18089609995E+04  0.81626920150E+02 0.  0.
    5000000    2    1    2    0    0  0.29892700831E+03  0.48070090353E+03  0.21196759821E+04  0.22744971742E+04  0.59990033464E+03 0.  0.
         23    2    4    4    0    0  0.44817567454E+03  0.25980484194E+03  0.15845706181E+04  0.16698803636E+04  0.96314037722E+02 0.  0.
         23    2    4    4    0    0 -0.14924866622E+03  0.22089606158E+03  0.53510536399E+03  0.60461681061E+03  0.90296748041E+02 0.  0.
          1    1    3    3  502    0 -0.77447783240E+02 -0.15785659624E+03  0.43130719818E+03  0.46577114907E+03  0.00000000000E+00 0. -1.
         -1    1    3    3    0  502 -0.22147922507E+03 -0.32284430728E+03  0.12848647712E+04  0.13431898504E+04  0.00000000000E+00 0.  1.
         13    1    5    5    0    0  0.10013802752E+03  0.43214909647E+02  0.46508227655E+03  0.47769935832E+03  0.00000000000E+00 0.  1.
        -13    1    5    5    0    0  0.34803764701E+03  0.21658993230E+03  0.11194883416E+04  0.11921810053E+04  0.00000000000E+00 0. -1.
          5    1    6    6  503    0 -0.15028199784E+03  0.22743862016E+03  0.52565783510E+03  0.59215813295E+03  0.47000000000E+01 0. -1.
         -5    1    6    6    0  503  0.10333316135E+01 -0.65425585749E+01  0.94475288869E+01  0.12458677659E+02  0.47000000000E+01 0.  1.
<mgrwt>
<rscale>  0 0.68355177E+03</rscale>
<asrwt>0</asrwt>
<pdfrwt beam="1">  1        2 0.60917730E+00 0.68355177E+03</pdfrwt>
<pdfrwt beam="2">  1       -2 0.19046943E-01 0.68355177E+03</pdfrwt>
<totfact> 0.95594260E+00</totfact>
</mgrwt>
</event>
<event>
12    1  0.3127365E-008  0.3734947E+03  0.7818608E-02  0.1053365E+00
         -1   -1    0    0    0  501 -0.00000000000E+00  0.00000000000E+00  0.13727551700E+03  0.13727551700E+03  0.00000000000E+00 0.  1.
          1   -1    0    0  501    0  0.00000000000E+00 -0.00000000000E+00 -0.19049813021E+04  0.19049813021E+04  0.00000000000E+00 0. -1.
         23    2    1    2    0    0  0.22215679970E+03  0.19229442254E+03 -0.88202545991E+03  0.93307616886E+03  0.79570323483E+02 0.  0.
    5000000    2    1    2    0    0 -0.22215679970E+03 -0.19229442254E+03 -0.88568032520E+03  0.11091806503E+04  0.59960094051E+03 0.  0.
         23    2    4    4    0    0 -0.18303341660E+03 -0.26301590690E+03 -0.15378093190E+03  0.36735801495E+03  0.92869463514E+02 0.  0.
         23    2    4    4    0    0 -0.39123383103E+02  0.70721484363E+02 -0.73189939329E+03  0.74182263531E+03  0.89955171572E+02 0.  0.
          2    1    3    3  502    0  0.18894134812E+03  0.15668686254E+03 -0.80808340327E+03  0.84454034395E+03  0.00000000000E+00 0. -1.
         -2    1    3    3    0  502  0.33215451581E+02  0.35607559994E+02 -0.73942056638E+02  0.88535824909E+02  0.00000000000E+00 0.  1.
         11    1    5    5    0    0 -0.95049050566E+02 -0.20705789076E+03 -0.88978923406E+02  0.24459055777E+03  0.00000000000E+00 0.  1.
        -11    1    5    5    0    0 -0.87984366030E+02 -0.55958016142E+02 -0.64802008499E+02  0.12276745718E+03  0.00000000000E+00 0. -1.
          5    1    6    6  503    0 -0.53784128035E+02  0.61338290574E+01 -0.35054181105E+03  0.35472807555E+03  0.47000000000E+01 0. -1.
         -5    1    6    6    0  503  0.14660744932E+02  0.64587655306E+02 -0.38135758224E+03  0.38709455976E+03  0.47000000000E+01 0.  1.
<mgrwt>
<rscale>  0 0.37349472E+03</rscale>
<asrwt>0</asrwt>
<pdfrwt beam="1">  1        1 0.29307406E+00 0.37349472E+03</pdfrwt>
<pdfrwt beam="2">  1       -1 0.21119309E-01 0.37349472E+03</pdfrwt>
<totfact> 0.70384782E+01</totfact>
</mgrwt>
</event>
<event>
12    1  0.3127365E-008  0.5370107E+03  0.7818608E-02  0.1004546E+00
         -2   -1    0    0    0  501 -0.00000000000E+00  0.00000000000E+00  0.24711412378E+03  0.24711412378E+03  0.00000000000E+00 0.  1.
          2   -1    0    0  501    0  0.00000000000E+00 -0.00000000000E+00 -0.15602183964E+04  0.15602183964E+04  0.00000000000E+00 0. -1.
         23    2    1    2    0    0  0.38884996542E+02 -0.43252428761E+03 -0.77033816144E+03  0.88913034546E+03  0.92426110559E+02 0.  0.
    5000000    2    1    2    0    0 -0.38884996542E+02  0.43252428761E+03 -0.54276611116E+03  0.91820217470E+03  0.59992572863E+03 0.  0.
         23    2    4    4    0    0  0.85369776177E+02  0.46923951667E+03 -0.17246225800E+03  0.51548741683E+03  0.92251416133E+02 0.  0.
         23    2    4    4    0    0 -0.12425477272E+03 -0.36715229065E+02 -0.37030385315E+03  0.40271475787E+03  0.90922912168E+02 0.  0.
          3    1    3    3  502    0 -0.47936274302E+01 -0.22585781575E+03 -0.47548033471E+03  0.52641835122E+03  0.00000000000E+00 0. -1.
         -3    1    3    3    0  502  0.43678623972E+02 -0.20666647186E+03 -0.29485782673E+03  0.36271199424E+03  0.00000000000E+00 0.  1.
         11    1    5    5    0    0  0.96444501135E+02  0.34821511246E+03 -0.15311183382E+03  0.39242647719E+03  0.00000000000E+00 0. -1.
        -11    1    5    5    0    0 -0.11074724959E+02  0.12102440421E+03 -0.19350424187E+02  0.12306093964E+03  0.00000000000E+00 0.  1.
          5    1    6    6  503    0 -0.47460106775E+02  0.26400869704E+02 -0.17840634074E+03  0.18654859976E+03  0.47000000000E+01 0.  1.
         -5    1    6    6    0  503 -0.76794665944E+02 -0.63116098769E+02 -0.19189751241E+03  0.21616615811E+03  0.47000000000E+01 0. -1.
<mgrwt>
<rscale>  0 0.53701073E+03</rscale>
<asrwt>0</asrwt>
<pdfrwt beam="1">  1        2 0.24003360E+00 0.53701073E+03</pdfrwt>
<pdfrwt beam="2">  1       -2 0.38017557E-01 0.53701073E+03</pdfrwt>
<totfact> 0.80171900E+01</totfact>
</mgrwt>
</event>
<event>
12    1  0.3127365E-008  0.8599464E+03  0.7818608E-02  0.9477084E-01
          2   -1    0    0  501    0  0.00000000000E+00  0.00000000000E+00  0.90583678776E+03  0.90583678776E+03  0.00000000000E+00 0. -1.
         -2   -1    0    0    0  501 -0.00000000000E+00 -0.00000000000E+00 -0.10149667217E+04  0.10149667217E+04  0.00000000000E+00 0.  1.
         23    2    1    2    0    0  0.65384652631E+03  0.48298223776E+03  0.24005303343E+03  0.85190336777E+03  0.85596537346E+02 0.  0.
    5000000    2    1    2    0    0 -0.65384652631E+03 -0.48298223776E+03 -0.34918296735E+03  0.10689001417E+04  0.59985968879E+03 0.  0.
         23    2    4    4    0    0 -0.53317270597E+02  0.30621385585E+02 -0.24195505001E+03  0.26568571957E+03  0.90918946081E+02 0.  0.
         23    2    4    4    0    0 -0.60052925571E+03 -0.51360362335E+03 -0.10722791734E+03  0.80321442212E+03  0.96080761634E+02 0.  0.
          4    1    3    3  502    0  0.52913389031E+03  0.34651943990E+03  0.18791047507E+03  0.65982478185E+03  0.00000000000E+00 0.  1.
         -4    1    3    3    0  502  0.12471263600E+03  0.13646279786E+03  0.52142558350E+02  0.19207858592E+03  0.00000000000E+00 0. -1.
         11    1    5    5    0    0 -0.77150379329E+02  0.92650054553E+01 -0.17500352845E+03  0.19147912765E+03  0.00000000000E+00 0. -1.
        -11    1    5    5    0    0  0.23833108732E+02  0.21356380130E+02 -0.66951521558E+02  0.74206591911E+02  0.00000000000E+00 0.  1.
          5    1    6    6  503    0 -0.43381989117E+03 -0.33236947325E+03 -0.40405519885E+02  0.54801812083E+03  0.47000000000E+01 0. -1.
         -5    1    6    6    0  503 -0.16670936455E+03 -0.18123415009E+03 -0.66822397458E+02  0.25519630128E+03  0.47000000000E+01 0.  1.
<mgrwt>
<rscale>  0 0.85994638E+03</rscale>
<asrwt>0</asrwt>
<pdfrwt beam="1">  1        2 0.13935951E+00 0.85994638E+03</pdfrwt>
<pdfrwt beam="2">  1       -2 0.15614873E+00 0.85994638E+03</pdfrwt>
<totfact> 0.78592494E+00</totfact>
</mgrwt>
</event>
<event>
12    1  0.3127365E-008  0.7081373E+03  0.7818608E-02  0.9703417E-01
          2   -1    0    0  501    0  0.00000000000E+00  0.00000000000E+00  0.49597528254E+03  0.49597528254E+03  0.00000000000E+00 0.  1.
         -2   -1    0    0    0  501 -0.00000000000E+00 -0.00000000000E+00 -0.13651497378E+04  0.13651497378E+04  0.00000000000E+00 0. -1.
         23    2    1    2    0    0  0.22252658511E+03 -0.66208448433E+03 -0.52512279712E+03  0.87814080037E+03  0.86621981940E+02 0.  0.
    5000000    2    1    2    0    0 -0.22252658511E+03  0.66208448433E+03 -0.34405165814E+03  0.98298421996E+03  0.60001040638E+03 0.  0.
         23    2    4    4    0    0 -0.19215441109E+03  0.42659018530E+03  0.85253248445E+02  0.48428965465E+03  0.91465017014E+02 0.  0.
         23    2    4    4    0    0 -0.30372174020E+02  0.23549429903E+03 -0.42930490658E+03  0.49869456531E+03  0.89518337923E+02 0.  0.
          3    1    3    3  502    0  0.22540849750E+03 -0.61510184843E+03 -0.50401767054E+03  0.82655495093E+03  0.00000000000E+00 0. -1.
         -3    1    3    3    0  502 -0.28819123899E+01 -0.46982635899E+02 -0.21105126580E+02  0.51585849445E+02  0.00000000000E+00 0.  1.
         11    1    5    5    0    0 -0.10689572480E+03  0.14455220073E+03  0.55465598975E+02  0.18814480430E+03  0.00000000000E+00 0.  1.
        -11    1    5    5    0    0 -0.85258686291E+02  0.28203798457E+03  0.29787649470E+02  0.29614485035E+03  0.00000000000E+00 0. -1.
          5    1    6    6  503    0 -0.36477574390E+02  0.18875640977E+03 -0.39768760604E+03  0.44174327121E+03  0.47000000000E+01 0.  1.
         -5    1    6    6    0  503  0.61054003698E+01  0.46737889259E+02 -0.31617300545E+02  0.56951294102E+02  0.47000000000E+01 0. -1.
<mgrwt>
<rscale>  0 0.70813732E+03</rscale>
<asrwt>0</asrwt>
<pdfrwt beam="1">  1        2 0.76303892E-01 0.70813732E+03</pdfrwt>
<pdfrwt beam="2">  1       -2 0.21002303E+00 0.70813732E+03</pdfrwt>
<totfact> 0.73011669E+00</totfact>
</mgrwt>
</event>
<event>
12    1  0.3127365E-008  0.1143855E+04  0.7818608E-02  0.9163471E-01
         -2   -1    0    0    0  501 -0.00000000000E+00  0.00000000000E+00  0.88502500123E+03  0.88502500123E+03  0.00000000000E+00 0.  1.
          2   -1    0    0  501    0  0.00000000000E+00 -0.00000000000E+00 -0.17075126118E+04  0.17075126118E+04  0.00000000000E+00 0. -1.
         23    2    1    2    0    0 -0.78883228672E+03 -0.72499305477E+03 -0.83950647069E+03  0.13644673290E+04  0.95544081510E+02 0.  0.
    5000000    2    1    2    0    0  0.78883228672E+03  0.72499305477E+03  0.17018860131E+02  0.12280702840E+04  0.59999639571E+03 0.  0.
         23    2    4    4    0    0  0.44829342045E+03  0.54091760551E+02  0.79392692481E+02  0.46790980160E+03  0.93506542227E+02 0.  0.
         23    2    4    4    0    0  0.34053886627E+03  0.67090129422E+03 -0.62373832350E+02  0.76016048242E+03  0.88759213832E+02 0.  0.
          1    1    3    3  502    0 -0.25593848911E+03 -0.17870429877E+03 -0.22847178569E+03  0.38683212568E+03  0.00000000000E+00 0. -1.
         -1    1    3    3    0  502 -0.53289379761E+03 -0.54628875600E+03 -0.61103468501E+03  0.97763520331E+03  0.00000000000E+00 0.  1.
         11    1    5    5    0    0  0.17585772983E+02  0.21080237034E+02  0.14641582555E+02  0.31112887114E+02  0.00000000000E+00 0.  1.
        -11    1    5    5    0    0  0.43070764747E+03  0.33011523516E+02  0.64751109926E+02  0.43679691449E+03  0.00000000000E+00 0. -1.
          5    1    6    6  503    0  0.13806197086E+03  0.24174177753E+03 -0.63644246973E+02  0.28560965490E+03  0.47000000000E+01 0. -1.
         -5    1    6    6    0  503  0.20247689540E+03  0.42915951669E+03  0.12704146231E+01  0.47455082751E+03  0.47000000000E+01 0.  1.
<mgrwt>
<rscale>  0 0.11438551E+04</rscale>
<asrwt>0</asrwt>
<pdfrwt beam="1">  1        2 0.26269425E+00 0.11438551E+04</pdfrwt>
<pdfrwt beam="2">  1       -2 0.13615769E+00 0.11438551E+04</pdfrwt>
<totfact> 0.36701535E+00</totfact>
</mgrwt>
</event>
<event>
12    1  0.3127365E-008  0.1495730E+04  0.7818608E-02  0.8887298E-01
          2   -1    0    0  501    0  0.00000000000E+00  0.00000000000E+00  0.24883227979E+04  0.24883227979E+04  0.00000000000E+00 0. -1.
         -2   -1    0    0    0  501 -0.00000000000E+00 -0.00000000000E+00 -0.12488482273E+04  0.12488482273E+04  0.00000000000E+00 0.  1.
         23    2    1    2    0    0 -0.14409384619E+04 -0.12893713921E+03  0.15696474363E+04  0.21365548399E+04  0.90250056377E+02 0.  0.
    5000000    2    1    2    0    0  0.14409384619E+04  0.12893713921E+03 -0.33017286580E+03  0.16006161853E+04  0.60002467815E+03 0.  0.
         23    2    4    4    0    0  0.13993250266E+04  0.55435645860E+00 -0.28999314984E+03  0.14320348141E+04  0.92286751575E+02 0.  0.
         23    2    4    4    0    0  0.41613435335E+02  0.12838278275E+03 -0.40179715960E+02  0.16858137118E+03  0.92690086996E+02 0.  0.
          3    1    3    3  502    0 -0.17283931433E+03 -0.64087395046E+00  0.15185306286E+03  0.23007214520E+03  0.00000000000E+00 0. -1.
         -3    1    3    3    0  502 -0.12680991476E+04 -0.12829626526E+03  0.14177943735E+04  0.19064826947E+04  0.00000000000E+00 0.  1.
         11    1    5    5    0    0  0.28264218898E+03  0.12320491581E+02 -0.23179066419E+02  0.28385853981E+03  0.00000000000E+00 0. -1.
        -11    1    5    5    0    0  0.11166828376E+04 -0.11766135122E+02 -0.26681408342E+03  0.11481762743E+04  0.00000000000E+00 0.  1.
          5    1    6    6  503    0 -0.89407921989E+01  0.49936481869E+02 -0.53863549591E+02  0.74141499588E+02  0.47000000000E+01 0. -1.
         -5    1    6    6    0  503  0.50554227534E+02  0.78446300885E+02  0.13683833631E+02  0.94439871595E+02  0.47000000000E+01 0.  1.
<mgrwt>
<rscale>  0 0.14957298E+04</rscale>
<asrwt>0</asrwt>
<pdfrwt beam="1">  1        2 0.38281889E+00 0.14957298E+04</pdfrwt>
<pdfrwt beam="2">  1       -2 0.19213050E+00 0.14957298E+04</pdfrwt>
<totfact> 0.49885761E-01</totfact>
</mgrwt>
</event>
<event>
12    1  0.3127365E-008  0.1054334E+04  0.7818608E-02  0.9250881E-01
          2   -1    0    0  501    0  0.00000000000E+00  0.00000000000E+00  0.11841020358E+04  0.11841020358E+04  0.00000000000E+00 0. -1.
         -2   -1    0    0    0  501 -0.00000000000E+00 -0.00000000000E+00 -0.96658587444E+03  0.96658587444E+03  0.00000000000E+00 0.  1.
         23    2    1    2    0    0 -0.90714423986E+03  0.37910465081E+03  0.77873980185E+02  0.99041970107E+03  0.90751414778E+02 0.  0.
    5000000    2    1    2    0    0  0.90714423986E+03 -0.37910465081E+03  0.13964218120E+03  0.11602682092E+04  0.60007613712E+03 0.  0.
         23    2    4    4    0    0  0.77578952836E+03 -0.49520397441E+03  0.11660514126E+02  0.92496155414E+03  0.91332034224E+02 0.  0.
         23    2    4    4    0    0  0.13135471151E+03  0.11609932360E+03  0.12798166708E+03  0.23530665506E+03  0.90866944670E+02 0.  0.
          3    1    3    3  502    0 -0.20033085935E+03  0.45200694904E+02  0.67699765423E+01  0.20547843831E+03  0.00000000000E+00 0. -1.
         -3    1    3    3    0  502 -0.70681338052E+03  0.33390395591E+03  0.71104003643E+02  0.78494126276E+03  0.00000000000E+00 0.  1.
         13    1    5    5    0    0  0.12802489104E+03 -0.12039504324E+03 -0.12499928167E+02  0.17618622922E+03  0.00000000000E+00 0. -1.
        -13    1    5    5    0    0  0.64776463732E+03 -0.37480893117E+03  0.24160442293E+02  0.74877532493E+03  0.00000000000E+00 0.  1.
          5    1    6    6  503    0 -0.11003068162E+02 -0.23663107280E+01  0.78156847466E+01  0.14485919491E+02  0.47000000000E+01 0.  1.
         -5    1    6    6    0  503  0.14235777967E+03  0.11846563433E+03  0.12016598233E+03  0.22082073557E+03  0.47000000000E+01 0.  1.
<mgrwt>
<rscale>  0 0.10543336E+04</rscale>
<asrwt>0</asrwt>
<pdfrwt beam="1">  1        2 0.18216954E+00 0.10543336E+04</pdfrwt>
<pdfrwt beam="2">  1       -2 0.14870552E+00 0.10543336E+04</pdfrwt>
<totfact> 0.58529843E+00</totfact>
</mgrwt>
</event>
<event>
12    1  0.3127365E-008  0.7131598E+03  0.7818608E-02  0.9694988E-01
         -1   -1    0    0    0  501 -0.00000000000E+00  0.00000000000E+00  0.17135896864E+04  0.17135896864E+04  0.00000000000E+00 0.  1.
          1   -1    0    0  501    0  0.00000000000E+00 -0.00000000000E+00 -0.35445810201E+03  0.35445810201E+03  0.00000000000E+00 0. -1.
         23    2    1    2    0    0  0.53917165591E+03 -0.23572179850E+03  0.18395773124E+03  0.62329026347E+03  0.91539416784E+02 0.  0.
    5000000    2    1    2    0    0 -0.53917165591E+03  0.23572179850E+03  0.11751738532E+04  0.14447575250E+04  0.60001656638E+03 0.  0.
         23    2    4    4    0    0 -0.63405908952E+03  0.27908764916E+03  0.99120837527E+03  0.12130393089E+04  0.95128737715E+02 0.  0.
         23    2    4    4    0    0  0.94887433602E+02 -0.43365850654E+02  0.18396547792E+03  0.23171821611E+03  0.94687974707E+02 0.  0.
          1    1    3    3  502    0  0.36162343079E+03 -0.13618837357E+03  0.79515416820E+02  0.39451423333E+03  0.00000000000E+00 0. -1.
         -1    1    3    3    0  502  0.17754822512E+03 -0.99533424939E+02  0.10444231442E+03  0.22877603014E+03  0.00000000000E+00 0.  1.
         11    1    5    5    0    0 -0.35793891015E+03  0.11700215352E+03  0.48426098416E+03  0.61344801582E+03  0.00000000000E+00 0.  1.
        -11    1    5    5    0    0 -0.27612017936E+03  0.16208549564E+03  0.50694739111E+03  0.59959129305E+03  0.00000000000E+00 0. -1.
          5    1    6    6  503    0  0.69673754529E+02  0.18829950069E+02  0.11086551719E+03  0.13237164346E+03  0.47000000000E+01 0. -1.
         -5    1    6    6    0  503  0.25213679073E+02 -0.62195800722E+02  0.73099960731E+02  0.99346572658E+02  0.47000000000E+01 0.  1.
<mgrwt>
<rscale>  0 0.71315978E+03</rscale>
<asrwt>0</asrwt>
<pdfrwt beam="1">  1        1 0.54532016E-01 0.71315978E+03</pdfrwt>
<pdfrwt beam="2">  1       -1 0.26362918E+00 0.71315978E+03</pdfrwt>
<totfact> 0.41946095E+00</totfact>
</mgrwt>
</event>
<event>
12    1  0.3127365E-008  0.6847063E+03  0.7818608E-02  0.9743750E-01
          2   -1    0    0  501    0  0.00000000000E+00  0.00000000000E+00  0.34915486939E+04  0.34915486939E+04  0.00000000000E+00 0. -1.
         -2   -1    0    0    0  501 -0.00000000000E+00 -0.00000000000E+00 -0.24149048708E+03  0.24149048708E+03  0.00000000000E+00 0.  1.
         23    2    1    2    0    0  0.46747738673E+03  0.34594989889E+03  0.28787733299E+03  0.65526438285E+03  0.91003367726E+02 0.  0.
    5000000    2    1    2    0    0 -0.46747738673E+03 -0.34594989889E+03  0.29621808738E+04  0.30777747981E+04  0.59997144860E+03 0.  0.
         23    2    4    4    0    0 -0.16871991395E+03  0.12202189495E+03  0.45876149535E+03  0.51189878443E+03  0.90678021976E+02 0.  0.
         23    2    4    4    0    0 -0.29875747278E+03 -0.46797179384E+03  0.25034193785E+04  0.25658760137E+04  0.91419395315E+02 0.  0.
          2    1    3    3  502    0  0.37028600846E+03  0.22570892432E+03  0.20180661100E+03  0.47831177574E+03  0.00000000000E+00 0. -1.
         -2    1    3    3    0  502  0.97191378273E+02  0.12024097457E+03  0.86070721996E+02  0.17695260710E+03  0.00000000000E+00 0.  1.
         11    1    5    5    0    0 -0.10194509239E+03  0.11555297961E+03  0.36862115444E+03  0.39953328830E+03  0.00000000000E+00 0. -1.
        -11    1    5    5    0    0 -0.66774821560E+02  0.64689153414E+01  0.90140340909E+02  0.11236549612E+03  0.00000000000E+00 0.  1.
          5    1    6    6  503    0 -0.70555382591E+02 -0.17375778621E+03  0.96157083340E+03  0.97969913132E+03  0.47000000000E+01 0. -1.
         -5    1    6    6    0  503 -0.22820209019E+03 -0.29421400763E+03  0.15418485451E+04  0.15861768824E+04  0.47000000000E+01 0.  1.
<mgrwt>
<rscale>  0 0.68470625E+03</rscale>
<asrwt>0</asrwt>
<pdfrwt beam="1">  1        2 0.53716130E+00 0.68470625E+03</pdfrwt>
<pdfrwt beam="2">  1       -2 0.37152385E-01 0.68470625E+03</pdfrwt>
<totfact> 0.61767147E+00</totfact>
</mgrwt>
</event>
<event>
12    1  0.3127365E-008  0.1259755E+04  0.7818608E-02  0.9062103E-01
         -1   -1    0    0    0  501 -0.00000000000E+00  0.00000000000E+00  0.12797132131E+04  0.12797132131E+04  0.00000000000E+00 0.  1.
          1   -1    0    0  501    0  0.00000000000E+00 -0.00000000000E+00 -0.22280931263E+04  0.22280931263E+04  0.00000000000E+00 0. -1.
         23    2    1    2    0    0  0.76014159321E+03  0.96815975557E+03 -0.15756627442E+04  0.20015166676E+04  0.90594332185E+02 0.  0.
    5000000    2    1    2    0    0 -0.76014159321E+03 -0.96815975557E+03  0.62728283111E+03  0.15062896718E+04  0.60023018176E+03 0.  0.
         23    2    4    4    0    0 -0.57864782084E+03 -0.90059717352E+03  0.69780996198E+03  0.12809231013E+04  0.88975720248E+02 0.  0.
         23    2    4    4    0    0 -0.18149377237E+03 -0.67562582049E+02 -0.70527130874E+02  0.22536657052E+03  0.91166457741E+02 0.  0.
          1    1    3    3  502    0  0.53692470893E+03  0.64935214836E+03 -0.10177319659E+04  0.13212587597E+04  0.00000000000E+00 0. -1.
         -1    1    3    3    0  502  0.22321688429E+03  0.31880760721E+03 -0.55793077837E+03  0.68025790793E+03  0.00000000000E+00 0.  1.
         11    1    5    5    0    0 -0.33633594208E+03 -0.60015378089E+03  0.45910030871E+03  0.82709099868E+03  0.00000000000E+00 0. -1.
        -11    1    5    5    0    0 -0.24231187877E+03 -0.30044339263E+03  0.23870965327E+03  0.45383210258E+03  0.00000000000E+00 0.  1.
          5    1    6    6  503    0 -0.12192941820E+03  0.20680607042E+01 -0.45714558680E+02  0.13031872764E+03  0.47000000000E+01 0. -1.
         -5    1    6    6    0  503 -0.59564354168E+02 -0.69630642753E+02 -0.24812572194E+02  0.95047842882E+02  0.47000000000E+01 0.  1.
<mgrwt>
<rscale>  0 0.12597551E+04</rscale>
<asrwt>0</asrwt>
<pdfrwt beam="1">  1        1 0.34278356E+00 0.12597551E+04</pdfrwt>
<pdfrwt beam="2">  1       -1 0.19687895E+00 0.12597551E+04</pdfrwt>
<totfact> 0.32140285E-01</totfact>
</mgrwt>
</event>
<event>
12    1  0.3127365E-008  0.8456393E+03  0.7818608E-02  0.9496208E-01
         -2   -1    0    0    0  501 -0.00000000000E+00  0.00000000000E+00  0.33026133200E+03  0.33026133200E+03  0.00000000000E+00 0.  1.
          2   -1    0    0  501    0  0.00000000000E+00 -0.00000000000E+00 -0.28177449947E+04  0.28177449947E+04  0.00000000000E+00 0. -1.
         23    2    1    2    0    0 -0.77220994684E+03 -0.15354170081E+03 -0.52650868692E+03  0.95125055186E+03  0.88221080947E+02 0.  0.
    5000000    2    1    2    0    0  0.77220994684E+03  0.15354170081E+03 -0.19609749758E+04  0.21967557748E+04  0.60035807875E+03 0.  0.
         23    2    4    4    0    0  0.47731831826E+03 -0.12396221891E+03 -0.64388332558E+03  0.81583238126E+03  0.88302484016E+02 0.  0.
         23    2    4    4    0    0  0.29489162858E+03  0.27750391972E+03 -0.13170916502E+04  0.13809233936E+04  0.90826790203E+02 0.  0.
          2    1    3    3  502    0 -0.42646374466E+03 -0.95064563192E+02 -0.34299333510E+03  0.55547549416E+03  0.00000000000E+00 0. -1.
         -2    1    3    3    0  502 -0.34574620218E+03 -0.58477137617E+02 -0.18351535181E+03  0.39577505770E+03  0.00000000000E+00 0.  1.
         13    1    5    5    0    0  0.19414565354E+03 -0.67835871119E+02 -0.20392934834E+03  0.28962289156E+03  0.00000000000E+00 0. -1.
        -13    1    5    5    0    0  0.28317266472E+03 -0.56126347791E+02 -0.43995397724E+03  0.52620948970E+03  0.00000000000E+00 0.  1.
          5    1    6    6  503    0  0.14531498995E+03  0.17713471227E+03 -0.62255983901E+03  0.66339731364E+03  0.47000000000E+01 0. -1.
         -5    1    6    6    0  503  0.14957663863E+03  0.10036920745E+03 -0.69453181120E+03  0.71752607995E+03  0.47000000000E+01 0.  1.
<mgrwt>
<rscale>  0 0.84563934E+03</rscale>
<asrwt>0</asrwt>
<pdfrwt beam="1">  1        2 0.43349922E+00 0.84563934E+03</pdfrwt>
<pdfrwt beam="2">  1       -2 0.50809436E-01 0.84563934E+03</pdfrwt>
<totfact> 0.86035529E+00</totfact>
</mgrwt>
</event>
<event>
12    1  0.3127365E-008  0.5693661E+03  0.7818608E-02  0.9971082E-01
         -2   -1    0    0    0  501 -0.00000000000E+00  0.00000000000E+00  0.29772827049E+03  0.29772827049E+03  0.00000000000E+00 0.  1.
          2   -1    0    0  501    0  0.00000000000E+00 -0.00000000000E+00 -0.17544473559E+04  0.17544473559E+04  0.00000000000E+00 0. -1.
         23    2    1    2    0    0 -0.18242632690E+03 -0.50568199725E+03 -0.23992372462E+03  0.59284278992E+03  0.70039509083E+02 0.  0.
    5000000    2    1    2    0    0  0.18242632690E+03  0.50568199725E+03 -0.12167953608E+04  0.14593328364E+04  0.60005643938E+03 0.  0.
         23    2    4    4    0    0 -0.49052634905E+02  0.38854551218E+02  0.21895106681E+02  0.11224528776E+03  0.90574675198E+02 0.  0.
         23    2    4    4    0    0  0.23147896180E+03  0.46682744604E+03 -0.12386904674E+04  0.13470875487E+04  0.93703871480E+02 0.  0.
          1    1    3    3  502    0 -0.69528619937E+01 -0.60620471388E+02 -0.91983863016E+01  0.61707326565E+02  0.00000000000E+00 0. -1.
         -1    1    3    3    0  502 -0.17547346490E+03 -0.44506152587E+03 -0.23072533832E+03  0.53113546336E+03  0.00000000000E+00 0.  1.
         13    1    5    5    0    0  0.24502956667E+01  0.24367881311E+02  0.47113034308E+02  0.53098357698E+02  0.00000000000E+00 0.  1.
        -13    1    5    5    0    0 -0.51502930572E+02  0.14486669906E+02 -0.25217927628E+02  0.59146930066E+02  0.00000000000E+00 0. -1.
          5    1    6    6  503    0  0.20281232542E+03  0.41388007830E+03 -0.10039425842E+04  0.11046955965E+04  0.47000000000E+01 0. -1.
         -5    1    6    6    0  503  0.28666636381E+02  0.52947367735E+02 -0.23474788325E+03  0.24239195218E+03  0.47000000000E+01 0.  1.
<mgrwt>
<rscale>  0 0.56936605E+03</rscale>
<asrwt>0</asrwt>
<pdfrwt beam="1">  1        2 0.26991498E+00 0.56936605E+03</pdfrwt>
<pdfrwt beam="2">  1       -2 0.45804348E-01 0.56936605E+03</pdfrwt>
<totfact> 0.43463725E+01</totfact>
</mgrwt>
</event>
<event>
12    1  0.3127365E-008  0.2550281E+03  0.7818608E-02  0.1110168E+00
          2   -1    0    0  501    0  0.00000000000E+00  0.00000000000E+00  0.37238221860E+03  0.37238221860E+03  0.00000000000E+00 0.  1.
         -2   -1    0    0    0  501 -0.00000000000E+00 -0.00000000000E+00 -0.55088165567E+03  0.55088165567E+03  0.00000000000E+00 0. -1.
         23    2    1    2    0    0 -0.51436954324E+02  0.19390757374E+03 -0.18947572304E+03  0.29057476599E+03  0.91031519730E+02 0.  0.
    5000000    2    1    2    0    0  0.51436954324E+02 -0.19390757374E+03  0.10976285971E+02  0.63268910828E+03  0.59994093164E+03 0.  0.
         23    2    4    4    0    0  0.93166442164E+02 -0.12561013983E+03 -0.27135012983E+03  0.32595947185E+03  0.90337097339E+02 0.  0.
         23    2    4    4    0    0 -0.41729487840E+02 -0.68297433913E+02  0.28232641580E+03  0.30672963643E+03  0.89269116529E+02 0.  0.
          3    1    3    3  502    0  0.78451634826E+01  0.10645484901E+03 -0.56618784958E+02  0.12082991467E+03  0.00000000000E+00 0. -1.
         -3    1    3    3    0  502 -0.59282117807E+02  0.87452724727E+02 -0.13285693808E+03  0.16974485132E+03  0.00000000000E+00 0.  1.
         13    1    5    5    0    0  0.63287888599E+02 -0.13273517009E+03 -0.19967626997E+03  0.24798103760E+03  0.00000000000E+00 0. -1.
        -13    1    5    5    0    0  0.29878553565E+02  0.71250302663E+01 -0.71673859868E+02  0.77978434249E+02  0.00000000000E+00 0.  1.
          5    1    6    6  503    0 -0.18264234380E+02 -0.87313251283E+02  0.20958240424E+03  0.22782462614E+03  0.47000000000E+01 0. -1.
         -5    1    6    6    0  503 -0.23465253460E+02  0.19015817370E+02  0.72744011565E+02  0.78905010289E+02  0.47000000000E+01 0.  1.
<mgrwt>
<rscale>  0 0.25502806E+03</rscale>
<asrwt>0</asrwt>
<pdfrwt beam="1">  1        2 0.57289572E-01 0.25502806E+03</pdfrwt>
<pdfrwt beam="2">  1       -2 0.84751024E-01 0.25502806E+03</pdfrwt>
<totfact> 0.10938252E+02</totfact>
</mgrwt>
</event>
<event>
12    1  0.3127365E-008  0.6975616E+03  0.7818608E-02  0.9721411E-01
          1   -1    0    0  501    0  0.00000000000E+00  0.00000000000E+00  0.13979735106E+04  0.13979735106E+04  0.00000000000E+00 0. -1.
         -1   -1    0    0    0  501 -0.00000000000E+00 -0.00000000000E+00 -0.36639997729E+03  0.36639997729E+03  0.00000000000E+00 0.  1.
         23    2    1    2    0    0 -0.45340195168E+03 -0.36825893260E+03  0.37337008268E+03  0.69923225191E+03  0.91282814572E+02 0.  0.
    5000000    2    1    2    0    0  0.45340195168E+03  0.36825893260E+03  0.65820345064E+03  0.10651412360E+04  0.60008840926E+03 0.  0.
         23    2    4    4    0    0  0.15329530983E+02  0.37050698484E+03  0.22872320597E+03  0.44450207448E+03  0.88075927101E+02 0.  0.
         23    2    4    4    0    0  0.43807242070E+03 -0.22480522308E+01  0.42948024467E+03  0.62063916150E+03  0.93953119783E+02 0.  0.
          3    1    3    3  502    0 -0.26342847586E+03 -0.23593459176E+03  0.17604511107E+03  0.39503363732E+03  0.00000000000E+00 0. -1.
         -3    1    3    3    0  502 -0.18997347582E+03 -0.13232434085E+03  0.19732497162E+03  0.30419861459E+03  0.00000000000E+00 0.  1.
         11    1    5    5    0    0  0.69690324827E+01  0.15277143483E+03  0.44794298080E+02  0.15935560189E+03  0.00000000000E+00 0.  1.
        -11    1    5    5    0    0  0.83604985007E+01  0.21773555001E+03  0.18392890789E+03  0.28514647259E+03  0.00000000000E+00 0. -1.
          5    1    6    6  503    0  0.16387286620E+03 -0.14867684863E+02  0.22275780286E+03  0.27698103376E+03  0.47000000000E+01 0. -1.
         -5    1    6    6    0  503  0.27419955450E+03  0.12619632632E+02  0.20672244181E+03  0.34365812774E+03  0.47000000000E+01 0.  1.
<mgrwt>
<rscale>  0 0.69756159E+03</rscale>
<asrwt>0</asrwt>
<pdfrwt beam="1">  1        1 0.21507285E+00 0.69756159E+03</pdfrwt>
<pdfrwt beam="2">  1       -1 0.56369228E-01 0.69756159E+03</pdfrwt>
<totfact> 0.25503657E+01</totfact>
</mgrwt>
</event>
<event>
12    1  0.3127365E-008  0.1524378E+04  0.7818608E-02  0.8868402E-01
          3   -1    0    0  501    0  0.00000000000E+00  0.00000000000E+00  0.86128780407E+03  0.86128780407E+03  0.00000000000E+00 0. -1.
         -3   -1    0    0    0  501 -0.00000000000E+00 -0.00000000000E+00 -0.35095576238E+04  0.35095576238E+04  0.00000000000E+00 0.  1.
         23    2    1    2    0    0  0.33864635612E+03  0.14448371763E+04 -0.22898101132E+04  0.27304828518E+04  0.10035152686E+03 0.  0.
    5000000    2    1    2    0    0 -0.33864635612E+03 -0.14448371763E+04 -0.35845970652E+03  0.16403625761E+04  0.60005016390E+03 0.  0.
         23    2    4    4    0    0 -0.45684108775E+03 -0.12353266732E+04 -0.19335598271E+03  0.13344066049E+04  0.92296706683E+02 0.  0.
         23    2    4    4    0    0  0.11819473164E+03 -0.20951050305E+03 -0.16510372382E+03  0.30595597115E+03  0.92114988956E+02 0.  0.
          4    1    3    3  502    0  0.25173487120E+03  0.85994744590E+03 -0.13703132559E+04  0.16372655480E+04  0.00000000000E+00 0. -1.
         -4    1    3    3    0  502  0.86911484914E+02  0.58488973040E+03 -0.91949685722E+03  0.10932173038E+04  0.00000000000E+00 0.  1.
         13    1    5    5    0    0 -0.36375628323E+03 -0.10753908366E+04 -0.16912178691E+03  0.11477744830E+04  0.00000000000E+00 0. -1.
        -13    1    5    5    0    0 -0.93084804524E+02 -0.15993583663E+03 -0.24234195800E+02  0.18663212188E+03  0.00000000000E+00 0.  1.
          5    1    6    6  503    0  0.99476934616E+02 -0.16731568157E+03 -0.83030300135E+02  0.21167503056E+03  0.47000000000E+01 0. -1.
         -5    1    6    6    0  503  0.18717797021E+02 -0.42194821479E+02 -0.82073423681E+02  0.94280940596E+02  0.47000000000E+01 0.  1.
<mgrwt>
<rscale>  0 0.15243777E+04</rscale>
<asrwt>0</asrwt>
<pdfrwt beam="1">  1        3 0.13250581E+00 0.15243777E+04</pdfrwt>
<pdfrwt beam="2">  1       -3 0.53993195E+00 0.15243777E+04</pdfrwt>
<totfact> 0.20116796E-03</totfact>
</mgrwt>
</event>
<event>
12    1  0.3127365E-008  0.2068986E+04  0.7818608E-02  0.8575030E-01
          2   -1    0    0  501    0  0.00000000000E+00  0.00000000000E+00  0.25323485492E+04  0.25323485492E+04  0.00000000000E+00 0. -1.
         -2   -1    0    0    0  501 -0.00000000000E+00 -0.00000000000E+00 -0.17748502712E+04  0.17748502712E+04  0.00000000000E+00 0.  1.
         23    2    1    2    0    0  0.14057167956E+04  0.14759999438E+04  0.77442401643E+03  0.21823717862E+04  0.91643396775E+02 0.  0.
    5000000    2    1    2    0    0 -0.14057167956E+04 -0.14759999438E+04 -0.16925738431E+02  0.21248270343E+04  0.59998991768E+03 0.  0.
         23    2    4    4    0    0 -0.29037116069E+02 -0.19899152270E+02 -0.64692764909E+02  0.11828278966E+03  0.92555573185E+02 0.  0.
         23    2    4    4    0    0 -0.13766796796E+04 -0.14561007915E+04  0.47767026477E+02  0.20065442446E+04  0.91987290051E+02 0.  0.
          3    1    3    3  502    0  0.64123364369E+03  0.73496766372E+03  0.38836906238E+03  0.10498516948E+04  0.00000000000E+00 0. -1.
         -3    1    3    3    0  502  0.76448315194E+03  0.74103228009E+03  0.38605495405E+03  0.11325200913E+04  0.00000000000E+00 0.  1.
         11    1    5    5    0    0 -0.24415995070E+02  0.31897795747E+02 -0.50209540856E+02  0.64300918980E+02  0.00000000000E+00 0.  1.
        -11    1    5    5    0    0 -0.46211209988E+01 -0.51796948016E+02 -0.14483224052E+02  0.53981870679E+02  0.00000000000E+00 0. -1.
          5    1    6    6  503    0 -0.30571466954E+03 -0.37684855436E+03  0.24910914979E+02  0.48592070935E+03  0.47000000000E+01 0. -1.
         -5    1    6    6    0  503 -0.10709650100E+04 -0.10792522372E+04  0.22856111498E+02  0.15206235353E+04  0.47000000000E+01 0.  1.
<mgrwt>
<rscale>  0 0.20689856E+04</rscale>
<asrwt>0</asrwt>
<pdfrwt beam="1">  1        2 0.38959208E+00 0.20689856E+04</pdfrwt>
<pdfrwt beam="2">  1       -2 0.27305389E+00 0.20689856E+04</pdfrwt>
<totfact> 0.13658105E-01</totfact>
</mgrwt>
</event>
<event>
12    1  0.3127365E-008  0.1262088E+04  0.7818608E-02  0.9060182E-01
         -3   -1    0    0    0  501 -0.00000000000E+00  0.00000000000E+00  0.88137147657E+03  0.88137147657E+03  0.00000000000E+00 0.  1.
          3   -1    0    0  501    0  0.00000000000E+00 -0.00000000000E+00 -0.23657532890E+04  0.23657532890E+04  0.00000000000E+00 0. -1.
         23    2    1    2    0    0 -0.10039612554E+04  0.75038934203E+03 -0.13601339347E+04  0.18519815883E+04  0.94069741216E+02 0.  0.
    5000000    2    1    2    0    0  0.10039612554E+04 -0.75038934203E+03 -0.12424787777E+03  0.13951431773E+04  0.59997048510E+03 0.  0.
         23    2    4    4    0    0  0.28767737775E+03 -0.16854673448E+03 -0.29225746256E+03  0.45266902503E+03  0.91260870165E+02 0.  0.
         23    2    4    4    0    0  0.71628387765E+03 -0.58184260755E+03  0.16800958480E+03  0.94247415225E+03  0.91798113987E+02 0.  0.
          4    1    3    3  502    0 -0.62458018529E+03  0.41563034651E+03 -0.78101857449E+03  0.10829769187E+04  0.00000000000E+00 0. -1.
         -4    1    3    3    0  502 -0.37938107010E+03  0.33475899552E+03 -0.57911536020E+03  0.76900466959E+03  0.00000000000E+00 0.  1.
         13    1    5    5    0    0  0.15664910679E+03 -0.48546184833E+02 -0.17474432441E+03  0.23964818721E+03  0.00000000000E+00 0. -1.
        -13    1    5    5    0    0  0.13102827096E+03 -0.12000054964E+03 -0.11751313815E+03  0.21302083782E+03  0.00000000000E+00 0.  1.
          5    1    6    6  503    0  0.40135346867E+03 -0.37646019690E+03  0.77578208251E+02  0.55574036659E+03  0.47000000000E+01 0. -1.
         -5    1    6    6    0  503  0.31493040898E+03 -0.20538241065E+03  0.90431376545E+02  0.38673378566E+03  0.47000000000E+01 0.  1.
<mgrwt>
<rscale>  0 0.12620881E+04</rscale>
<asrwt>0</asrwt>
<pdfrwt beam="1">  1        3 0.36396205E+00 0.12620881E+04</pdfrwt>
<pdfrwt beam="2">  1       -3 0.13559561E+00 0.12620881E+04</pdfrwt>
<totfact> 0.17997145E-02</totfact>
</mgrwt>
</event>
<event>
12    1  0.3127365E-008  0.6869424E+03  0.7818608E-02  0.9739827E-01
          1   -1    0    0  501    0  0.00000000000E+00  0.00000000000E+00  0.33275417959E+03  0.33275417959E+03  0.00000000000E+00 0.  1.
         -1   -1    0    0    0  501 -0.00000000000E+00 -0.00000000000E+00 -0.14840718875E+04  0.14840718875E+04  0.00000000000E+00 0. -1.
         23    2    1    2    0    0  0.52230359793E+03  0.22640705991E+03 -0.42112471669E+03  0.71347194608E+03  0.87378404917E+02 0.  0.
    5000000    2    1    2    0    0 -0.52230359793E+03 -0.22640705991E+03 -0.73019299118E+03  0.11033541210E+04  0.60012274302E+03 0.  0.
         23    2    4    4    0    0 -0.41783947075E+03 -0.40649714545E+03 -0.44794732345E+03  0.74132746914E+03  0.95288295940E+02 0.  0.
         23    2    4    4    0    0 -0.10446412719E+03  0.18009008554E+03 -0.28224566773E+03  0.36202665183E+03  0.89752364307E+02 0.  0.
          4    1    3    3  502    0  0.98609825834E+02  0.53713202607E+02 -0.44214202951E+02  0.12068099116E+03  0.00000000000E+00 0. -1.
         -4    1    3    3    0  502  0.42369377210E+03  0.17269385730E+03 -0.37691051374E+03  0.59279095492E+03  0.00000000000E+00 0.  1.
         11    1    5    5    0    0 -0.16726771281E+03 -0.14780162643E+03 -0.22928546744E+03  0.31999317821E+03  0.00000000000E+00 0.  1.
        -11    1    5    5    0    0 -0.25057175794E+03 -0.25869551903E+03 -0.21866185601E+03  0.42133429093E+03  0.00000000000E+00 0. -1.
          5    1    6    6  503    0  0.10891658021E+02  0.21125735601E+02 -0.98080792813E+01  0.26138349954E+02  0.47000000000E+01 0. -1.
         -5    1    6    6    0  503 -0.11535578521E+03  0.15896434994E+03 -0.27243758845E+03  0.33588830187E+03  0.47000000000E+01 0.  1.
<mgrwt>
<rscale>  0 0.68694241E+03</rscale>
<asrwt>0</asrwt>
<pdfrwt beam="1">  1        1 0.51192950E-01 0.68694241E+03</pdfrwt>
<pdfrwt beam="2">  1       -1 0.22831876E+00 0.68694241E+03</pdfrwt>
<totfact> 0.77365695E+00</totfact>
</mgrwt>
</event>
<event>
12    1  0.3127365E-008  0.4773781E+03  0.7818608E-02  0.1019858E+00
          2   -1    0    0  501    0  0.00000000000E+00  0.00000000000E+00  0.24613504512E+04  0.24613504512E+04  0.00000000000E+00 0. -1.
         -2   -1    0    0    0  501 -0.00000000000E+00 -0.00000000000E+00 -0.13617285999E+03  0.13617285999E+03  0.00000000000E+00 0.  1.
         23    2    1    2    0    0 -0.31714131238E+03 -0.27117278167E+03  0.85542970029E+03  0.95613964337E+03  0.91267496705E+02 0.  0.
    5000000    2    1    2    0    0  0.31714131238E+03  0.27117278167E+03  0.14697478910E+04  0.16413836679E+04  0.59989015042E+03 0.  0.
         23    2    4    4    0    0  0.27776837695E+02 -0.32712216084E+02 -0.10744016069E+01  0.10910701589E+03  0.10030725190E+03 0.  0.
         23    2    4    4    0    0  0.28936447469E+03  0.30388499776E+03  0.14708222926E+04  0.15322766520E+04  0.92063188977E+02 0.  0.
          3    1    3    3  502    0 -0.21012469889E+03 -0.13474758207E+03  0.43809767309E+03  0.50422105383E+03  0.00000000000E+00 0. -1.
         -3    1    3    3    0  502 -0.10701661349E+03 -0.13642519961E+03  0.41733202720E+03  0.45191858955E+03  0.00000000000E+00 0.  1.
         13    1    5    5    0    0  0.60372709235E+02  0.32420303779E+01  0.18566322915E+01  0.60488196078E+02  0.00000000000E+00 0. -1.
        -13    1    5    5    0    0 -0.32595871539E+02 -0.35954246462E+02 -0.29310338984E+01  0.48618819810E+02  0.00000000000E+00 0.  1.
          5    1    6    6  503    0  0.11496309755E+03  0.15727972676E+03  0.81556953299E+03  0.83852798367E+03  0.47000000000E+01 0. -1.
         -5    1    6    6    0  503  0.17440137714E+03  0.14660527100E+03  0.65525275958E+03  0.69374866830E+03  0.47000000000E+01 0.  1.
<mgrwt>
<rscale>  0 0.47737808E+03</rscale>
<asrwt>0</asrwt>
<pdfrwt beam="1">  1        2 0.37866927E+00 0.47737808E+03</pdfrwt>
<pdfrwt beam="2">  1       -2 0.20949673E-01 0.47737808E+03</pdfrwt>
<totfact> 0.78028454E+01</totfact>
</mgrwt>
</event>
<event>
12    1  0.3127365E-008  0.7382090E+03  0.7818608E-02  0.9654032E-01
          2   -1    0    0  501    0  0.00000000000E+00  0.00000000000E+00  0.30988888985E+04  0.30988888985E+04  0.00000000000E+00 0. -1.
         -2   -1    0    0    0  501 -0.00000000000E+00 -0.00000000000E+00 -0.42774043024E+03  0.42774043024E+03  0.00000000000E+00 0.  1.
         23    2    1    2    0    0 -0.49441024530E+02  0.61836604638E+03  0.25841543639E+04  0.26591849003E+04  0.92679961362E+02 0.  0.
    5000000    2    1    2    0    0  0.49441024530E+02 -0.61836604638E+03  0.86994104312E+02  0.86744442839E+03  0.60005906371E+03 0.  0.
         23    2    4    4    0    0  0.29395740070E+03 -0.46973809866E+03  0.59658257007E+02  0.56452492751E+03  0.89802290536E+02 0.  0.
         23    2    4    4    0    0 -0.24451637617E+03 -0.14862794772E+03  0.27335847305E+02  0.30291950089E+03  0.95574318778E+02 0.  0.
          4    1    3    3  502    0 -0.19319656675E+02  0.34001211636E+03  0.16082426286E+04  0.16439056666E+04  0.00000000000E+00 0.  1.
         -4    1    3    3    0  502 -0.30121367854E+02  0.27835393002E+03  0.97591173537E+03  0.10152792337E+04  0.00000000000E+00 0. -1.
         11    1    5    5    0    0  0.76599566856E+02 -0.20181349580E+03  0.11406043659E+02  0.21616262064E+03  0.00000000000E+00 0.  1.
        -11    1    5    5    0    0  0.21735783385E+03 -0.26792460286E+03  0.48252213348E+02  0.34836230687E+03  0.00000000000E+00 0. -1.
          5    1    6    6  503    0 -0.67284076406E+01 -0.26324434467E+02 -0.16169568234E+02  0.31965485390E+02  0.47000000000E+01 0. -1.
         -5    1    6    6    0  503 -0.23778796853E+03 -0.12230351325E+03  0.43505415539E+02  0.27095401550E+03  0.47000000000E+01 0.  1.
<mgrwt>
<rscale>  0 0.73820904E+03</rscale>
<asrwt>0</asrwt>
<pdfrwt beam="1">  1        2 0.47675212E+00 0.73820904E+03</pdfrwt>
<pdfrwt beam="2">  1       -2 0.65806222E-01 0.73820904E+03</pdfrwt>
<totfact> 0.34383155E+00</totfact>
</mgrwt>
</event>
<event>
12    1  0.3127365E-008  0.5633172E+03  0.7818608E-02  0.9984577E-01
          1   -1    0    0  501    0  0.00000000000E+00  0.00000000000E+00  0.50932690966E+03  0.50932690966E+03  0.00000000000E+00 0. -1.
         -1   -1    0    0    0  501 -0.00000000000E+00 -0.00000000000E+00 -0.83711264181E+03  0.83711264181E+03  0.00000000000E+00 0.  1.
         23    2    1    2    0    0 -0.36193852682E+03  0.29729781241E+03 -0.33870230964E+03  0.58515530383E+03  0.91115248953E+02 0.  0.
    5000000    2    1    2    0    0  0.36193852682E+03 -0.29729781241E+03  0.10916577490E+02  0.76128424764E+03  0.60004087160E+03 0.  0.
         23    2    4    4    0    0  0.18946105986E+03 -0.39276971830E+03  0.18666626667E+03  0.48325571464E+03  0.92348501910E+02 0.  0.
         23    2    4    4    0    0  0.17247746696E+03  0.95471905893E+02 -0.17574968918E+03  0.27802853300E+03  0.86882394595E+02 0.  0.
          1    1    3    3  502    0 -0.11421158542E+03  0.14406632905E+03 -0.10509986996E+03  0.21176726866E+03  0.00000000000E+00 0. -1.
         -1    1    3    3    0  502 -0.24772694140E+03  0.15323148336E+03 -0.23360243968E+03  0.37338803517E+03  0.00000000000E+00 0.  1.
         13    1    5    5    0    0  0.46136646224E+02 -0.13378813534E+03  0.10494718387E+03  0.17618673811E+03  0.00000000000E+00 0. -1.
        -13    1    5    5    0    0  0.14332441364E+03 -0.25898158295E+03  0.81719082801E+02  0.30706897653E+03  0.00000000000E+00 0.  1.
          5    1    6    6  503    0  0.65765249634E+02  0.83660217626E+02 -0.10358650588E+03  0.14858113700E+03  0.47000000000E+01 0. -1.
         -5    1    6    6    0  503  0.10671221732E+03  0.11811688267E+02 -0.72163183305E+02  0.12944739600E+03  0.47000000000E+01 0.  1.
<mgrwt>
<rscale>  0 0.56331720E+03</rscale>
<asrwt>0</asrwt>
<pdfrwt beam="1">  1        1 0.78357987E-01 0.56331720E+03</pdfrwt>
<pdfrwt beam="2">  1       -1 0.12878656E+00 0.56331720E+03</pdfrwt>
<totfact> 0.23520891E+01</totfact>
</mgrwt>
</event>
<event>
12    1  0.3127365E-008  0.4894245E+03  0.7818608E-02  0.1016577E+00
         -2   -1    0    0    0  501 -0.00000000000E+00  0.00000000000E+00  0.23966545351E+03  0.23966545351E+03  0.00000000000E+00 0. -1.
          2   -1    0    0  501    0  0.00000000000E+00 -0.00000000000E+00 -0.15658149519E+04  0.15658149519E+04  0.00000000000E+00 0.  1.
         23    2    1    2    0    0  0.40597226246E+03  0.14312742061E+03 -0.74700129345E+03  0.86702188008E+03  0.91744600484E+02 0.  0.
    5000000    2    1    2    0    0 -0.40597226246E+03 -0.14312742061E+03 -0.57914820498E+03  0.93845852536E+03  0.59999402003E+03 0.  0.
         23    2    4    4    0    0 -0.45678477432E+03 -0.10959134057E+03 -0.65106712483E+03  0.80855389558E+03  0.95960455627E+02 0.  0.
         23    2    4    4    0    0  0.50812511859E+02 -0.33536080034E+02  0.71918919849E+02  0.12990462978E+03  0.89422043030E+02 0.  0.
          2    1    3    3  502    0  0.34918508325E+03  0.10524879013E+03 -0.67856453047E+03  0.77036183200E+03  0.00000000000E+00 0. -1.
         -2    1    3    3    0  502  0.56787179208E+02  0.37878630478E+02 -0.68436762980E+02  0.96660048088E+02  0.00000000000E+00 0.  1.
         13    1    5    5    0    0 -0.92244562694E+02 -0.18868638791E+02 -0.20351504776E+03  0.22423973676E+03  0.00000000000E+00 0. -1.
        -13    1    5    5    0    0 -0.36454021162E+03 -0.90722701782E+02 -0.44755207707E+03  0.58431415882E+03  0.00000000000E+00 0.  1.
          5    1    6    6  503    0  0.31895693238E+02  0.52485792453E+01 -0.12504098720E+02  0.34976067761E+02  0.47000000000E+01 0. -1.
         -5    1    6    6    0  503  0.18916818621E+02 -0.38784659279E+02  0.84423018569E+02  0.94928562016E+02  0.47000000000E+01 0.  1.
<mgrwt>
<rscale>  0 0.48942452E+03</rscale>
<asrwt>0</asrwt>
<pdfrwt beam="1">  1        2 0.24089461E+00 0.48942452E+03</pdfrwt>
<pdfrwt beam="2">  1       -2 0.36871608E-01 0.48942452E+03</pdfrwt>
<totfact> 0.84987083E+01</totfact>
</mgrwt>
</event>
<event>
12    1  0.3127365E-008  0.1073048E+04  0.7818608E-02  0.9231867E-01
          2   -1    0    0  501    0  0.00000000000E+00  0.00000000000E+00  0.10203805748E+04  0.10203805748E+04  0.00000000000E+00 0. -1.
         -2   -1    0    0    0  501 -0.00000000000E+00 -0.00000000000E+00 -0.18222412483E+04  0.18222412483E+04  0.00000000000E+00 0.  1.
         23    2    1    2    0    0 -0.91399444490E+03  0.54821514963E+03  0.38626932145E+03  0.11372727215E+04  0.90882115020E+02 0.  0.
    5000000    2    1    2    0    0  0.91399444490E+03 -0.54821514963E+03 -0.11881299949E+04  0.17053491017E+04  0.60053058047E+03 0.  0.
         23    2    4    4    0    0  0.51083735773E+03 -0.37294267447E+03 -0.28805488241E+03  0.69995981746E+03  0.83229119264E+02 0.  0.
         23    2    4    4    0    0  0.40315708717E+03 -0.17527247515E+03 -0.90007511253E+03  0.10053892842E+04  0.86118099717E+02 0.  0.
          1    1    3    3  502    0 -0.44076267398E+03  0.30778849691E+03  0.22205146456E+03  0.58164623829E+03  0.00000000000E+00 0. -1.
         -1    1    3    3    0  502 -0.47323177092E+03  0.24042665272E+03  0.16421785690E+03  0.55562648323E+03  0.00000000000E+00 0.  1.
         11    1    5    5    0    0  0.10436431062E+03 -0.11240593506E+03 -0.47666014384E+02  0.16062083456E+03  0.00000000000E+00 0. -1.
        -11    1    5    5    0    0  0.40647304711E+03 -0.26053673941E+03 -0.24038886802E+03  0.53933898290E+03  0.00000000000E+00 0.  1.
          5    1    6    6  503    0  0.23777204415E+03 -0.12454225083E+03 -0.62757683190E+03  0.68258412460E+03  0.47000000000E+01 0. -1.
         -5    1    6    6    0  503  0.16538504302E+03 -0.50730224327E+02 -0.27249828063E+03  0.32280515960E+03  0.47000000000E+01 0.  1.
<mgrwt>
<rscale>  0 0.10730480E+04</rscale>
<asrwt>0</asrwt>
<pdfrwt beam="1">  1        2 0.15698163E+00 0.10730480E+04</pdfrwt>
<pdfrwt beam="2">  1       -2 0.28034481E+00 0.10730480E+04</pdfrwt>
<totfact> 0.10153913E+00</totfact>
</mgrwt>
</event>
<event>
12    1  0.3127365E-008  0.1137836E+04  0.7818608E-02  0.9169079E-01
         -1   -1    0    0    0  501 -0.00000000000E+00  0.00000000000E+00  0.16659547911E+04  0.16659547911E+04  0.00000000000E+00 0.  1.
          1   -1    0    0  501    0  0.00000000000E+00 -0.00000000000E+00 -0.94456492391E+03  0.94456492391E+03  0.00000000000E+00 0. -1.
         23    2    1    2    0    0  0.10103556278E+04  0.41121793955E+03  0.81077315949E+03  0.13623017477E+04  0.92705162570E+02 0.  0.
    5000000    2    1    2    0    0 -0.10103556278E+04 -0.41121793955E+03 -0.89383292248E+02  0.12482179674E+04  0.60011668273E+03 0.  0.
         23    2    4    4    0    0 -0.63811616776E+03 -0.18395163549E+02  0.12713434550E+03  0.65815778464E+03  0.97354517540E+02 0.  0.
         23    2    4    4    0    0 -0.37223945999E+03 -0.39282277600E+03 -0.21651763775E+03  0.59006018276E+03  0.91756105562E+02 0.  0.
          2    1    3    3  502    0  0.44857412746E+03  0.21108458887E+03  0.41532596105E+03  0.64673882318E+03  0.00000000000E+00 0. -1.
         -2    1    3    3    0  502  0.56178150029E+03  0.20013335068E+03  0.39544719844E+03  0.71556292447E+03  0.00000000000E+00 0.  1.
         13    1    5    5    0    0 -0.47888734648E+03  0.10807945580E+02  0.59416285257E+02  0.48268022257E+03  0.00000000000E+00 0. -1.
        -13    1    5    5    0    0 -0.15922882127E+03 -0.29203109129E+02  0.67718060241E+02  0.17547756207E+03  0.00000000000E+00 0.  1.
          5    1    6    6  503    0 -0.33202149770E+03 -0.33177020332E+03 -0.21621799208E+03  0.51679981893E+03  0.47000000000E+01 0. -1.
         -5    1    6    6    0  503 -0.40217962294E+02 -0.61052572677E+02 -0.29964566719E+00  0.73260363834E+02  0.47000000000E+01 0.  1.
<mgrwt>
<rscale>  0 0.11378359E+04</rscale>
<asrwt>0</asrwt>
<pdfrwt beam="1">  1        1 0.14531768E+00 0.11378359E+04</pdfrwt>
<pdfrwt beam="2">  1       -1 0.25630074E+00 0.11378359E+04</pdfrwt>
<totfact> 0.10515848E+00</totfact>
</mgrwt>
</event>
<event>
12    1  0.3127365E-008  0.5591172E+03  0.7818608E-02  0.9994054E-01
          1   -1    0    0  501    0  0.00000000000E+00  0.00000000000E+00  0.13962688400E+04  0.13962688400E+04  0.00000000000E+00 0. -1.
         -1   -1    0    0    0  501 -0.00000000000E+00 -0.00000000000E+00 -0.28853622140E+03  0.28853622140E+03  0.00000000000E+00 0.  1.
         23    2    1    2    0    0 -0.47593671561E+03  0.95033633290E+02  0.49859058492E+03  0.70165520259E+03  0.90445028747E+02 0.  0.
    5000000    2    1    2    0    0  0.47593671561E+03 -0.95033633290E+02  0.60914203370E+03  0.98314985885E+03  0.59998539899E+03 0.  0.
         23    2    4    4    0    0  0.38705390325E+03  0.98016993254E+02  0.95990376957E+02  0.42088177577E+03  0.92245659612E+02 0.  0.
         23    2    4    4    0    0  0.88882812354E+02 -0.19305062654E+03  0.51315165675E+03  0.56226808308E+03  0.87476143510E+02 0.  0.
          4    1    3    3  502    0 -0.23522807702E+03  0.78941616066E+02  0.20642771389E+03  0.32276373407E+03  0.00000000000E+00 0. -1.
         -4    1    3    3    0  502 -0.24070863859E+03  0.16092017224E+02  0.29216287103E+03  0.37889146852E+03  0.00000000000E+00 0.  1.
         13    1    5    5    0    0  0.33971543604E+03  0.67336614028E+02  0.53889920306E+02  0.35049239733E+03  0.00000000000E+00 0.  1.
        -13    1    5    5    0    0  0.47338467212E+02  0.30680379226E+02  0.42100456652E+02  0.70389378444E+02  0.00000000000E+00 0. -1.
          5    1    6    6  503    0  0.51395692271E+02 -0.17822348919E+03  0.37683636475E+03  0.42003912328E+03  0.47000000000E+01 0. -1.
         -5    1    6    6    0  503  0.37487120083E+02 -0.14827137354E+02  0.13631529199E+03  0.14222895980E+03  0.47000000000E+01 0.  1.
<mgrwt>
<rscale>  0 0.55911722E+03</rscale>
<asrwt>0</asrwt>
<pdfrwt beam="1">  1        1 0.21481059E+00 0.55911722E+03</pdfrwt>
<pdfrwt beam="2">  1       -1 0.44390189E-01 0.55911722E+03</pdfrwt>
<totfact> 0.40956867E+01</totfact>
</mgrwt>
</event>
<event>
12    1  0.3127365E-008  0.1197115E+04  0.7818608E-02  0.9115386E-01
          2   -1    0    0  501    0  0.00000000000E+00  0.00000000000E+00  0.26662904260E+04  0.26662904260E+04  0.00000000000E+00 0. -1.
         -2   -1    0    0    0  501 -0.00000000000E+00 -0.00000000000E+00 -0.11034225259E+04  0.11034225259E+04  0.00000000000E+00 0.  1.
         23    2    1    2    0    0  0.11475358976E+04 -0.30689924701E+03  0.20346076035E+04  0.23577589202E+04  0.91505417581E+02 0.  0.
    5000000    2    1    2    0    0 -0.11475358976E+04  0.30689924701E+03 -0.47173970335E+03  0.14119540317E+04  0.60004171167E+03 0.  0.
         23    2    4    4    0    0 -0.39849334007E+03  0.13440670593E+03  0.10913015107E+03  0.44409242209E+03  0.91905303432E+02 0.  0.
         23    2    4    4    0    0 -0.74904255752E+03  0.17249254108E+03 -0.58086985442E+03  0.96786160958E+03  0.92346509506E+02 0.  0.
          4    1    3    3  502    0  0.79955865539E+03 -0.25700934129E+03  0.14343844751E+04  0.16621692655E+04  0.00000000000E+00 0.  1.
         -4    1    3    3    0  502  0.34797724220E+03 -0.49889905719E+02  0.60022312839E+03  0.69558965464E+03  0.00000000000E+00 0. -1.
         13    1    5    5    0    0 -0.16425580182E+03  0.91805392819E+01  0.50493971204E+02  0.17208687301E+03  0.00000000000E+00 0. -1.
        -13    1    5    5    0    0 -0.23423753825E+03  0.12522616665E+03  0.58636179871E+02  0.27200554908E+03  0.00000000000E+00 0.  1.
          5    1    6    6  503    0 -0.48466443519E+03  0.72755409021E+02 -0.39668477179E+03  0.63053458466E+03  0.47000000000E+01 0. -1.
         -5    1    6    6    0  503 -0.26437812234E+03  0.99737132060E+02 -0.18418508263E+03  0.33732702492E+03  0.47000000000E+01 0.  1.
<mgrwt>
<rscale>  0 0.11971149E+04</rscale>
<asrwt>0</asrwt>
<pdfrwt beam="1">  1        2 0.41019853E+00 0.11971149E+04</pdfrwt>
<pdfrwt beam="2">  1       -2 0.16975731E+00 0.11971149E+04</pdfrwt>
<totfact> 0.58258713E-01</totfact>
</mgrwt>
</event>
<event>
12    1  0.3127365E-008  0.7025253E+03  0.7818608E-02  0.9712923E-01
          2   -1    0    0  501    0  0.00000000000E+00  0.00000000000E+00  0.15507758303E+04  0.15507758303E+04  0.00000000000E+00 0.  1.
         -2   -1    0    0    0  501 -0.00000000000E+00 -0.00000000000E+00 -0.67016058158E+03  0.67016058158E+03  0.00000000000E+00 0. -1.
         23    2    1    2    0    0  0.52125374847E+03  0.26843082592E+03 -0.38160154186E+03  0.70533425967E+03  0.90089414070E+02 0.  0.
    5000000    2    1    2    0    0 -0.52125374847E+03 -0.26843082592E+03  0.12622167906E+04  0.15156021523E+04  0.60008172676E+03 0.  0.
         23    2    4    4    0    0 -0.31914578630E+03  0.13321407276E+03  0.38321060546E+03  0.52406206860E+03  0.90502273512E+02 0.  0.
         23    2    4    4    0    0 -0.20210796216E+03 -0.40164489868E+03  0.87900618517E+03  0.99154008366E+03  0.91288613365E+02 0.  0.
          1    1    3    3  502    0  0.23825907729E+03  0.17318225978E+03 -0.19400910185E+03  0.35270244487E+03  0.00000000000E+00 0. -1.
         -1    1    3    3    0  502  0.28299467118E+03  0.95248566133E+02 -0.18759244001E+03  0.35263181481E+03  0.00000000000E+00 0.  1.
         13    1    5    5    0    0 -0.17328841061E+03  0.23921972521E+02  0.17721640664E+03  0.24901162383E+03  0.00000000000E+00 0. -1.
        -13    1    5    5    0    0 -0.14585737569E+03  0.10929210024E+03  0.20599419882E+03  0.27505044476E+03  0.00000000000E+00 0.  1.
          5    1    6    6  503    0 -0.71751999514E+02 -0.21729366327E+03  0.37636190722E+03  0.44049433678E+03  0.47000000000E+01 0. -1.
         -5    1    6    6    0  503 -0.13035596265E+03 -0.18435123541E+03  0.50264427794E+03  0.55104574687E+03  0.47000000000E+01 0.  1.
<mgrwt>
<rscale>  0 0.70252528E+03</rscale>
<asrwt>0</asrwt>
<pdfrwt beam="1">  1        2 0.23858090E+00 0.70252528E+03</pdfrwt>
<pdfrwt beam="2">  1       -2 0.10310163E+00 0.70252528E+03</pdfrwt>
<totfact> 0.94250020E+00</totfact>
</mgrwt>
</event>
<event>
12    1  0.3127365E-008  0.1335773E+04  0.7818608E-02  0.9001668E-01
         -2   -1    0    0    0  501 -0.00000000000E+00  0.00000000000E+00  0.13169161408E+04  0.13169161408E+04  0.00000000000E+00 0.  1.
          2   -1    0    0  501    0  0.00000000000E+00 -0.00000000000E+00 -0.18906846512E+04  0.18906846512E+04  0.00000000000E+00 0. -1.
         23    2    1    2    0    0 -0.42001121490E+03  0.12655750565E+04 -0.10173330882E+04  0.16796485531E+04  0.90349353063E+02 0.  0.
    5000000    2    1    2    0    0  0.42001121490E+03 -0.12655750565E+04  0.44356457784E+03  0.15279522389E+04  0.59983236435E+03 0.  0.
         23    2    4    4    0    0  0.27364654940E+03 -0.77127408864E+03  0.55524908020E+03  0.99306589737E+03  0.90178609784E+02 0.  0.
         23    2    4    4    0    0  0.14636466549E+03 -0.49430096783E+03 -0.11168450236E+03  0.53488634148E+03  0.88735044552E+02 0.  0.
          2    1    3    3  502    0 -0.12757988988E+03  0.44267356441E+03 -0.30309112534E+03  0.55145330101E+03  0.00000000000E+00 0. -1.
         -2    1    3    3    0  502 -0.29243132502E+03  0.82290149205E+03 -0.71424196281E+03  0.11281952521E+04  0.00000000000E+00 0.  1.
         11    1    5    5    0    0  0.95477260404E+01 -0.87775810517E+02  0.37875198516E+02  0.96074359988E+02  0.00000000000E+00 0. -1.
        -11    1    5    5    0    0  0.26409882336E+03 -0.68349827812E+03  0.51737388168E+03  0.89699153739E+03  0.00000000000E+00 0.  1.
          5    1    6    6  503    0  0.16307691412E+01 -0.16094393331E+02  0.11346511772E+02  0.20310643369E+02  0.47000000000E+01 0. -1.
         -5    1    6    6    0  503  0.14473389635E+03 -0.47820657450E+03 -0.12303101413E+03  0.51457569811E+03  0.47000000000E+01 0.  1.
<mgrwt>
<rscale>  0 0.13357731E+04</rscale>
<asrwt>0</asrwt>
<pdfrwt beam="1">  1        2 0.29087456E+00 0.13357731E+04</pdfrwt>
<pdfrwt beam="2">  1       -2 0.20260248E+00 0.13357731E+04</pdfrwt>
<totfact> 0.93909183E-01</totfact>
</mgrwt>
</event>
<event>
12    1  0.3127365E-008  0.1576054E+04  0.7818608E-02  0.8835395E-01
         -3   -1    0    0    0  501 -0.00000000000E+00  0.00000000000E+00  0.13402927207E+04  0.13402927207E+04  0.00000000000E+00 0.  1.
          3   -1    0    0  501    0  0.00000000000E+00 -0.00000000000E+00 -0.19133194241E+04  0.19133194241E+04  0.00000000000E+00 0. -1.
         23    2    1    2    0    0 -0.78024324681E+03 -0.13261624994E+04 -0.14973802007E+03  0.15486806592E+04  0.92216107019E+02 0.  0.
    5000000    2    1    2    0    0  0.78024324681E+03  0.13261624994E+04 -0.42328868324E+03  0.17049314856E+04  0.60010962523E+03 0.  0.
         23    2    4    4    0    0  0.14141110090E+03  0.71115351976E+03 -0.35059273567E+03  0.81056898346E+03  0.91489794598E+02 0.  0.
         23    2    4    4    0    0  0.63883214592E+03  0.61500897964E+03 -0.72695947572E+02  0.89436250217E+03  0.90868194600E+02 0.  0.
          4    1    3    3  502    0 -0.52653535060E+03 -0.94289889409E+03 -0.70306897936E+02  0.10822388183E+04  0.00000000000E+00 0.  1.
         -4    1    3    3    0  502 -0.25370789621E+03 -0.38326360532E+03 -0.79431122134E+02  0.46644184088E+03  0.00000000000E+00 0. -1.
         11    1    5    5    0    0  0.13879003057E+03  0.66104678675E+03 -0.29924983359E+03  0.73878006860E+03  0.00000000000E+00 0. -1.
        -11    1    5    5    0    0  0.26210703299E+01  0.50106733011E+02 -0.51342902077E+02  0.71788914858E+02  0.00000000000E+00 0.  1.
          5    1    6    6  503    0  0.22560071945E+03  0.22503386032E+03 -0.69360572809E+02  0.32614245656E+03  0.47000000000E+01 0. -1.
         -5    1    6    6    0  503  0.41323142646E+03  0.38997511932E+03 -0.33353747630E+01  0.56822004561E+03  0.47000000000E+01 0.  1.
<mgrwt>
<rscale>  0 0.15760541E+04</rscale>
<asrwt>0</asrwt>
<pdfrwt beam="1">  1        3 0.29435684E+00 0.15760541E+04</pdfrwt>
<pdfrwt beam="2">  1       -3 0.20619888E+00 0.15760541E+04</pdfrwt>
<totfact> 0.13284044E-02</totfact>
</mgrwt>
</event>
<event>
12    1  0.3127365E-008  0.1781912E+04  0.7818608E-02  0.8715978E-01
         -1   -1    0    0    0  501 -0.00000000000E+00  0.00000000000E+00  0.20907756671E+04  0.20907756671E+04  0.00000000000E+00 0.  1.
          1   -1    0    0  501    0  0.00000000000E+00 -0.00000000000E+00 -0.16093281100E+04  0.16093281100E+04  0.00000000000E+00 0. -1.
         23    2    1    2    0    0  0.16842827166E+04  0.56568213313E+03  0.71769834958E+02  0.17805756633E+04  0.92164192451E+02 0.  0.
    5000000    2    1    2    0    0 -0.16842827166E+04 -0.56568213313E+03  0.40967772216E+03  0.19195281137E+04  0.59995649671E+03 0.  0.
         23    2    4    4    0    0 -0.35462985747E+03 -0.62027449869E+02 -0.13126688032E+03  0.39553972700E+03  0.98035409024E+02 0.  0.
         23    2    4    4    0    0 -0.13296528592E+04 -0.50365468326E+03  0.54094460247E+03  0.15239883867E+04  0.90965784670E+02 0.  0.
          2    1    3    3  502    0  0.10100140078E+04  0.30037728682E+03  0.68900206571E+02  0.10559839246E+04  0.00000000000E+00 0. -1.
         -2    1    3    3    0  502  0.67426870880E+03  0.26530484632E+03  0.28696283872E+01  0.72459173879E+03  0.00000000000E+00 0.  1.
         11    1    5    5    0    0 -0.31837391132E+03 -0.44651548511E+02 -0.81683443619E+02  0.33170452688E+03  0.00000000000E+00 0.  1.
        -11    1    5    5    0    0 -0.36255946146E+02 -0.17375901357E+02 -0.49583436698E+02  0.63835200115E+02  0.00000000000E+00 0. -1.
          5    1    6    6  503    0 -0.12967883595E+03 -0.73000169237E+02  0.39863690159E+02  0.15413250467E+03  0.47000000000E+01 0. -1.
         -5    1    6    6    0  503 -0.11999740232E+04 -0.43065451403E+03  0.50108091232E+03  0.13698558820E+04  0.47000000000E+01 0.  1.
<mgrwt>
<rscale>  0 0.17819117E+04</rscale>
<asrwt>0</asrwt>
<pdfrwt beam="1">  1        1 0.24758894E+00 0.17819117E+04</pdfrwt>
<pdfrwt beam="2">  1       -1 0.32165780E+00 0.17819117E+04</pdfrwt>
<totfact> 0.12016966E-01</totfact>
</mgrwt>
</event>
<event>
12    1  0.3127365E-008  0.4660258E+03  0.7818608E-02  0.1023048E+00
         -2   -1    0    0    0  501 -0.00000000000E+00  0.00000000000E+00  0.61230230011E+03  0.61230230011E+03  0.00000000000E+00 0.  1.
          2   -1    0    0  501    0  0.00000000000E+00 -0.00000000000E+00 -0.61371858463E+03  0.61371858463E+03  0.00000000000E+00 0. -1.
         23    2    1    2    0    0 -0.24822480513E+03 -0.33787454685E+03  0.19048739275E+03  0.46945516137E+03  0.91257539138E+02 0.  0.
    5000000    2    1    2    0    0  0.24822480513E+03  0.33787454685E+03 -0.19190367727E+03  0.75656572337E+03  0.59982489874E+03 0.  0.
         23    2    4    4    0    0  0.26637257446E+03  0.17892022954E+03 -0.37162614467E+03  0.49934601256E+03  0.90959616797E+02 0.  0.
         23    2    4    4    0    0 -0.18147769324E+02  0.15895431730E+03  0.17972246741E+03  0.25721971082E+03  0.90917533082E+02 0.  0.
          4    1    3    3  502    0 -0.83971743607E+02 -0.15740703201E+03  0.12156503251E+03  0.21588488734E+03  0.00000000000E+00 0. -1.
         -4    1    3    3    0  502 -0.16425306153E+03 -0.18046751484E+03  0.68922360235E+02  0.25357027403E+03  0.00000000000E+00 0.  1.
         13    1    5    5    0    0  0.22932679175E+03  0.18387213054E+03 -0.34614923105E+03  0.45411345274E+03  0.00000000000E+00 0. -1.
        -13    1    5    5    0    0  0.37045782704E+02 -0.49519009930E+01 -0.25476913622E+02  0.45232559814E+02  0.00000000000E+00 0.  1.
          5    1    6    6  503    0 -0.20796138880E+02  0.16714638354E+03  0.14886429902E+03  0.22484008194E+03  0.47000000000E+01 0. -1.
         -5    1    6    6    0  503  0.26483695564E+01 -0.81920662334E+01  0.30858168384E+02  0.32379628881E+02  0.47000000000E+01 0.  1.
<mgrwt>
<rscale>  0 0.46602579E+03</rscale>
<asrwt>0</asrwt>
<pdfrwt beam="1">  1        2 0.94418244E-01 0.46602579E+03</pdfrwt>
<pdfrwt beam="2">  1       -2 0.94200354E-01 0.46602579E+03</pdfrwt>
<totfact> 0.47655442E+01</totfact>
</mgrwt>
</event>
<event>
12    1  0.3127365E-008  0.1335177E+04  0.7818608E-02  0.9002125E-01
          1   -1    0    0  501    0  0.00000000000E+00  0.00000000000E+00  0.11030506562E+04  0.11030506562E+04  0.00000000000E+00 0. -1.
         -1   -1    0    0    0  501 -0.00000000000E+00 -0.00000000000E+00 -0.16418343438E+04  0.16418343438E+04  0.00000000000E+00 0.  1.
         23    2    1    2    0    0 -0.63670554053E+03 -0.11061331069E+04 -0.30572686070E+03  0.13154799059E+04  0.89967072818E+02 0.  0.
    5000000    2    1    2    0    0  0.63670554053E+03  0.11061331069E+04 -0.23305682691E+03  0.14294050941E+04  0.59996586814E+03 0.  0.
         23    2    4    4    0    0  0.72161283854E+03  0.82292262097E+03 -0.14624426236E+03  0.11082713007E+04  0.94610585752E+02 0.  0.
         23    2    4    4    0    0 -0.84907298009E+02  0.28321048588E+03 -0.86812564553E+02  0.32113379331E+03  0.90404995845E+02 0.  0.
          3    1    3    3  502    0 -0.33194062606E+03 -0.58019892506E+03 -0.11392154117E+03  0.67808073960E+03  0.00000000000E+00 0. -1.
         -3    1    3    3    0  502 -0.30476491446E+03 -0.52593418179E+03 -0.19180531953E+03  0.63739916635E+03  0.00000000000E+00 0.  1.
         11    1    5    5    0    0  0.65452442468E+03  0.72108139239E+03 -0.15459651923E+03  0.98603279900E+03  0.00000000000E+00 0. -1.
        -11    1    5    5    0    0  0.67088413856E+02  0.10184122858E+03  0.83522568774E+01  0.12223850174E+03  0.00000000000E+00 0.  1.
          5    1    6    6  503    0 -0.60203945044E+02  0.24635458913E+03 -0.10287118613E+03  0.27371457674E+03  0.47000000000E+01 0. -1.
         -5    1    6    6    0  503 -0.24703352964E+02  0.36855896755E+02  0.16058621580E+02  0.47419216573E+02  0.47000000000E+01 0.  1.
<mgrwt>
<rscale>  0 0.13351770E+04</rscale>
<asrwt>0</asrwt>
<pdfrwt beam="1">  1        1 0.16970010E+00 0.13351770E+04</pdfrwt>
<pdfrwt beam="2">  1       -1 0.25258990E+00 0.13351770E+04</pdfrwt>
<totfact> 0.81731343E-01</totfact>
</mgrwt>
</event>
<event>
12    1  0.3127365E-008  0.1063255E+04  0.7818608E-02  0.9241765E-01
          2   -1    0    0  501    0  0.00000000000E+00  0.00000000000E+00  0.15073285591E+04  0.15073285591E+04  0.00000000000E+00 0. -1.
         -2   -1    0    0    0  501 -0.00000000000E+00 -0.00000000000E+00 -0.10354789152E+04  0.10354789152E+04  0.00000000000E+00 0.  1.
         23    2    1    2    0    0  0.98068002300E+03  0.39310550652E+03 -0.30133199337E+03  0.11022780632E+04  0.89166762642E+02 0.  0.
    5000000    2    1    2    0    0 -0.98068002300E+03 -0.39310550652E+03  0.77318163722E+03  0.14405294111E+04  0.60087427421E+03 0.  0.
         23    2    4    4    0    0 -0.33098770730E+03 -0.14022256774E+03  0.61677650207E+03  0.71987914541E+03  0.92722702772E+02 0.  0.
         23    2    4    4    0    0 -0.64969231570E+03 -0.25288293878E+03  0.15640513516E+03  0.72065026571E+03  0.93938029386E+02 0.  0.
          4    1    3    3  502    0  0.28469063229E+03  0.15710467116E+03 -0.82223948082E+02  0.33539739333E+03  0.00000000000E+00 0. -1.
         -4    1    3    3    0  502  0.69598939071E+03  0.23600083536E+03 -0.21910804529E+03  0.76688066985E+03  0.00000000000E+00 0.  1.
         13    1    5    5    0    0 -0.25233413982E+03 -0.76958856787E+02  0.50151006106E+03  0.56666350253E+03  0.00000000000E+00 0. -1.
        -13    1    5    5    0    0 -0.78653567478E+02 -0.63263710955E+02  0.11526644101E+03  0.15321564288E+03  0.00000000000E+00 0.  1.
          5    1    6    6  503    0 -0.53367925966E+03 -0.17412134211E+03  0.14544808645E+03  0.57992157213E+03  0.47000000000E+01 0. -1.
         -5    1    6    6    0  503 -0.11601305604E+03 -0.78761596671E+02  0.10957048710E+02  0.14072869359E+03  0.47000000000E+01 0.  1.
<mgrwt>
<rscale>  0 0.10632555E+04</rscale>
<asrwt>0</asrwt>
<pdfrwt beam="1">  1        2 0.23189670E+00 0.10632555E+04</pdfrwt>
<pdfrwt beam="2">  1       -2 0.15930445E+00 0.10632555E+04</pdfrwt>
<totfact> 0.31580739E+00</totfact>
</mgrwt>
</event>
<event>
12    1  0.3127365E-008  0.1277490E+04  0.7818608E-02  0.9047609E-01
         -1   -1    0    0    0  501 -0.00000000000E+00  0.00000000000E+00  0.24241128512E+04  0.24241128512E+04  0.00000000000E+00 0.  1.
          1   -1    0    0  501    0  0.00000000000E+00 -0.00000000000E+00 -0.71266549786E+03  0.71266549786E+03  0.00000000000E+00 0. -1.
         23    2    1    2    0    0  0.12302210602E+04  0.16581746457E+03  0.71170046203E+03  0.14336998549E+04  0.89657334516E+02 0.  0.
    5000000    2    1    2    0    0 -0.12302210602E+04 -0.16581746457E+03  0.99974689128E+03  0.17030784942E+04  0.60003601729E+03 0.  0.
         23    2    4    4    0    0 -0.96700338863E+03 -0.29669248484E+03  0.54184828666E+03  0.11512827721E+04  0.93436992077E+02 0.  0.
         23    2    4    4    0    0 -0.26321767159E+03  0.13087502027E+03  0.45789860462E+03  0.55179572201E+03  0.91627360254E+02 0.  0.
          1    1    3    3  502    0  0.26631120015E+03 -0.11593258224E+01  0.15208696395E+03  0.30668133945E+03  0.00000000000E+00 0. -1.
         -1    1    3    3    0  502  0.96390986008E+03  0.16697679039E+03  0.55961349808E+03  0.11270185154E+04  0.00000000000E+00 0.  1.
         13    1    5    5    0    0 -0.37678552069E+03 -0.69029847286E+02  0.21367354743E+03  0.43862151485E+03  0.00000000000E+00 0. -1.
        -13    1    5    5    0    0 -0.59021786794E+03 -0.22766263756E+03  0.32817473923E+03  0.71266125729E+03  0.00000000000E+00 0.  1.
          5    1    6    6  503    0 -0.15491908587E+03  0.66398264654E+02  0.18013487432E+03  0.24673734144E+03  0.47000000000E+01 0. -1.
         -5    1    6    6    0  503 -0.10829858572E+03  0.64476755618E+02  0.27776373030E+03  0.30505838057E+03  0.47000000000E+01 0.  1.
<mgrwt>
<rscale>  0 0.12774902E+04</rscale>
<asrwt>0</asrwt>
<pdfrwt beam="1">  1        1 0.10964085E+00 0.12774902E+04</pdfrwt>
<pdfrwt beam="2">  1       -1 0.37294043E+00 0.12774902E+04</pdfrwt>
<totfact> 0.28456708E-01</totfact>
</mgrwt>
</event>
<event>
12    1  0.3127365E-008  0.1505680E+04  0.7818608E-02  0.8880685E-01
          1   -1    0    0  501    0  0.00000000000E+00  0.00000000000E+00  0.16685984055E+04  0.16685984055E+04  0.00000000000E+00 0. -1.
         -1   -1    0    0    0  501 -0.00000000000E+00 -0.00000000000E+00 -0.16317185253E+04  0.16317185253E+04  0.00000000000E+00 0.  1.
         23    2    1    2    0    0 -0.76693256423E+03 -0.12852529663E+04  0.56838549362E+03  0.16023364299E+04  0.66024387180E+02 0.  0.
    5000000    2    1    2    0    0  0.76693256423E+03  0.12852529663E+04 -0.53150561344E+03  0.16979805010E+04  0.60048215541E+03 0.  0.
         23    2    4    4    0    0  0.41715731233E+03  0.84981793815E+03 -0.44215048457E+02  0.95125244362E+03  0.81948091779E+02 0.  0.
         23    2    4    4    0    0  0.34977525190E+03  0.43543502818E+03 -0.48729056498E+03  0.74672805733E+03  0.90577625753E+02 0.  0.
          4    1    3    3  502    0 -0.24394738772E+03 -0.44903930481E+03  0.16888442896E+03  0.53820867290E+03  0.00000000000E+00 0. -1.
         -4    1    3    3    0  502 -0.52298517651E+03 -0.83621366152E+03  0.39950106466E+03  0.10641277570E+04  0.00000000000E+00 0.  1.
         11    1    5    5    0    0  0.33805036626E+03  0.73315859639E+03 -0.15970752065E+02  0.80749900465E+03  0.00000000000E+00 0.  1.
        -11    1    5    5    0    0  0.79106946071E+02  0.11665934176E+03 -0.28244296392E+02  0.14375343897E+03  0.00000000000E+00 0. -1.
          5    1    6    6  503    0  0.28652316497E+03  0.29301683062E+03 -0.34789102390E+03  0.53759151928E+03  0.47000000000E+01 0. -1.
         -5    1    6    6    0  503  0.63252086927E+02  0.14241819755E+03 -0.13939954108E+03  0.20913653805E+03  0.47000000000E+01 0.  1.
<mgrwt>
<rscale>  0 0.15056798E+04</rscale>
<asrwt>0</asrwt>
<pdfrwt beam="1">  1        1 0.25670745E+00 0.15056798E+04</pdfrwt>
<pdfrwt beam="2">  1       -1 0.25103362E+00 0.15056798E+04</pdfrwt>
<totfact> 0.32448694E-01</totfact>
</mgrwt>
</event>
<event>
12    1  0.3127365E-008  0.7235887E+03  0.7818608E-02  0.9677722E-01
         -2   -1    0    0    0  501 -0.00000000000E+00  0.00000000000E+00  0.29334129036E+03  0.29334129036E+03  0.00000000000E+00 0. -1.
          2   -1    0    0  501    0  0.00000000000E+00 -0.00000000000E+00 -0.22878069277E+04  0.22878069277E+04  0.00000000000E+00 0.  1.
         23    2    1    2    0    0 -0.59837247895E+03  0.23256210995E+03 -0.13297416996E+04  0.14793279447E+04  0.89796556860E+02 0.  0.
    5000000    2    1    2    0    0  0.59837247895E+03 -0.23256210995E+03 -0.66472393778E+03  0.11018202735E+04  0.60001270234E+03 0.  0.
         23    2    4    4    0    0 -0.57137295510E+01  0.83045584390E+02 -0.29664237653E+03  0.32177680088E+03  0.92813761046E+02 0.  0.
         23    2    4    4    0    0  0.60408620850E+03 -0.31560769434E+03 -0.36808156126E+03  0.78004347257E+03  0.91953354131E+02 0.  0.
          4    1    3    3  502    0 -0.33257870384E+03  0.15621760618E+03 -0.67381181747E+03  0.76748609114E+03  0.00000000000E+00 0.  1.
         -4    1    3    3    0  502 -0.26579377511E+03  0.76344503772E+02 -0.65592988213E+03  0.71184185351E+03  0.00000000000E+00 0. -1.
         13    1    5    5    0    0  0.23188021171E+02  0.88653346517E+02 -0.25343293004E+03  0.26949090931E+03  0.00000000000E+00 0.  1.
        -13    1    5    5    0    0 -0.28901750722E+02 -0.56077621273E+01 -0.43209446490E+02  0.52285891566E+02  0.00000000000E+00 0. -1.
          5    1    6    6  503    0  0.19206295992E+03 -0.86996292008E+02 -0.68896983368E+02  0.22186802319E+03  0.47000000000E+01 0. -1.
         -5    1    6    6    0  503  0.41202324858E+03 -0.22861140233E+03 -0.29918457789E+03  0.55817544939E+03  0.47000000000E+01 0.  1.
<mgrwt>
<rscale>  0 0.72358874E+03</rscale>
<asrwt>0</asrwt>
<pdfrwt beam="1">  1        2 0.35197030E+00 0.72358874E+03</pdfrwt>
<pdfrwt beam="2">  1       -2 0.45129429E-01 0.72358874E+03</pdfrwt>
<totfact> 0.22395264E+01</totfact>
</mgrwt>
</event>
<event>
12    1  0.3127365E-008  0.4408495E+03  0.7818608E-02  0.1030486E+00
         -1   -1    0    0    0  501 -0.00000000000E+00  0.00000000000E+00  0.15840050540E+03  0.15840050540E+03  0.00000000000E+00 0.  1.
          1   -1    0    0  501    0  0.00000000000E+00 -0.00000000000E+00 -0.16608460284E+04  0.16608460284E+04  0.00000000000E+00 0. -1.
         23    2    1    2    0    0 -0.56817159964E+02 -0.32427497455E+03 -0.49806756103E+03  0.60376264966E+03  0.89864303206E+02 0.  0.
    5000000    2    1    2    0    0  0.56817159964E+02  0.32427497455E+03 -0.10043779619E+04  0.12154838841E+04  0.60020291012E+03 0.  0.
         23    2    4    4    0    0  0.89968676618E+02 -0.80756306986E+02 -0.64861988288E+03  0.66730223319E+03  0.99842746654E+02 0.  0.
         23    2    4    4    0    0 -0.33151516654E+02  0.40503128153E+03 -0.35575807904E+03  0.54818165091E+03  0.93754730618E+02 0.  0.
          3    1    3    3  502    0 -0.75630919609E+02 -0.17405092906E+03 -0.28388160712E+03  0.34147112436E+03  0.00000000000E+00 0. -1.
         -3    1    3    3    0  502  0.18813759645E+02 -0.15022404549E+03 -0.21418595391E+03  0.26229152530E+03  0.00000000000E+00 0.  1.
         11    1    5    5    0    0  0.16663418742E+02 -0.17056848713E+01 -0.33966686201E+03  0.34007963190E+03  0.00000000000E+00 0. -1.
        -11    1    5    5    0    0  0.73305257876E+02 -0.79050622114E+02 -0.30895302087E+03  0.32722260129E+03  0.00000000000E+00 0.  1.
          5    1    6    6  503    0 -0.60996356442E+02  0.20433982493E+03 -0.16259894220E+03  0.26820854862E+03  0.47000000000E+01 0. -1.
         -5    1    6    6    0  503  0.27844839789E+02  0.20069145661E+03 -0.19315913685E+03  0.27997310229E+03  0.47000000000E+01 0.  1.
<mgrwt>
<rscale>  0 0.44084953E+03</rscale>
<asrwt>0</asrwt>
<pdfrwt beam="1">  1        1 0.25551476E+00 0.44084953E+03</pdfrwt>
<pdfrwt beam="2">  1       -1 0.24369309E-01 0.44084953E+03</pdfrwt>
<totfact> 0.79266472E+01</totfact>
</mgrwt>
</event>
<event>
12    1  0.3127365E-008  0.9492374E+03  0.7818608E-02  0.9366042E-01
          1   -1    0    0  501    0  0.00000000000E+00  0.00000000000E+00  0.14010413237E+04  0.14010413237E+04  0.00000000000E+00 0. -1.
         -1   -1    0    0    0  501 -0.00000000000E+00 -0.00000000000E+00 -0.76048814382E+03  0.76048814382E+03  0.00000000000E+00 0.  1.
         23    2    1    2    0    0  0.58472887303E+03  0.73937742559E+03  0.29154151456E+03  0.99098471678E+03  0.92018594644E+02 0.  0.
    5000000    2    1    2    0    0 -0.58472887303E+03 -0.73937742559E+03  0.34901166531E+03  0.11705447507E+04  0.59981583718E+03 0.  0.
         23    2    4    4    0    0 -0.17141308821E+03 -0.25788440085E+03 -0.15176986695E+03  0.35699284598E+03  0.92320033339E+02 0.  0.
         23    2    4    4    0    0 -0.41331578482E+03 -0.48149302474E+03  0.50078153227E+03  0.81355190475E+03  0.91755587387E+02 0.  0.
          1    1    3    3  502    0  0.48928769107E+03  0.60968676401E+03  0.20498013178E+03  0.80816907221E+03  0.00000000000E+00 0. -1.
         -1    1    3    3    0  502  0.95441181959E+02  0.12969066158E+03  0.86561382773E+02  0.18281564457E+03  0.00000000000E+00 0.  1.
         11    1    5    5    0    0 -0.23247751000E+02 -0.85528283521E+01 -0.38175269998E+02  0.45507801955E+02  0.00000000000E+00 0. -1.
        -11    1    5    5    0    0 -0.14816533721E+03 -0.24933157250E+03 -0.11359459696E+03  0.31148504403E+03  0.00000000000E+00 0.  1.
          5    1    6    6  503    0 -0.27462581322E+03 -0.25219858914E+03  0.30262366149E+03  0.48023602129E+03  0.47000000000E+01 0. -1.
         -5    1    6    6    0  503 -0.13868997160E+03 -0.22929443560E+03  0.19815787078E+03  0.33331588346E+03  0.47000000000E+01 0.  1.
<mgrwt>
<rscale>  0 0.94923740E+03</rscale>
<asrwt>0</asrwt>
<pdfrwt beam="1">  1        1 0.21554482E+00 0.94923740E+03</pdfrwt>
<pdfrwt beam="2">  1       -1 0.11699818E+00 0.94923740E+03</pdfrwt>
<totfact> 0.51060840E+00</totfact>
</mgrwt>
</event>
<event>
12    1  0.3238096E-008  0.1467476E+04  0.7818608E-02  0.8906374E-01
          1   -1    0    0  501    0  0.00000000000E+00  0.00000000000E+00  0.15908874335E+04  0.15908874335E+04  0.00000000000E+00 0. -1.
         -1   -1    0    0    0  501 -0.00000000000E+00 -0.00000000000E+00 -0.14021589746E+04  0.14021589746E+04  0.00000000000E+00 0.  1.
         23    2    1    2    0    0  0.66036062473E+03  0.12657520258E+04  0.19899912520E+03  0.14443153243E+04  0.90784131712E+02 0.  0.
    5000000    2    1    2    0    0 -0.66036062473E+03 -0.12657520258E+04 -0.10270666340E+02  0.15487310837E+04  0.60021507606E+03 0.  0.
         23    2    4    4    0    0 -0.67487258847E+03 -0.89410534686E+03 -0.16366178249E+03  0.11358712593E+04  0.92417296763E+02 0.  0.
         23    2    4    4    0    0  0.14511963736E+02 -0.37164667899E+03  0.15339111615E+03  0.41285982443E+03  0.92696003246E+02 0.  0.
          2    1    3    3  502    0  0.32794337629E+03  0.72347022544E+03  0.99965121353E+02  0.80059293692E+03  0.00000000000E+00 0. -1.
         -2    1    3    3    0  502  0.33241724844E+03  0.54228180041E+03  0.99034003847E+02  0.64372238739E+03  0.00000000000E+00 0.  1.
         13    1    5    5    0    0 -0.26280853644E+03 -0.28981517501E+03 -0.83876941694E+02  0.40012061162E+03  0.00000000000E+00 0. -1.
        -13    1    5    5    0    0 -0.41206405202E+03 -0.60429017185E+03 -0.79784840798E+02  0.73575064770E+03  0.00000000000E+00 0.  1.
          5    1    6    6  503    0  0.31303786423E+02 -0.46161711538E+02  0.10433957789E+02  0.56936702852E+02  0.47000000000E+01 0. -1.
         -5    1    6    6    0  503 -0.16791822687E+02 -0.32548496745E+03  0.14295715836E+03  0.35592312157E+03  0.47000000000E+01 0.  1.
<mgrwt>
<rscale>  0 0.14674763E+04</rscale>
<asrwt>0</asrwt>
<pdfrwt beam="1">  1        1 0.24475191E+00 0.14674763E+04</pdfrwt>
<pdfrwt beam="2">  1       -1 0.21571676E+00 0.14674763E+04</pdfrwt>
<totfact> 0.63215071E-01</totfact>
</mgrwt>
</event>
<event>
12    1  0.3127365E-008  0.6797484E+03  0.7818608E-02  0.9752506E-01
          2   -1    0    0  501    0  0.00000000000E+00  0.00000000000E+00  0.79335276319E+03  0.79335276319E+03  0.00000000000E+00 0. -1.
         -2   -1    0    0    0  501 -0.00000000000E+00 -0.00000000000E+00 -0.21908840865E+04  0.21908840865E+04  0.00000000000E+00 0.  1.
         23    2    1    2    0    0  0.61098989571E+03  0.43821307175E+02 -0.18945218603E+04  0.19932747948E+04  0.93286487465E+02 0.  0.
    5000000    2    1    2    0    0 -0.61098989571E+03 -0.43821307175E+02  0.49699053699E+03  0.99096205490E+03  0.59981433859E+03 0.  0.
         23    2    4    4    0    0 -0.51797962469E+03  0.13346166930E+03  0.54041054827E+03  0.76660403817E+03  0.97587303952E+02 0.  0.
         23    2    4    4    0    0 -0.93010271020E+02 -0.17728297647E+03 -0.43420011278E+02  0.22435801673E+03  0.91493486274E+02 0.  0.
          4    1    3    3  502    0  0.33009375761E+03  0.47814309748E+01 -0.88093052704E+03  0.94075679342E+03  0.00000000000E+00 0. -1.
         -4    1    3    3    0  502  0.28089613809E+03  0.39039876201E+02 -0.10135913333E+04  0.10525180014E+04  0.00000000000E+00 0.  1.
         13    1    5    5    0    0 -0.33780435199E+03  0.86256088693E+02  0.28394715634E+03  0.44964194717E+03  0.00000000000E+00 0.  1.
        -13    1    5    5    0    0 -0.18017527270E+03  0.47205580606E+02  0.25646339193E+03  0.31696209100E+03  0.00000000000E+00 0. -1.
          5    1    6    6  503    0  0.55786067469E+01 -0.46270951982E+02 -0.37866413912E+02  0.60233521839E+02  0.47000000000E+01 0. -1.
         -5    1    6    6    0  503 -0.98588877767E+02 -0.13101202449E+03 -0.55535973661E+01  0.16412449489E+03  0.47000000000E+01 0.  1.
<mgrwt>
<rscale>  0 0.67974844E+03</rscale>
<asrwt>0</asrwt>
<pdfrwt beam="1">  1        2 0.12205427E+00 0.67974844E+03</pdfrwt>
<pdfrwt beam="2">  1       -2 0.33705909E+00 0.67974844E+03</pdfrwt>
<totfact> 0.69839449E-01</totfact>
</mgrwt>
</event>
<event>
12    1  0.3127365E-008  0.1536098E+04  0.7818608E-02  0.8860797E-01
         -2   -1    0    0    0  501 -0.00000000000E+00  0.00000000000E+00  0.61644324987E+03  0.61644324987E+03  0.00000000000E+00 0. -1.
          2   -1    0    0  501    0  0.00000000000E+00 -0.00000000000E+00 -0.39691972594E+04  0.39691972594E+04  0.00000000000E+00 0.  1.
         23    2    1    2    0    0 -0.14647708149E+04  0.34416465315E+03 -0.16580205921E+04  0.22412410645E+04  0.10062989958E+03 0.  0.
    5000000    2    1    2    0    0  0.14647708149E+04 -0.34416465315E+03 -0.16947334174E+04  0.23443994448E+04  0.60007045595E+03 0.  0.
         23    2    4    4    0    0  0.92947519916E+03 -0.13848560709E+02 -0.71441037653E+03  0.11760536664E+04  0.92758350486E+02 0.  0.
         23    2    4    4    0    0  0.53529561570E+03 -0.33031609244E+03 -0.98032304085E+03  0.11683457784E+04  0.91369997162E+02 0.  0.
          4    1    3    3  502    0 -0.12876103164E+04  0.28932492139E+03 -0.14967680054E+04  0.19954858304E+04  0.00000000000E+00 0. -1.
         -4    1    3    3    0  502 -0.17716049842E+03  0.54839731758E+02 -0.16125258672E+03  0.24575523413E+03  0.00000000000E+00 0.  1.
         11    1    5    5    0    0  0.14206701363E+03  0.24428071825E+02 -0.13705700574E+03  0.19890799349E+03  0.00000000000E+00 0.  1.
        -11    1    5    5    0    0  0.78740818553E+03 -0.38276632533E+02 -0.57735337080E+03  0.97714567287E+03  0.00000000000E+00 0. -1.
          5    1    6    6  503    0  0.27967577854E+03 -0.22099322402E+03 -0.51688325258E+03  0.62789086071E+03  0.47000000000E+01 0. -1.
         -5    1    6    6    0  503  0.25561983716E+03 -0.10932286842E+03 -0.46343978827E+03  0.54045491770E+03  0.47000000000E+01 0.  1.
<mgrwt>
<rscale>  0 0.15360982E+04</rscale>
<asrwt>0</asrwt>
<pdfrwt beam="1">  1        2 0.61064574E+00 0.15360982E+04</pdfrwt>
<pdfrwt beam="2">  1       -2 0.94837422E-01 0.15360982E+04</pdfrwt>
<totfact> 0.32748955E-01</totfact>
</mgrwt>
</event>
<event>
12    1  0.3127365E-008  0.6372302E+03  0.7818608E-02  0.9831040E-01
          2   -1    0    0  501    0  0.00000000000E+00  0.00000000000E+00  0.16539995094E+04  0.16539995094E+04  0.00000000000E+00 0. -1.
         -2   -1    0    0    0  501 -0.00000000000E+00 -0.00000000000E+00 -0.26706026876E+03  0.26706026876E+03  0.00000000000E+00 0.  1.
         23    2    1    2    0    0 -0.50741045374E+03 -0.88276641206E+02  0.41140655305E+03  0.66534990882E+03  0.90426850711E+02 0.  0.
    5000000    2    1    2    0    0  0.50741045374E+03  0.88276641206E+02  0.97553268758E+03  0.12557098693E+04  0.59990425687E+03 0.  0.
         23    2    4    4    0    0  0.17399206630E+03 -0.22488124197E+03  0.23231253867E+03  0.37797988166E+03  0.89748889667E+02 0.  0.
         23    2    4    4    0    0  0.33341838745E+03  0.31315788317E+03  0.74322014891E+03  0.87772998765E+03  0.93797977571E+02 0.  0.
          2    1    3    3  502    0 -0.10770542153E+03 -0.52187643077E+02  0.71460086016E+02  0.13939351423E+03  0.00000000000E+00 0. -1.
         -2    1    3    3    0  502 -0.39970503221E+03 -0.36088998129E+02  0.33994646703E+03  0.52595639459E+03  0.00000000000E+00 0.  1.
         11    1    5    5    0    0 -0.31714565344E+01  0.15154412375E+01 -0.43697092968E+01  0.56079459726E+01  0.00000000000E+00 0.  1.
        -11    1    5    5    0    0  0.17716352283E+03 -0.22639668320E+03  0.23668224796E+03  0.37237193569E+03  0.00000000000E+00 0. -1.
          5    1    6    6  503    0  0.21631871717E+03  0.24507293118E+03  0.57780786898E+03  0.66388142951E+03  0.47000000000E+01 0. -1.
         -5    1    6    6    0  503  0.11709967028E+03  0.68084951992E+02  0.16541227993E+03  0.21384855814E+03  0.47000000000E+01 0.  1.
<mgrwt>
<rscale>  0 0.63723025E+03</rscale>
<asrwt>0</asrwt>
<pdfrwt beam="1">  1        2 0.25446146E+00 0.63723025E+03</pdfrwt>
<pdfrwt beam="2">  1       -2 0.41086196E-01 0.63723025E+03</pdfrwt>
<totfact> 0.60502892E+01</totfact>
</mgrwt>
</event>
<event>
12    1  0.3127365E-008  0.6678373E+03  0.7818608E-02  0.9773873E-01
          1   -1    0    0  501    0  0.00000000000E+00  0.00000000000E+00  0.63344846135E+03  0.63344846135E+03  0.00000000000E+00 0. -1.
         -1   -1    0    0    0  501 -0.00000000000E+00 -0.00000000000E+00 -0.79700235194E+03  0.79700235194E+03  0.00000000000E+00 0.  1.
         23    2    1    2    0    0  0.16866892484E+02 -0.56431680924E+03  0.64477396327E+02  0.57561439379E+03  0.91851197345E+02 0.  0.
    5000000    2    1    2    0    0 -0.16866892484E+02  0.56431680924E+03 -0.22803128692E+03  0.85483641951E+03  0.60000756916E+03 0.  0.
         23    2    4    4    0    0 -0.91355992012E+02  0.63812321159E+03 -0.27696522387E+03  0.70758371818E+03  0.91748746884E+02 0.  0.
         23    2    4    4    0    0  0.74489099528E+02 -0.73806402357E+02  0.48933936949E+02  0.14725270132E+03  0.91064904788E+02 0.  0.
          3    1    3    3  502    0 -0.26699746234E+02 -0.10709611122E+03 -0.78930192450E+01  0.11065601312E+03  0.00000000000E+00 0. -1.
         -3    1    3    3    0  502  0.43566638718E+02 -0.45722069802E+03  0.72370415572E+02  0.46495838067E+03  0.00000000000E+00 0.  1.
         13    1    5    5    0    0  0.39352942563E+01  0.23954006546E+03 -0.12730391378E+03  0.27129544037E+03  0.00000000000E+00 0.  1.
        -13    1    5    5    0    0 -0.95291286268E+02  0.39858314613E+03 -0.14966131009E+03  0.43628827781E+03  0.00000000000E+00 0. -1.
          5    1    6    6  503    0  0.47703570070E+02 -0.12476311351E+02  0.61532186193E+02  0.78991068357E+02  0.47000000000E+01 0. -1.
         -5    1    6    6    0  503  0.26785529458E+02 -0.61330091006E+02 -0.12598249245E+02  0.68261632966E+02  0.47000000000E+01 0.  1.
<mgrwt>
<rscale>  0 0.66783727E+03</rscale>
<asrwt>0</asrwt>
<pdfrwt beam="1">  1        1 0.97453610E-01 0.66783727E+03</pdfrwt>
<pdfrwt beam="2">  1       -1 0.12261575E+00 0.66783727E+03</pdfrwt>
<totfact> 0.19259208E+01</totfact>
</mgrwt>
</event>
<event>
12    1  0.3127365E-008  0.1027544E+04  0.7818608E-02  0.9278840E-01
         -2   -1    0    0    0  501 -0.00000000000E+00  0.00000000000E+00  0.76683355238E+03  0.76683355238E+03  0.00000000000E+00 0.  1.
          2   -1    0    0  501    0  0.00000000000E+00 -0.00000000000E+00 -0.19120561656E+04  0.19120561656E+04  0.00000000000E+00 0. -1.
         23    2    1    2    0    0  0.10152618817E+04  0.15310391369E+02 -0.10972671949E+04  0.14983663871E+04  0.10057552713E+03 0.  0.
    5000000    2    1    2    0    0 -0.10152618817E+04 -0.15310391369E+02 -0.47955418396E+02  0.11805233309E+04  0.60028702801E+03 0.  0.
         23    2    4    4    0    0 -0.43554861556E+03  0.42019753450E+02  0.25781389904E+03  0.51653210862E+03  0.94176199266E+02 0.  0.
         23    2    4    4    0    0 -0.57971326617E+03 -0.57330144819E+02 -0.30576931744E+03  0.66399122224E+03  0.89639563008E+02 0.  0.
          1    1    3    3  502    0  0.65120273523E+03  0.52891763444E+02 -0.73489290727E+03  0.98332605282E+03  0.00000000000E+00 0. -1.
         -1    1    3    3    0  502  0.36405914650E+03 -0.37581372075E+02 -0.36237428758E+03  0.51504033432E+03  0.00000000000E+00 0.  1.
         13    1    5    5    0    0 -0.50506581309E+02  0.36006494660E+02  0.27735264229E+02  0.67945767308E+02  0.00000000000E+00 0.  1.
        -13    1    5    5    0    0 -0.38504203425E+03  0.60132587898E+01  0.23007863481E+03  0.44858634132E+03  0.00000000000E+00 0. -1.
          5    1    6    6  503    0 -0.39281384732E+03 -0.78075815058E+02 -0.19212833916E+03  0.44422284976E+03  0.47000000000E+01 0. -1.
         -5    1    6    6    0  503 -0.18689941885E+03  0.20745670239E+02 -0.11364097828E+03  0.21976837248E+03  0.47000000000E+01 0.  1.
<mgrwt>
<rscale>  0 0.10275443E+04</rscale>
<asrwt>0</asrwt>
<pdfrwt beam="1">  1        2 0.29416249E+00 0.10275443E+04</pdfrwt>
<pdfrwt beam="2">  1       -2 0.11797439E+00 0.10275443E+04</pdfrwt>
<totfact> 0.41196707E+00</totfact>
</mgrwt>
</event>
<event>
12    1  0.3127365E-008  0.6090293E+03  0.7818608E-02  0.9886848E-01
          4   -1    0    0  501    0  0.00000000000E+00  0.00000000000E+00  0.14012003693E+04  0.14012003693E+04  0.00000000000E+00 0. -1.
         -4   -1    0    0    0  501 -0.00000000000E+00 -0.00000000000E+00 -0.44661495558E+03  0.44661495558E+03  0.00000000000E+00 0.  1.
         23    2    1    2    0    0  0.55917986607E+03 -0.56407736692E+02 -0.23136163068E+02  0.57020214155E+03  0.93441130191E+02 0.  0.
    5000000    2    1    2    0    0 -0.55917986607E+03  0.56407736692E+02  0.97772157682E+03  0.12776131834E+04  0.60040986763E+03 0.  0.
         23    2    4    4    0    0 -0.39109124451E+03  0.17535694297E+03  0.22622504763E+03  0.49314413896E+03  0.91164415421E+02 0.  0.
         23    2    4    4    0    0 -0.16808862156E+03 -0.11894920628E+03  0.75149652919E+03  0.78446904441E+03  0.90785185292E+02 0.  0.
          1    1    3    3  502    0  0.31987355490E+03  0.13213639058E+02 -0.29788516877E+01  0.32016021760E+03  0.00000000000E+00 0. -1.
         -1    1    3    3    0  502  0.23930631117E+03 -0.69621375750E+02 -0.20157311381E+02  0.25004192395E+03  0.00000000000E+00 0.  1.
         11    1    5    5    0    0 -0.16505222389E+03  0.28515578696E+02  0.69491970905E+02  0.18134086373E+03  0.00000000000E+00 0.  1.
        -11    1    5    5    0    0 -0.22603902062E+03  0.14684136427E+03  0.15673307672E+03  0.31180327523E+03  0.00000000000E+00 0. -1.
          5    1    6    6  503    0  0.62644473131E+00 -0.90947644429E+01  0.14603981832E+03  0.14639954135E+03  0.47000000000E+01 0. -1.
         -5    1    6    6    0  503 -0.16871506630E+03 -0.10985444184E+03  0.60545671088E+03  0.63806950306E+03  0.47000000000E+01 0.  1.
<mgrwt>
<rscale>  0 0.60902930E+03</rscale>
<asrwt>0</asrwt>
<pdfrwt beam="1">  1        4 0.21556929E+00 0.60902930E+03</pdfrwt>
<pdfrwt beam="2">  1       -4 0.68709994E-01 0.60902930E+03</pdfrwt>
<totfact> 0.40313052E-01</totfact>
</mgrwt>
</event>
<event>
12    1  0.3127365E-008  0.5438717E+03  0.7818608E-02  0.1002922E+00
         -2   -1    0    0    0  501 -0.00000000000E+00  0.00000000000E+00  0.20324555061E+03  0.20324555061E+03  0.00000000000E+00 0.  1.
          2   -1    0    0  501    0  0.00000000000E+00 -0.00000000000E+00 -0.18547793505E+04  0.18547793505E+04  0.00000000000E+00 0. -1.
         23    2    1    2    0    0 -0.42617227511E+03  0.14546285848E+03 -0.80233163380E+03  0.92481191248E+03  0.93588309065E+02 0.  0.
    5000000    2    1    2    0    0  0.42617227511E+03 -0.14546285848E+03 -0.84920216607E+03  0.11332129886E+04  0.60020422144E+03 0.  0.
         23    2    4    4    0    0  0.48539726134E+03 -0.56193329214E+02 -0.33267208490E+03  0.59754626804E+03  0.87307701935E+02 0.  0.
         23    2    4    4    0    0 -0.59224986225E+02 -0.89269529263E+02 -0.51653008117E+03  0.53566672057E+03  0.93053011380E+02 0.  0.
          3    1    3    3  502    0 -0.16384191376E+03  0.91914107934E+02 -0.39451386814E+03  0.43695945818E+03  0.00000000000E+00 0. -1.
         -3    1    3    3    0  502 -0.26233036135E+03  0.53548750544E+02 -0.40781776566E+03  0.48785245429E+03  0.00000000000E+00 0.  1.
         11    1    5    5    0    0  0.36646348241E+03 -0.78290247037E+02 -0.26464907495E+03  0.45876353342E+03  0.00000000000E+00 0. -1.
        -11    1    5    5    0    0  0.11893377893E+03  0.22096917823E+02 -0.68023009944E+02  0.13878273462E+03  0.00000000000E+00 0.  1.
          5    1    6    6  503    0 -0.79415326353E+02 -0.82555142214E+02 -0.36512389702E+03  0.38270053010E+03  0.47000000000E+01 0. -1.
         -5    1    6    6    0  503  0.20190340128E+02 -0.67143870497E+01 -0.15140618415E+03  0.15296619047E+03  0.47000000000E+01 0.  1.
<mgrwt>
<rscale>  0 0.54387173E+03</rscale>
<asrwt>0</asrwt>
<pdfrwt beam="1">  1        2 0.28535065E+00 0.54387173E+03</pdfrwt>
<pdfrwt beam="2">  1       -2 0.31268548E-01 0.54387173E+03</pdfrwt>
<totfact> 0.80251310E+01</totfact>
</mgrwt>
</event>
<event>
12    1  0.3127365E-008  0.1433986E+04  0.7818608E-02  0.8929579E-01
         -2   -1    0    0    0  501 -0.00000000000E+00  0.00000000000E+00  0.14327143029E+04  0.14327143029E+04  0.00000000000E+00 0.  1.
          2   -1    0    0  501    0  0.00000000000E+00 -0.00000000000E+00 -0.15627666555E+04  0.15627666555E+04  0.00000000000E+00 0. -1.
         23    2    1    2    0    0 -0.30191845298E+03 -0.13952487755E+04  0.81150667112E+02  0.14326443368E+04  0.89501214235E+02 0.  0.
    5000000    2    1    2    0    0  0.30191845298E+03  0.13952487755E+04 -0.21120301980E+03  0.15628366216E+04  0.59998141001E+03 0.  0.
         23    2    4    4    0    0  0.28850499941E+03  0.99228570770E+03  0.10481094860E+03  0.10427095011E+04  0.91606268534E+02 0.  0.
         23    2    4    4    0    0  0.13413453577E+02  0.40296306779E+03 -0.31601396840E+03  0.52012712042E+03  0.90045757441E+02 0.  0.
          1    1    3    3  502    0 -0.65813457216E+02 -0.41623858216E+03 -0.93023517172E+01  0.42151216136E+03  0.00000000000E+00 0. -1.
         -1    1    3    3    0  502 -0.23610499577E+03 -0.97901019333E+03  0.90453018830E+02  0.10111321755E+04  0.00000000000E+00 0.  1.
         13    1    5    5    0    0  0.52375064804E+01  0.45145171488E+02  0.22453960998E+02  0.50692192173E+02  0.00000000000E+00 0.  1.
        -13    1    5    5    0    0  0.28326749293E+03  0.94714053621E+03  0.82356987601E+02  0.99201730897E+03  0.00000000000E+00 0. -1.
          5    1    6    6  503    0  0.28483078409E+02  0.27448622083E+03 -0.25967378781E+03  0.37895453191E+03  0.47000000000E+01 0. -1.
         -5    1    6    6    0  503 -0.15069624832E+02  0.12847684696E+03 -0.56340180588E+02  0.14117258850E+03  0.47000000000E+01 0.  1.
<mgrwt>
<rscale>  0 0.14339858E+04</rscale>
<asrwt>0</asrwt>
<pdfrwt beam="1">  1        2 0.24042564E+00 0.14339858E+04</pdfrwt>
<pdfrwt beam="2">  1       -2 0.22041758E+00 0.14339858E+04</pdfrwt>
<totfact> 0.10880253E+00</totfact>
</mgrwt>
</event>
<event>
12    1  0.3127365E-008  0.7740637E+03  0.7818608E-02  0.9598337E-01
          1   -1    0    0  501    0  0.00000000000E+00  0.00000000000E+00  0.12323448155E+04  0.12323448155E+04  0.00000000000E+00 0. -1.
         -1   -1    0    0    0  501 -0.00000000000E+00 -0.00000000000E+00 -0.51399254549E+03  0.51399254549E+03  0.00000000000E+00 0.  1.
         23    2    1    2    0    0 -0.21399659194E+03 -0.64381554711E+03  0.35044556191E+03  0.76899724233E+03  0.90838685523E+02 0.  0.
    5000000    2    1    2    0    0  0.21399659194E+03  0.64381554711E+03  0.36790670811E+03  0.97734011867E+03  0.59962101499E+03 0.  0.
         23    2    4    4    0    0 -0.96692676592E+02 -0.28099103163E+02  0.14608333744E+03  0.19900901274E+03  0.90139959888E+02 0.  0.
         23    2    4    4    0    0  0.31068926854E+03  0.67191465027E+03  0.22182337067E+03  0.77833110593E+03  0.92717764436E+02 0.  0.
          2    1    3    3  502    0 -0.77759724692E+02 -0.24827762211E+03  0.18447118867E+03  0.31893255067E+03  0.00000000000E+00 0. -1.
         -2    1    3    3    0  502 -0.13623686725E+03 -0.39553792500E+03  0.16597437324E+03  0.45006469166E+03  0.00000000000E+00 0.  1.
         13    1    5    5    0    0 -0.73704056305E+02  0.19418744741E+02  0.11433237666E+03  0.13740912603E+03  0.00000000000E+00 0. -1.
        -13    1    5    5    0    0 -0.22988620287E+02 -0.47517847904E+02  0.31750960775E+02  0.61599886707E+02  0.00000000000E+00 0.  1.
          5    1    6    6  503    0  0.26192778014E+02  0.48207732478E+02  0.42952483716E+02  0.69835900139E+02  0.47000000000E+01 0.  1.
         -5    1    6    6    0  503  0.28449649052E+03  0.62370691779E+03  0.17887088696E+03  0.70849520579E+03  0.47000000000E+01 0. -1.
<mgrwt>
<rscale>  0 0.77406372E+03</rscale>
<asrwt>0</asrwt>
<pdfrwt beam="1">  1        1 0.18959151E+00 0.77406372E+03</pdfrwt>
<pdfrwt beam="2">  1       -1 0.79075777E-01 0.77406372E+03</pdfrwt>
<totfact> 0.16656227E+01</totfact>
</mgrwt>
</event>
<event>
12    1  0.3127365E-008  0.8467476E+03  0.7818608E-02  0.9494713E-01
         -2   -1    0    0    0  501 -0.00000000000E+00  0.00000000000E+00  0.44018048671E+03  0.44018048671E+03  0.00000000000E+00 0.  1.
          2   -1    0    0  501    0  0.00000000000E+00 -0.00000000000E+00 -0.23730779503E+04  0.23730779503E+04  0.00000000000E+00 0. -1.
         23    2    1    2    0    0  0.65523752830E+03  0.43089846531E+03 -0.15761600815E+04  0.17633760042E+04  0.10101793757E+03 0.  0.
    5000000    2    1    2    0    0 -0.65523752830E+03 -0.43089846531E+03 -0.35673738212E+03  0.10498824329E+04  0.59998488073E+03 0.  0.
         23    2    4    4    0    0  0.64144800329E+02 -0.16182012231E+02 -0.15435708041E+03  0.19045095934E+03  0.89827872689E+02 0.  0.
         23    2    4    4    0    0 -0.71938232863E+03 -0.41471645308E+03 -0.20238030170E+03  0.85943147351E+03  0.90354855653E+02 0.  0.
          3    1    3    3  502    0  0.44967717044E+03  0.30208215681E+03 -0.11874019052E+04  0.13051384875E+04  0.00000000000E+00 0. -1.
         -3    1    3    3    0  502  0.20556035785E+03  0.12881630850E+03 -0.38875817635E+03  0.45823751673E+03  0.00000000000E+00 0.  1.
         11    1    5    5    0    0  0.50895934755E+02  0.55365035214E+01 -0.22088509692E+02  0.55757970786E+02  0.00000000000E+00 0.  1.
        -11    1    5    5    0    0  0.13248865574E+02 -0.21718515752E+02 -0.13226857072E+03  0.13469298856E+03  0.00000000000E+00 0. -1.
          5    1    6    6  503    0 -0.30643601165E+03 -0.14291045674E+03 -0.11633073948E+03  0.35760503188E+03  0.47000000000E+01 0. -1.
         -5    1    6    6    0  503 -0.41294631698E+03 -0.27180599634E+03 -0.86049562222E+02  0.50182644162E+03  0.47000000000E+01 0.  1.
<mgrwt>
<rscale>  0 0.84674758E+03</rscale>
<asrwt>0</asrwt>
<pdfrwt beam="1">  1        2 0.36508892E+00 0.84674758E+03</pdfrwt>
<pdfrwt beam="2">  1       -2 0.67720074E-01 0.84674758E+03</pdfrwt>
<totfact> 0.84747626E+00</totfact>
</mgrwt>
</event>
<event>
12    1  0.3127365E-008  0.1168651E+04  0.7818608E-02  0.9140748E-01
         -2   -1    0    0    0  501 -0.00000000000E+00  0.00000000000E+00  0.92211410244E+03  0.92211410244E+03  0.00000000000E+00 0.  1.
          2   -1    0    0  501    0  0.00000000000E+00 -0.00000000000E+00 -0.17988183874E+04  0.17988183874E+04  0.00000000000E+00 0. -1.
         23    2    1    2    0    0 -0.75875372706E+03  0.86415744855E+03  0.27278665186E+01  0.11537332555E+04  0.92831403157E+02 0.  0.
    5000000    2    1    2    0    0  0.75875372706E+03 -0.86415744855E+03 -0.87943215143E+03  0.15671992343E+04  0.60019764806E+03 0.  0.
         23    2    4    4    0    0  0.32504220407E+03 -0.20045124310E+03 -0.17553185846E+02  0.39248176806E+03  0.88885818001E+02 0.  0.
         23    2    4    4    0    0  0.43371152299E+03 -0.66370620545E+03 -0.86187896559E+03  0.11747174662E+04  0.92272215640E+02 0.  0.
          1    1    3    3  502    0 -0.44819758101E+03  0.56438261854E+03 -0.25732769074E+02  0.72115947414E+03  0.00000000000E+00 0. -1.
         -1    1    3    3    0  502 -0.31055614605E+03  0.29977483001E+03  0.28460635592E+02  0.43257378137E+03  0.00000000000E+00 0.  1.
         13    1    5    5    0    0  0.23226564754E+02  0.54871033998E+01 -0.12774052879E+02  0.27069503892E+02  0.00000000000E+00 0. -1.
        -13    1    5    5    0    0  0.30181563932E+03 -0.20593834650E+03 -0.47791329662E+01  0.36541226417E+03  0.00000000000E+00 0.  1.
          5    1    6    6  503    0  0.26292264653E+03 -0.34147836471E+03 -0.51274936490E+03  0.66982818158E+03  0.47000000000E+01 0. -1.
         -5    1    6    6    0  503  0.17078887646E+03 -0.32222784073E+03 -0.34912960069E+03  0.50488928464E+03  0.47000000000E+01 0.  1.
<mgrwt>
<rscale>  0 0.11686507E+04</rscale>
<asrwt>0</asrwt>
<pdfrwt beam="1">  1        2 0.27674129E+00 0.11686507E+04</pdfrwt>
<pdfrwt beam="2">  1       -2 0.14186371E+00 0.11686507E+04</pdfrwt>
<totfact> 0.29276633E+00</totfact>
</mgrwt>
</event>
<event>
12    1  0.3127365E-008  0.1263495E+04  0.7818608E-02  0.9059025E-01
         -2   -1    0    0    0  501 -0.00000000000E+00  0.00000000000E+00  0.12562252838E+04  0.12562252838E+04  0.00000000000E+00 0.  1.
          2   -1    0    0  501    0  0.00000000000E+00 -0.00000000000E+00 -0.15271833845E+04  0.15271833845E+04  0.00000000000E+00 0. -1.
         23    2    1    2    0    0 -0.12113102865E+04 -0.29715966297E+02 -0.65144115496E+03  0.13787855877E+04  0.92295556710E+02 0.  0.
    5000000    2    1    2    0    0  0.12113102865E+04  0.29715966297E+02  0.38048305418E+03  0.14046230806E+04  0.60003582828E+03 0.  0.
         23    2    4    4    0    0  0.86731462187E+02  0.14354084499E+03  0.16042399591E+03  0.24965978856E+03  0.92020817473E+02 0.  0.
         23    2    4    4    0    0  0.11245788243E+04 -0.11382487869E+03  0.22005905827E+03  0.11549632920E+04  0.88772640785E+02 0.  0.
          4    1    3    3  502    0 -0.62050830228E+03 -0.60777647316E+02 -0.32591346149E+03  0.70352260802E+03  0.00000000000E+00 0. -1.
         -4    1    3    3    0  502 -0.59080198418E+03  0.31061681019E+02 -0.32552769347E+03  0.67526297971E+03  0.00000000000E+00 0.  1.
         13    1    5    5    0    0 -0.10083352296E+02  0.21665917903E+02 -0.28689777604E+01  0.24069005494E+02  0.00000000000E+00 0. -1.
        -13    1    5    5    0    0  0.96814814483E+02  0.12187492708E+03  0.16329297367E+03  0.22559078307E+03  0.00000000000E+00 0.  1.
          5    1    6    6  503    0  0.39820425356E+03 -0.81769221760E+01  0.49539137381E+02  0.40138473531E+03  0.47000000000E+01 0. -1.
         -5    1    6    6    0  503  0.72637457071E+03 -0.10564795651E+03  0.17051992089E+03  0.75357855670E+03  0.47000000000E+01 0.  1.
<mgrwt>
<rscale>  0 0.12634952E+04</rscale>
<asrwt>0</asrwt>
<pdfrwt beam="1">  1        2 0.23495129E+00 0.12634952E+04</pdfrwt>
<pdfrwt beam="2">  1       -2 0.19326543E+00 0.12634952E+04</pdfrwt>
<totfact> 0.17402506E+00</totfact>
</mgrwt>
</event>
<event>
12    1  0.3127365E-008  0.1388614E+04  0.7818608E-02  0.8962102E-01
         -1   -1    0    0    0  501 -0.00000000000E+00  0.00000000000E+00  0.15555785841E+04  0.15555785841E+04  0.00000000000E+00 0.  1.
          1   -1    0    0  501    0  0.00000000000E+00 -0.00000000000E+00 -0.15051417845E+04  0.15051417845E+04  0.00000000000E+00 0. -1.
         23    2    1    2    0    0  0.93712197497E+03 -0.10148411740E+04  0.52635667168E+03  0.14814313169E+04  0.97402239954E+02 0.  0.
    5000000    2    1    2    0    0 -0.93712197497E+03  0.10148411740E+04 -0.47591987210E+03  0.15792890517E+04  0.59962820121E+03 0.  0.
         23    2    4    4    0    0 -0.21067445363E+03  0.17117971268E+03 -0.35461160220E+03  0.45567831969E+03  0.90593173995E+02 0.  0.
         23    2    4    4    0    0 -0.72644752134E+03  0.84366146136E+03 -0.12130826991E+03  0.11236107320E+04  0.91075343078E+02 0.  0.
          2    1    3    3  502    0  0.82252920282E+03 -0.92587515149E+03  0.45164640615E+03  0.13182501894E+04  0.00000000000E+00 0. -1.
         -2    1    3    3    0  502  0.11459277215E+03 -0.88966022549E+02  0.74710265530E+02  0.16318112750E+03  0.00000000000E+00 0.  1.
         11    1    5    5    0    0 -0.12834986122E+03  0.13920476859E+03 -0.28963510194E+03  0.34603489239E+03  0.00000000000E+00 0. -1.
        -11    1    5    5    0    0 -0.82324592403E+02  0.31974944092E+02 -0.64976500258E+02  0.10964342730E+03  0.00000000000E+00 0.  1.
          5    1    6    6  503    0 -0.29397275569E+03  0.40007350585E+03 -0.77801076587E+02  0.50254739944E+03  0.47000000000E+01 0. -1.
         -5    1    6    6    0  503 -0.43247476565E+03  0.44358795551E+03 -0.43507193318E+02  0.62106333258E+03  0.47000000000E+01 0.  1.
<mgrwt>
<rscale>  0 0.13886140E+04</rscale>
<asrwt>0</asrwt>
<pdfrwt beam="1">  1        1 0.23156027E+00 0.13886140E+04</pdfrwt>
<pdfrwt beam="2">  1       -1 0.23931978E+00 0.13886140E+04</pdfrwt>
<totfact> 0.50904425E-01</totfact>
</mgrwt>
</event>
<event>
12    1  0.3127365E-008  0.5172300E+03  0.7818608E-02  0.1009377E+00
         -1   -1    0    0    0  501 -0.00000000000E+00  0.00000000000E+00  0.13066075597E+04  0.13066075597E+04  0.00000000000E+00 0.  1.
          1   -1    0    0  501    0  0.00000000000E+00 -0.00000000000E+00 -0.87276912113E+03  0.87276912113E+03  0.00000000000E+00 0. -1.
         23    2    1    2    0    0 -0.47452444427E+03  0.13894551051E+03 -0.66470526918E+03  0.83349926327E+03  0.91698549044E+02 0.  0.
    5000000    2    1    2    0    0  0.47452444427E+03 -0.13894551051E+03  0.10985437078E+04  0.13458774176E+04  0.60009036166E+03 0.  0.
         23    2    4    4    0    0  0.41629370868E+03 -0.11749714119E+03  0.11439386966E+04  0.12263827812E+04  0.91175403973E+02 0.  0.
         23    2    4    4    0    0  0.58230735584E+02 -0.21448369324E+02 -0.45394988868E+02  0.11949463637E+03  0.91473558992E+02 0.  0.
          3    1    3    3  502    0 -0.31401711847E+03  0.94551578854E+02 -0.50909798826E+03  0.60558031128E+03  0.00000000000E+00 0. -1.
         -3    1    3    3    0  502 -0.16050732579E+03  0.44393931658E+02 -0.15560728092E+03  0.22791895199E+03  0.00000000000E+00 0.  1.
         13    1    5    5    0    0  0.28320364866E+03 -0.65936691933E+02  0.87294013032E+03  0.92009587820E+03  0.00000000000E+00 0. -1.
        -13    1    5    5    0    0  0.13309006002E+03 -0.51560449255E+02  0.27099856630E+03  0.30628690298E+03  0.00000000000E+00 0.  1.
          5    1    6    6  503    0  0.33698545801E+02  0.32483512136E+02 -0.36188599795E+02  0.59350444859E+02  0.47000000000E+01 0. -1.
         -5    1    6    6    0  503  0.24532189783E+02 -0.53931881459E+02 -0.92063890726E+01  0.60144191516E+02  0.47000000000E+01 0.  1.
<mgrwt>
<rscale>  0 0.51722998E+03</rscale>
<asrwt>0</asrwt>
<pdfrwt beam="1">  1        1 0.13427217E+00 0.51722998E+03</pdfrwt>
<pdfrwt beam="2">  1       -1 0.20101655E+00 0.51722998E+03</pdfrwt>
<totfact> 0.30949718E+00</totfact>
</mgrwt>
</event>
<event>
12    1  0.3127365E-008  0.5210165E+03  0.7818608E-02  0.1008434E+00
          1   -1    0    0  501    0  0.00000000000E+00  0.00000000000E+00  0.17109497771E+04  0.17109497771E+04  0.00000000000E+00 0. -1.
         -1   -1    0    0    0  501 -0.00000000000E+00 -0.00000000000E+00 -0.23256695129E+03  0.23256695129E+03  0.00000000000E+00 0.  1.
         23    2    1    2    0    0 -0.25240957759E+03  0.41183444544E+03  0.62238649053E+03  0.79196626971E+03  0.80792471471E+02 0.  0.
    5000000    2    1    2    0    0  0.25240957759E+03 -0.41183444544E+03  0.85599633531E+03  0.11515504587E+04  0.60001710609E+03 0.  0.
         23    2    4    4    0    0 -0.76306569901E+01 -0.20557215015E+03  0.76273029745E+03  0.79526700934E+03  0.91509418338E+02 0.  0.
         23    2    4    4    0    0  0.26004023458E+03 -0.20626229529E+03  0.93266037856E+02  0.35628344938E+03  0.89857022137E+02 0.  0.
          2    1    3    3  502    0 -0.14652623598E+03  0.20670846676E+03  0.26610129131E+03  0.36743465446E+03  0.00000000000E+00 0. -1.
         -2    1    3    3    0  502 -0.10588334161E+03  0.20512597868E+03  0.35628519922E+03  0.42453161525E+03  0.00000000000E+00 0.  1.
         13    1    5    5    0    0  0.31989574749E+02 -0.29624478286E+02  0.11844352645E+03  0.12621335731E+03  0.00000000000E+00 0.  1.
        -13    1    5    5    0    0 -0.39620231739E+02 -0.17594767187E+03  0.64428677101E+03  0.66905365203E+03  0.00000000000E+00 0. -1.
          5    1    6    6  503    0  0.40077649281E+02 -0.48728934745E+02  0.53349952792E+02  0.82758893880E+02  0.47000000000E+01 0. -1.
         -5    1    6    6    0  503  0.21996258530E+03 -0.15753336055E+03  0.39916085064E+02  0.27352455550E+03  0.47000000000E+01 0.  1.
<mgrwt>
<rscale>  0 0.52101654E+03</rscale>
<asrwt>0</asrwt>
<pdfrwt beam="1">  1        1 0.26322304E+00 0.52101654E+03</pdfrwt>
<pdfrwt beam="2">  1       -1 0.35779532E-01 0.52101654E+03</pdfrwt>
<totfact> 0.37302587E+01</totfact>
</mgrwt>
</event>
<event>
12    1  0.3127365E-008  0.3463807E+03  0.7818608E-02  0.1064110E+00
          2   -1    0    0  501    0  0.00000000000E+00  0.00000000000E+00  0.10400175569E+04  0.10400175569E+04  0.00000000000E+00 0. -1.
         -2   -1    0    0    0  501 -0.00000000000E+00 -0.00000000000E+00 -0.37863553068E+03  0.37863553068E+03  0.00000000000E+00 0.  1.
         23    2    1    2    0    0  0.18659517906E+03 -0.27304025529E+03  0.64827912718E+03  0.73334069807E+03  0.90299561802E+02 0.  0.
    5000000    2    1    2    0    0 -0.18659517906E+03  0.27304025529E+03  0.13102899040E+02  0.68531238951E+03  0.60009386216E+03 0.  0.
         23    2    4    4    0    0 -0.75364102416E+02  0.15126121149E+03  0.29180382505E+03  0.34957715374E+03  0.92168389731E+02 0.  0.
         23    2    4    4    0    0 -0.11123107664E+03  0.12177904380E+03 -0.27870092601E+03  0.33573523577E+03  0.88551987321E+02 0.  0.
          2    1    3    3  502    0  0.13058764288E+03 -0.22464984046E+03  0.56521210697E+03  0.62208151327E+03  0.00000000000E+00 0. -1.
         -2    1    3    3    0  502  0.56007536181E+02 -0.48390414830E+02  0.83067020208E+02  0.11125918480E+03  0.00000000000E+00 0.  1.
         11    1    5    5    0    0 -0.81811269847E+02  0.12354049244E+03  0.17475118623E+03  0.22911419475E+03  0.00000000000E+00 0. -1.
        -11    1    5    5    0    0  0.64471674310E+01  0.27720719043E+02  0.11705263883E+03  0.12046295899E+03  0.00000000000E+00 0.  1.
          5    1    6    6  503    0  0.98767123291E+01  0.72084064306E+00 -0.42908432437E+02  0.44286483625E+02  0.47000000000E+01 0.  1.
         -5    1    6    6    0  503 -0.12110778897E+03  0.12105820316E+03 -0.23579249358E+03  0.29144875215E+03  0.47000000000E+01 0. -1.
<mgrwt>
<rscale>  0 0.34638074E+03</rscale>
<asrwt>0</asrwt>
<pdfrwt beam="1">  1        2 0.16000270E+00 0.34638074E+03</pdfrwt>
<pdfrwt beam="2">  1       -2 0.58251621E-01 0.34638074E+03</pdfrwt>
<totfact> 0.69725741E+01</totfact>
</mgrwt>
</event>
<event>
12    1  0.3127365E-008  0.2079035E+04  0.7818608E-02  0.8570535E-01
          2   -1    0    0  501    0  0.00000000000E+00  0.00000000000E+00  0.29824359134E+04  0.29824359134E+04  0.00000000000E+00 0. -1.
         -2   -1    0    0    0  501 -0.00000000000E+00 -0.00000000000E+00 -0.16108873172E+04  0.16108873172E+04  0.00000000000E+00 0.  1.
         23    2    1    2    0    0 -0.53495341777E+03  0.20003331000E+04  0.12792128092E+04  0.24355631285E+04  0.89859176893E+02 0.  0.
    5000000    2    1    2    0    0  0.53495341777E+03 -0.20003331000E+04  0.92335787005E+02  0.21577601021E+04  0.59991256912E+03 0.  0.
         23    2    4    4    0    0  0.46869570979E+03 -0.17737990997E+04 -0.10105417803E+03  0.18396811854E+04  0.90421250477E+02 0.  0.
         23    2    4    4    0    0  0.66257707975E+02 -0.22653400031E+03  0.19338996503E+03  0.31807891673E+03  0.89815263350E+02 0.  0.
          3    1    3    3  502    0 -0.36922450713E+03  0.15081291929E+04  0.98280696685E+03  0.18375771911E+04  0.00000000000E+00 0. -1.
         -3    1    3    3    0  502 -0.16572891064E+03  0.49220390702E+03  0.29640584237E+03  0.59798593738E+03  0.00000000000E+00 0.  1.
         11    1    5    5    0    0  0.30383188460E+03 -0.10252849826E+04 -0.90133705046E+02  0.10731482630E+04  0.00000000000E+00 0. -1.
        -11    1    5    5    0    0  0.16486382519E+03 -0.74851411706E+03 -0.10920472981E+02  0.76653292234E+03  0.00000000000E+00 0.  1.
          5    1    6    6  503    0  0.81785693221E+02 -0.14012900444E+03  0.10444417406E+03  0.19301739040E+03  0.47000000000E+01 0. -1.
         -5    1    6    6    0  503 -0.15527985246E+02 -0.86404995874E+02  0.88945790969E+02  0.12506152633E+03  0.47000000000E+01 0.  1.
<mgrwt>
<rscale>  0 0.20790347E+04</rscale>
<asrwt>0</asrwt>
<pdfrwt beam="1">  1        2 0.45883629E+00 0.20790347E+04</pdfrwt>
<pdfrwt beam="2">  1       -2 0.24782882E+00 0.20790347E+04</pdfrwt>
<totfact> 0.10433999E-01</totfact>
</mgrwt>
</event>
<event>
12    1  0.3127365E-008  0.9720289E+03  0.7818608E-02  0.9339766E-01
          2   -1    0    0  501    0  0.00000000000E+00  0.00000000000E+00  0.26148162339E+04  0.26148162339E+04  0.00000000000E+00 0. -1.
         -2   -1    0    0    0  501 -0.00000000000E+00 -0.00000000000E+00 -0.42319671129E+03  0.42319671129E+03  0.00000000000E+00 0.  1.
         23    2    1    2    0    0 -0.40043548888E+03 -0.87503453273E+03  0.93908800013E+03  0.13483150163E+04  0.10016534758E+03 0.  0.
    5000000    2    1    2    0    0  0.40043548888E+03  0.87503453273E+03  0.12525315225E+04  0.16896979289E+04  0.60017485951E+03 0.  0.
         23    2    4    4    0    0  0.29298205478E+03  0.63326079452E+03  0.43881697643E+03  0.82920210638E+03  0.90322068859E+02 0.  0.
         23    2    4    4    0    0  0.10745343410E+03  0.24177373821E+03  0.81371454603E+03  0.86049582253E+03  0.91219061535E+02 0.  0.
          2    1    3    3  502    0 -0.14823091527E+03 -0.36741968454E+03  0.45102338543E+03  0.60032634711E+03  0.00000000000E+00 0. -1.
         -2    1    3    3    0  502 -0.25220457361E+03 -0.50761484818E+03  0.48806461470E+03  0.74798866915E+03  0.00000000000E+00 0.  1.
         13    1    5    5    0    0  0.18366560357E+03  0.47349500808E+03  0.34589499505E+03  0.61447044210E+03  0.00000000000E+00 0.  1.
        -13    1    5    5    0    0  0.10931645121E+03  0.15976578644E+03  0.92921981375E+02  0.21473166428E+03  0.00000000000E+00 0. -1.
          5    1    6    6  503    0  0.12130529231E+03  0.18737288406E+03  0.66434774515E+03  0.70085917852E+03  0.47000000000E+01 0. -1.
         -5    1    6    6    0  503 -0.13851858208E+02  0.54400854148E+02  0.14936680087E+03  0.15963664401E+03  0.47000000000E+01 0.  1.
<mgrwt>
<rscale>  0 0.97202893E+03</rscale>
<asrwt>0</asrwt>
<pdfrwt beam="1">  1        2 0.40227941E+00 0.97202893E+03</pdfrwt>
<pdfrwt beam="2">  1       -2 0.65107188E-01 0.97202893E+03</pdfrwt>
<totfact> 0.66022924E+00</totfact>
</mgrwt>
</event>
<event>
12    1  0.3127365E-008  0.3379801E+03  0.7818608E-02  0.1067660E+00
         -2   -1    0    0    0  501 -0.00000000000E+00  0.00000000000E+00  0.11945728434E+03  0.11945728434E+03  0.00000000000E+00 0.  1.
          2   -1    0    0  501    0  0.00000000000E+00 -0.00000000000E+00 -0.26363435317E+04  0.26363435317E+04  0.00000000000E+00 0. -1.
         23    2    1    2    0    0  0.79176929496E+02 -0.27699964048E+03 -0.15669897978E+04  0.15958635458E+04  0.91244963566E+02 0.  0.
    5000000    2    1    2    0    0 -0.79176929496E+02  0.27699964048E+03 -0.94989644951E+03  0.11599372702E+04  0.60012783557E+03 0.  0.
         23    2    4    4    0    0 -0.40359975296E+02  0.29195487013E+03 -0.10013627931E+04  0.10478031948E+04  0.91090711243E+02 0.  0.
         23    2    4    4    0    0 -0.38816954200E+02 -0.14955229649E+02  0.51466343618E+02  0.11213407545E+03  0.90525419219E+02 0.  0.
          1    1    3    3  502    0  0.50906199889E+02 -0.57481955431E+02 -0.52861189235E+03  0.53415929190E+03  0.00000000000E+00 0. -1.
         -1    1    3    3    0  502  0.28270729607E+02 -0.21951768505E+03 -0.10383779055E+04  0.10617042539E+04  0.00000000000E+00 0.  1.
         13    1    5    5    0    0 -0.29619342394E+02  0.12168802699E+03 -0.57689183944E+03  0.59032997194E+03  0.00000000000E+00 0.  1.
        -13    1    5    5    0    0 -0.10740632902E+02  0.17026684313E+03 -0.42447095369E+03  0.45747322281E+03  0.00000000000E+00 0. -1.
          5    1    6    6  503    0 -0.51378835356E+02  0.11028802111E+02 -0.20853542464E+00  0.52759384810E+02  0.47000000000E+01 0. -1.
         -5    1    6    6    0  503  0.12561881156E+02 -0.25984031760E+02  0.51674879042E+02  0.59374690641E+02  0.47000000000E+01 0.  1.
<mgrwt>
<rscale>  0 0.33798005E+03</rscale>
<asrwt>0</asrwt>
<pdfrwt beam="1">  1        2 0.40559127E+00 0.33798005E+03</pdfrwt>
<pdfrwt beam="2">  1       -2 0.18378045E-01 0.33798005E+03</pdfrwt>
<totfact> 0.80704315E+01</totfact>
</mgrwt>
</event>
<event>
12    1  0.4853505E-008  0.1469851E+04  0.7818608E-02  0.8904753E-01
         -2   -1    0    0    0  501 -0.00000000000E+00  0.00000000000E+00  0.12010847709E+04  0.12010847709E+04  0.00000000000E+00 0.  1.
          2   -1    0    0  501    0  0.00000000000E+00 -0.00000000000E+00 -0.20173331189E+04  0.20173331189E+04  0.00000000000E+00 0. -1.
         23    2    1    2    0    0 -0.13812800661E+04 -0.31405180726E+03 -0.89488257648E+03  0.16779755955E+04  0.90686905352E+02 0.  0.
    5000000    2    1    2    0    0  0.13812800661E+04  0.31405180726E+03  0.78634228419E+02  0.15404422943E+04  0.60017994077E+03 0.  0.
         23    2    4    4    0    0  0.85211927241E+02  0.19469832485E+03 -0.28429915193E+02  0.23172535191E+03  0.87862781625E+02 0.  0.
         23    2    4    4    0    0  0.12960681389E+04  0.11935348241E+03  0.10706414361E+03  0.13087169424E+04  0.85084839496E+02 0.  0.
          3    1    3    3  502    0 -0.76133715427E+03 -0.21163449441E+03 -0.52780228836E+03  0.95026242549E+03  0.00000000000E+00 0. -1.
         -3    1    3    3    0  502 -0.61994291188E+03 -0.10241731285E+03 -0.36708028812E+03  0.72771317006E+03  0.00000000000E+00 0.  1.
         11    1    5    5    0    0 -0.67181843744E+01  0.17123020240E+02  0.18759110897E+02  0.26272344111E+02  0.00000000000E+00 0.  1.
        -11    1    5    5    0    0  0.91930111615E+02  0.17757530461E+03 -0.47189026091E+02  0.20545300780E+03  0.00000000000E+00 0. -1.
          5    1    6    6  503    0  0.69184962440E+03  0.91834996827E+02  0.88985375099E+02  0.70358372381E+03  0.47000000000E+01 0. -1.
         -5    1    6    6    0  503  0.60421851450E+03  0.27518485580E+02  0.18078768513E+02  0.60513321854E+03  0.47000000000E+01 0.  1.
<mgrwt>
<rscale>  0 0.14698508E+04</rscale>
<asrwt>0</asrwt>
<pdfrwt beam="1">  1        2 0.31035894E+00 0.14698508E+04</pdfrwt>
<pdfrwt beam="2">  1       -2 0.18478227E+00 0.14698508E+04</pdfrwt>
<totfact> 0.10363692E+00</totfact>
</mgrwt>
</event>
<event>
12    1  0.3127365E-008  0.1094415E+04  0.7818608E-02  0.9210652E-01
          2   -1    0    0  501    0  0.00000000000E+00  0.00000000000E+00  0.24009479565E+04  0.24009479565E+04  0.00000000000E+00 0. -1.
         -2   -1    0    0    0  501 -0.00000000000E+00 -0.00000000000E+00 -0.56996228692E+03  0.56996228692E+03  0.00000000000E+00 0.  1.
         23    2    1    2    0    0 -0.10341144513E+04 -0.13442295246E+03  0.45016008444E+03  0.11394949905E+04  0.91337304862E+02 0.  0.
    5000000    2    1    2    0    0  0.10341144513E+04  0.13442295246E+03  0.13808255852E+04  0.18314152530E+04  0.59995025092E+03 0.  0.
         23    2    4    4    0    0  0.10554523404E+04  0.10663784082E+03  0.13788638728E+04  0.17417902266E+04  0.84949054885E+02 0.  0.
         23    2    4    4    0    0 -0.21337889074E+02  0.27785111639E+02  0.19617123602E+01  0.89625026338E+02  0.82471080336E+02 0.  0.
          1    1    3    3  502    0 -0.37703665861E+03 -0.32384572452E+02  0.20798921204E+03  0.43181583434E+03  0.00000000000E+00 0. -1.
         -1    1    3    3    0  502 -0.65707779267E+03 -0.10203838001E+03  0.24217087241E+03  0.70767915616E+03  0.00000000000E+00 0.  1.
         11    1    5    5    0    0  0.51447517231E+03  0.12655011144E+02  0.64016488173E+03  0.82137441403E+03  0.00000000000E+00 0. -1.
        -11    1    5    5    0    0  0.54097716804E+03  0.93982829678E+02  0.73869899109E+03  0.92041581258E+03  0.00000000000E+00 0.  1.
          5    1    6    6  503    0 -0.34817393396E+02 -0.13821360453E+02 -0.17393004848E+02  0.41567866259E+02  0.47000000000E+01 0. -1.
         -5    1    6    6    0  503  0.13479504322E+02  0.41606472091E+02  0.19354717208E+02  0.48057160079E+02  0.47000000000E+01 0.  1.
<mgrwt>
<rscale>  0 0.10944154E+04</rscale>
<asrwt>0</asrwt>
<pdfrwt beam="1">  1        2 0.36937660E+00 0.10944154E+04</pdfrwt>
<pdfrwt beam="2">  1       -2 0.87686507E-01 0.10944154E+04</pdfrwt>
<totfact> 0.44372527E+00</totfact>
</mgrwt>
</event>
<event>
12    1  0.3127365E-008  0.5734172E+03  0.7818608E-02  0.9962145E-01
          1   -1    0    0  501    0  0.00000000000E+00  0.00000000000E+00  0.10700720055E+04  0.10700720055E+04  0.00000000000E+00 0. -1.
         -1   -1    0    0    0  501 -0.00000000000E+00 -0.00000000000E+00 -0.36405343526E+03  0.36405343526E+03  0.00000000000E+00 0.  1.
         23    2    1    2    0    0  0.78528656432E+02  0.46804458536E+03  0.31149484397E+03  0.57452687109E+03  0.88428524915E+02 0.  0.
    5000000    2    1    2    0    0 -0.78528656432E+02 -0.46804458536E+03  0.39452372622E+03  0.85959856963E+03  0.59835461608E+03 0.  0.
         23    2    4    4    0    0  0.10723314868E+03 -0.47118329020E+03  0.42447771322E+03  0.64989357966E+03  0.93100455050E+02 0.  0.
         23    2    4    4    0    0 -0.18576180511E+03  0.31387048381E+01 -0.29953987006E+02  0.20970498996E+03  0.92529140115E+02 0.  0.
          1    1    3    3  502    0 -0.56066769319E+01  0.73512927925E+02  0.18684077996E+02  0.76057084935E+02  0.00000000000E+00 0.  1.
         -1    1    3    3    0  502  0.84135333364E+02  0.39453165743E+03  0.29281076597E+03  0.49846978615E+03  0.00000000000E+00 0. -1.
         13    1    5    5    0    0  0.38348996519E+02 -0.14418881576E+03  0.77366880014E+02  0.16806752883E+03  0.00000000000E+00 0. -1.
        -13    1    5    5    0    0  0.68884152161E+02 -0.32699447444E+03  0.34711083321E+03  0.48182605083E+03  0.00000000000E+00 0.  1.
          5    1    6    6  503    0 -0.16234830034E+03  0.33456177628E+01 -0.58340416332E+02  0.17260897416E+03  0.47000000000E+01 0. -1.
         -5    1    6    6    0  503 -0.23413504771E+02 -0.20691292470E+00  0.28386429326E+02  0.37096015804E+02  0.47000000000E+01 0.  1.
<mgrwt>
<rscale>  0 0.57341716E+03</rscale>
<asrwt>0</asrwt>
<pdfrwt beam="1">  1        1 0.16462646E+00 0.57341716E+03</pdfrwt>
<pdfrwt beam="2">  1       -1 0.56008221E-01 0.57341716E+03</pdfrwt>
<totfact> 0.45099981E+01</totfact>
</mgrwt>
</event>
<event>
12    1  0.3127365E-008  0.6234618E+03  0.7818608E-02  0.9857891E-01
          2   -1    0    0  501    0  0.00000000000E+00  0.00000000000E+00  0.18823712029E+04  0.18823712029E+04  0.00000000000E+00 0. -1.
         -2   -1    0    0    0  501 -0.00000000000E+00 -0.00000000000E+00 -0.28891972805E+03  0.28891972805E+03  0.00000000000E+00 0.  1.
         23    2    1    2    0    0 -0.15689747690E+03  0.45145140597E+03  0.12306386571E+04  0.13233321457E+04  0.91166184855E+02 0.  0.
    5000000    2    1    2    0    0  0.15689747690E+03 -0.45145140597E+03  0.36281281767E+03  0.84795878518E+03  0.59914586745E+03 0.  0.
         23    2    4    4    0    0 -0.21062381427E+03 -0.10393450326E+03  0.99870031207E+02  0.27093283774E+03  0.90916485428E+02 0.  0.
         23    2    4    4    0    0  0.36752129118E+03 -0.34751690271E+03  0.26294278646E+03  0.57702594745E+03  0.89331617767E+02 0.  0.
          1    1    3    3  502    0 -0.76450225175E+02  0.34294365209E+03  0.90180041596E+03  0.96783210097E+03  0.00000000000E+00 0. -1.
         -1    1    3    3    0  502 -0.80447251730E+02  0.10850775388E+03  0.32883824119E+03  0.35550004477E+03  0.00000000000E+00 0.  1.
         11    1    5    5    0    0 -0.10065525386E+03 -0.80101321342E+01  0.67505204091E+02  0.12146026069E+03  0.00000000000E+00 0.  1.
        -11    1    5    5    0    0 -0.10996856041E+03 -0.95924371126E+02  0.32364827116E+02  0.14947257705E+03  0.00000000000E+00 0. -1.
          5    1    6    6  503    0  0.53589223089E+02 -0.10088962711E+03  0.61858713342E+02  0.12999658498E+03  0.47000000000E+01 0. -1.
         -5    1    6    6    0  503  0.31393206809E+03 -0.24662727561E+03  0.20108407312E+03  0.44702936247E+03  0.47000000000E+01 0.  1.
<mgrwt>
<rscale>  0 0.62346184E+03</rscale>
<asrwt>0</asrwt>
<pdfrwt beam="1">  1        2 0.28959556E+00 0.62346184E+03</pdfrwt>
<pdfrwt beam="2">  1       -2 0.44449190E-01 0.62346184E+03</pdfrwt>
<totfact> 0.39021549E+01</totfact>
</mgrwt>
</event>
<event>
12    1  0.3127365E-008  0.1018142E+04  0.7818608E-02  0.9288868E-01
          2   -1    0    0  501    0  0.00000000000E+00  0.00000000000E+00  0.50453310055E+04  0.50453310055E+04  0.00000000000E+00 0. -1.
         -2   -1    0    0    0  501 -0.00000000000E+00 -0.00000000000E+00 -0.23838282946E+03  0.23838282946E+03  0.00000000000E+00 0.  1.
         23    2    1    2    0    0 -0.20052614934E+03  0.94491965935E+03  0.29582165499E+04  0.31132632326E+04  0.90988462200E+02 0.  0.
    5000000    2    1    2    0    0  0.20052614934E+03 -0.94491965935E+03  0.18487316262E+04  0.21704506024E+04  0.59996940973E+03 0.  0.
         23    2    4    4    0    0  0.33850743367E+03 -0.70262161799E+03  0.16139469249E+04  0.17948772278E+04  0.92169224828E+02 0.  0.
         23    2    4    4    0    0 -0.13798128432E+03 -0.24229804136E+03  0.23478470136E+03  0.37557337460E+03  0.90467276107E+02 0.  0.
          3    1    3    3  502    0 -0.72221859436E+02  0.48286676284E+03  0.13814664170E+04  0.14652050262E+04  0.00000000000E+00 0. -1.
         -3    1    3    3    0  502 -0.12830428991E+03  0.46205289651E+03  0.15767501329E+04  0.16480582064E+04  0.00000000000E+00 0.  1.
         11    1    5    5    0    0  0.17963439483E+03 -0.47063253450E+03  0.10635543639E+04  0.11768225794E+04  0.00000000000E+00 0. -1.
        -11    1    5    5    0    0  0.15887303884E+03 -0.23198908349E+03  0.55039256097E+03  0.61805464847E+03  0.00000000000E+00 0.  1.
          5    1    6    6  503    0 -0.14801741887E+02 -0.70175539132E+02  0.10501628562E+03  0.12725646585E+03  0.47000000000E+01 0. -1.
         -5    1    6    6    0  503 -0.12317954244E+03 -0.17212250222E+03  0.12976841574E+03  0.24831690875E+03  0.47000000000E+01 0.  1.
<mgrwt>
<rscale>  0 0.10181415E+04</rscale>
<asrwt>0</asrwt>
<pdfrwt beam="1">  1        2 0.77620469E+00 0.10181415E+04</pdfrwt>
<pdfrwt beam="2">  1       -2 0.36674285E-01 0.10181415E+04</pdfrwt>
<totfact> 0.23199368E-01</totfact>
</mgrwt>
</event>
<event>
12    1  0.3127365E-008  0.1238391E+04  0.7818608E-02  0.9079901E-01
          1   -1    0    0  501    0  0.00000000000E+00  0.00000000000E+00  0.29368371542E+04  0.29368371542E+04  0.00000000000E+00 0. -1.
         -1   -1    0    0    0  501 -0.00000000000E+00 -0.00000000000E+00 -0.70527824001E+03  0.70527824001E+03  0.00000000000E+00 0.  1.
         23    2    1    2    0    0 -0.11259611105E+04 -0.34613694219E+03  0.19663521573E+04  0.22937428209E+04  0.84357077463E+02 0.  0.
    5000000    2    1    2    0    0  0.11259611105E+04  0.34613694219E+03  0.26520675687E+03  0.13483725734E+04  0.60014562205E+03 0.  0.
         23    2    4    4    0    0  0.96895394130E+03  0.48848651742E+03  0.24712608664E+03  0.11167421134E+04  0.92470682274E+02 0.  0.
         23    2    4    4    0    0  0.15700716917E+03 -0.14234957522E+03  0.18080670238E+02  0.23163045997E+03  0.91712085421E+02 0.  0.
          3    1    3    3  502    0 -0.52843257537E+03 -0.18743786082E+03  0.10027445831E+04  0.11488562300E+04  0.00000000000E+00 0. -1.
         -3    1    3    3    0  502 -0.59752853510E+03 -0.15869908138E+03  0.96360757427E+03  0.11448865908E+04  0.00000000000E+00 0.  1.
         13    1    5    5    0    0  0.29205073044E+03  0.16285999643E+03  0.35034127257E+02  0.33622075733E+03  0.00000000000E+00 0. -1.
        -13    1    5    5    0    0  0.67690321087E+03  0.32562652099E+03  0.21209195938E+03  0.78052135607E+03  0.00000000000E+00 0.  1.
          5    1    6    6  503    0  0.65064458302E+02 -0.53624272303E+02 -0.37271534478E+02  0.92304948928E+02  0.47000000000E+01 0. -1.
         -5    1    6    6    0  503  0.91942710869E+02 -0.88725302920E+02  0.55352204716E+02  0.13932551104E+03  0.47000000000E+01 0.  1.
<mgrwt>
<rscale>  0 0.12383909E+04</rscale>
<asrwt>0</asrwt>
<pdfrwt beam="1">  1        1 0.45182110E+00 0.12383909E+04</pdfrwt>
<pdfrwt beam="2">  1       -1 0.10850435E+00 0.12383909E+04</pdfrwt>
<totfact> 0.51808809E-01</totfact>
</mgrwt>
</event>
<event>
12    1  0.3127365E-008  0.7080101E+03  0.7818608E-02  0.9703631E-01
         -2   -1    0    0    0  501 -0.00000000000E+00  0.00000000000E+00  0.15128565917E+04  0.15128565917E+04  0.00000000000E+00 0.  1.
          2   -1    0    0  501    0  0.00000000000E+00 -0.00000000000E+00 -0.39397512747E+03  0.39397512747E+03  0.00000000000E+00 0. -1.
         23    2    1    2    0    0 -0.49447062923E+03  0.40326209847E+03  0.64068695146E+03  0.90895973999E+03  0.92771309812E+02 0.  0.
    5000000    2    1    2    0    0  0.49447062923E+03 -0.40326209847E+03  0.47819451275E+03  0.99787197915E+03  0.59996414185E+03 0.  0.
         23    2    4    4    0    0  0.44813196783E+03 -0.49161584887E+03  0.52771707732E+03  0.85402061772E+03  0.91419354371E+02 0.  0.
         23    2    4    4    0    0  0.46338661400E+02  0.88353750393E+02 -0.49522564576E+02  0.14385136142E+03  0.91033362192E+02 0.  0.
          4    1    3    3  502    0 -0.18480634514E+03  0.12092205111E+03  0.27562176809E+03  0.35318959030E+03  0.00000000000E+00 0. -1.
         -4    1    3    3    0  502 -0.30966428409E+03  0.28234004736E+03  0.36506518336E+03  0.55577014969E+03  0.00000000000E+00 0.  1.
         11    1    5    5    0    0  0.21674637636E+03 -0.18964962608E+03  0.18752130406E+03  0.34367166281E+03  0.00000000000E+00 0. -1.
        -11    1    5    5    0    0  0.23138559147E+03 -0.30196622278E+03  0.34019577326E+03  0.51034895492E+03  0.00000000000E+00 0.  1.
          5    1    6    6  503    0  0.47391574694E+02  0.50081069461E+02  0.13062478297E+02  0.70333443039E+02  0.47000000000E+01 0. -1.
         -5    1    6    6    0  503 -0.10529132943E+01  0.38272680932E+02 -0.62585042872E+02  0.73517918383E+02  0.47000000000E+01 0.  1.
<mgrwt>
<rscale>  0 0.70801008E+03</rscale>
<asrwt>0</asrwt>
<pdfrwt beam="1">  1        2 0.60611559E-01 0.70801008E+03</pdfrwt>
<pdfrwt beam="2">  1       -2 0.23274717E+00 0.70801008E+03</pdfrwt>
<totfact> 0.68452955E+00</totfact>
</mgrwt>
</event>
<event>
12    1  0.3127365E-008  0.5228332E+03  0.7818608E-02  0.1007985E+00
          2   -1    0    0  501    0  0.00000000000E+00  0.00000000000E+00  0.96072919958E+03  0.96072919958E+03  0.00000000000E+00 0. -1.
         -2   -1    0    0    0  501 -0.00000000000E+00 -0.00000000000E+00 -0.31415080037E+03  0.31415080037E+03  0.00000000000E+00 0.  1.
         23    2    1    2    0    0 -0.35271279908E+03 -0.11642044060E+03  0.14588404703E+03  0.40949302090E+03  0.91882214617E+02 0.  0.
    5000000    2    1    2    0    0  0.35271279908E+03  0.11642044060E+03  0.50069435218E+03  0.86538697905E+03  0.60019975973E+03 0.  0.
         23    2    4    4    0    0 -0.12353626193E+03  0.11866424642E+03  0.25996078369E+03  0.32419048644E+03  0.90429259928E+02 0.  0.
         23    2    4    4    0    0  0.47624906102E+03 -0.22438058132E+01  0.24073356849E+03  0.54119649261E+03  0.90126521260E+02 0.  0.
          1    1    3    3  502    0 -0.11161933246E+02 -0.26151488911E+02  0.18634658650E+02  0.33996170800E+02  0.00000000000E+00 0. -1.
         -1    1    3    3    0  502 -0.34155086584E+03 -0.90268951693E+02  0.12724938838E+03  0.37549685010E+03  0.00000000000E+00 0.  1.
         11    1    5    5    0    0 -0.48952779993E+02  0.88690179534E+02  0.87274629235E+02  0.13371306414E+03  0.00000000000E+00 0. -1.
        -11    1    5    5    0    0 -0.74583481942E+02  0.29974066884E+02  0.17268615445E+03  0.19047742230E+03  0.00000000000E+00 0.  1.
          5    1    6    6  503    0  0.27117804148E+03  0.36040915392E+02  0.16326841468E+03  0.31861441115E+03  0.47000000000E+01 0. -1.
         -5    1    6    6    0  503  0.20507101954E+03 -0.38284721205E+02  0.77465153814E+02  0.22258208146E+03  0.47000000000E+01 0.  1.
<mgrwt>
<rscale>  0 0.52283322E+03</rscale>
<asrwt>0</asrwt>
<pdfrwt beam="1">  1        2 0.14780449E+00 0.52283322E+03</pdfrwt>
<pdfrwt beam="2">  1       -2 0.48330893E-01 0.52283322E+03</pdfrwt>
<totfact> 0.11180944E+02</totfact>
</mgrwt>
</event>
<event>
12    1  0.3127365E-008  0.4105251E+03  0.7818608E-02  0.1040195E+00
          2   -1    0    0  501    0  0.00000000000E+00  0.00000000000E+00  0.12690996703E+04  0.12690996703E+04  0.00000000000E+00 0.  1.
         -2   -1    0    0    0  501 -0.00000000000E+00 -0.00000000000E+00 -0.23902260001E+03  0.23902260001E+03  0.00000000000E+00 0. -1.
         23    2    1    2    0    0  0.27263731284E+03 -0.22334355830E+03  0.56367094456E+03  0.67076555895E+03  0.89375902486E+02 0.  0.
    5000000    2    1    2    0    0 -0.27263731284E+03  0.22334355830E+03  0.46640612576E+03  0.83735671139E+03  0.59951491940E+03 0.  0.
         23    2    4    4    0    0 -0.55395777877E+02  0.22097914176E+03 -0.69077240404E+02  0.25236757931E+03  0.83769067348E+02 0.  0.
         23    2    4    4    0    0 -0.21724153496E+03  0.23644165372E+01  0.53548336616E+03  0.58498913208E+03  0.90941597958E+02 0.  0.
          1    1    3    3  502    0  0.96181899300E+02 -0.13130375625E+03  0.28718077258E+03  0.33009760723E+03  0.00000000000E+00 0. -1.
         -1    1    3    3    0  502  0.17645541353E+03 -0.92039802053E+02  0.27649017198E+03  0.34066795172E+03  0.00000000000E+00 0.  1.
         13    1    5    5    0    0 -0.33104196644E+02  0.18272090484E+02 -0.19292808218E+02  0.42449612189E+02  0.00000000000E+00 0.  1.
        -13    1    5    5    0    0 -0.22291581233E+02  0.20270705128E+03 -0.49784432186E+02  0.20991796712E+03  0.00000000000E+00 0. -1.
          5    1    6    6  503    0 -0.88575069878E+02  0.35696805647E+01  0.11526317815E+03  0.14548531150E+03  0.47000000000E+01 0. -1.
         -5    1    6    6    0  503 -0.12866646508E+03 -0.12052640276E+01  0.42022018801E+03  0.43950382058E+03  0.47000000000E+01 0.  1.
<mgrwt>
<rscale>  0 0.41052514E+03</rscale>
<asrwt>0</asrwt>
<pdfrwt beam="1">  1        2 0.19524610E+00 0.41052514E+03</pdfrwt>
<pdfrwt beam="2">  1       -2 0.36772708E-01 0.41052514E+03</pdfrwt>
<totfact> 0.12621081E+02</totfact>
</mgrwt>
</event>
<event>
12    1  0.3127365E-008  0.6752467E+03  0.7818608E-02  0.9760526E-01
          1   -1    0    0  501    0  0.00000000000E+00  0.00000000000E+00  0.16782310768E+04  0.16782310768E+04  0.00000000000E+00 0. -1.
         -1   -1    0    0    0  501 -0.00000000000E+00 -0.00000000000E+00 -0.48550370945E+03  0.48550370945E+03  0.00000000000E+00 0.  1.
         23    2    1    2    0    0  0.85165483781E+02 -0.65627377172E+03 -0.76524450450E+01  0.66744922181E+03  0.86495553132E+02 0.  0.
    5000000    2    1    2    0    0 -0.85165483781E+02  0.65627377172E+03  0.12003798124E+04  0.14962855644E+04  0.60000864434E+03 0.  0.
         23    2    4    4    0    0  0.45432822718E+02  0.30276785486E+03  0.10755705943E+03  0.33688397164E+03  0.90497370107E+02 0.  0.
         23    2    4    4    0    0 -0.13059830650E+03  0.35350591686E+03  0.10928227530E+04  0.11594015928E+04  0.89040064546E+02 0.  0.
          3    1    3    3  502    0  0.25007134877E+02 -0.46020122201E+03 -0.25466510467E+02  0.46158321534E+03  0.00000000000E+00 0. -1.
         -3    1    3    3    0  502  0.60158348904E+02 -0.19607254971E+03  0.17814065422E+02  0.20586600647E+03  0.00000000000E+00 0.  1.
         11    1    5    5    0    0 -0.15927158125E+01  0.24929289985E+02  0.39917795982E+02  0.47089666370E+02  0.00000000000E+00 0. -1.
        -11    1    5    5    0    0  0.47025538531E+02  0.27783856488E+03  0.67639263453E+02  0.28979430527E+03  0.00000000000E+00 0.  1.
          5    1    6    6  503    0 -0.53009217761E+01  0.11780028764E+02  0.11866612989E+03  0.11945965525E+03  0.47000000000E+01 0. -1.
         -5    1    6    6    0  503 -0.12529738472E+03  0.34172588809E+03  0.97415662308E+03  0.10399419376E+04  0.47000000000E+01 0.  1.
<mgrwt>
<rscale>  0 0.67524666E+03</rscale>
<asrwt>0</asrwt>
<pdfrwt beam="1">  1        1 0.25818939E+00 0.67524666E+03</pdfrwt>
<pdfrwt beam="2">  1       -1 0.74692879E-01 0.67524666E+03</pdfrwt>
<totfact> 0.93762608E+00</totfact>
</mgrwt>
</event>
<event>
12    1  0.3127365E-008  0.6576563E+03  0.7818608E-02  0.9792518E-01
         -3   -1    0    0    0  501 -0.00000000000E+00  0.00000000000E+00  0.14634689552E+04  0.14634689552E+04  0.00000000000E+00 0.  1.
          3   -1    0    0  501    0  0.00000000000E+00 -0.00000000000E+00 -0.66878040075E+03  0.66878040075E+03  0.00000000000E+00 0. -1.
         23    2    1    2    0    0  0.44145732081E+03 -0.46555781773E+03  0.10357852159E+04  0.12217961661E+04  0.91138413101E+02 0.  0.
    5000000    2    1    2    0    0 -0.44145732081E+03  0.46555781773E+03 -0.24109666147E+03  0.91045318980E+03  0.59930690209E+03 0.  0.
         23    2    4    4    0    0 -0.23592316434E+03  0.12970298759E+03  0.17070031340E+03  0.33270026568E+03  0.95227439964E+02 0.  0.
         23    2    4    4    0    0 -0.20553415646E+03  0.33585483014E+03 -0.41179697488E+03  0.57775292412E+03  0.95806765986E+02 0.  0.
          4    1    3    3  502    0  0.37904411787E+03 -0.41366344669E+03  0.95275244904E+03  0.11056803876E+04  0.00000000000E+00 0. -1.
         -4    1    3    3    0  502  0.62413202936E+02 -0.51894371038E+02  0.83032766888E+02  0.11611577853E+03  0.00000000000E+00 0.  1.
         13    1    5    5    0    0 -0.13540704588E+03  0.66809931799E+02  0.39938496368E+02  0.15618488581E+03  0.00000000000E+00 0. -1.
        -13    1    5    5    0    0 -0.10051611846E+03  0.62893055794E+02  0.13076181703E+03  0.17651537987E+03  0.00000000000E+00 0.  1.
          5    1    6    6  503    0 -0.15090948185E+03  0.16302727480E+03 -0.20009068769E+03  0.29901494501E+03  0.47000000000E+01 0. -1.
         -5    1    6    6    0  503 -0.54624674612E+02  0.17282755534E+03 -0.21170628719E+03  0.27873797910E+03  0.47000000000E+01 0.  1.
<mgrwt>
<rscale>  0 0.65765630E+03</rscale>
<asrwt>0</asrwt>
<pdfrwt beam="1">  1        3 0.10288929E+00 0.65765630E+03</pdfrwt>
<pdfrwt beam="2">  1       -3 0.22514907E+00 0.65765630E+03</pdfrwt>
<totfact> 0.22032943E-01</totfact>
</mgrwt>
</event>
<event>
12    1  0.3127365E-008  0.5809501E+03  0.7818608E-02  0.9945736E-01
         -1   -1    0    0    0  501 -0.00000000000E+00  0.00000000000E+00  0.63637419868E+03  0.63637419868E+03  0.00000000000E+00 0.  1.
          1   -1    0    0  501    0  0.00000000000E+00 -0.00000000000E+00 -0.55037855451E+03  0.55037855451E+03  0.00000000000E+00 0. -1.
         23    2    1    2    0    0 -0.26870984998E+03  0.34043776566E+03  0.38504981081E+02  0.44477033728E+03  0.90747802157E+02 0.  0.
    5000000    2    1    2    0    0  0.26870984998E+03 -0.34043776566E+03  0.47490663091E+02  0.74198241591E+03  0.60014972022E+03 0.  0.
         23    2    4    4    0    0 -0.15708175782E+03 -0.21096442817E+03  0.70251628980E+02  0.28709859469E+03  0.91157243841E+02 0.  0.
         23    2    4    4    0    0  0.42579160779E+03 -0.12947333749E+03 -0.22760965889E+02  0.45488382122E+03  0.91320265310E+02 0.  0.
          1    1    3    3  502    0 -0.11728546871E+03  0.21988480389E+03  0.30301697559E+02  0.25104461959E+03  0.00000000000E+00 0. -1.
         -1    1    3    3    0  502 -0.15142438127E+03  0.12055296177E+03  0.82032835211E+01  0.19372571769E+03  0.00000000000E+00 0.  1.
         11    1    5    5    0    0 -0.86005061104E+02 -0.14308315753E+03  0.85623906330E+02  0.18761959876E+03  0.00000000000E+00 0.  1.
        -11    1    5    5    0    0 -0.71076696711E+02 -0.67881270642E+02 -0.15372277351E+02  0.99478995925E+02  0.00000000000E+00 0. -1.
          5    1    6    6  503    0  0.12255251941E+03 -0.80517524057E+02 -0.16302343232E+02  0.14761452533E+03  0.47000000000E+01 0. -1.
         -5    1    6    6    0  503  0.30323908838E+03 -0.48955813430E+02 -0.64586226571E+01  0.30726929589E+03  0.47000000000E+01 0.  1.
<mgrwt>
<rscale>  0 0.58095014E+03</rscale>
<asrwt>0</asrwt>
<pdfrwt beam="1">  1        1 0.84673624E-01 0.58095014E+03</pdfrwt>
<pdfrwt beam="2">  1       -1 0.97903723E-01 0.58095014E+03</pdfrwt>
<totfact> 0.40345471E+01</totfact>
</mgrwt>
</event>
<event>
12    1  0.3127365E-008  0.1748099E+04  0.7818608E-02  0.8734398E-01
         -2   -1    0    0    0  501 -0.00000000000E+00  0.00000000000E+00  0.11069458093E+04  0.11069458093E+04  0.00000000000E+00 0.  1.
          2   -1    0    0  501    0  0.00000000000E+00 -0.00000000000E+00 -0.29458086135E+04  0.29458086135E+04  0.00000000000E+00 0. -1.
         23    2    1    2    0    0  0.16920728327E+03 -0.17382399872E+04 -0.70387064264E+03  0.18851731436E+04  0.91293713997E+02 0.  0.
    5000000    2    1    2    0    0 -0.16920728327E+03  0.17382399872E+04 -0.11349921615E+04  0.21675812792E+04  0.60007669308E+03 0.  0.
         23    2    4    4    0    0 -0.15561449227E+03  0.12085722072E+04 -0.10726691586E+04  0.16259481333E+04  0.90694863463E+02 0.  0.
         23    2    4    4    0    0 -0.13592790994E+02  0.52966777998E+03 -0.62323002925E+02  0.54163314589E+03  0.93539226629E+02 0.  0.
          1    1    3    3  502    0  0.15663233368E+03 -0.13801089528E+04 -0.59090033272E+03  0.15094361903E+04  0.00000000000E+00 0. -1.
         -1    1    3    3    0  502  0.12574949593E+02 -0.35813103441E+03 -0.11297030992E+03  0.37573695332E+03  0.00000000000E+00 0.  1.
         13    1    5    5    0    0 -0.86196788956E+02  0.55119214158E+03 -0.43450394335E+03  0.70713247709E+03  0.00000000000E+00 0. -1.
        -13    1    5    5    0    0 -0.69417703317E+02  0.65738006561E+03 -0.63816521524E+03  0.91881565623E+03  0.00000000000E+00 0.  1.
          5    1    6    6  503    0 -0.58416616130E+01  0.16518946044E+03  0.23651463375E+02  0.16704240352E+03  0.47000000000E+01 0. -1.
         -5    1    6    6    0  503 -0.77511293815E+01  0.36447831954E+03 -0.85974466300E+02  0.37459074238E+03  0.47000000000E+01 0.  1.
<mgrwt>
<rscale>  0 0.17480987E+04</rscale>
<asrwt>0</asrwt>
<pdfrwt beam="1">  1        2 0.45320132E+00 0.17480987E+04</pdfrwt>
<pdfrwt beam="2">  1       -2 0.17029936E+00 0.17480987E+04</pdfrwt>
<totfact> 0.36725378E-01</totfact>
</mgrwt>
</event>
<event>
12    1  0.3127365E-008  0.9640646E+03  0.7818608E-02  0.9348861E-01
         -2   -1    0    0    0  501 -0.00000000000E+00  0.00000000000E+00  0.37361082640E+03  0.37361082640E+03  0.00000000000E+00 0.  1.
          2   -1    0    0  501    0  0.00000000000E+00 -0.00000000000E+00 -0.27928595161E+04  0.27928595161E+04  0.00000000000E+00 0. -1.
         23    2    1    2    0    0  0.24769305375E+02  0.88244451890E+03 -0.15650781996E+04  0.17991888492E+04  0.91043379048E+02 0.  0.
    5000000    2    1    2    0    0 -0.24769305375E+02 -0.88244451890E+03 -0.85417049006E+03  0.13672814932E+04  0.60044117799E+03 0.  0.
         23    2    4    4    0    0 -0.19930086837E+03 -0.10568723180E+03 -0.90964971496E+02  0.26065150909E+03  0.93669397641E+02 0.  0.
         23    2    4    4    0    0  0.17453156299E+03 -0.77675728710E+03 -0.76320551856E+03  0.11066299841E+04  0.91291339672E+02 0.  0.
          3    1    3    3  502    0  0.39594464608E+02  0.29524049051E+03 -0.58773016128E+03  0.65890925881E+03  0.00000000000E+00 0. -1.
         -3    1    3    3    0  502 -0.14825159233E+02  0.58720402839E+03 -0.97734803834E+03  0.11402795904E+04  0.00000000000E+00 0.  1.
         11    1    5    5    0    0 -0.18294488248E+03 -0.12157274091E+03 -0.72499292345E+02  0.23131128107E+03  0.00000000000E+00 0. -1.
        -11    1    5    5    0    0 -0.16355985888E+02  0.15885509110E+02 -0.18465679152E+02  0.29340228025E+02  0.00000000000E+00 0.  1.
          5    1    6    6  503    0  0.18609446502E+01 -0.15527262780E+03 -0.12744252587E+03  0.20093964133E+03  0.47000000000E+01 0. -1.
         -5    1    6    6    0  503  0.17267061834E+03 -0.62148465930E+03 -0.63576299269E+03  0.90569034281E+03  0.47000000000E+01 0.  1.
<mgrwt>
<rscale>  0 0.96406463E+03</rscale>
<asrwt>0</asrwt>
<pdfrwt beam="1">  1        2 0.42967069E+00 0.96406463E+03</pdfrwt>
<pdfrwt beam="2">  1       -2 0.57478589E-01 0.96406463E+03</pdfrwt>
<totfact> 0.67742326E+00</totfact>
</mgrwt>
</event>
<event>
12    1  0.3127365E-008  0.7892960E+03  0.7818608E-02  0.9575641E-01
         -2   -1    0    0    0  501 -0.00000000000E+00  0.00000000000E+00  0.26833437085E+03  0.26833437085E+03  0.00000000000E+00 0.  1.
          2   -1    0    0  501    0  0.00000000000E+00 -0.00000000000E+00 -0.23556280471E+04  0.23556280471E+04  0.00000000000E+00 0. -1.
         23    2    1    2    0    0 -0.73048660339E+02 -0.67389575813E+03 -0.87393138293E+03  0.11101299191E+04  0.95711940546E+02 0.  0.
    5000000    2    1    2    0    0  0.73048660339E+02  0.67389575813E+03 -0.12133622933E+04  0.15138324989E+04  0.59997431629E+03 0.  0.
         23    2    4    4    0    0  0.29663605005E+03  0.19232196733E+03 -0.53632969511E+03  0.64870070682E+03  0.90456508167E+02 0.  0.
         23    2    4    4    0    0 -0.22358738971E+03  0.48157379080E+03 -0.67703259822E+03  0.86513179206E+03  0.90417043560E+02 0.  0.
          1    1    3    3  502    0  0.11723938659E+02 -0.33456059249E+03 -0.42158491820E+03  0.53833268900E+03  0.00000000000E+00 0. -1.
         -1    1    3    3    0  502 -0.84772598998E+02 -0.33933516563E+03 -0.45234646472E+03  0.57179723008E+03  0.00000000000E+00 0.  1.
         11    1    5    5    0    0  0.26377314119E+03  0.19752900649E+03 -0.50493969540E+03  0.60295777166E+03  0.00000000000E+00 0. -1.
        -11    1    5    5    0    0  0.32862908854E+02 -0.52070391573E+01 -0.31389999708E+02  0.45742935157E+02  0.00000000000E+00 0.  1.
          5    1    6    6  503    0 -0.13800962587E+03  0.27935307945E+03 -0.46565674376E+03  0.56030624915E+03  0.47000000000E+01 0. -1.
         -5    1    6    6    0  503 -0.85577763837E+02  0.20222071135E+03 -0.21137585446E+03  0.30482554291E+03  0.47000000000E+01 0.  1.
<mgrwt>
<rscale>  0 0.78929596E+03</rscale>
<asrwt>0</asrwt>
<pdfrwt beam="1">  1        2 0.36240433E+00 0.78929596E+03</pdfrwt>
<pdfrwt beam="2">  1       -2 0.41282209E-01 0.78929596E+03</pdfrwt>
<totfact> 0.24260175E+01</totfact>
</mgrwt>
</event>
<event>
12    1  0.3127365E-008  0.1806282E+04  0.7818608E-02  0.8702966E-01
          2   -1    0    0  501    0  0.00000000000E+00  0.00000000000E+00  0.20781085789E+04  0.20781085789E+04  0.00000000000E+00 0.  1.
         -2   -1    0    0    0  501 -0.00000000000E+00 -0.00000000000E+00 -0.19092732476E+04  0.19092732476E+04  0.00000000000E+00 0. -1.
         23    2    1    2    0    0  0.14544690901E+04  0.99182242063E+03  0.91166769011E+03  0.19845906304E+04  0.90939237680E+02 0.  0.
    5000000    2    1    2    0    0 -0.14544690901E+04 -0.99182242063E+03 -0.74283235877E+03  0.20027911961E+04  0.60015049237E+03 0.  0.
         23    2    4    4    0    0 -0.49454391667E+03 -0.38999866552E+02 -0.20248124170E+03  0.54365820017E+03  0.92037548115E+02 0.  0.
         23    2    4    4    0    0 -0.95992517347E+03 -0.95282255408E+03 -0.54035111708E+03  0.14591329959E+04  0.88105684966E+02 0.  0.
          2    1    3    3  502    0  0.13932820676E+04  0.94552784293E+03  0.89146970776E+03  0.19052496061E+04  0.00000000000E+00 0. -1.
         -2    1    3    3    0  502  0.61187022569E+02  0.46294577700E+02  0.20197982353E+02  0.79341024359E+02  0.00000000000E+00 0.  1.
         11    1    5    5    0    0 -0.24795006876E+03 -0.33938575406E+02 -0.54839518007E+02  0.25619999265E+03  0.00000000000E+00 0.  1.
        -11    1    5    5    0    0 -0.24659384792E+03 -0.50612911465E+01 -0.14764172369E+03  0.28745820752E+03  0.00000000000E+00 0. -1.
          5    1    6    6  503    0 -0.36934680408E+03 -0.42425606894E+03 -0.20953473397E+03  0.60028090796E+03  0.47000000000E+01 0. -1.
         -5    1    6    6    0  503 -0.59057836938E+03 -0.52856648514E+03 -0.33081638311E+03  0.85885208792E+03  0.47000000000E+01 0.  1.
<mgrwt>
<rscale>  0 0.18062816E+04</rscale>
<asrwt>0</asrwt>
<pdfrwt beam="1">  1        2 0.31970901E+00 0.18062816E+04</pdfrwt>
<pdfrwt beam="2">  1       -2 0.29373435E+00 0.18062816E+04</pdfrwt>
<totfact> 0.19026269E-01</totfact>
</mgrwt>
</event>
<event>
12    1  0.3127365E-008  0.6825475E+03  0.7818608E-02  0.9747553E-01
         -2   -1    0    0    0  501 -0.00000000000E+00  0.00000000000E+00  0.12738051736E+03  0.12738051736E+03  0.00000000000E+00 0.  1.
          2   -1    0    0  501    0  0.00000000000E+00 -0.00000000000E+00 -0.39991984175E+04  0.39991984175E+04  0.00000000000E+00 0. -1.
         23    2    1    2    0    0  0.56266734692E+03  0.53768517297E+02 -0.11699450282E+04  0.13017703824E+04  0.79681633647E+02 0.  0.
    5000000    2    1    2    0    0 -0.56266734692E+03 -0.53768517297E+02 -0.27018728719E+04  0.28248085525E+04  0.59995061895E+03 0.  0.
         23    2    4    4    0    0 -0.61275578108E+03  0.86124379435E+02 -0.17862277019E+04  0.18925306062E+04  0.90419225096E+02 0.  0.
         23    2    4    4    0    0  0.50088434165E+02 -0.13989289673E+03 -0.91564516999E+03  0.93227794624E+03  0.93044171930E+02 0.  0.
          1    1    3    3  502    0  0.31986629625E+03  0.64140546487E+02 -0.62239143832E+03  0.70270873032E+03  0.00000000000E+00 0. -1.
         -1    1    3    3    0  502  0.24280105067E+03 -0.10372029190E+02 -0.54755358992E+03  0.59906165211E+03  0.00000000000E+00 0.  1.
         13    1    5    5    0    0 -0.46020622118E+01  0.54260880615E+01 -0.52218561717E+01  0.88254852632E+01  0.00000000000E+00 0. -1.
        -13    1    5    5    0    0 -0.60815371887E+03  0.80698291374E+02 -0.17810058458E+04  0.18837051210E+04  0.00000000000E+00 0.  1.
          5    1    6    6  503    0  0.72521314068E+02 -0.67063361091E+02 -0.50288659836E+03  0.51251717650E+03  0.47000000000E+01 0. -1.
         -5    1    6    6    0  503 -0.22432879903E+02 -0.72829535641E+02 -0.41275857163E+03  0.41976076975E+03  0.47000000000E+01 0.  1.
<mgrwt>
<rscale>  0 0.68254747E+03</rscale>
<asrwt>0</asrwt>
<pdfrwt beam="1">  1        2 0.61526120E+00 0.68254747E+03</pdfrwt>
<pdfrwt beam="2">  1       -2 0.19597006E-01 0.68254747E+03</pdfrwt>
<totfact> 0.84747263E+00</totfact>
</mgrwt>
</event>
<event>
12    1  0.3127365E-008  0.5307922E+03  0.7818608E-02  0.1006040E+00
          2   -1    0    0  501    0  0.00000000000E+00  0.00000000000E+00  0.55571071477E+03  0.55571071477E+03  0.00000000000E+00 0. -1.
         -2   -1    0    0    0  501 -0.00000000000E+00 -0.00000000000E+00 -0.18285263825E+04  0.18285263825E+04  0.00000000000E+00 0.  1.
         23    2    1    2    0    0 -0.36540640771E+03 -0.31656561770E+03 -0.15018347123E+04  0.15803774358E+04  0.91376711833E+02 0.  0.
    5000000    2    1    2    0    0  0.36540640771E+03  0.31656561770E+03  0.22901904461E+03  0.80385966143E+03  0.60000416612E+03 0.  0.
         23    2    4    4    0    0  0.28154264289E+03  0.34166436705E+03 -0.88488380302E+02  0.46110224349E+03  0.93724522034E+02 0.  0.
         23    2    4    4    0    0  0.83863764824E+02 -0.25098749344E+02  0.31750742491E+03  0.34275741793E+03  0.94913668174E+02 0.  0.
          2    1    3    3  502    0 -0.31862195096E+03 -0.23919021724E+03 -0.11478641534E+04  0.12150407492E+04  0.00000000000E+00 0. -1.
         -2    1    3    3    0  502 -0.46784456749E+02 -0.77375400461E+02 -0.35397055891E+03  0.36533668658E+03  0.00000000000E+00 0.  1.
         11    1    5    5    0    0  0.78678026498E+02  0.11876940981E+03  0.13063032222E+02  0.14306308878E+03  0.00000000000E+00 0.  1.
        -11    1    5    5    0    0  0.20286461639E+03  0.22289495724E+03 -0.10155141252E+03  0.31803915472E+03  0.00000000000E+00 0. -1.
          5    1    6    6  503    0 -0.19593712167E+02 -0.14432165688E+02  0.69312329265E+02  0.73610392955E+02  0.47000000000E+01 0. -1.
         -5    1    6    6    0  503  0.10345747699E+03 -0.10666583656E+02  0.24819509564E+03  0.26914702498E+03  0.47000000000E+01 0.  1.
<mgrwt>
<rscale>  0 0.53079218E+03</rscale>
<asrwt>0</asrwt>
<pdfrwt beam="1">  1        2 0.85493955E-01 0.53079218E+03</pdfrwt>
<pdfrwt beam="2">  1       -2 0.28131176E+00 0.53079218E+03</pdfrwt>
<totfact> 0.24270010E+00</totfact>
</mgrwt>
</event>
<event>
12    1  0.3323010E-008  0.1236069E+04  0.7818608E-02  0.9081859E-01
          2   -1    0    0  501    0  0.00000000000E+00  0.00000000000E+00  0.14059367763E+04  0.14059367763E+04  0.00000000000E+00 0. -1.
         -2   -1    0    0    0  501 -0.00000000000E+00 -0.00000000000E+00 -0.12179483013E+04  0.12179483013E+04  0.00000000000E+00 0.  1.
         23    2    1    2    0    0 -0.44283229339E+03 -0.10996529342E+04 -0.26888481917E+03  0.12188455547E+04  0.89153936451E+02 0.  0.
    5000000    2    1    2    0    0  0.44283229339E+03  0.10996529342E+04  0.45687329415E+03  0.14050395229E+04  0.60005486252E+03 0.  0.
         23    2    4    4    0    0  0.25756833407E+03  0.10649556705E+04  0.29040022707E+03  0.11371304597E+04  0.90892044207E+02 0.  0.
         23    2    4    4    0    0  0.18526395933E+03  0.34697263742E+02  0.16647306709E+03  0.26790906314E+03  0.92386954226E+02 0.  0.
          4    1    3    3  502    0 -0.29723442274E+03 -0.77696383532E+03 -0.22745930959E+03  0.86241454126E+03  0.00000000000E+00 0. -1.
         -4    1    3    3    0  502 -0.14559787065E+03 -0.32268909891E+03 -0.41425509580E+02  0.35643101343E+03  0.00000000000E+00 0.  1.
         11    1    5    5    0    0  0.76346368598E+02  0.30002720023E+03  0.40292066450E+02  0.31219951873E+03  0.00000000000E+00 0. -1.
        -11    1    5    5    0    0  0.18122196547E+03  0.76492847026E+03  0.25010816062E+03  0.82493094098E+03  0.00000000000E+00 0.  1.
          5    1    6    6  503    0  0.97432307071E+02  0.48386519813E+01  0.28785884514E+02  0.10181937027E+03  0.47000000000E+01 0. -1.
         -5    1    6    6    0  503  0.87831652255E+02  0.29858611761E+02  0.13768718257E+03  0.16608969287E+03  0.47000000000E+01 0.  1.
<mgrwt>
<rscale>  0 0.12360686E+04</rscale>
<asrwt>0</asrwt>
<pdfrwt beam="1">  1        2 0.21629797E+00 0.12360686E+04</pdfrwt>
<pdfrwt beam="2">  1       -2 0.18737666E+00 0.12360686E+04</pdfrwt>
<totfact> 0.22410662E+00</totfact>
</mgrwt>
</event>
<event>
12    1  0.3127365E-008  0.7500295E+03  0.7818608E-02  0.9635304E-01
         -2   -1    0    0    0  501 -0.00000000000E+00  0.00000000000E+00  0.46521327538E+03  0.46521327538E+03  0.00000000000E+00 0.  1.
          2   -1    0    0  501    0  0.00000000000E+00 -0.00000000000E+00 -0.23588387040E+04  0.23588387040E+04  0.00000000000E+00 0. -1.
         23    2    1    2    0    0 -0.48166296975E+03 -0.45839199226E+03  0.61091694205E+02  0.67388407327E+03  0.90912672992E+02 0.  0.
    5000000    2    1    2    0    0  0.48166296975E+03  0.45839199226E+03 -0.19547171228E+04  0.21501679061E+04  0.60015044715E+03 0.  0.
         23    2    4    4    0    0 -0.93500402902E+02  0.49780950213E+02 -0.64276541659E+03  0.65744236331E+03  0.88671370583E+02 0.  0.
         23    2    4    4    0    0  0.57516337266E+03  0.40861104204E+03 -0.13119517062E+04  0.14927255428E+04  0.96106075358E+02 0.  0.
          2    1    3    3  502    0 -0.23775549925E+03 -0.19718079470E+03  0.68663232096E+02  0.31642152686E+03  0.00000000000E+00 0. -1.
         -2    1    3    3    0  502 -0.24390747051E+03 -0.26121119756E+03 -0.75715378919E+01  0.35746254641E+03  0.00000000000E+00 0.  1.
         11    1    5    5    0    0 -0.61155070500E+02  0.63816172691E+02 -0.29671013156E+03  0.30959545978E+03  0.00000000000E+00 0.  1.
        -11    1    5    5    0    0 -0.32345332402E+02 -0.14035222478E+02 -0.34605528503E+03  0.34784690353E+03  0.00000000000E+00 0. -1.
          5    1    6    6  503    0  0.28824142989E+03  0.15568441742E+03 -0.55122142047E+03  0.64123935010E+03  0.47000000000E+01 0. -1.
         -5    1    6    6    0  503  0.28692194276E+03  0.25292662462E+03 -0.76073028573E+03  0.85148619267E+03  0.47000000000E+01 0.  1.
<mgrwt>
<rscale>  0 0.75002954E+03</rscale>
<asrwt>0</asrwt>
<pdfrwt beam="1">  1        2 0.36289826E+00 0.75002954E+03</pdfrwt>
<pdfrwt beam="2">  1       -2 0.71571273E-01 0.75002954E+03</pdfrwt>
<totfact> 0.77667649E+00</totfact>
</mgrwt>
</event>
<event>
12    1  0.3127365E-008  0.8736455E+03  0.7818608E-02  0.9459139E-01
          2   -1    0    0  501    0  0.00000000000E+00  0.00000000000E+00  0.11678902689E+04  0.11678902689E+04  0.00000000000E+00 0.  1.
         -2   -1    0    0    0  501 -0.00000000000E+00 -0.00000000000E+00 -0.80679157691E+03  0.80679157691E+03  0.00000000000E+00 0. -1.
         23    2    1    2    0    0  0.48409285036E+03 -0.71901184780E+03  0.42394668195E+02  0.87342216946E+03  0.98717035821E+02 0.  0.
    5000000    2    1    2    0    0 -0.48409285036E+03  0.71901184780E+03  0.31870402376E+03  0.11012596763E+04  0.59989723694E+03 0.  0.
         23    2    4    4    0    0 -0.27046452733E+03  0.31460158210E+03  0.44971415515E+03  0.61788931993E+03  0.86134629148E+02 0.  0.
         23    2    4    4    0    0 -0.21362832303E+03  0.40441026570E+03 -0.13101013139E+03  0.48337035640E+03  0.85431396530E+02 0.  0.
          4    1    3    3  502    0  0.14474922692E+03 -0.28849817584E+03  0.39982018727E+02  0.32524159940E+03  0.00000000000E+00 0. -1.
         -4    1    3    3    0  502  0.33934362344E+03 -0.43051367196E+03  0.24126494685E+01  0.54818057006E+03  0.00000000000E+00 0.  1.
         13    1    5    5    0    0 -0.16608184649E+03  0.19085534764E+03  0.33348985980E+03  0.41859817252E+03  0.00000000000E+00 0. -1.
        -13    1    5    5    0    0 -0.10438268085E+03  0.12374623446E+03  0.11622429535E+03  0.19929114740E+03  0.00000000000E+00 0.  1.
          5    1    6    6  503    0 -0.19483801460E+03  0.31862565398E+03 -0.12980421410E+03  0.39541798556E+03  0.47000000000E+01 0.  1.
         -5    1    6    6    0  503 -0.18790308428E+02  0.85784611725E+02 -0.12059172878E+01  0.87952370839E+02  0.47000000000E+01 0. -1.
<mgrwt>
<rscale>  0 0.87364545E+03</rscale>
<asrwt>0</asrwt>
<pdfrwt beam="1">  1        2 0.17967543E+00 0.87364545E+03</pdfrwt>
<pdfrwt beam="2">  1       -2 0.12412178E+00 0.87364545E+03</pdfrwt>
<totfact> 0.97120116E+00</totfact>
</mgrwt>
</event>
<event>
12    1  0.3127365E-008  0.1691916E+04  0.7818608E-02  0.8765988E-01
         -1   -1    0    0    0  501 -0.00000000000E+00  0.00000000000E+00  0.10372906613E+04  0.10372906613E+04  0.00000000000E+00 0.  1.
          1   -1    0    0  501    0  0.00000000000E+00 -0.00000000000E+00 -0.28336214129E+04  0.28336214129E+04  0.00000000000E+00 0. -1.
         23    2    1    2    0    0 -0.10948678130E+04 -0.12411184490E+04 -0.10321590815E+04  0.19517765692E+04  0.70490240988E+02 0.  0.
    5000000    2    1    2    0    0  0.10948678130E+04  0.12411184490E+04 -0.76417167003E+03  0.19191355050E+04  0.60001017705E+03 0.  0.
         23    2    4    4    0    0 -0.20009307559E+02  0.19689107330E+03 -0.17520524853E+03  0.27946891405E+03  0.90771844048E+02 0.  0.
         23    2    4    4    0    0  0.11148771206E+04  0.10442273757E+04 -0.58896642150E+03  0.16396665909E+04  0.90902571137E+02 0.  0.
          1    1    3    3  502    0 -0.66026314659E+03 -0.74094824878E+03 -0.65901917700E+03  0.11913261542E+04  0.00000000000E+00 0. -1.
         -1    1    3    3    0  502 -0.43460466643E+03 -0.50017020026E+03 -0.37313990454E+03  0.76045041500E+03  0.00000000000E+00 0.  1.
         11    1    5    5    0    0 -0.81486972789E+01  0.15162056342E+03 -0.17627993628E+03  0.23265814505E+03  0.00000000000E+00 0. -1.
        -11    1    5    5    0    0 -0.11860610280E+02  0.45270509879E+02  0.10746877520E+01  0.46810769004E+02  0.00000000000E+00 0.  1.
          5    1    6    6  503    0  0.30862605987E+03  0.34482498485E+03 -0.18673284404E+03  0.49904464735E+03  0.47000000000E+01 0. -1.
         -5    1    6    6    0  503  0.80625106071E+03  0.69940239088E+03 -0.40223357747E+03  0.11406219436E+04  0.47000000000E+01 0.  1.
<mgrwt>
<rscale>  0 0.16919161E+04</rscale>
<asrwt>0</asrwt>
<pdfrwt beam="1">  1        1 0.43594176E+00 0.16919161E+04</pdfrwt>
<pdfrwt beam="2">  1       -1 0.15958318E+00 0.16919161E+04</pdfrwt>
<totfact> 0.21575752E-01</totfact>
</mgrwt>
</event>
<event>
12    1  0.3127365E-008  0.4812532E+03  0.7818608E-02  0.1018791E+00
          2   -1    0    0  501    0  0.00000000000E+00  0.00000000000E+00  0.69659982574E+03  0.69659982574E+03  0.00000000000E+00 0. -1.
         -2   -1    0    0    0  501 -0.00000000000E+00 -0.00000000000E+00 -0.44008837786E+03  0.44008837786E+03  0.00000000000E+00 0.  1.
         23    2    1    2    0    0  0.69300504847E+02  0.37697622670E+03  0.64657050717E+02  0.39931913366E+03  0.91441789298E+02 0.  0.
    5000000    2    1    2    0    0 -0.69300504847E+02 -0.37697622670E+03  0.19185439716E+03  0.73736906994E+03  0.59999283339E+03 0.  0.
         23    2    4    4    0    0 -0.66503490293E+02 -0.46127774272E+03  0.30953764332E+03  0.56710316065E+03  0.92696127446E+02 0.  0.
         23    2    4    4    0    0 -0.27970145547E+01  0.84301516016E+02 -0.11768324616E+03  0.17026590928E+03  0.89591096345E+02 0.  0.
          3    1    3    3  502    0  0.44851476640E+02  0.23750612227E+03  0.85113902572E+02  0.25625219898E+03  0.00000000000E+00 0. -1.
         -3    1    3    3    0  502  0.24449028208E+02  0.13947010443E+03 -0.20456851854E+02  0.14306693468E+03  0.00000000000E+00 0.  1.
         11    1    5    5    0    0 -0.89189585863E+02 -0.37633007336E+03  0.26207762871E+03  0.46718710365E+03  0.00000000000E+00 0. -1.
        -11    1    5    5    0    0  0.22686095570E+02 -0.84947669356E+02  0.47460014612E+02  0.99916057009E+02  0.00000000000E+00 0.  1.
          5    1    6    6  503    0  0.28210857483E+02  0.52954858515E+02 -0.20731008120E+02  0.63654805144E+02  0.47000000000E+01 0. -1.
         -5    1    6    6    0  503 -0.31007872037E+02  0.31346657501E+02 -0.96952238042E+02  0.10661110414E+03  0.47000000000E+01 0.  1.
<mgrwt>
<rscale>  0 0.48125315E+03</rscale>
<asrwt>0</asrwt>
<pdfrwt beam="1">  1        2 0.10716920E+00 0.48125315E+03</pdfrwt>
<pdfrwt beam="2">  1       -2 0.67705904E-01 0.48125315E+03</pdfrwt>
<totfact> 0.85224962E+01</totfact>
</mgrwt>
</event>
<event>
12    1  0.3127365E-008  0.3217097E+03  0.7818608E-02  0.1074865E+00
         -2   -1    0    0    0  501 -0.00000000000E+00  0.00000000000E+00  0.55012551890E+02  0.55012551890E+02  0.00000000000E+00 0.  1.
          2   -1    0    0  501    0  0.00000000000E+00 -0.00000000000E+00 -0.39055319550E+04  0.39055319550E+04  0.00000000000E+00 0. -1.
         23    2    1    2    0    0  0.14886549903E+03  0.19784437102E+03 -0.14569366174E+04  0.14805005358E+04  0.88961775851E+02 0.  0.
    5000000    2    1    2    0    0 -0.14886549903E+03 -0.19784437102E+03 -0.23935827858E+04  0.24800439711E+04  0.60006350859E+03 0.  0.
         23    2    4    4    0    0 -0.20288160661E+03 -0.65189800634E+02 -0.30000053596E+03  0.37960152892E+03  0.93200551347E+02 0.  0.
         23    2    4    4    0    0  0.54016107578E+02 -0.13265457038E+03 -0.20935822498E+04  0.21004424422E+04  0.90867163001E+02 0.  0.
          1    1    3    3  502    0  0.19980039865E+02  0.51373516394E+02 -0.55345017105E+03  0.55618839615E+03  0.00000000000E+00 0. -1.
         -1    1    3    3    0  502  0.12888545917E+03  0.14647085462E+03 -0.90348644634E+03  0.92431213968E+03  0.00000000000E+00 0.  1.
         11    1    5    5    0    0 -0.15963500924E+03 -0.98609023458E+01 -0.18204376237E+03  0.24232314167E+03  0.00000000000E+00 0. -1.
        -11    1    5    5    0    0 -0.43246597374E+02 -0.55328898288E+02 -0.11795677359E+03  0.13727838725E+03  0.00000000000E+00 0.  1.
          5    1    6    6  503    0  0.21133291170E+01 -0.10288037611E+03 -0.15822549978E+04  0.15856045554E+04  0.47000000000E+01 0. -1.
         -5    1    6    6    0  503  0.51902778460E+02 -0.29774194277E+02 -0.51132725198E+03  0.51483788679E+03  0.47000000000E+01 0.  1.
<mgrwt>
<rscale>  0 0.32170973E+03</rscale>
<asrwt>0</asrwt>
<pdfrwt beam="1">  1        2 0.60085090E+00 0.32170973E+03</pdfrwt>
<pdfrwt beam="2">  1       -2 0.84634719E-02 0.32170973E+03</pdfrwt>
<totfact> 0.44689086E+01</totfact>
</mgrwt>
</event>
<event>
12    1  0.3127365E-008  0.2215483E+04  0.7818608E-02  0.8512011E-01
          2   -1    0    0  501    0  0.00000000000E+00  0.00000000000E+00  0.30007975344E+04  0.30007975344E+04  0.00000000000E+00 0. -1.
         -2   -1    0    0    0  501 -0.00000000000E+00 -0.00000000000E+00 -0.22821918598E+04  0.22821918598E+04  0.00000000000E+00 0.  1.
         23    2    1    2    0    0  0.20945910613E+04  0.67337103114E+03  0.17181303773E+04  0.27930669699E+04  0.92254241844E+02 0.  0.
    5000000    2    1    2    0    0 -0.20945910613E+04 -0.67337103114E+03 -0.99952470280E+03  0.24899224243E+04  0.59993648633E+03 0.  0.
         23    2    4    4    0    0 -0.85408784411E+02 -0.81417946862E+02 -0.19318209401E+03  0.24368829878E+03  0.90228171826E+02 0.  0.
         23    2    4    4    0    0 -0.20091822769E+04 -0.59195308428E+03 -0.80634260880E+03  0.22462341255E+04  0.90318702006E+02 0.  0.
          2    1    3    3  502    0  0.11403711232E+04  0.38198403642E+03  0.99416066262E+03  0.15603568585E+04  0.00000000000E+00 0.  1.
         -2    1    3    3    0  502  0.95421993808E+03  0.29138699472E+03  0.72396971472E+03  0.12327101114E+04  0.00000000000E+00 0. -1.
         13    1    5    5    0    0 -0.21920058387E+02  0.99716661695E+01 -0.85546132614E+02  0.88871052042E+02  0.00000000000E+00 0.  1.
        -13    1    5    5    0    0 -0.63488726024E+02 -0.91389613031E+02 -0.10763596139E+03  0.15481724674E+03  0.00000000000E+00 0. -1.
          5    1    6    6  503    0 -0.13201941422E+04 -0.36310864006E+03 -0.48951646402E+03  0.14541007242E+04  0.47000000000E+01 0. -1.
         -5    1    6    6    0  503 -0.68898813468E+03 -0.22884444422E+03 -0.31682614478E+03  0.79213340126E+03  0.47000000000E+01 0.  1.
<mgrwt>
<rscale>  0 0.22154829E+04</rscale>
<asrwt>0</asrwt>
<pdfrwt beam="1">  1        2 0.46166116E+00 0.22154829E+04</pdfrwt>
<pdfrwt beam="2">  1       -2 0.35110644E+00 0.22154829E+04</pdfrwt>
<totfact> 0.22946987E-02</totfact>
</mgrwt>
</event>
<event>
12    1  0.3127365E-008  0.9467094E+03  0.7818608E-02  0.9369005E-01
         -2   -1    0    0    0  501 -0.00000000000E+00  0.00000000000E+00  0.33944324374E+03  0.33944324374E+03  0.00000000000E+00 0.  1.
          2   -1    0    0  501    0  0.00000000000E+00 -0.00000000000E+00 -0.28216102867E+04  0.28216102867E+04  0.00000000000E+00 0. -1.
         23    2    1    2    0    0  0.56401315326E+03  0.66459240008E+03 -0.88852803075E+03  0.12480806403E+04  0.91811371086E+02 0.  0.
    5000000    2    1    2    0    0 -0.56401315326E+03 -0.66459240008E+03 -0.15936390122E+04  0.19129728902E+04  0.59998840163E+03 0.  0.
         23    2    4    4    0    0 -0.19667444523E+02  0.72228989465E+02 -0.86196970965E+02  0.14663782069E+03  0.92026612238E+02 0.  0.
         23    2    4    4    0    0 -0.54434570874E+03 -0.73682138954E+03 -0.15074420413E+04  0.17663350695E+04  0.91323925336E+02 0.  0.
          2    1    3    3  502    0  0.23618730464E+03  0.32918095351E+03 -0.45728841761E+03  0.61094782094E+03  0.00000000000E+00 0.  1.
         -2    1    3    3    0  502  0.32782584862E+03  0.33541144656E+03 -0.43123961314E+03  0.63713281932E+03  0.00000000000E+00 0. -1.
         13    1    5    5    0    0  0.24260519309E+02  0.24496085611E+02 -0.72582768441E+02  0.80354771370E+02  0.00000000000E+00 0.  1.
        -13    1    5    5    0    0 -0.43927963832E+02  0.47732903854E+02 -0.13614202524E+02  0.66283049320E+02  0.00000000000E+00 0. -1.
          5    1    6    6  503    0 -0.27868410009E+03 -0.44655418770E+03 -0.89685868494E+03  0.10399293538E+04  0.47000000000E+01 0. -1.
         -5    1    6    6    0  503 -0.26566160864E+03 -0.29026720184E+03 -0.61058335632E+03  0.72640571569E+03  0.47000000000E+01 0.  1.
<mgrwt>
<rscale>  0 0.94670935E+03</rscale>
<asrwt>0</asrwt>
<pdfrwt beam="1">  1        2 0.43409387E+00 0.94670935E+03</pdfrwt>
<pdfrwt beam="2">  1       -2 0.52222039E-01 0.94670935E+03</pdfrwt>
<totfact> 0.79698879E+00</totfact>
</mgrwt>
</event>
<event>
12    1  0.3127365E-008  0.7236234E+03  0.7818608E-02  0.9677665E-01
          1   -1    0    0  501    0  0.00000000000E+00  0.00000000000E+00  0.26725814418E+04  0.26725814418E+04  0.00000000000E+00 0. -1.
         -1   -1    0    0    0  501 -0.00000000000E+00 -0.00000000000E+00 -0.46317154866E+03  0.46317154866E+03  0.00000000000E+00 0.  1.
         23    2    1    2    0    0  0.36127960888E+03  0.50182188936E+03  0.21866659647E+04  0.22736650860E+04  0.75476604603E+02 0.  0.
    5000000    2    1    2    0    0 -0.36127960888E+03 -0.50182188936E+03  0.22743928443E+02  0.86208790442E+03  0.60027502383E+03 0.  0.
         23    2    4    4    0    0 -0.45132613417E+03 -0.19405857412E+03  0.12328490494E+03  0.51437312739E+03  0.89590941626E+02 0.  0.
         23    2    4    4    0    0  0.90046525286E+02 -0.30776331525E+03 -0.10054097650E+03  0.34771477703E+03  0.89277339145E+02 0.  0.
          3    1    3    3  502    0  0.17095330727E+03  0.18657864806E+03  0.97260056761E+03  0.10049818353E+04  0.00000000000E+00 0. -1.
         -3    1    3    3    0  502  0.19032630162E+03  0.31524324130E+03  0.12140653971E+04  0.12686832507E+04  0.00000000000E+00 0.  1.
         11    1    5    5    0    0 -0.28673828148E+03 -0.89871395462E+02  0.42458120444E+02  0.30347718494E+03  0.00000000000E+00 0. -1.
        -11    1    5    5    0    0 -0.16458785269E+03 -0.10418717866E+03  0.80826784495E+02  0.21089594245E+03  0.00000000000E+00 0.  1.
          5    1    6    6  503    0  0.63235742537E+02 -0.83971813357E+02 -0.50831021443E+02  0.11685849269E+03  0.47000000000E+01 0. -1.
         -5    1    6    6    0  503  0.26810782749E+02 -0.22379150189E+03 -0.49709955052E+02  0.23085628434E+03  0.47000000000E+01 0.  1.
<mgrwt>
<rscale>  0 0.72362339E+03</rscale>
<asrwt>0</asrwt>
<pdfrwt beam="1">  1        1 0.41116637E+00 0.72362339E+03</pdfrwt>
<pdfrwt beam="2">  1       -1 0.71257163E-01 0.72362339E+03</pdfrwt>
<totfact> 0.21895686E+00</totfact>
</mgrwt>
</event>
<event>
12    1  0.3127365E-008  0.8651999E+03  0.7818608E-02  0.9470160E-01
          1   -1    0    0  501    0  0.00000000000E+00  0.00000000000E+00  0.48811430334E+03  0.48811430334E+03  0.00000000000E+00 0. -1.
         -1   -1    0    0    0  501 -0.00000000000E+00 -0.00000000000E+00 -0.19501812437E+04  0.19501812437E+04  0.00000000000E+00 0.  1.
         23    2    1    2    0    0 -0.66895371952E+03 -0.45370108700E+03 -0.22633596426E+03  0.84436246210E+03  0.91521819714E+02 0.  0.
    5000000    2    1    2    0    0  0.66895371952E+03  0.45370108700E+03 -0.12357309761E+04  0.15939330850E+04  0.60020653011E+03 0.  0.
         23    2    4    4    0    0 -0.41694983264E+02 -0.17548131294E+02 -0.14797668250E+02  0.10193590936E+03  0.90141833190E+02 0.  0.
         23    2    4    4    0    0  0.71064870279E+03  0.47124921829E+03 -0.12209333079E+04  0.14919971756E+04  0.90994643876E+02 0.  0.
          4    1    3    3  502    0 -0.35210863164E+03 -0.20393609678E+03 -0.76785891645E+02  0.41408512796E+03  0.00000000000E+00 0. -1.
         -4    1    3    3    0  502 -0.31684508788E+03 -0.24976499022E+03 -0.14955007261E+03  0.43027733414E+03  0.00000000000E+00 0.  1.
         13    1    5    5    0    0 -0.44939217572E+02  0.12499916011E+01 -0.46663626621E+02  0.64796526176E+02  0.00000000000E+00 0. -1.
        -13    1    5    5    0    0  0.32442343085E+01 -0.18798122895E+02  0.31865958372E+02  0.37139383188E+02  0.00000000000E+00 0.  1.
          5    1    6    6  503    0  0.32698437594E+03  0.26159959575E+03 -0.55282698687E+03  0.69353651527E+03  0.47000000000E+01 0. -1.
         -5    1    6    6    0  503  0.38366432685E+03  0.20964962254E+03 -0.66810632102E+03  0.79846066034E+03  0.47000000000E+01 0.  1.
<mgrwt>
<rscale>  0 0.86519995E+03</rscale>
<asrwt>0</asrwt>
<pdfrwt beam="1">  1        1 0.75094508E-01 0.86519995E+03</pdfrwt>
<pdfrwt beam="2">  1       -1 0.30002788E+00 0.86519995E+03</pdfrwt>
<totfact> 0.15632986E+00</totfact>
</mgrwt>
</event>
<event>
12    1  0.3127365E-008  0.1391275E+04  0.7818608E-02  0.8960158E-01
         -2   -1    0    0    0  501 -0.00000000000E+00  0.00000000000E+00  0.95239689260E+03  0.95239689260E+03  0.00000000000E+00 0.  1.
          2   -1    0    0  501    0  0.00000000000E+00 -0.00000000000E+00 -0.23039135452E+04  0.23039135452E+04  0.00000000000E+00 0. -1.
         23    2    1    2    0    0  0.73305968584E+03  0.11588448103E+04 -0.24591891889E+03  0.13955266500E+04  0.81979989960E+02 0.  0.
    5000000    2    1    2    0    0 -0.73305968584E+03 -0.11588448103E+04 -0.11055977337E+04  0.18607837878E+04  0.59989345618E+03 0.  0.
         23    2    4    4    0    0 -0.69507358388E+03 -0.86387053866E+03 -0.10767229438E+04  0.15482532979E+04  0.91413250054E+02 0.  0.
         23    2    4    4    0    0 -0.37986101959E+02 -0.29497427165E+03 -0.28874789886E+02  0.31253048985E+03  0.91590330919E+02 0.  0.
          2    1    3    3  502    0  0.24867450602E+03  0.32308454443E+03 -0.72585770693E+02  0.41411511310E+03  0.00000000000E+00 0. -1.
         -2    1    3    3    0  502  0.48438517982E+03  0.83576026588E+03 -0.17333314819E+03  0.98141153688E+03  0.00000000000E+00 0.  1.
         13    1    5    5    0    0 -0.15962200065E+03 -0.20780987633E+03 -0.30979519233E+03  0.40575508497E+03  0.00000000000E+00 0.  1.
        -13    1    5    5    0    0 -0.53545158323E+03 -0.65606066233E+03 -0.76692775147E+03  0.11424982130E+04  0.00000000000E+00 0. -1.
          5    1    6    6  503    0 -0.44289563526E+02 -0.27392928075E+03 -0.20411325448E+01  0.27753391236E+03  0.47000000000E+01 0. -1.
         -5    1    6    6    0  503  0.63034615664E+01 -0.21044990907E+02 -0.26833657341E+02  0.34996577494E+02  0.47000000000E+01 0.  1.
<mgrwt>
<rscale>  0 0.13912750E+04</rscale>
<asrwt>0</asrwt>
<pdfrwt beam="1">  1        2 0.35444823E+00 0.13912750E+04</pdfrwt>
<pdfrwt beam="2">  1       -2 0.14652260E+00 0.13912750E+04</pdfrwt>
<totfact> 0.13735886E+00</totfact>
</mgrwt>
</event>
<event>
12    1  0.3127365E-008  0.1912815E+04  0.7818608E-02  0.8648504E-01
          2   -1    0    0  501    0  0.00000000000E+00  0.00000000000E+00  0.38987144002E+04  0.38987144002E+04  0.00000000000E+00 0. -1.
         -2   -1    0    0    0  501 -0.00000000000E+00 -0.00000000000E+00 -0.11366478735E+04  0.11366478735E+04  0.00000000000E+00 0.  1.
         23    2    1    2    0    0 -0.30913316827E+03  0.18868556410E+04  0.22747601460E+04  0.29730051771E+04  0.91861502413E+02 0.  0.
    5000000    2    1    2    0    0  0.30913316827E+03 -0.18868556410E+04  0.48730638067E+03  0.20623570967E+04  0.60005146450E+03 0.  0.
         23    2    4    4    0    0  0.18244358499E+03 -0.10565148485E+04 -0.21704021623E+02  0.10758925218E+04  0.86973369968E+02 0.  0.
         23    2    4    4    0    0  0.12668958328E+03 -0.83034079247E+03  0.50901040230E+03  0.98646457490E+03  0.92220853082E+02 0.  0.
          1    1    3    3  502    0 -0.13166381033E+03  0.91195765611E+03  0.11620174295E+04  0.14829992016E+04  0.00000000000E+00 0. -1.
         -1    1    3    3    0  502 -0.17746935795E+03  0.97489798484E+03  0.11127427166E+04  0.14900059755E+04  0.00000000000E+00 0.  1.
         11    1    5    5    0    0  0.34531548084E+02 -0.18279574371E+03  0.29079430216E+02  0.18828787797E+03  0.00000000000E+00 0. -1.
        -11    1    5    5    0    0  0.14791203691E+03 -0.87371910478E+03 -0.50783451838E+02  0.88760464380E+03  0.00000000000E+00 0.  1.
          5    1    6    6  503    0  0.37437618401E+02 -0.38848229574E+03  0.18927559687E+03  0.43378267709E+03  0.47000000000E+01 0. -1.
         -5    1    6    6    0  503  0.89251964882E+02 -0.44185849673E+03  0.31973480543E+03  0.55268189781E+03  0.47000000000E+01 0.  1.
<mgrwt>
<rscale>  0 0.19128147E+04</rscale>
<asrwt>0</asrwt>
<pdfrwt beam="1">  1        2 0.59980221E+00 0.19128147E+04</pdfrwt>
<pdfrwt beam="2">  1       -2 0.17486891E+00 0.19128147E+04</pdfrwt>
<totfact> 0.73677498E-02</totfact>
</mgrwt>
</event>
<event>
12    1  0.3127365E-008  0.1343779E+04  0.7818608E-02  0.8995551E-01
          2   -1    0    0  501    0  0.00000000000E+00  0.00000000000E+00  0.20655460702E+04  0.20655460702E+04  0.00000000000E+00 0. -1.
         -2   -1    0    0    0  501 -0.00000000000E+00 -0.00000000000E+00 -0.98295227473E+03  0.98295227473E+03  0.00000000000E+00 0.  1.
         23    2    1    2    0    0 -0.11297465732E+04  0.70276519564E+03  0.81887797911E+03  0.15653059378E+04  0.97032440110E+02 0.  0.
    5000000    2    1    2    0    0  0.11297465732E+04 -0.70276519564E+03  0.26371581633E+03  0.14831924071E+04  0.60008953077E+03 0.  0.
         23    2    4    4    0    0  0.73491605074E+03 -0.31189177189E+03  0.40856136217E+03  0.90186451212E+03  0.95179475527E+02 0.  0.
         23    2    4    4    0    0  0.39483052243E+03 -0.39087342375E+03 -0.14484554585E+03  0.58132789499E+03  0.91042377495E+02 0.  0.
          2    1    3    3  502    0 -0.10267635588E+04  0.60992649849E+03  0.71360824632E+03  0.13912190584E+04  0.00000000000E+00 0. -1.
         -2    1    3    3    0  502 -0.10298301440E+03  0.92838697149E+02  0.10526973280E+03  0.17408687942E+03  0.00000000000E+00 0.  1.
         13    1    5    5    0    0  0.34606447979E+03 -0.16300670206E+03  0.14507208632E+03  0.40911822169E+03  0.00000000000E+00 0.  1.
        -13    1    5    5    0    0  0.38885157094E+03 -0.14888506983E+03  0.26348927585E+03  0.49274629043E+03  0.00000000000E+00 0. -1.
          5    1    6    6  503    0  0.11192342763E+03 -0.10608277185E+03 -0.82842663453E+02  0.17511540487E+03  0.47000000000E+01 0. -1.
         -5    1    6    6    0  503  0.28290709480E+03 -0.28479065191E+03 -0.62002882394E+02  0.40621249012E+03  0.47000000000E+01 0.  1.
<mgrwt>
<rscale>  0 0.13437789E+04</rscale>
<asrwt>0</asrwt>
<pdfrwt beam="1">  1        2 0.31777632E+00 0.13437789E+04</pdfrwt>
<pdfrwt beam="2">  1       -2 0.15122343E+00 0.13437789E+04</pdfrwt>
<totfact> 0.17265090E+00</totfact>
</mgrwt>
</event>
<event>
12    1  0.3127365E-008  0.1176269E+04  0.7818608E-02  0.9133886E-01
         -2   -1    0    0    0  501 -0.00000000000E+00  0.00000000000E+00  0.96818576343E+03  0.96818576343E+03  0.00000000000E+00 0.  1.
          2   -1    0    0  501    0  0.00000000000E+00 -0.00000000000E+00 -0.22248878284E+04  0.22248878284E+04  0.00000000000E+00 0. -1.
         23    2    1    2    0    0 -0.90309079404E+03 -0.64694300969E+03  0.33281184236E+03  0.11631245786E+04  0.89369026592E+02 0.  0.
    5000000    2    1    2    0    0  0.90309079404E+03  0.64694300969E+03 -0.15895139073E+04  0.20299490132E+04  0.60002524494E+03 0.  0.
         23    2    4    4    0    0  0.46115815261E+03  0.15002482582E+02 -0.75948492718E+03  0.89338013049E+03  0.91753946745E+02 0.  0.
         23    2    4    4    0    0  0.44193264143E+03  0.63194052711E+03 -0.83002898013E+03  0.11365688827E+04  0.90484406966E+02 0.  0.
          3    1    3    3  502    0 -0.88900362445E+02 -0.96140145815E+02  0.51014910820E+02  0.14053015052E+03  0.00000000000E+00 0. -1.
         -3    1    3    3    0  502 -0.81419043160E+03 -0.55080286388E+03  0.28179693154E+03  0.10225944281E+04  0.00000000000E+00 0.  1.
         11    1    5    5    0    0  0.32067879496E+03 -0.11312975228E+02 -0.59056932927E+03  0.67211234598E+03  0.00000000000E+00 0.  1.
        -11    1    5    5    0    0  0.14047935765E+03  0.26315457810E+02 -0.16891559791E+03  0.22126778452E+03  0.00000000000E+00 0. -1.
          5    1    6    6  503    0  0.28658686211E+03  0.46874067268E+03 -0.55435970061E+03  0.78050407777E+03  0.47000000000E+01 0. -1.
         -5    1    6    6    0  503  0.15534577932E+03  0.16319985443E+03 -0.27566927952E+03  0.35606480493E+03  0.47000000000E+01 0.  1.
<mgrwt>
<rscale>  0 0.11762686E+04</rscale>
<asrwt>0</asrwt>
<pdfrwt beam="1">  1        2 0.34229043E+00 0.11762686E+04</pdfrwt>
<pdfrwt beam="2">  1       -2 0.14895166E+00 0.11762686E+04</pdfrwt>
<totfact> 0.14923423E+00</totfact>
</mgrwt>
</event>
<event>
12    1  0.3127365E-008  0.6013800E+03  0.7818608E-02  0.9902547E-01
         -2   -1    0    0    0  501 -0.00000000000E+00  0.00000000000E+00  0.18541647626E+03  0.18541647626E+03  0.00000000000E+00 0.  1.
          2   -1    0    0  501    0  0.00000000000E+00 -0.00000000000E+00 -0.27788224473E+04  0.27788224473E+04  0.00000000000E+00 0. -1.
         23    2    1    2    0    0 -0.35192640119E+03 -0.46846251605E+03 -0.94100072680E+03  0.11111771036E+04  0.76960163975E+02 0.  0.
    5000000    2    1    2    0    0  0.35192640119E+03  0.46846251605E+03 -0.16524052442E+04  0.18530618200E+04  0.60007140973E+03 0.  0.
         23    2    4    4    0    0  0.24966217926E+03  0.24806368668E+03 -0.15158124172E+04  0.15592006212E+04  0.97736874806E+02 0.  0.
         23    2    4    4    0    0  0.10226422192E+03  0.22039882937E+03 -0.13659282705E+03  0.29386119879E+03  0.93076251962E+02 0.  0.
          3    1    3    3  502    0 -0.17391077733E+03 -0.17178710378E+03 -0.36670203131E+03  0.44071095659E+03  0.00000000000E+00 0. -1.
         -3    1    3    3    0  502 -0.17801562386E+03 -0.29667541227E+03 -0.57429869549E+03  0.67046614696E+03  0.00000000000E+00 0.  1.
         11    1    5    5    0    0  0.14612358450E+03  0.11453936414E+03 -0.60497500619E+03  0.63282392970E+03  0.00000000000E+00 0. -1.
        -11    1    5    5    0    0  0.10353859477E+03  0.13352432254E+03 -0.91083741098E+03  0.92637669150E+03  0.00000000000E+00 0.  1.
          5    1    6    6  503    0  0.64231809458E+01  0.11455177956E+03 -0.81169037890E+02  0.14061959382E+03  0.47000000000E+01 0. -1.
         -5    1    6    6    0  503  0.95841040976E+02  0.10584704981E+03 -0.55423789161E+02  0.15324160497E+03  0.47000000000E+01 0.  1.
<mgrwt>
<rscale>  0 0.60138004E+03</rscale>
<asrwt>0</asrwt>
<pdfrwt beam="1">  1        2 0.42751112E+00 0.60138004E+03</pdfrwt>
<pdfrwt beam="2">  1       -2 0.28525614E-01 0.60138004E+03</pdfrwt>
<totfact> 0.28902864E+01</totfact>
</mgrwt>
</event>
<event>
12    1  0.3127365E-008  0.1359698E+04  0.7818608E-02  0.8983519E-01
         -1   -1    0    0    0  501 -0.00000000000E+00  0.00000000000E+00  0.18158197390E+04  0.18158197390E+04  0.00000000000E+00 0.  1.
          1   -1    0    0  501    0  0.00000000000E+00 -0.00000000000E+00 -0.10905419258E+04  0.10905419258E+04  0.00000000000E+00 0. -1.
         23    2    1    2    0    0  0.21778093976E+03  0.13235336497E+04  0.32019735285E+03  0.13821131614E+04  0.92415293647E+02 0.  0.
    5000000    2    1    2    0    0 -0.21778093976E+03 -0.13235336497E+04  0.40508046034E+03  0.15242485034E+04  0.60006121436E+03 0.  0.
         23    2    4    4    0    0 -0.79037442153E+02 -0.11162762744E+04  0.51779420134E+03  0.12364703490E+04  0.91806595901E+02 0.  0.
         23    2    4    4    0    0 -0.13874349761E+03 -0.20725737536E+03 -0.11271374100E+03  0.28777815436E+03  0.88918507344E+02 0.  0.
          1    1    3    3  502    0  0.90415146723E+02  0.49226724790E+03  0.16459736688E+03  0.52687212424E+03  0.00000000000E+00 0. -1.
         -1    1    3    3    0  502  0.12736579304E+03  0.83126640181E+03  0.15559998597E+03  0.85524103717E+03  0.00000000000E+00 0.  1.
         11    1    5    5    0    0  0.81698494346E+00 -0.29324821315E+03  0.17376319329E+03  0.34086482559E+03  0.00000000000E+00 0. -1.
        -11    1    5    5    0    0 -0.79854427097E+02 -0.82302806120E+03  0.34403100805E+03  0.89560552341E+03  0.00000000000E+00 0.  1.
          5    1    6    6  503    0 -0.34486022750E+02 -0.10908931903E+03 -0.83069741028E+02  0.14146532143E+03  0.47000000000E+01 0. -1.
         -5    1    6    6    0  503 -0.10425747486E+03 -0.98168056326E+02 -0.29643999969E+02  0.14631283293E+03  0.47000000000E+01 0.  1.
<mgrwt>
<rscale>  0 0.13596983E+04</rscale>
<asrwt>0</asrwt>
<pdfrwt beam="1">  1        1 0.16777568E+00 0.13596983E+04</pdfrwt>
<pdfrwt beam="2">  1       -1 0.27935688E+00 0.13596983E+04</pdfrwt>
<totfact> 0.55863830E-01</totfact>
</mgrwt>
</event>
<event>
12    1  0.3127365E-008  0.7563943E+03  0.7818608E-02  0.9625372E-01
          2   -1    0    0  501    0  0.00000000000E+00  0.00000000000E+00  0.19580030294E+04  0.19580030294E+04  0.00000000000E+00 0. -1.
         -2   -1    0    0    0  501 -0.00000000000E+00 -0.00000000000E+00 -0.37428575425E+03  0.37428575425E+03  0.00000000000E+00 0.  1.
         23    2    1    2    0    0 -0.59727918512E+03 -0.45017655176E+03  0.70245099259E+03  0.10299787511E+04  0.89540371183E+02 0.  0.
    5000000    2    1    2    0    0  0.59727918512E+03  0.45017655176E+03  0.88126628258E+03  0.13023100325E+04  0.59998317250E+03 0.  0.
         23    2    4    4    0    0  0.50917866653E+03  0.43031532641E+03  0.35752750771E+03  0.76307199675E+03  0.10009375031E+03 0.  0.
         23    2    4    4    0    0  0.88100518590E+02  0.19861225353E+02  0.52373877487E+03  0.53923803579E+03  0.91209567970E+02 0.  0.
          2    1    3    3  502    0 -0.14809093170E+03 -0.16204086885E+03  0.21219373424E+03  0.30531024890E+03  0.00000000000E+00 0. -1.
         -2    1    3    3    0  502 -0.44918825343E+03 -0.28813568291E+03  0.49025725835E+03  0.72466850225E+03  0.00000000000E+00 0.  1.
         11    1    5    5    0    0  0.41133072831E+03  0.37166867968E+03  0.25711102694E+03  0.61109463725E+03  0.00000000000E+00 0.  1.
        -11    1    5    5    0    0  0.97847938222E+02  0.58646646731E+02  0.10041648078E+03  0.15197735949E+03  0.00000000000E+00 0. -1.
          5    1    6    6  503    0  0.34975263802E+02  0.11866073749E+02  0.49479227626E+02  0.61922183026E+02  0.47000000000E+01 0. -1.
         -5    1    6    6    0  503  0.53125254788E+02  0.79951516041E+01  0.47425954725E+03  0.47731585276E+03  0.47000000000E+01 0.  1.
<mgrwt>
<rscale>  0 0.75639434E+03</rscale>
<asrwt>0</asrwt>
<pdfrwt beam="1">  1        2 0.30123123E+00 0.75639434E+03</pdfrwt>
<pdfrwt beam="2">  1       -2 0.57582425E-01 0.75639434E+03</pdfrwt>
<totfact> 0.20554151E+01</totfact>
</mgrwt>
</event>
<event>
12    1  0.3127365E-008  0.9007397E+03  0.7818608E-02  0.9424657E-01
         -2   -1    0    0    0  501 -0.00000000000E+00  0.00000000000E+00  0.42220228424E+03  0.42220228424E+03  0.00000000000E+00 0.  1.
          2   -1    0    0  501    0  0.00000000000E+00 -0.00000000000E+00 -0.19940113266E+04  0.19940113266E+04  0.00000000000E+00 0. -1.
         23    2    1    2    0    0  0.64705119065E+03 -0.47298522987E+03 -0.91037504081E+03  0.12163737714E+04  0.91608765150E+02 0.  0.
    5000000    2    1    2    0    0 -0.64705119065E+03  0.47298522987E+03 -0.66143400158E+03  0.11998398395E+04  0.59977531702E+03 0.  0.
         23    2    4    4    0    0 -0.57675314074E+03  0.59505497491E+03 -0.55362093348E+03  0.10008610105E+04  0.92152134628E+02 0.  0.
         23    2    4    4    0    0 -0.70298049911E+02 -0.12206974505E+03 -0.10781306810E+03  0.19897882892E+03  0.90144762616E+02 0.  0.
          1    1    3    3  502    0  0.21455712566E+03 -0.16807629724E+03 -0.24725600008E+03  0.36799447203E+03  0.00000000000E+00 0. -1.
         -1    1    3    3    0  502  0.43249406499E+03 -0.30490893262E+03 -0.66311904073E+03  0.84837929938E+03  0.00000000000E+00 0.  1.
         11    1    5    5    0    0 -0.47368901711E+03  0.43407639559E+03 -0.43486247980E+03  0.77582793098E+03  0.00000000000E+00 0.  1.
        -11    1    5    5    0    0 -0.10306412362E+03  0.16097857932E+03 -0.11875845367E+03  0.22503307956E+03  0.00000000000E+00 0. -1.
          5    1    6    6  503    0 -0.70452524498E+01 -0.97858646681E+02 -0.52295532743E+02  0.11127831351E+03  0.47000000000E+01 0. -1.
         -5    1    6    6    0  503 -0.63252797461E+02 -0.24211098364E+02 -0.55517535360E+02  0.87700515409E+02  0.47000000000E+01 0.  1.
<mgrwt>
<rscale>  0 0.90073973E+03</rscale>
<asrwt>0</asrwt>
<pdfrwt beam="1">  1        2 0.30677097E+00 0.90073973E+03</pdfrwt>
<pdfrwt beam="2">  1       -2 0.64954198E-01 0.90073973E+03</pdfrwt>
<totfact> 0.14933759E+01</totfact>
</mgrwt>
</event>
<event>
12    1  0.3127365E-008  0.8417175E+03  0.7818608E-02  0.9501521E-01
         -2   -1    0    0    0  501 -0.00000000000E+00  0.00000000000E+00  0.45566330736E+03  0.45566330736E+03  0.00000000000E+00 0. -1.
          2   -1    0    0  501    0  0.00000000000E+00 -0.00000000000E+00 -0.23415768501E+04  0.23415768501E+04  0.00000000000E+00 0.  1.
         23    2    1    2    0    0 -0.70308297128E+03 -0.38600182185E+03 -0.15390600838E+04  0.17372220561E+04  0.76886018837E+02 0.  0.
    5000000    2    1    2    0    0  0.70308297128E+03  0.38600182185E+03 -0.34685345900E+03  0.10600181014E+04  0.60000665181E+03 0.  0.
         23    2    4    4    0    0  0.40918234401E+03  0.25560672678E+02  0.74296686503E+02  0.42642290121E+03  0.90735629275E+02 0.  0.
         23    2    4    4    0    0  0.29390062727E+03  0.36044114917E+03 -0.42115014550E+03  0.63359520014E+03  0.88204488904E+02 0.  0.
          2    1    3    3  502    0 -0.35061984495E+03 -0.20959422335E+03 -0.70686733214E+03  0.81641009265E+03  0.00000000000E+00 0.  1.
         -2    1    3    3    0  502 -0.35246312632E+03 -0.17640759850E+03 -0.83219275164E+03  0.92081196349E+03  0.00000000000E+00 0. -1.
         13    1    5    5    0    0  0.13946386879E+03  0.25247093086E+02  0.66589338427E+02  0.15659414548E+03  0.00000000000E+00 0.  1.
        -13    1    5    5    0    0  0.26971847522E+03  0.31357959194E+00  0.77073480763E+01  0.26982875573E+03  0.00000000000E+00 0. -1.
          5    1    6    6  503    0  0.19954978048E+03  0.28751307368E+03 -0.27636184018E+03  0.44596170142E+03  0.47000000000E+01 0.  1.
         -5    1    6    6    0  503  0.94350846792E+02  0.72928075493E+02 -0.14478830532E+03  0.18763349873E+03  0.47000000000E+01 0. -1.
<mgrwt>
<rscale>  0 0.84171749E+03</rscale>
<asrwt>0</asrwt>
<pdfrwt beam="1">  1        2 0.36024260E+00 0.84171749E+03</pdfrwt>
<pdfrwt beam="2">  1       -2 0.70102047E-01 0.84171749E+03</pdfrwt>
<totfact> 0.81919763E+00</totfact>
</mgrwt>
</event>
<event>
12    1  0.3127365E-008  0.8682908E+03  0.7818608E-02  0.9466111E-01
          2   -1    0    0  501    0  0.00000000000E+00  0.00000000000E+00  0.43925679780E+04  0.43925679780E+04  0.00000000000E+00 0. -1.
         -2   -1    0    0    0  501 -0.00000000000E+00 -0.00000000000E+00 -0.20242327671E+03  0.20242327671E+03  0.00000000000E+00 0.  1.
         23    2    1    2    0    0 -0.76653893522E+03  0.25835235229E+03  0.24826527881E+04  0.26126306074E+04  0.89140042779E+02 0.  0.
    5000000    2    1    2    0    0  0.76653893522E+03 -0.25835235229E+03  0.17074919132E+04  0.19823606473E+04  0.59991434830E+03 0.  0.
         23    2    4    4    0    0  0.44016281340E+03  0.74188206262E+02  0.45875796667E+03  0.64655568507E+03  0.91258915528E+02 0.  0.
         23    2    4    4    0    0  0.32637612182E+03 -0.33254055855E+03  0.12487339465E+04  0.13358049622E+04  0.89072060790E+02 0.  0.
          1    1    3    3  502    0 -0.43386467787E+03  0.11439774355E+03  0.12681620531E+04  0.13451990170E+04  0.00000000000E+00 0. -1.
         -1    1    3    3    0  502 -0.33267425736E+03  0.14395460875E+03  0.12144907350E+04  0.12674315904E+04  0.00000000000E+00 0.  1.
         11    1    5    5    0    0  0.14571266800E+03 -0.60724102900E+01  0.10715581395E+03  0.18097354571E+03  0.00000000000E+00 0. -1.
        -11    1    5    5    0    0  0.29445014540E+03  0.80260616552E+02  0.35160215272E+03  0.46558213937E+03  0.00000000000E+00 0.  1.
          5    1    6    6  503    0  0.21703791833E+03 -0.15854154713E+03  0.70331483791E+03  0.75293740203E+03  0.47000000000E+01 0. -1.
         -5    1    6    6    0  503  0.10933820349E+03 -0.17399901142E+03  0.54541910859E+03  0.58286756020E+03  0.47000000000E+01 0.  1.
<mgrwt>
<rscale>  0 0.86829082E+03</rscale>
<asrwt>0</asrwt>
<pdfrwt beam="1">  1        2 0.67577961E+00 0.86829082E+03</pdfrwt>
<pdfrwt beam="2">  1       -2 0.31142046E-01 0.86829082E+03</pdfrwt>
<totfact> 0.16383288E+00</totfact>
</mgrwt>
</event>
<event>
12    1  0.3127365E-008  0.9114277E+03  0.7818608E-02  0.9411408E-01
         -4   -1    0    0    0  501 -0.00000000000E+00  0.00000000000E+00  0.49869180077E+03  0.49869180077E+03  0.00000000000E+00 0.  1.
          4   -1    0    0  501    0  0.00000000000E+00 -0.00000000000E+00 -0.17642570719E+04  0.17642570719E+04  0.00000000000E+00 0. -1.
         23    2    1    2    0    0  0.64953099680E+03  0.49489992908E+03 -0.33668823522E+03  0.88820084548E+03  0.93409413703E+02 0.  0.
    5000000    2    1    2    0    0 -0.64953099680E+03 -0.49489992908E+03 -0.92887703594E+03  0.13747480272E+04  0.60025255921E+03 0.  0.
         23    2    4    4    0    0  0.65851342930E+02  0.29512466754E+02 -0.63250473141E+02  0.13273081359E+03  0.91703115885E+02 0.  0.
         23    2    4    4    0    0 -0.71538233973E+03 -0.52441239583E+03 -0.86562656280E+03  0.12420172136E+04  0.80728928143E+02 0.  0.
          4    1    3    3  502    0  0.39631888174E+03  0.30237930663E+03 -0.15581710264E+03  0.52228428138E+03  0.00000000000E+00 0. -1.
         -4    1    3    3    0  502  0.25321211507E+03  0.19252062245E+03 -0.18087113258E+03  0.36591656410E+03  0.00000000000E+00 0.  1.
         11    1    5    5    0    0  0.88170420903E+02  0.13580724517E+02 -0.50154372483E+02  0.10234217254E+03  0.00000000000E+00 0. -1.
        -11    1    5    5    0    0 -0.22319077973E+02  0.15931742237E+02 -0.13096100659E+02  0.30388641048E+02  0.00000000000E+00 0.  1.
          5    1    6    6  503    0 -0.58763018631E+03 -0.46121729220E+03 -0.70417306695E+03  0.10266023693E+04  0.47000000000E+01 0. -1.
         -5    1    6    6    0  503 -0.12775215342E+03 -0.63195103635E+02 -0.16145349585E+03  0.21541484431E+03  0.47000000000E+01 0.  1.
<mgrwt>
<rscale>  0 0.91142772E+03</rscale>
<asrwt>0</asrwt>
<pdfrwt beam="1">  1        4 0.27142417E+00 0.91142772E+03</pdfrwt>
<pdfrwt beam="2">  1       -4 0.76721814E-01 0.91142772E+03</pdfrwt>
<totfact> 0.13960062E-01</totfact>
</mgrwt>
</event>
<event>
12    1  0.3127365E-008  0.7829331E+03  0.7818608E-02  0.9585055E-01
          2   -1    0    0  501    0  0.00000000000E+00  0.00000000000E+00  0.19383344764E+04  0.19383344764E+04  0.00000000000E+00 0. -1.
         -2   -1    0    0    0  501 -0.00000000000E+00 -0.00000000000E+00 -0.53794437080E+03  0.53794437080E+03  0.00000000000E+00 0.  1.
         23    2    1    2    0    0  0.89565285492E+02  0.71385996713E+03 -0.74383856727E+02  0.72917496018E+03  0.92440096151E+02 0.  0.
    5000000    2    1    2    0    0 -0.89565285492E+02 -0.71385996713E+03  0.14747739624E+04  0.17471038870E+04  0.59982977504E+03 0.  0.
         23    2    4    4    0    0 -0.62322911024E+02  0.36389764662E+02  0.49966585835E+03  0.51306032701E+03  0.91414271001E+02 0.  0.
         23    2    4    4    0    0 -0.27242374468E+02 -0.75024973180E+03  0.97510810401E+03  0.12340435600E+04  0.91710885523E+02 0.  0.
          1    1    3    3  502    0  0.95741756258E+02  0.51622289539E+03 -0.81495567787E+02  0.53131355072E+03  0.00000000000E+00 0. -1.
         -1    1    3    3    0  502 -0.61764707657E+01  0.19763707175E+03  0.71117110593E+01  0.19786140946E+03  0.00000000000E+00 0.  1.
         11    1    5    5    0    0 -0.72495371025E+02  0.24815667640E+02  0.21985108240E+03  0.23282159396E+03  0.00000000000E+00 0. -1.
        -11    1    5    5    0    0  0.10172460001E+02  0.11574097022E+02  0.27981477594E+03  0.28023873305E+03  0.00000000000E+00 0.  1.
          5    1    6    6  503    0  0.21609094967E+01 -0.14211912761E+03  0.24595567136E+03  0.28411053876E+03  0.47000000000E+01 0. -1.
         -5    1    6    6    0  503 -0.29403283964E+02 -0.60813060419E+03  0.72915243265E+03  0.94993302127E+03  0.47000000000E+01 0.  1.
<mgrwt>
<rscale>  0 0.78293314E+03</rscale>
<asrwt>0</asrwt>
<pdfrwt beam="1">  1        2 0.29820530E+00 0.78293314E+03</pdfrwt>
<pdfrwt beam="2">  1       -2 0.82760674E-01 0.78293314E+03</pdfrwt>
<totfact> 0.95249994E+00</totfact>
</mgrwt>
</event>
<event>
12    1  0.3127365E-008  0.4639893E+03  0.7818608E-02  0.1023631E+00
          2   -1    0    0  501    0  0.00000000000E+00  0.00000000000E+00  0.81225604862E+03  0.81225604862E+03  0.00000000000E+00 0.  1.
         -2   -1    0    0    0  501 -0.00000000000E+00 -0.00000000000E+00 -0.29360519049E+03  0.29360519049E+03  0.00000000000E+00 0. -1.
         23    2    1    2    0    0  0.61548849421E+02  0.28382024281E+03  0.21305437689E+03  0.37256703951E+03  0.95246208965E+02 0.  0.
    5000000    2    1    2    0    0 -0.61548849421E+02 -0.28382024281E+03  0.30559648124E+03  0.73329419960E+03  0.59999081887E+03 0.  0.
         23    2    4    4    0    0 -0.28065268914E+03 -0.26969712574E+03  0.81924319260E+02  0.40678556368E+03  0.85208152077E+02 0.  0.
         23    2    4    4    0    0  0.21910383971E+03 -0.14123117078E+02  0.22367216198E+03  0.32650863592E+03  0.91502449547E+02 0.  0.
          3    1    3    3  502    0  0.52460323776E+01  0.16610103224E+03  0.16307760940E+03  0.23283337487E+03  0.00000000000E+00 0.  1.
         -3    1    3    3    0  502  0.56302817043E+02  0.11771921057E+03  0.49976767494E+02  0.13973366464E+03  0.00000000000E+00 0. -1.
         11    1    5    5    0    0 -0.12119196759E+03 -0.69706435300E+02  0.52400935903E+02  0.14930618947E+03  0.00000000000E+00 0.  1.
        -11    1    5    5    0    0 -0.15946072155E+03 -0.19999069044E+03  0.29523383357E+02  0.25747937421E+03  0.00000000000E+00 0. -1.
          5    1    6    6  503    0  0.73750892162E+02 -0.45709599458E+02  0.61845403722E+02  0.10665601501E+03  0.47000000000E+01 0. -1.
         -5    1    6    6    0  503  0.14535294755E+03  0.31586482380E+02  0.16182675826E+03  0.21985262091E+03  0.47000000000E+01 0.  1.
<mgrwt>
<rscale>  0 0.46398926E+03</rscale>
<asrwt>0</asrwt>
<pdfrwt beam="1">  1        2 0.12496247E+00 0.46398926E+03</pdfrwt>
<pdfrwt beam="2">  1       -2 0.45170030E-01 0.46398926E+03</pdfrwt>
<totfact> 0.16179605E+02</totfact>
</mgrwt>
</event>
<event>
12    1  0.3127365E-008  0.1819361E+04  0.7818608E-02  0.8696071E-01
         -1   -1    0    0    0  501 -0.00000000000E+00  0.00000000000E+00  0.40716155379E+04  0.40716155379E+04  0.00000000000E+00 0.  1.
          1   -1    0    0  501    0  0.00000000000E+00 -0.00000000000E+00 -0.93157946676E+03  0.93157946676E+03  0.00000000000E+00 0. -1.
         23    2    1    2    0    0  0.54981025583E+03  0.17176144590E+04  0.76431375315E+03  0.19607183409E+04  0.88034946848E+02 0.  0.
    5000000    2    1    2    0    0 -0.54981025583E+03 -0.17176144590E+04  0.23757223180E+04  0.30424766637E+04  0.60009746696E+03 0.  0.
         23    2    4    4    0    0 -0.57323564483E+03 -0.13772949527E+04  0.21664257827E+04  0.26319736708E+04  0.91346816153E+02 0.  0.
         23    2    4    4    0    0  0.23425389004E+02 -0.34031950631E+03  0.20929653531E+03  0.41050299289E+03  0.91332098716E+02 0.  0.
          1    1    3    3  502    0  0.23956617793E+03  0.61153239641E+03  0.27019346186E+03  0.71018894127E+03  0.00000000000E+00 0. -1.
         -1    1    3    3    0  502  0.31024407790E+03  0.11060820626E+04  0.49412029129E+03  0.12505293997E+04  0.00000000000E+00 0.  1.
         11    1    5    5    0    0 -0.25623436131E+03 -0.63152739889E+03  0.91062026964E+03  0.11374146908E+04  0.00000000000E+00 0.  1.
        -11    1    5    5    0    0 -0.31700128353E+03 -0.74576755383E+03  0.12558055130E+04  0.14945589800E+04  0.00000000000E+00 0. -1.
          5    1    6    6  503    0  0.17824405825E+02 -0.23443668157E+03  0.19066891969E+03  0.30274575809E+03  0.47000000000E+01 0. -1.
         -5    1    6    6    0  503  0.56009831789E+01 -0.10588282474E+03  0.18627615618E+02  0.10775723480E+03  0.47000000000E+01 0.  1.
<mgrwt>
<rscale>  0 0.18193607E+04</rscale>
<asrwt>0</asrwt>
<pdfrwt beam="1">  1        1 0.14331992E+00 0.18193607E+04</pdfrwt>
<pdfrwt beam="2">  1       -1 0.62640238E+00 0.18193607E+04</pdfrwt>
<totfact> 0.53746245E-03</totfact>
</mgrwt>
</event>
<event>
12    1  0.3127365E-008  0.8800146E+03  0.7818608E-02  0.9450915E-01
          2   -1    0    0  501    0  0.00000000000E+00  0.00000000000E+00  0.26633036767E+04  0.26633036767E+04  0.00000000000E+00 0. -1.
         -2   -1    0    0    0  501 -0.00000000000E+00 -0.00000000000E+00 -0.34968508508E+03  0.34968508508E+03  0.00000000000E+00 0.  1.
         23    2    1    2    0    0 -0.12545108243E+03  0.86007519291E+03  0.10761167501E+04  0.13863442480E+04  0.91955438470E+02 0.  0.
    5000000    2    1    2    0    0  0.12545108243E+03 -0.86007519291E+03  0.12375018415E+04  0.16266445137E+04  0.59924473696E+03 0.  0.
         23    2    4    4    0    0  0.94019956578E+02 -0.32808718341E+03  0.98663766866E+02  0.36584217920E+03  0.87321297737E+02 0.  0.
         23    2    4    4    0    0  0.31431125854E+02 -0.53198800950E+03  0.11388380746E+04  0.12608023345E+04  0.93119324462E+02 0.  0.
          2    1    3    3  502    0 -0.70325794524E+02  0.61803651540E+03  0.70907544111E+03  0.94324060182E+03  0.00000000000E+00 0. -1.
         -2    1    3    3    0  502 -0.55125287908E+02  0.24203867751E+03  0.36704130901E+03  0.44310364622E+03  0.00000000000E+00 0.  1.
         11    1    5    5    0    0  0.80465230667E+02 -0.14027755411E+03  0.24954115822E+02  0.16363115055E+03  0.00000000000E+00 0. -1.
        -11    1    5    5    0    0  0.13554725911E+02 -0.18780962930E+03  0.73709651044E+02  0.20221102865E+03  0.00000000000E+00 0.  1.
          5    1    6    6  503    0  0.54818374090E+02 -0.21714398338E+03  0.51508145219E+03  0.56168278952E+03  0.47000000000E+01 0. -1.
         -5    1    6    6    0  503 -0.23387248236E+02 -0.31484402612E+03  0.62375662243E+03  0.69911954500E+03  0.47000000000E+01 0.  1.
<mgrwt>
<rscale>  0 0.88001465E+03</rscale>
<asrwt>0</asrwt>
<pdfrwt beam="1">  1        2 0.40973901E+00 0.88001465E+03</pdfrwt>
<pdfrwt beam="2">  1       -2 0.53797707E-01 0.88001465E+03</pdfrwt>
<totfact> 0.93793557E+00</totfact>
</mgrwt>
</event>
<event>
12    1  0.3127365E-008  0.6281532E+03  0.7818608E-02  0.9848659E-01
          1   -1    0    0  501    0  0.00000000000E+00  0.00000000000E+00  0.13977395066E+04  0.13977395066E+04  0.00000000000E+00 0. -1.
         -1   -1    0    0    0  501 -0.00000000000E+00 -0.00000000000E+00 -0.36344717554E+03  0.36344717554E+03  0.00000000000E+00 0.  1.
         23    2    1    2    0    0 -0.25340244134E+03  0.51262224247E+03  0.56822942700E+03  0.81031856120E+03  0.82080010781E+02 0.  0.
    5000000    2    1    2    0    0  0.25340244134E+03 -0.51262224247E+03  0.46606290409E+03  0.95086812096E+03  0.59995099144E+03 0.  0.
         23    2    4    4    0    0  0.18599852327E+03 -0.43354613969E+02 -0.76829309625E+02  0.22471111687E+03  0.90095893451E+02 0.  0.
         23    2    4    4    0    0  0.67403918066E+02 -0.46926762851E+03  0.54289221371E+03  0.72615700409E+03  0.88411783922E+02 0.  0.
          1    1    3    3  502    0 -0.10891642335E+03  0.22157869449E+03  0.30315919083E+03  0.39098005079E+03  0.00000000000E+00 0. -1.
         -1    1    3    3    0  502 -0.14448601799E+03  0.29104354798E+03  0.26507023616E+03  0.41933851042E+03  0.00000000000E+00 0.  1.
         13    1    5    5    0    0  0.29152048437E+02  0.25543903483E+02 -0.55232682600E+01  0.39151493273E+02  0.00000000000E+00 0. -1.
        -13    1    5    5    0    0  0.15684647484E+03 -0.68898517452E+02 -0.71306041365E+02  0.18555962360E+03  0.00000000000E+00 0.  1.
          5    1    6    6  503    0  0.38860933525E+02 -0.31703272211E+03  0.42388149301E+03  0.53077069358E+03  0.47000000000E+01 0. -1.
         -5    1    6    6    0  503  0.28542984541E+02 -0.15223490640E+03  0.11901072070E+03  0.19538631051E+03  0.47000000000E+01 0.  1.
<mgrwt>
<rscale>  0 0.62815317E+03</rscale>
<asrwt>0</asrwt>
<pdfrwt beam="1">  1        1 0.21503684E+00 0.62815317E+03</pdfrwt>
<pdfrwt beam="2">  1       -1 0.55914951E-01 0.62815317E+03</pdfrwt>
<totfact> 0.26170807E+01</totfact>
</mgrwt>
</event>
<event>
12    1  0.3127365E-008  0.1658176E+04  0.7818608E-02  0.8785584E-01
          1   -1    0    0  501    0  0.00000000000E+00  0.00000000000E+00  0.19546109192E+04  0.19546109192E+04  0.00000000000E+00 0. -1.
         -1   -1    0    0    0  501 -0.00000000000E+00 -0.00000000000E+00 -0.14362629206E+04  0.14362629206E+04  0.00000000000E+00 0.  1.
         23    2    1    2    0    0  0.83409630446E+03 -0.13825756261E+04  0.39115275963E+03  0.16636647170E+04  0.86878087766E+02 0.  0.
    5000000    2    1    2    0    0 -0.83409630446E+03  0.13825756261E+04  0.12719523897E+03  0.17272091229E+04  0.59986725047E+03 0.  0.
         23    2    4    4    0    0 -0.89725976281E+02  0.61380959607E+03  0.17813877108E+03  0.65243318796E+03  0.95512679479E+02 0.  0.
         23    2    4    4    0    0 -0.74437032818E+03  0.76876603005E+03 -0.50943532111E+02  0.10747759349E+04  0.86369394623E+02 0.  0.
          4    1    3    3  502    0  0.69112698898E+03 -0.10878383475E+04  0.33044260987E+03  0.13305040787E+04  0.00000000000E+00 0.  1.
         -4    1    3    3    0  502  0.14296931548E+03 -0.29473727867E+03  0.60710149758E+02  0.33316063826E+03  0.00000000000E+00 0. -1.
         11    1    5    5    0    0 -0.10996452371E+03  0.49008393937E+03  0.14344015787E+03  0.52235001962E+03  0.00000000000E+00 0. -1.
        -11    1    5    5    0    0  0.20238547424E+02  0.12372565670E+03  0.34698613204E+02  0.13008316835E+03  0.00000000000E+00 0.  1.
          5    1    6    6  503    0 -0.39647734962E+03  0.36030990321E+03  0.52534950058E+00  0.53576102985E+03  0.47000000000E+01 0. -1.
         -5    1    6    6    0  503 -0.34789297855E+03  0.40845612684E+03 -0.51468881611E+02  0.53901490504E+03  0.47000000000E+01 0.  1.
<mgrwt>
<rscale>  0 0.16581757E+04</rscale>
<asrwt>0</asrwt>
<pdfrwt beam="1">  1        1 0.30070937E+00 0.16581757E+04</pdfrwt>
<pdfrwt beam="2">  1       -1 0.22096353E+00 0.16581757E+04</pdfrwt>
<totfact> 0.32205239E-01</totfact>
</mgrwt>
</event>
<event>
12    1  0.3127365E-008  0.1068585E+04  0.7818608E-02  0.9236364E-01
          1   -1    0    0  501    0  0.00000000000E+00  0.00000000000E+00  0.20543665076E+04  0.20543665076E+04  0.00000000000E+00 0. -1.
         -1   -1    0    0    0  501 -0.00000000000E+00 -0.00000000000E+00 -0.57280588379E+03  0.57280588379E+03  0.00000000000E+00 0.  1.
         23    2    1    2    0    0 -0.40379916267E+03 -0.89759642234E+03  0.47458240371E+03  0.10963698563E+04  0.89807030220E+02 0.  0.
    5000000    2    1    2    0    0  0.40379916267E+03  0.89759642234E+03  0.10069782201E+04  0.15308025351E+04  0.60051491621E+03 0.  0.
         23    2    4    4    0    0  0.26745666447E+03  0.94127649348E+03  0.83872639035E+03  0.12918827602E+04  0.89244628628E+02 0.  0.
         23    2    4    4    0    0  0.13634249820E+03 -0.43680071141E+02  0.16825182976E+03  0.23891977490E+03  0.90976673884E+02 0.  0.
          2    1    3    3  502    0 -0.11271529799E+03 -0.33551217494E+03  0.14233121936E+03  0.38148569297E+03  0.00000000000E+00 0. -1.
         -2    1    3    3    0  502 -0.29108386469E+03 -0.56208424740E+03  0.33225118435E+03  0.71488416332E+03  0.00000000000E+00 0.  1.
         11    1    5    5    0    0  0.14380672887E+03  0.39063012805E+03  0.39679690065E+03  0.57508264847E+03  0.00000000000E+00 0. -1.
        -11    1    5    5    0    0  0.12364993560E+03  0.55064636544E+03  0.44192948970E+03  0.71680011175E+03  0.00000000000E+00 0.  1.
          5    1    6    6  503    0  0.97628578093E+02  0.15288956201E+02  0.97768023088E+02  0.13908906420E+03  0.47000000000E+01 0. -1.
         -5    1    6    6    0  503  0.38713920109E+02 -0.58969027342E+02  0.70483806671E+02  0.99830710699E+02  0.47000000000E+01 0.  1.
<mgrwt>
<rscale>  0 0.10685850E+04</rscale>
<asrwt>0</asrwt>
<pdfrwt beam="1">  1        1 0.31605638E+00 0.10685850E+04</pdfrwt>
<pdfrwt beam="2">  1       -1 0.88123983E-01 0.10685850E+04</pdfrwt>
<totfact> 0.34736760E+00</totfact>
</mgrwt>
</event>
<event>
12    1  0.3127365E-008  0.9490998E+03  0.7818608E-02  0.9366203E-01
          1   -1    0    0  501    0  0.00000000000E+00  0.00000000000E+00  0.11631707827E+04  0.11631707827E+04  0.00000000000E+00 0. -1.
         -1   -1    0    0    0  501 -0.00000000000E+00 -0.00000000000E+00 -0.95053750031E+03  0.95053750031E+03  0.00000000000E+00 0.  1.
         23    2    1    2    0    0 -0.72770109287E+03 -0.56567425833E+03 -0.18466629264E+03  0.94433108255E+03  0.90129388745E+02 0.  0.
    5000000    2    1    2    0    0  0.72770109287E+03  0.56567425833E+03  0.39729957500E+03  0.11693772004E+04  0.60004986252E+03 0.  0.
         23    2    4    4    0    0  0.67291643686E+02  0.18643002107E+03  0.33597525523E+03  0.40013743527E+03  0.89141892018E+02 0.  0.
         23    2    4    4    0    0  0.66040944919E+03  0.37924423726E+03  0.61324319775E+02  0.76923976517E+03  0.89455642918E+02 0.  0.
          4    1    3    3  502    0 -0.15242123488E+03 -0.87639453591E+02 -0.92517792366E+01  0.17606391478E+03  0.00000000000E+00 0. -1.
         -4    1    3    3    0  502 -0.57527985800E+03 -0.47803480474E+03 -0.17541451341E+03  0.76826716777E+03  0.00000000000E+00 0.  1.
         11    1    5    5    0    0  0.76917911822E+02  0.18559600950E+03  0.28769481973E+03  0.35089963409E+03  0.00000000000E+00 0.  1.
        -11    1    5    5    0    0 -0.96262681366E+01  0.83401156848E+00  0.48280435499E+02  0.49237801185E+02  0.00000000000E+00 0. -1.
          5    1    6    6  503    0  0.17469138322E+03  0.71490358816E+02 -0.13849091522E+02  0.18931940765E+03  0.47000000000E+01 0. -1.
         -5    1    6    6    0  503  0.48571806596E+03  0.30775387844E+03  0.75173411297E+02  0.57992035752E+03  0.47000000000E+01 0.  1.
<mgrwt>
<rscale>  0 0.94909980E+03</rscale>
<asrwt>0</asrwt>
<pdfrwt beam="1">  1        1 0.17894935E+00 0.94909980E+03</pdfrwt>
<pdfrwt beam="2">  1       -1 0.14623654E+00 0.94909980E+03</pdfrwt>
<totfact> 0.42888910E+00</totfact>
</mgrwt>
</event>
<event>
12    1  0.3127365E-008  0.8575741E+03  0.7818608E-02  0.9480227E-01
         -1   -1    0    0    0  501 -0.00000000000E+00  0.00000000000E+00  0.88580916179E+03  0.88580916179E+03  0.00000000000E+00 0.  1.
          1   -1    0    0  501    0  0.00000000000E+00 -0.00000000000E+00 -0.12646043240E+04  0.12646043240E+04  0.00000000000E+00 0. -1.
         23    2    1    2    0    0  0.32393130262E+02  0.79775889427E+03  0.38693887898E+03  0.89189227437E+03  0.91003102912E+02 0.  0.
    5000000    2    1    2    0    0 -0.32393130262E+02 -0.79775889427E+03 -0.76573404120E+03  0.12585212114E+04  0.60004870594E+03 0.  0.
         23    2    4    4    0    0 -0.16678900940E+03 -0.12590213155E+03 -0.43909229138E+03  0.49386658903E+03  0.86210480990E+02 0.  0.
         23    2    4    4    0    0  0.13439587914E+03 -0.67185676272E+03 -0.32664174982E+03  0.76465462239E+03  0.92455918606E+02 0.  0.
          1    1    3    3  502    0  0.54590835019E+02  0.44413620346E+03  0.24538374122E+03  0.51034332262E+03  0.00000000000E+00 0. -1.
         -1    1    3    3    0  502 -0.22197704757E+02  0.35362269081E+03  0.14155513776E+03  0.38154895174E+03  0.00000000000E+00 0.  1.
         13    1    5    5    0    0 -0.25525810525E+02 -0.69176527903E+02 -0.13663284548E+03  0.15525943926E+03  0.00000000000E+00 0. -1.
        -13    1    5    5    0    0 -0.14126319888E+03 -0.56725603647E+02 -0.30245944589E+03  0.33860714977E+03  0.00000000000E+00 0.  1.
          5    1    6    6  503    0  0.13229687477E+03 -0.56083195487E+03 -0.30289867476E+03  0.65100279711E+03  0.47000000000E+01 0. -1.
         -5    1    6    6    0  503  0.20990043731E+01 -0.11102480785E+03 -0.23743075063E+02  0.11365182529E+03  0.47000000000E+01 0.  1.
<mgrwt>
<rscale>  0 0.85757407E+03</rscale>
<asrwt>0</asrwt>
<pdfrwt beam="1">  1        1 0.19455451E+00 0.85757407E+03</pdfrwt>
<pdfrwt beam="2">  1       -1 0.13627833E+00 0.85757407E+03</pdfrwt>
<totfact> 0.44095198E+00</totfact>
</mgrwt>
</event>
<event>
12    1  0.3127365E-008  0.7879329E+03  0.7818608E-02  0.9577650E-01
          1   -1    0    0  501    0  0.00000000000E+00  0.00000000000E+00  0.30986956632E+04  0.30986956632E+04  0.00000000000E+00 0. -1.
         -1   -1    0    0    0  501 -0.00000000000E+00 -0.00000000000E+00 -0.23421822968E+03  0.23421822968E+03  0.00000000000E+00 0.  1.
         23    2    1    2    0    0 -0.65506895315E+03 -0.33659508651E+03  0.14526755469E+04  0.16312532771E+04  0.91156041378E+02 0.  0.
    5000000    2    1    2    0    0  0.65506895315E+03  0.33659508651E+03  0.14118018866E+04  0.17016606158E+04  0.60004391386E+03 0.  0.
         23    2    4    4    0    0 -0.14032635375E+02  0.13776408249E+03  0.62077722895E+03  0.64272478293E+03  0.92492817729E+02 0.  0.
         23    2    4    4    0    0  0.66910158853E+03  0.19883100402E+03  0.79102465769E+03  0.10589358329E+04  0.91620877010E+02 0.  0.
          2    1    3    3  502    0 -0.50388208745E+03 -0.24078955504E+03  0.10169881761E+04  0.11602334757E+04  0.00000000000E+00 0. -1.
         -2    1    3    3    0  502 -0.15118686570E+03 -0.95805531469E+02  0.43568737083E+03  0.47101980141E+03  0.00000000000E+00 0.  1.
         11    1    5    5    0    0 -0.19486299277E+02  0.11291041948E+03  0.59701171858E+03  0.60790745250E+03  0.00000000000E+00 0. -1.
        -11    1    5    5    0    0  0.54536639018E+01  0.24853663013E+02  0.23765510373E+02  0.34817330432E+02  0.00000000000E+00 0.  1.
          5    1    6    6  503    0  0.58641328673E+03  0.18033435193E+03  0.73420974970E+03  0.95681088408E+03  0.47000000000E+01 0. -1.
         -5    1    6    6    0  503  0.82688301797E+02  0.18496652081E+02  0.56814907991E+02  0.10212494878E+03  0.47000000000E+01 0.  1.
<mgrwt>
<rscale>  0 0.78793286E+03</rscale>
<asrwt>0</asrwt>
<pdfrwt beam="1">  1        1 0.47672238E+00 0.78793286E+03</pdfrwt>
<pdfrwt beam="2">  1       -1 0.36033576E-01 0.78793286E+03</pdfrwt>
<totfact> 0.39629342E+00</totfact>
</mgrwt>
</event>
<event>
12    1  0.3127365E-008  0.1240707E+04  0.7818608E-02  0.9077953E-01
          2   -1    0    0  501    0  0.00000000000E+00  0.00000000000E+00  0.18152156571E+04  0.18152156571E+04  0.00000000000E+00 0. -1.
         -2   -1    0    0    0  501 -0.00000000000E+00 -0.00000000000E+00 -0.95714664685E+03  0.95714664685E+03  0.00000000000E+00 0.  1.
         23    2    1    2    0    0  0.98862779918E+03  0.67799359708E+03  0.77265895680E+03  0.14290744908E+04  0.90508528404E+02 0.  0.
    5000000    2    1    2    0    0 -0.98862779918E+03 -0.67799359708E+03  0.85410053502E+02  0.13432878132E+04  0.60005585479E+03 0.  0.
         23    2    4    4    0    0 -0.53998262086E+03 -0.10473822357E+03  0.21617555065E+03  0.59806262444E+03  0.91628094754E+02 0.  0.
         23    2    4    4    0    0 -0.44864517832E+03 -0.57325537351E+03 -0.13076549714E+03  0.74522518876E+03  0.91415247281E+02 0.  0.
          4    1    3    3  502    0  0.19287117817E+03  0.15772575327E+03  0.19712857936E+03  0.31770486526E+03  0.00000000000E+00 0. -1.
         -4    1    3    3    0  502  0.79575662101E+03  0.52026784381E+03  0.57553037745E+03  0.11113696255E+04  0.00000000000E+00 0.  1.
         13    1    5    5    0    0 -0.25329268804E+03 -0.53330242384E+02  0.15074241821E+03  0.29954061030E+03  0.00000000000E+00 0.  1.
        -13    1    5    5    0    0 -0.28668993282E+03 -0.51407981190E+02  0.65433132434E+02  0.29852201414E+03  0.00000000000E+00 0. -1.
          5    1    6    6  503    0 -0.17675181560E+03 -0.28282300165E+03 -0.30622163480E+02  0.33494755034E+03  0.47000000000E+01 0. -1.
         -5    1    6    6    0  503 -0.27189336272E+03 -0.29043237185E+03 -0.10014333366E+03  0.41027763842E+03  0.47000000000E+01 0.  1.
<mgrwt>
<rscale>  0 0.12407070E+04</rscale>
<asrwt>0</asrwt>
<pdfrwt beam="1">  1        2 0.27926395E+00 0.12407070E+04</pdfrwt>
<pdfrwt beam="2">  1       -2 0.14725333E+00 0.12407070E+04</pdfrwt>
<totfact> 0.25789323E+00</totfact>
</mgrwt>
</event>
<event>
12    1  0.3127365E-008  0.9837193E+03  0.7818608E-02  0.9326584E-01
         -1   -1    0    0    0  501 -0.00000000000E+00  0.00000000000E+00  0.11921183424E+04  0.11921183424E+04  0.00000000000E+00 0.  1.
          1   -1    0    0  501    0  0.00000000000E+00 -0.00000000000E+00 -0.90075448484E+03  0.90075448484E+03  0.00000000000E+00 0. -1.
         23    2    1    2    0    0  0.59074970182E+03 -0.73809325676E+03  0.19019348872E+03  0.96876461188E+03  0.92544282448E+02 0.  0.
    5000000    2    1    2    0    0 -0.59074970182E+03  0.73809325676E+03  0.10117036886E+03  0.11241082154E+04  0.59968072378E+03 0.  0.
         23    2    4    4    0    0 -0.15105856164E+03  0.48669344949E+03  0.27027851375E+03  0.58400721912E+03  0.91240090828E+02 0.  0.
         23    2    4    4    0    0 -0.43969114018E+03  0.25139980727E+03 -0.16910814490E+03  0.54010099625E+03  0.81125579410E+02 0.  0.
          4    1    3    3  502    0  0.23626388161E+03 -0.23280073645E+03  0.45485122987E+02  0.33479202657E+03  0.00000000000E+00 0. -1.
         -4    1    3    3    0  502  0.35448582021E+03 -0.50529252031E+03  0.14470836574E+03  0.63397258531E+03  0.00000000000E+00 0.  1.
         11    1    5    5    0    0 -0.67458458016E+02  0.27723349341E+03  0.19757203654E+03  0.34705008723E+03  0.00000000000E+00 0. -1.
        -11    1    5    5    0    0 -0.83600103626E+02  0.20945995608E+03  0.72706477218E+02  0.23695713189E+03  0.00000000000E+00 0.  1.
          5    1    6    6  503    0 -0.50934849380E+02  0.18135800443E+02 -0.43714147357E+02  0.69687034793E+02  0.47000000000E+01 0. -1.
         -5    1    6    6    0  503 -0.38875629080E+03  0.23326400683E+03 -0.12539399754E+03  0.47041396146E+03  0.47000000000E+01 0.  1.
<mgrwt>
<rscale>  0 0.98371928E+03</rscale>
<asrwt>0</asrwt>
<pdfrwt beam="1">  1        1 0.13857761E+00 0.98371928E+03</pdfrwt>
<pdfrwt beam="2">  1       -1 0.18340282E+00 0.98371928E+03</pdfrwt>
<totfact> 0.35939785E+00</totfact>
</mgrwt>
</event>
<event>
12    1  0.3127365E-008  0.1890658E+04  0.7818608E-02  0.8659521E-01
          2   -1    0    0  501    0  0.00000000000E+00  0.00000000000E+00  0.49834856545E+04  0.49834856545E+04  0.00000000000E+00 0. -1.
         -2   -1    0    0    0  501 -0.00000000000E+00 -0.00000000000E+00 -0.79866667175E+03  0.79866667175E+03  0.00000000000E+00 0.  1.
         23    2    1    2    0    0  0.15454669477E+04 -0.10577271183E+04  0.12649493664E+04  0.22618060996E+04  0.91734341485E+02 0.  0.
    5000000    2    1    2    0    0 -0.15454669477E+04  0.10577271183E+04  0.29198696164E+04  0.35203462267E+04  0.59995352794E+03 0.  0.
         23    2    4    4    0    0 -0.22088249291E+03  0.29206238258E+03  0.28735459122E+03  0.47415138459E+03  0.90318123431E+02 0.  0.
         23    2    4    4    0    0 -0.13245844548E+04  0.76566473572E+03  0.26325150252E+04  0.30461948421E+04  0.91658020799E+02 0.  0.
          3    1    3    3  502    0  0.87243737406E+03 -0.58501361593E+03  0.76286970066E+03  0.12982134195E+04  0.00000000000E+00 0. -1.
         -3    1    3    3    0  502  0.67302957365E+03 -0.47271350237E+03  0.50207966570E+03  0.96359268005E+03  0.00000000000E+00 0.  1.
         13    1    5    5    0    0 -0.10307050637E+03  0.20838162116E+03  0.18411441512E+03  0.29655445904E+03  0.00000000000E+00 0. -1.
        -13    1    5    5    0    0 -0.11781198654E+03  0.83680761422E+02  0.10324017610E+03  0.17759692555E+03  0.00000000000E+00 0.  1.
          5    1    6    6  503    0 -0.12238192919E+04  0.72666150724E+03  0.24762733337E+04  0.28561726696E+04  0.47000000000E+01 0. -1.
         -5    1    6    6    0  503 -0.10076516291E+03  0.39003228483E+02  0.15624169152E+03  0.19002217254E+03  0.47000000000E+01 0.  1.
<mgrwt>
<rscale>  0 0.18906579E+04</rscale>
<asrwt>0</asrwt>
<pdfrwt beam="1">  1        2 0.76669008E+00 0.18906579E+04</pdfrwt>
<pdfrwt beam="2">  1       -2 0.12287180E+00 0.18906579E+04</pdfrwt>
<totfact> 0.16841918E-02</totfact>
</mgrwt>
</event>
<event>
12    1  0.3127365E-008  0.8966100E+03  0.7818608E-02  0.9429829E-01
          2   -1    0    0  501    0  0.00000000000E+00  0.00000000000E+00  0.22588969934E+04  0.22588969934E+04  0.00000000000E+00 0.  1.
         -2   -1    0    0    0  501 -0.00000000000E+00 -0.00000000000E+00 -0.43421173816E+03  0.43421173816E+03  0.00000000000E+00 0. -1.
         23    2    1    2    0    0 -0.18332745964E+03  0.77708689822E+03  0.27453230497E+03  0.84916333079E+03  0.90759963938E+02 0.  0.
    5000000    2    1    2    0    0  0.18332745964E+03 -0.77708689822E+03  0.15501529503E+04  0.18439454008E+04  0.59973949924E+03 0.  0.
         23    2    4    4    0    0 -0.17004874051E+03 -0.51003667620E+03  0.88300679240E+03  0.10380442726E+04  0.93706623591E+02 0.  0.
         23    2    4    4    0    0  0.35337620015E+03 -0.26705022201E+03  0.66714615791E+03  0.80590112817E+03  0.90565293876E+02 0.  0.
          4    1    3    3  502    0 -0.14434452097E+03  0.43145154702E+03  0.13704379055E+03  0.47514921729E+03  0.00000000000E+00 0.  1.
         -4    1    3    3    0  502 -0.38982938665E+02  0.34563535120E+03  0.13748851442E+03  0.37401411350E+03  0.00000000000E+00 0. -1.
         11    1    5    5    0    0 -0.12445474704E+03 -0.45778217104E+03  0.73827285195E+03  0.87755359045E+03  0.00000000000E+00 0.  1.
        -11    1    5    5    0    0 -0.45593993472E+02 -0.52254505161E+02  0.14473394045E+03  0.16049068218E+03  0.00000000000E+00 0. -1.
          5    1    6    6  503    0  0.19975392599E+03 -0.11523650397E+03  0.40634965085E+03  0.46725069453E+03  0.47000000000E+01 0. -1.
         -5    1    6    6    0  503  0.15362227417E+03 -0.15181371805E+03  0.26079650706E+03  0.33865043364E+03  0.47000000000E+01 0.  1.
<mgrwt>
<rscale>  0 0.89661003E+03</rscale>
<asrwt>0</asrwt>
<pdfrwt beam="1">  1        2 0.34752261E+00 0.89661003E+03</pdfrwt>
<pdfrwt beam="2">  1       -2 0.66801807E-01 0.89661003E+03</pdfrwt>
<totfact> 0.10041720E+01</totfact>
</mgrwt>
</event>
<event>
12    1  0.3127365E-008  0.4973435E+03  0.7818608E-02  0.1014475E+00
          1   -1    0    0  501    0  0.00000000000E+00  0.00000000000E+00  0.18100958741E+04  0.18100958741E+04  0.00000000000E+00 0. -1.
         -1   -1    0    0    0  501 -0.00000000000E+00 -0.00000000000E+00 -0.35834398775E+03  0.35834398775E+03  0.00000000000E+00 0.  1.
         23    2    1    2    0    0  0.26515519136E+03 -0.37436360519E+03 -0.66048093691E+02  0.47315818249E+03  0.95188920501E+02 0.  0.
    5000000    2    1    2    0    0 -0.26515519136E+03  0.37436360519E+03  0.15177999801E+04  0.16952816794E+04  0.59983981906E+03 0.  0.
         23    2    4    4    0    0 -0.12547579317E+03  0.37277579685E+03  0.14665796631E+04  0.15211464526E+04  0.91239534364E+02 0.  0.
         23    2    4    4    0    0 -0.13967939819E+03  0.15878083407E+01  0.51220316933E+02  0.17413522675E+03  0.90480389662E+02 0.  0.
          3    1    3    3  502    0  0.17958634239E+03 -0.23138211388E+03  0.26815144317E+01  0.29290976003E+03  0.00000000000E+00 0. -1.
         -3    1    3    3    0  502  0.85568848969E+02 -0.14298149131E+03 -0.68729608123E+02  0.18024842247E+03  0.00000000000E+00 0.  1.
         13    1    5    5    0    0 -0.88040718955E+02  0.29417819037E+03  0.98476635719E+03  0.10315312667E+04  0.00000000000E+00 0.  1.
        -13    1    5    5    0    0 -0.37435074216E+02  0.78597606479E+02  0.48181330593E+03  0.48961518593E+03  0.00000000000E+00 0. -1.
          5    1    6    6  503    0 -0.57417610506E+02 -0.76670185828E+01 -0.23338364313E+02  0.62628543165E+02  0.47000000000E+01 0. -1.
         -5    1    6    6    0  503 -0.82261787686E+02  0.92548269235E+01  0.74558681246E+02  0.11150668358E+03  0.47000000000E+01 0.  1.
<mgrwt>
<rscale>  0 0.49734347E+03</rscale>
<asrwt>0</asrwt>
<pdfrwt beam="1">  1        1 0.27847628E+00 0.49734347E+03</pdfrwt>
<pdfrwt beam="2">  1       -1 0.55129845E-01 0.49734347E+03</pdfrwt>
<totfact> 0.14530916E+01</totfact>
</mgrwt>
</event>
<event>
12    1  0.3127365E-008  0.2067575E+04  0.7818608E-02  0.8575663E-01
          2   -1    0    0  501    0  0.00000000000E+00  0.00000000000E+00  0.16047804102E+04  0.16047804102E+04  0.00000000000E+00 0. -1.
         -2   -1    0    0    0  501 -0.00000000000E+00 -0.00000000000E+00 -0.27169934123E+04  0.27169934123E+04  0.00000000000E+00 0.  1.
         23    2    1    2    0    0  0.15596795167E+04 -0.13186177749E+04 -0.46243625542E+03  0.20961050114E+04  0.91955953905E+02 0.  0.
    5000000    2    1    2    0    0 -0.15596795167E+04  0.13186177749E+04 -0.64977674670E+03  0.22256688111E+04  0.60003233667E+03 0.  0.
         23    2    4    4    0    0 -0.29854259532E+03  0.58789199986E+02 -0.23022916134E+03  0.39210860648E+03  0.90331839846E+02 0.  0.
         23    2    4    4    0    0 -0.12611369213E+04  0.12598285750E+04 -0.41954758536E+03  0.18335602046E+04  0.91041061736E+02 0.  0.
          2    1    3    3  502    0  0.12600146177E+04 -0.10857535843E+04 -0.34329713302E+03  0.16983376002E+04  0.00000000000E+00 0.  1.
         -2    1    3    3    0  502  0.29966489895E+03 -0.23286419060E+03 -0.11913912240E+03  0.39776741120E+03  0.00000000000E+00 0. -1.
         13    1    5    5    0    0 -0.18329048947E+03  0.13475995484E+02 -0.18360090873E+03  0.25978125350E+03  0.00000000000E+00 0. -1.
        -13    1    5    5    0    0 -0.11525210585E+03  0.45313204502E+02 -0.46628252611E+02  0.13232735298E+03  0.00000000000E+00 0.  1.
          5    1    6    6  503    0 -0.71945929614E+03  0.77909291313E+03 -0.23663943434E+03  0.10865669597E+04  0.47000000000E+01 0. -1.
         -5    1    6    6    0  503 -0.54167762520E+03  0.48073566182E+03 -0.18290815102E+03  0.74699324488E+03  0.47000000000E+01 0.  1.
<mgrwt>
<rscale>  0 0.20675748E+04</rscale>
<asrwt>0</asrwt>
<pdfrwt beam="1">  1        2 0.24688929E+00 0.20675748E+04</pdfrwt>
<pdfrwt beam="2">  1       -2 0.41799899E+00 0.20675748E+04</pdfrwt>
<totfact> 0.55460318E-02</totfact>
</mgrwt>
</event>
<event>
12    1  0.3127365E-008  0.1766158E+04  0.7818608E-02  0.8724506E-01
         -1   -1    0    0    0  501 -0.00000000000E+00  0.00000000000E+00  0.81788650272E+03  0.81788650272E+03  0.00000000000E+00 0.  1.
          1   -1    0    0  501    0  0.00000000000E+00 -0.00000000000E+00 -0.39957713015E+04  0.39957713015E+04  0.00000000000E+00 0. -1.
         23    2    1    2    0    0  0.15577556533E+04 -0.80085523390E+03 -0.13650386452E+04  0.22225466268E+04  0.91712728663E+02 0.  0.
    5000000    2    1    2    0    0 -0.15577556533E+04  0.80085523390E+03 -0.18128461536E+04  0.25911111774E+04  0.59956165319E+03 0.  0.
         23    2    4    4    0    0 -0.12536121766E+04  0.73792653808E+03 -0.11620352735E+04  0.18642830802E+04  0.95636611050E+02 0.  0.
         23    2    4    4    0    0 -0.30414347668E+03  0.62928695815E+02 -0.65081088011E+03  0.72682809718E+03  0.90890076585E+02 0.  0.
          3    1    3    3  502    0  0.14755531934E+03 -0.47538228192E+02 -0.12875438092E+03  0.20151959213E+03  0.00000000000E+00 0. -1.
         -3    1    3    3    0  502  0.14102003339E+04 -0.75331700570E+03 -0.12362842643E+04  0.20210270347E+04  0.00000000000E+00 0.  1.
         11    1    5    5    0    0 -0.67444792256E+03  0.44133252984E+03 -0.67907623141E+03  0.10539444626E+04  0.00000000000E+00 0. -1.
        -11    1    5    5    0    0 -0.57916425404E+03  0.29659400824E+03 -0.48295904208E+03  0.81033861762E+03  0.00000000000E+00 0.  1.
          5    1    6    6  503    0 -0.43772404329E+02  0.41495601300E+02 -0.15480934897E+03  0.16621050760E+03  0.47000000000E+01 0. -1.
         -5    1    6    6    0  503 -0.26037107235E+03  0.21433094515E+02 -0.49600153114E+03  0.56061758959E+03  0.47000000000E+01 0.  1.
<mgrwt>
<rscale>  0 0.17661578E+04</rscale>
<asrwt>0</asrwt>
<pdfrwt beam="1">  1        1 0.61473404E+00 0.17661578E+04</pdfrwt>
<pdfrwt beam="2">  1       -1 0.12582869E+00 0.17661578E+04</pdfrwt>
<totfact> 0.49689042E-02</totfact>
</mgrwt>
</event>
<event>
12    1  0.3127365E-008  0.8809504E+03  0.7818608E-02  0.9449713E-01
          2   -1    0    0  501    0  0.00000000000E+00  0.00000000000E+00  0.89348892179E+03  0.89348892179E+03  0.00000000000E+00 0. -1.
         -2   -1    0    0    0  501 -0.00000000000E+00 -0.00000000000E+00 -0.91644068331E+03  0.91644068331E+03  0.00000000000E+00 0.  1.
         23    2    1    2    0    0  0.77727490868E+03  0.12602653087E+03  0.14383906712E+03  0.80590681671E+03  0.93579644403E+02 0.  0.
    5000000    2    1    2    0    0 -0.77727490868E+03 -0.12602653087E+03 -0.16679082864E+03  0.10040227884E+04  0.60016965014E+03 0.  0.
         23    2    4    4    0    0  0.51264038904E+02  0.75123955372E+02 -0.60311056238E+01  0.13144044203E+03  0.94702720190E+02 0.  0.
         23    2    4    4    0    0 -0.82853894758E+03 -0.20115048624E+03 -0.16075972301E+03  0.87258234636E+03  0.92832951366E+02 0.  0.
          4    1    3    3  502    0  0.30032140394E+03  0.65152011154E+01  0.36212773704E+02  0.30256694877E+03  0.00000000000E+00 0. -1.
         -4    1    3    3    0  502  0.47695350474E+03  0.11951132975E+03  0.10762629342E+03  0.50333986794E+03  0.00000000000E+00 0.  1.
         13    1    5    5    0    0  0.27220883533E+02  0.84815358700E+02 -0.32093032466E+02  0.94681488711E+02  0.00000000000E+00 0.  1.
        -13    1    5    5    0    0  0.24043155371E+02 -0.96914033273E+01  0.26061926842E+02  0.36758953323E+02  0.00000000000E+00 0. -1.
          5    1    6    6  503    0 -0.32956111627E+03 -0.49608050752E+02 -0.28218590429E+02  0.33449942736E+03  0.47000000000E+01 0. -1.
         -5    1    6    6    0  503 -0.49897783131E+03 -0.15154243549E+03 -0.13254113259E+03  0.53808291900E+03  0.47000000000E+01 0.  1.
<mgrwt>
<rscale>  0 0.88095042E+03</rscale>
<asrwt>0</asrwt>
<pdfrwt beam="1">  1        2 0.13745984E+00 0.88095042E+03</pdfrwt>
<pdfrwt beam="2">  1       -2 0.14099087E+00 0.88095042E+03</pdfrwt>
<totfact> 0.10472650E+01</totfact>
</mgrwt>
</event>
<event>
12    1  0.3819795E-008  0.6075798E+03  0.7818608E-02  0.9889804E-01
         -3   -1    0    0    0  501 -0.00000000000E+00  0.00000000000E+00  0.10120622563E+04  0.10120622563E+04  0.00000000000E+00 0.  1.
          3   -1    0    0  501    0  0.00000000000E+00 -0.00000000000E+00 -0.52950115195E+03  0.52950115195E+03  0.00000000000E+00 0. -1.
         23    2    1    2    0    0  0.33191818226E+03 -0.49743281907E+03  0.29217598961E+03  0.67331242850E+03  0.10185150104E+03 0.  0.
    5000000    2    1    2    0    0 -0.33191818226E+03  0.49743281907E+03  0.19038511471E+03  0.86825097972E+03  0.60000348555E+03 0.  0.
         23    2    4    4    0    0 -0.11460112081E+03  0.24290269722E+03 -0.19960517064E+03  0.34602466592E+03  0.88066498013E+02 0.  0.
         23    2    4    4    0    0 -0.21731706145E+03  0.25453012185E+03  0.38999028535E+03  0.52222631380E+03  0.92820321198E+02 0.  0.
          1    1    3    3  502    0  0.24625679296E+03 -0.31146671707E+03  0.23217240578E+03  0.45995429113E+03  0.00000000000E+00 0. -1.
         -1    1    3    3    0  502  0.85661389302E+02 -0.18596610200E+03  0.60003583831E+02  0.21335813737E+03  0.00000000000E+00 0.  1.
         11    1    5    5    0    0 -0.30477839004E+02  0.52369557702E+02 -0.95695260508E+02  0.11326540570E+03  0.00000000000E+00 0. -1.
        -11    1    5    5    0    0 -0.84123281808E+02  0.19053313952E+03 -0.10390991013E+03  0.23275926022E+03  0.00000000000E+00 0.  1.
          5    1    6    6  503    0 -0.10412100592E+03  0.62510838620E+02  0.17033344528E+03  0.20924712997E+03  0.47000000000E+01 0. -1.
         -5    1    6    6    0  503 -0.11319605553E+03  0.19201928323E+03  0.21965684007E+03  0.31297918383E+03  0.47000000000E+01 0.  1.
<mgrwt>
<rscale>  0 0.60757979E+03</rscale>
<asrwt>0</asrwt>
<pdfrwt beam="1">  1        3 0.81461716E-01 0.60757979E+03</pdfrwt>
<pdfrwt beam="2">  1       -3 0.15570189E+00 0.60757979E+03</pdfrwt>
<totfact> 0.10696108E+00</totfact>
</mgrwt>
</event>
<event>
12    1  0.3127365E-008  0.9280716E+03  0.7818608E-02  0.9391155E-01
         -3   -1    0    0    0  501 -0.00000000000E+00  0.00000000000E+00  0.75633327430E+03  0.75633327430E+03  0.00000000000E+00 0.  1.
          3   -1    0    0  501    0  0.00000000000E+00 -0.00000000000E+00 -0.27270508644E+04  0.27270508644E+04  0.00000000000E+00 0. -1.
         23    2    1    2    0    0 -0.82349730064E+03 -0.40205415139E+03  0.29468373845E+03  0.96705782948E+03  0.92558062990E+02 0.  0.
    5000000    2    1    2    0    0  0.82349730064E+03  0.40205415139E+03 -0.22654013285E+04  0.25163263092E+04  0.60004963984E+03 0.  0.
         23    2    4    4    0    0  0.32563799090E+03  0.11621576231E+03 -0.29967669403E+03  0.46651546887E+03  0.91018444436E+02 0.  0.
         23    2    4    4    0    0  0.49785930974E+03  0.28583838909E+03 -0.19657246345E+04  0.20498108403E+04  0.89909206916E+02 0.  0.
          3    1    3    3  502    0 -0.20163483428E+03 -0.13500574407E+03  0.52660714964E+02  0.24830688316E+03  0.00000000000E+00 0. -1.
         -3    1    3    3    0  502 -0.62186246637E+03 -0.26704840733E+03  0.24202302348E+03  0.71875094631E+03  0.00000000000E+00 0.  1.
         13    1    5    5    0    0  0.15513673327E+03  0.88418066154E+01 -0.14450858508E+03  0.21219876229E+03  0.00000000000E+00 0.  1.
        -13    1    5    5    0    0  0.17050125763E+03  0.10737395569E+03 -0.15516810895E+03  0.25431670659E+03  0.00000000000E+00 0. -1.
          5    1    6    6  503    0  0.15189255745E+03  0.45807515159E+02 -0.47998833826E+03  0.50554977235E+03  0.47000000000E+01 0. -1.
         -5    1    6    6    0  503  0.34596675229E+03  0.24003087393E+03 -0.14857362962E+04  0.15442610680E+04  0.47000000000E+01 0.  1.
<mgrwt>
<rscale>  0 0.92807163E+03</rscale>
<asrwt>0</asrwt>
<pdfrwt beam="1">  1        3 0.41954629E+00 0.92807163E+03</pdfrwt>
<pdfrwt beam="2">  1       -3 0.11635897E+00 0.92807163E+03</pdfrwt>
<totfact> 0.13898902E-02</totfact>
</mgrwt>
</event>
<event>
12    1  0.3127365E-008  0.8014363E+03  0.7818608E-02  0.9557940E-01
         -1   -1    0    0    0  501 -0.00000000000E+00  0.00000000000E+00  0.34701222617E+03  0.34701222617E+03  0.00000000000E+00 0.  1.
          1   -1    0    0  501    0  0.00000000000E+00 -0.00000000000E+00 -0.23654114945E+04  0.23654114945E+04  0.00000000000E+00 0. -1.
         23    2    1    2    0    0  0.69308432250E+03  0.11497482202E+03 -0.31638167531E+03  0.77577916713E+03  0.90282134904E+02 0.  0.
    5000000    2    1    2    0    0 -0.69308432250E+03 -0.11497482202E+03 -0.17020175931E+04  0.19366445536E+04  0.60011928153E+03 0.  0.
         23    2    4    4    0    0 -0.25316516732E+03  0.21857512535E+03 -0.84411827192E+03  0.91248596710E+03  0.90704442004E+02 0.  0.
         23    2    4    4    0    0 -0.43991915518E+03 -0.33354994738E+03 -0.85789932113E+03  0.10241585865E+04  0.90139528380E+02 0.  0.
          4    1    3    3  502    0  0.18744878054E+03  0.70203402596E+02 -0.75744843451E+02  0.21401599092E+03  0.00000000000E+00 0. -1.
         -4    1    3    3    0  502  0.50563554196E+03  0.44771419427E+02 -0.24063683186E+03  0.56176317621E+03  0.00000000000E+00 0.  1.
         13    1    5    5    0    0 -0.84478064519E+02  0.12163098345E+03 -0.29848289265E+03  0.33320065535E+03  0.00000000000E+00 0. -1.
        -13    1    5    5    0    0 -0.16868710280E+03  0.96944141904E+02 -0.54563537927E+03  0.57928531175E+03  0.00000000000E+00 0.  1.
          5    1    6    6  503    0 -0.50868904142E+02 -0.44465408363E+02 -0.16674775140E+03  0.17997700005E+03  0.47000000000E+01 0. -1.
         -5    1    6    6    0  503 -0.38905025103E+03 -0.28908453901E+03 -0.69115156972E+03  0.84418158643E+03  0.47000000000E+01 0.  1.
<mgrwt>
<rscale>  0 0.80143632E+03</rscale>
<asrwt>0</asrwt>
<pdfrwt beam="1">  1        1 0.36390946E+00 0.80143632E+03</pdfrwt>
<pdfrwt beam="2">  1       -1 0.53386497E-01 0.80143632E+03</pdfrwt>
<totfact> 0.62125029E+00</totfact>
</mgrwt>
</event>
<event>
12    1  0.3127365E-008  0.1454884E+04  0.7818608E-02  0.8915022E-01
          2   -1    0    0  501    0  0.00000000000E+00  0.00000000000E+00  0.12446576710E+04  0.12446576710E+04  0.00000000000E+00 0. -1.
         -2   -1    0    0    0  501 -0.00000000000E+00 -0.00000000000E+00 -0.21479949591E+04  0.21479949591E+04  0.00000000000E+00 0.  1.
         23    2    1    2    0    0 -0.98710921667E+03 -0.10472360393E+04  0.23737597420E+03  0.14612944484E+04  0.89141370772E+02 0.  0.
    5000000    2    1    2    0    0  0.98710921667E+03  0.10472360393E+04 -0.11407132622E+04  0.19313581818E+04  0.59818872598E+03 0.  0.
         23    2    4    4    0    0  0.71904416506E+03  0.90305727166E+03 -0.59811713021E+03  0.13033319170E+04  0.91613520573E+02 0.  0.
         23    2    4    4    0    0  0.26806505160E+03  0.14417876765E+03 -0.54259613204E+03  0.62802626477E+03  0.85790662728E+02 0.  0.
          3    1    3    3  502    0 -0.59812100609E+03 -0.65572091231E+03  0.10487676235E+03  0.89371012529E+03  0.00000000000E+00 0.  1.
         -3    1    3    3    0  502 -0.38898821058E+03 -0.39151512700E+03  0.13249921185E+03  0.56758432306E+03  0.00000000000E+00 0. -1.
         11    1    5    5    0    0  0.46904424496E+03  0.56029519883E+03 -0.42343346283E+03  0.84452892845E+03  0.00000000000E+00 0. -1.
        -11    1    5    5    0    0  0.24999992011E+03  0.34276207284E+03 -0.17468366738E+03  0.45880298852E+03  0.00000000000E+00 0.  1.
          5    1    6    6  503    0  0.18764236948E+03  0.55866405886E+02 -0.31408437198E+03  0.37013753775E+03  0.47000000000E+01 0. -1.
         -5    1    6    6    0  503  0.80422682122E+02  0.88312361765E+02 -0.22851176006E+03  0.25788872702E+03  0.47000000000E+01 0.  1.
<mgrwt>
<rscale>  0 0.14548836E+04</rscale>
<asrwt>0</asrwt>
<pdfrwt beam="1">  1        2 0.19148580E+00 0.14548836E+04</pdfrwt>
<pdfrwt beam="2">  1       -2 0.33046076E+00 0.14548836E+04</pdfrwt>
<totfact> 0.34880898E-01</totfact>
</mgrwt>
</event>
<event>
12    1  0.3127365E-008  0.8586324E+03  0.7818608E-02  0.9478824E-01
         -1   -1    0    0    0  501 -0.00000000000E+00  0.00000000000E+00  0.74976365043E+03  0.74976365043E+03  0.00000000000E+00 0.  1.
          1   -1    0    0  501    0  0.00000000000E+00 -0.00000000000E+00 -0.11954800050E+04  0.11954800050E+04  0.00000000000E+00 0. -1.
         23    2    1    2    0    0  0.22568885720E+03 -0.76955318310E+03 -0.49053502043E+03  0.94259726488E+03  0.68683590425E+02 0.  0.
    5000000    2    1    2    0    0 -0.22568885720E+03  0.76955318310E+03  0.44818665903E+02  0.10026463905E+04  0.60011957951E+03 0.  0.
         23    2    4    4    0    0  0.32658169031E+02  0.57165123090E+03 -0.16787354260E+03  0.60359524421E+03  0.91071437509E+02 0.  0.
         23    2    4    4    0    0 -0.25834702623E+03  0.19790195221E+03  0.21269220850E+03  0.39905114631E+03  0.89974847384E+02 0.  0.
          4    1    3    3  502    0  0.62638328318E+02 -0.25113121209E+03 -0.19433931455E+03  0.32366373761E+03  0.00000000000E+00 0. -1.
         -4    1    3    3    0  502  0.16305052888E+03 -0.51842197101E+03 -0.29619570587E+03  0.61893352727E+03  0.00000000000E+00 0.  1.
         13    1    5    5    0    0  0.55497098452E+02  0.33142350541E+03 -0.12483514719E+03  0.35847633373E+03  0.00000000000E+00 0. -1.
        -13    1    5    5    0    0 -0.22838929421E+02  0.24022772549E+03 -0.43038395414E+02  0.24511891047E+03  0.00000000000E+00 0.  1.
          5    1    6    6  503    0 -0.38906039243E+02  0.78566485245E+02  0.53837873510E+02  0.10299018942E+03  0.47000000000E+01 0. -1.
         -5    1    6    6    0  503 -0.21944098699E+03  0.11933546696E+03  0.15885433499E+03  0.29606095689E+03  0.47000000000E+01 0.  1.
<mgrwt>
<rscale>  0 0.85863238E+03</rscale>
<asrwt>0</asrwt>
<pdfrwt beam="1">  1        1 0.18392000E+00 0.85863238E+03</pdfrwt>
<pdfrwt beam="2">  1       -1 0.11534826E+00 0.85863238E+03</pdfrwt>
<totfact> 0.74869508E+00</totfact>
</mgrwt>
</event>
<event>
12    1  0.3127365E-008  0.6789259E+03  0.7818608E-02  0.9753966E-01
         -2   -1    0    0    0  501 -0.00000000000E+00  0.00000000000E+00  0.29165494155E+03  0.29165494155E+03  0.00000000000E+00 0. -1.
          2   -1    0    0  501    0  0.00000000000E+00 -0.00000000000E+00 -0.17602112446E+04  0.17602112446E+04  0.00000000000E+00 0.  1.
         23    2    1    2    0    0  0.66462715069E+02  0.55033634802E+03 -0.88192345989E+03  0.10453615334E+04  0.87774472368E+02 0.  0.
    5000000    2    1    2    0    0 -0.66462715069E+02 -0.55033634802E+03 -0.58663284321E+03  0.10065046528E+04  0.60135358560E+03 0.  0.
         23    2    4    4    0    0  0.15339665554E+03  0.40893052434E+02 -0.13937353454E+03  0.22785526682E+03  0.85383047609E+02 0.  0.
         23    2    4    4    0    0 -0.21985937061E+03 -0.59122940045E+03 -0.44725930866E+03  0.77864938597E+03  0.91452885568E+02 0.  0.
          1    1    3    3  502    0 -0.27873900298E+01  0.39575371212E+02 -0.11212746225E+03  0.11893925904E+03  0.00000000000E+00 0. -1.
         -1    1    3    3    0  502  0.69250105099E+02  0.51076097680E+03 -0.76979599764E+03  0.92642227438E+03  0.00000000000E+00 0.  1.
         13    1    5    5    0    0  0.13856420724E+03  0.20157085592E+02 -0.14518632533E+03  0.20170626339E+03  0.00000000000E+00 0.  1.
        -13    1    5    5    0    0  0.14832448298E+02  0.20735966842E+02  0.58127907937E+01  0.26149003426E+02  0.00000000000E+00 0. -1.
          5    1    6    6  503    0 -0.15461658090E+03 -0.28687638882E+03 -0.23730627849E+03  0.40316337801E+03  0.47000000000E+01 0. -1.
         -5    1    6    6    0  503 -0.65242789706E+02 -0.30435301163E+03 -0.20995303017E+03  0.37548600796E+03  0.47000000000E+01 0.  1.
<mgrwt>
<rscale>  0 0.67892590E+03</rscale>
<asrwt>0</asrwt>
<pdfrwt beam="1">  1        2 0.27080173E+00 0.67892590E+03</pdfrwt>
<pdfrwt beam="2">  1       -2 0.44869991E-01 0.67892590E+03</pdfrwt>
<totfact> 0.44275116E+01</totfact>
</mgrwt>
</event>
<event>
12    1  0.3127365E-008  0.1215830E+04  0.7818608E-02  0.9099112E-01
         -2   -1    0    0    0  501 -0.00000000000E+00  0.00000000000E+00  0.10254318660E+04  0.10254318660E+04  0.00000000000E+00 0. -1.
          2   -1    0    0  501    0  0.00000000000E+00 -0.00000000000E+00 -0.14876789466E+04  0.14876789466E+04  0.00000000000E+00 0.  1.
         23    2    1    2    0    0 -0.76612024822E+03  0.85475330577E+03 -0.39108202997E+03  0.12159337081E+04  0.89477258939E+02 0.  0.
    5000000    2    1    2    0    0  0.76612024822E+03 -0.85475330577E+03 -0.71165050593E+02  0.12971771045E+04  0.60005043761E+03 0.  0.
         23    2    4    4    0    0  0.74049782253E+03 -0.45732768335E+03  0.33570780561E+02  0.87567730488E+03  0.90543414110E+02 0.  0.
         23    2    4    4    0    0  0.25622425693E+02 -0.39742562241E+03 -0.10473583115E+03  0.42149979967E+03  0.89938049466E+02 0.  0.
          3    1    3    3  502    0 -0.68271845887E+03  0.71751587207E+03 -0.34624695884E+03  0.10491999224E+04  0.00000000000E+00 0. -1.
         -3    1    3    3    0  502 -0.83401789357E+02  0.13723743370E+03 -0.44835071134E+02  0.16673378566E+03  0.00000000000E+00 0.  1.
         11    1    5    5    0    0  0.19156707552E+03 -0.16243208848E+03  0.25996689526E+02  0.25250337752E+03  0.00000000000E+00 0. -1.
        -11    1    5    5    0    0  0.54893074701E+03 -0.29489559487E+03  0.75740910351E+01  0.62317392736E+03  0.00000000000E+00 0.  1.
          5    1    6    6  503    0  0.44137396778E+02 -0.11473188527E+03 -0.50690029478E+02  0.13305293826E+03  0.47000000000E+01 0. -1.
         -5    1    6    6    0  503 -0.18514971085E+02 -0.28269373714E+03 -0.54045801676E+02  0.28844686140E+03  0.47000000000E+01 0.  1.
<mgrwt>
<rscale>  0 0.12158300E+04</rscale>
<asrwt>0</asrwt>
<pdfrwt beam="1">  1        2 0.22887368E+00 0.12158300E+04</pdfrwt>
<pdfrwt beam="2">  1       -2 0.15775875E+00 0.12158300E+04</pdfrwt>
<totfact> 0.32749678E+00</totfact>
</mgrwt>
</event>
<event>
12    1  0.3127365E-008  0.8912456E+03  0.7818608E-02  0.9436592E-01
         -1   -1    0    0    0  501 -0.00000000000E+00  0.00000000000E+00  0.17131480960E+04  0.17131480960E+04  0.00000000000E+00 0.  1.
          1   -1    0    0  501    0  0.00000000000E+00 -0.00000000000E+00 -0.48251199575E+03  0.48251199575E+03  0.00000000000E+00 0. -1.
         23    2    1    2    0    0 -0.61077033983E+03  0.52446442547E+03  0.62367093110E+03  0.10223377816E+04  0.90032037175E+02 0.  0.
    5000000    2    1    2    0    0  0.61077033983E+03 -0.52446442547E+03  0.60696516911E+03  0.11733223102E+04  0.60014597007E+03 0.  0.
         23    2    4    4    0    0  0.90072279074E+02  0.10692152469E+03  0.36248632768E+02  0.17109174799E+03  0.91723470024E+02 0.  0.
         23    2    4    4    0    0  0.52069806075E+03 -0.63138595016E+03  0.57071653634E+03  0.10022305622E+04  0.94731443285E+02 0.  0.
          3    1    3    3  502    0 -0.45225758397E+03  0.36629304429E+03  0.49532687377E+03  0.76423571523E+03  0.00000000000E+00 0. -1.
         -3    1    3    3    0  502 -0.15851275586E+03  0.15817138119E+03  0.12834405733E+03  0.25810206634E+03  0.00000000000E+00 0.  1.
         13    1    5    5    0    0 -0.48819424034E+01  0.41646460505E+02  0.36911459424E+02  0.55863376831E+02  0.00000000000E+00 0. -1.
        -13    1    5    5    0    0  0.94954221478E+02  0.65275064183E+02 -0.66282665566E+00  0.11522837116E+03  0.00000000000E+00 0.  1.
          5    1    6    6  503    0  0.42615229897E+03 -0.53915840455E+03  0.51499797253E+03  0.85880298604E+03  0.47000000000E+01 0. -1.
         -5    1    6    6    0  503  0.94545761778E+02 -0.92227545611E+02  0.55718563811E+02  0.14342757612E+03  0.47000000000E+01 0.  1.
<mgrwt>
<rscale>  0 0.89124558E+03</rscale>
<asrwt>0</asrwt>
<pdfrwt beam="1">  1        1 0.74232615E-01 0.89124558E+03</pdfrwt>
<pdfrwt beam="2">  1       -1 0.26356124E+00 0.89124558E+03</pdfrwt>
<totfact> 0.27113512E+00</totfact>
</mgrwt>
</event>
<event>
12    1  0.3127365E-008  0.4542815E+03  0.7818608E-02  0.1026453E+00
          2   -1    0    0  501    0  0.00000000000E+00  0.00000000000E+00  0.27368683431E+04  0.27368683431E+04  0.00000000000E+00 0. -1.
         -2   -1    0    0    0  501 -0.00000000000E+00 -0.00000000000E+00 -0.11212919204E+03  0.11212919204E+03  0.00000000000E+00 0.  1.
         23    2    1    2    0    0 -0.25869695791E+02 -0.38005191835E+03  0.79727596234E+03  0.88819463205E+03  0.90177838020E+02 0.  0.
    5000000    2    1    2    0    0  0.25869695791E+02  0.38005191835E+03  0.18274631887E+04  0.19608029031E+04  0.60001468057E+03 0.  0.
         23    2    4    4    0    0  0.27650102373E+01  0.42381961228E+03  0.66710731094E+03  0.79572259865E+03  0.92258228129E+02 0.  0.
         23    2    4    4    0    0  0.23104685553E+02 -0.43767693933E+02  0.11603558778E+04  0.11650803045E+04  0.92395428462E+02 0.  0.
          3    1    3    3  502    0 -0.98199544456E+01 -0.79482512903E+02  0.95789771197E+02  0.12485824614E+03  0.00000000000E+00 0. -1.
         -3    1    3    3    0  502 -0.16049741345E+02 -0.30056940545E+03  0.70148619115E+03  0.76333638591E+03  0.00000000000E+00 0.  1.
         13    1    5    5    0    0 -0.28954368850E+02  0.13133464164E+03  0.15580422087E+03  0.20582055003E+03  0.00000000000E+00 0. -1.
        -13    1    5    5    0    0  0.31719379088E+02  0.29248497064E+03  0.51130309007E+03  0.58990204862E+03  0.00000000000E+00 0.  1.
          5    1    6    6  503    0 -0.14807176013E+02 -0.56441717281E+02  0.86728270219E+03  0.86925617365E+03  0.47000000000E+01 0. -1.
         -5    1    6    6    0  503  0.37911861566E+02  0.12674023348E+02  0.29307317560E+03  0.29582413082E+03  0.47000000000E+01 0.  1.
<mgrwt>
<rscale>  0 0.45428153E+03</rscale>
<asrwt>0</asrwt>
<pdfrwt beam="1">  1        2 0.42105662E+00 0.45428153E+03</pdfrwt>
<pdfrwt beam="2">  1       -2 0.17250647E-01 0.45428153E+03</pdfrwt>
<totfact> 0.76548577E+01</totfact>
</mgrwt>
</event>
<event>
12    1  0.3127365E-008  0.1260992E+04  0.7818608E-02  0.9061084E-01
          2   -1    0    0  501    0  0.00000000000E+00  0.00000000000E+00  0.13898972391E+04  0.13898972391E+04  0.00000000000E+00 0. -1.
         -2   -1    0    0    0  501 -0.00000000000E+00 -0.00000000000E+00 -0.12191873095E+04  0.12191873095E+04  0.00000000000E+00 0.  1.
         23    2    1    2    0    0  0.11495869171E+04 -0.43839793785E+03  0.11355075456E+03  0.12388698403E+04  0.90343098321E+02 0.  0.
    5000000    2    1    2    0    0 -0.11495869171E+04  0.43839793785E+03  0.57159175014E+02  0.13702147084E+04  0.60039848765E+03 0.  0.
         23    2    4    4    0    0 -0.55546870763E+03  0.16470284028E+02  0.24216231623E+03  0.61297048561E+03  0.90958635741E+02 0.  0.
         23    2    4    4    0    0 -0.59411820946E+03  0.42192765382E+03 -0.18500314122E+03  0.75724422279E+03  0.90516621747E+02 0.  0.
          4    1    3    3  502    0  0.69606940908E+03 -0.23723663406E+03  0.31997376105E+02  0.73608265492E+03  0.00000000000E+00 0. -1.
         -4    1    3    3    0  502  0.45351750800E+03 -0.20116130380E+03  0.81553378452E+02  0.50278718535E+03  0.00000000000E+00 0.  1.
         13    1    5    5    0    0 -0.48838444849E+03  0.38256229868E+02  0.23080357898E+03  0.54152857793E+03  0.00000000000E+00 0. -1.
        -13    1    5    5    0    0 -0.67084259143E+02 -0.21785945840E+02  0.11358737254E+02  0.71441907680E+02  0.00000000000E+00 0.  1.
          5    1    6    6  503    0 -0.39320716511E+03  0.30402310009E+03 -0.87650943848E+02  0.50472437829E+03  0.47000000000E+01 0. -1.
         -5    1    6    6    0  503 -0.20091104435E+03  0.11790455374E+03 -0.97352197372E+02  0.25251984450E+03  0.47000000000E+01 0.  1.
<mgrwt>
<rscale>  0 0.12609922E+04</rscale>
<asrwt>0</asrwt>
<pdfrwt beam="1">  1        2 0.21383035E+00 0.12609922E+04</pdfrwt>
<pdfrwt beam="2">  1       -2 0.18756728E+00 0.12609922E+04</pdfrwt>
<totfact> 0.22767639E+00</totfact>
</mgrwt>
</event>
<event>
12    1  0.3127365E-008  0.8124636E+03  0.7818608E-02  0.9542150E-01
          2   -1    0    0  501    0  0.00000000000E+00  0.00000000000E+00  0.12873611839E+04  0.12873611839E+04  0.00000000000E+00 0. -1.
         -2   -1    0    0    0  501 -0.00000000000E+00 -0.00000000000E+00 -0.60807048690E+03  0.60807048690E+03  0.00000000000E+00 0.  1.
         23    2    1    2    0    0  0.50350407380E+03 -0.56882512970E+03  0.49160844291E+03  0.90933513171E+03  0.90183923812E+02 0.  0.
    5000000    2    1    2    0    0 -0.50350407380E+03  0.56882512970E+03  0.18768225414E+03  0.98609653913E+03  0.60006947552E+03 0.  0.
         23    2    4    4    0    0 -0.54986374694E+03  0.46755634914E+03 -0.27334192218E+02  0.72721987312E+03  0.84513347908E+02 0.  0.
         23    2    4    4    0    0  0.46359673144E+02  0.10126878056E+03  0.21501644636E+03  0.25887666601E+03  0.91544911324E+02 0.  0.
          1    1    3    3  502    0  0.34861203940E+03 -0.42197276497E+03  0.39531476370E+03  0.67517785123E+03  0.00000000000E+00 0. -1.
         -1    1    3    3    0  502  0.15489203440E+03 -0.14685236473E+03  0.96293679207E+02  0.23415728048E+03  0.00000000000E+00 0.  1.
         13    1    5    5    0    0 -0.36470216898E+03  0.32537354549E+03  0.19400750331E+02  0.48913393388E+03  0.00000000000E+00 0. -1.
        -13    1    5    5    0    0 -0.18516157796E+03  0.14218280365E+03 -0.46734942548E+02  0.23808593924E+03  0.00000000000E+00 0.  1.
          5    1    6    6  503    0  0.30661420039E+02  0.11589154594E+03  0.16280327854E+03  0.20223246674E+03  0.47000000000E+01 0. -1.
         -5    1    6    6    0  503  0.15698253105E+02 -0.14622765376E+02  0.52213167814E+02  0.56644199270E+02  0.47000000000E+01 0.  1.
<mgrwt>
<rscale>  0 0.81246361E+03</rscale>
<asrwt>0</asrwt>
<pdfrwt beam="1">  1        2 0.19805557E+00 0.81246361E+03</pdfrwt>
<pdfrwt beam="2">  1       -2 0.93549306E-01 0.81246361E+03</pdfrwt>
<totfact> 0.16462352E+01</totfact>
</mgrwt>
</event>
<event>
12    1  0.3127365E-008  0.7707484E+03  0.7818608E-02  0.9603350E-01
         -2   -1    0    0    0  501 -0.00000000000E+00  0.00000000000E+00  0.47924277394E+03  0.47924277394E+03  0.00000000000E+00 0.  1.
          2   -1    0    0  501    0  0.00000000000E+00 -0.00000000000E+00 -0.13934608068E+04  0.13934608068E+04  0.00000000000E+00 0. -1.
         23    2    1    2    0    0  0.59050308567E+03 -0.35566341770E+03 -0.23231592707E+03  0.73244351160E+03  0.85512846047E+02 0.  0.
    5000000    2    1    2    0    0 -0.59050308567E+03  0.35566341770E+03 -0.68190210583E+03  0.11402600692E+04  0.60001015206E+03 0.  0.
         23    2    4    4    0    0 -0.19836523026E+02  0.25560047754E+03 -0.50135227535E+02  0.27711089625E+03  0.92476029429E+02 0.  0.
         23    2    4    4    0    0 -0.57066656264E+03  0.10006294016E+03 -0.63176687829E+03  0.86314917293E+03  0.10111472947E+03 0.  0.
          3    1    3    3  502    0  0.51769499618E+03 -0.29784845338E+03 -0.17167968975E+03  0.62144647889E+03  0.00000000000E+00 0. -1.
         -3    1    3    3    0  502  0.72808089490E+02 -0.57814964314E+02 -0.60636237319E+02  0.11099703271E+03  0.00000000000E+00 0.  1.
         11    1    5    5    0    0  0.15603460585E+02  0.21535400744E+03 -0.56282626501E+02  0.22313348146E+03  0.00000000000E+00 0. -1.
        -11    1    5    5    0    0 -0.35439983611E+02  0.40246470098E+02  0.61473989664E+01  0.53977414793E+02  0.00000000000E+00 0.  1.
          5    1    6    6  503    0 -0.42961106278E+03  0.97506027806E+02 -0.52963809964E+03  0.68892067563E+03  0.47000000000E+01 0. -1.
         -5    1    6    6    0  503 -0.14105549987E+03  0.25569123541E+01 -0.10212877865E+03  0.17422849730E+03  0.47000000000E+01 0.  1.
<mgrwt>
<rscale>  0 0.77074843E+03</rscale>
<asrwt>0</asrwt>
<pdfrwt beam="1">  1        2 0.21437858E+00 0.77074843E+03</pdfrwt>
<pdfrwt beam="2">  1       -2 0.73729658E-01 0.77074843E+03</pdfrwt>
<totfact> 0.24677426E+01</totfact>
</mgrwt>
</event>
<event>
12    1  0.3127365E-008  0.1122813E+04  0.7818608E-02  0.9183238E-01
          2   -1    0    0  501    0  0.00000000000E+00  0.00000000000E+00  0.29243681141E+04  0.29243681141E+04  0.00000000000E+00 0. -1.
         -2   -1    0    0    0  501 -0.00000000000E+00 -0.00000000000E+00 -0.60733637764E+03  0.60733637764E+03  0.00000000000E+00 0.  1.
         23    2    1    2    0    0 -0.55476002890E+02 -0.10613015924E+04  0.20064159761E+04  0.22724005739E+04  0.93062571359E+02 0.  0.
    5000000    2    1    2    0    0  0.55476002890E+02  0.10613015924E+04  0.31061576037E+03  0.12593039179E+04  0.59993795525E+03 0.  0.
         23    2    4    4    0    0  0.23155809654E+03  0.25430455543E+03 -0.37058874020E+02  0.35848943406E+03  0.94081641179E+02 0.  0.
         23    2    4    4    0    0 -0.17608209365E+03  0.80699703692E+03  0.34767463439E+03  0.90081448381E+03  0.91323389869E+02 0.  0.
          3    1    3    3  502    0  0.24254988123E+02 -0.16635985616E+03  0.33304603644E+03  0.37307314106E+03  0.00000000000E+00 0. -1.
         -3    1    3    3    0  502 -0.79730991014E+02 -0.89494173619E+03  0.16733699397E+04  0.18993274328E+04  0.00000000000E+00 0.  1.
         11    1    5    5    0    0  0.89304672561E+02  0.13937341511E+03 -0.55726482599E+02  0.17465885103E+03  0.00000000000E+00 0.  1.
        -11    1    5    5    0    0  0.14225342397E+03  0.11493114033E+03  0.18667608579E+02  0.18383058303E+03  0.00000000000E+00 0. -1.
          5    1    6    6  503    0 -0.12819809817E+03  0.38347597563E+03  0.18335362303E+03  0.44399236180E+03  0.47000000000E+01 0. -1.
         -5    1    6    6    0  503 -0.47883995474E+02  0.42352106129E+03  0.16432101136E+03  0.45682212200E+03  0.47000000000E+01 0.  1.
<mgrwt>
<rscale>  0 0.11228127E+04</rscale>
<asrwt>0</asrwt>
<pdfrwt beam="1">  1        2 0.44990278E+00 0.11228127E+04</pdfrwt>
<pdfrwt beam="2">  1       -2 0.93436367E-01 0.11228127E+04</pdfrwt>
<totfact> 0.18808157E+00</totfact>
</mgrwt>
</event>
<event>
12    1  0.3127365E-008  0.9108843E+03  0.7818608E-02  0.9412077E-01
         -1   -1    0    0    0  501 -0.00000000000E+00  0.00000000000E+00  0.10976504528E+04  0.10976504528E+04  0.00000000000E+00 0.  1.
          1   -1    0    0  501    0  0.00000000000E+00 -0.00000000000E+00 -0.90802186578E+03  0.90802186578E+03  0.00000000000E+00 0. -1.
         23    2    1    2    0    0 -0.21843727437E+02 -0.82591683733E+03  0.45908237227E+03  0.94958275288E+03  0.91296272795E+02 0.  0.
    5000000    2    1    2    0    0  0.21843727437E+02  0.82591683733E+03 -0.26945378528E+03  0.10560895657E+04  0.60008670849E+03 0.  0.
         23    2    4    4    0    0  0.25421862670E+03  0.20209017138E+03 -0.16263133235E+02  0.33802505976E+03  0.92352065448E+02 0.  0.
         23    2    4    4    0    0 -0.23237489927E+03  0.62382666595E+03 -0.25319065204E+03  0.71806450591E+03  0.91396528423E+02 0.  0.
          1    1    3    3  502    0 -0.88494964889E+01 -0.39248156062E+03  0.16621990775E+03  0.42632047423E+03  0.00000000000E+00 0. -1.
         -1    1    3    3    0  502 -0.12994230948E+02 -0.43343527671E+03  0.29286246452E+03  0.52326227865E+03  0.00000000000E+00 0.  1.
         11    1    5    5    0    0  0.14853273690E+03  0.10164619200E+03 -0.53077285578E+02  0.18764626434E+03  0.00000000000E+00 0.  1.
        -11    1    5    5    0    0  0.10568588980E+03  0.10044397939E+03  0.36814152343E+02  0.15037879542E+03  0.00000000000E+00 0. -1.
          5    1    6    6  503    0 -0.21740682792E+03  0.50385926650E+03 -0.18467442656E+03  0.57902212659E+03  0.47000000000E+01 0. -1.
         -5    1    6    6    0  503 -0.14968071345E+02  0.11996739945E+03 -0.68516225483E+02  0.13904237931E+03  0.47000000000E+01 0.  1.
<mgrwt>
<rscale>  0 0.91088427E+03</rscale>
<asrwt>0</asrwt>
<pdfrwt beam="1">  1        1 0.13969567E+00 0.91088427E+03</pdfrwt>
<pdfrwt beam="2">  1       -1 0.16886930E+00 0.91088427E+03</pdfrwt>
<totfact> 0.45568505E+00</totfact>
</mgrwt>
</event>
<event>
12    1  0.3127365E-008  0.5143492E+03  0.7818608E-02  0.1010100E+00
         -1   -1    0    0    0  501 -0.00000000000E+00  0.00000000000E+00  0.65538609536E+03  0.65538609536E+03  0.00000000000E+00 0.  1.
          1   -1    0    0  501    0  0.00000000000E+00 -0.00000000000E+00 -0.44433483914E+03  0.44433483914E+03  0.00000000000E+00 0. -1.
         23    2    1    2    0    0 -0.13827747937E+03  0.32085828493E+03  0.16774163250E+03  0.40399480161E+03  0.11403439894E+03 0.  0.
    5000000    2    1    2    0    0  0.13827747937E+03 -0.32085828493E+03  0.43309623717E+02  0.69572613289E+03  0.60007368562E+03 0.  0.
         23    2    4    4    0    0 -0.10613344938E+03 -0.39613114562E+03 -0.72063009895E+01  0.41987231386E+03  0.89758763165E+02 0.  0.
         23    2    4    4    0    0  0.24441092875E+03  0.75272860688E+02  0.50515924706E+02  0.27585381903E+03  0.90226188959E+02 0.  0.
          4    1    3    3  502    0 -0.12586240652E+03  0.30232500741E+03  0.11560117156E+03  0.34728286215E+03  0.00000000000E+00 0. -1.
         -4    1    3    3    0  502 -0.12415072853E+02  0.18533277526E+02  0.52140460943E+02  0.56711939458E+02  0.00000000000E+00 0.  1.
         11    1    5    5    0    0 -0.62772646071E+02 -0.30712653640E+03  0.28164895971E+02  0.31473858331E+03  0.00000000000E+00 0. -1.
        -11    1    5    5    0    0 -0.43360803311E+02 -0.89004609221E+02 -0.35371196960E+02  0.10513373056E+03  0.00000000000E+00 0.  1.
          5    1    6    6  503    0  0.16017835121E+03  0.11466891054E+02  0.50924051981E+01  0.16073772543E+03  0.47000000000E+01 0. -1.
         -5    1    6    6    0  503  0.84232577546E+02  0.63805969634E+02  0.45423519508E+02  0.11511609360E+03  0.47000000000E+01 0.  1.
<mgrwt>
<rscale>  0 0.51434918E+03</rscale>
<asrwt>0</asrwt>
<pdfrwt beam="1">  1        1 0.68359206E-01 0.51434918E+03</pdfrwt>
<pdfrwt beam="2">  1       -1 0.10082863E+00 0.51434918E+03</pdfrwt>
<totfact> 0.50916885E+01</totfact>
</mgrwt>
</event>
<event>
12    1  0.3127365E-008  0.1079092E+04  0.7818608E-02  0.9225813E-01
         -2   -1    0    0    0  501 -0.00000000000E+00  0.00000000000E+00  0.14520245748E+04  0.14520245748E+04  0.00000000000E+00 0.  1.
          2   -1    0    0  501    0  0.00000000000E+00 -0.00000000000E+00 -0.10171926434E+04  0.10171926434E+04  0.00000000000E+00 0. -1.
         23    2    1    2    0    0  0.10454654534E+04  0.68762157983E+01 -0.25463010622E+03  0.10802271616E+04  0.94915399695E+02 0.  0.
    5000000    2    1    2    0    0 -0.10454654534E+04 -0.68762157983E+01  0.68946203762E+03  0.13889900567E+04  0.60074135839E+03 0.  0.
         23    2    4    4    0    0 -0.77635042015E+03 -0.14952896522E+03  0.22677907614E+03  0.82764706968E+03  0.92152245123E+02 0.  0.
         23    2    4    4    0    0 -0.26911503324E+03  0.14265274943E+03  0.46268296148E+03  0.56134298700E+03  0.90871987847E+02 0.  0.
          3    1    3    3  502    0  0.89634875921E+03 -0.24377277693E+02 -0.20311722924E+03  0.91939760639E+03  0.00000000000E+00 0. -1.
         -3    1    3    3    0  502  0.14911669417E+03  0.31253493492E+02 -0.51512876980E+02  0.16082955522E+03  0.00000000000E+00 0.  1.
         11    1    5    5    0    0 -0.21185039451E+03 -0.67802121949E+02  0.97100082503E+02  0.24270587842E+03  0.00000000000E+00 0.  1.
        -11    1    5    5    0    0 -0.56450002563E+03 -0.81726843274E+02  0.12967899364E+03  0.58494119127E+03  0.00000000000E+00 0. -1.
          5    1    6    6  503    0 -0.81362221592E+02  0.89696410847E+02  0.20450425368E+03  0.23771692619E+03  0.47000000000E+01 0. -1.
         -5    1    6    6    0  503 -0.18775281165E+03  0.52956338578E+02  0.25817870780E+03  0.32362606082E+03  0.47000000000E+01 0.  1.
<mgrwt>
<rscale>  0 0.10790922E+04</rscale>
<asrwt>0</asrwt>
<pdfrwt beam="1">  1        2 0.15649118E+00 0.10790922E+04</pdfrwt>
<pdfrwt beam="2">  1       -2 0.22338840E+00 0.10790922E+04</pdfrwt>
<totfact> 0.22756938E+00</totfact>
</mgrwt>
</event>
<event>
12    1  0.3127365E-008  0.7599540E+03  0.7818608E-02  0.9619862E-01
         -1   -1    0    0    0  501 -0.00000000000E+00  0.00000000000E+00  0.10426822155E+04  0.10426822155E+04  0.00000000000E+00 0.  1.
          1   -1    0    0  501    0  0.00000000000E+00 -0.00000000000E+00 -0.61285383712E+03  0.61285383712E+03  0.00000000000E+00 0. -1.
         23    2    1    2    0    0  0.18645523240E+01  0.64248993493E+03 -0.55125995012E+02  0.65152032330E+03  0.92968076821E+02 0.  0.
    5000000    2    1    2    0    0 -0.18645523240E+01 -0.64248993493E+03  0.48495437341E+03  0.10040157293E+04  0.60005837000E+03 0.  0.
         23    2    4    4    0    0  0.27284965246E+03 -0.43525169540E+03  0.24551214614E+03  0.57619649865E+03  0.88516777809E+02 0.  0.
         23    2    4    4    0    0 -0.27471420478E+03 -0.20723823953E+03  0.23944222726E+03  0.42781923068E+03  0.85329547694E+02 0.  0.
          2    1    3    3  502    0 -0.24451974349E+02  0.42906793275E+03 -0.72275399205E+02  0.43579917771E+03  0.00000000000E+00 0. -1.
         -2    1    3    3    0  502  0.26316526673E+02  0.21342200218E+03  0.17149404193E+02  0.21572114559E+03  0.00000000000E+00 0.  1.
         13    1    5    5    0    0  0.24232237621E+03 -0.31919611700E+03  0.17803888596E+03  0.43852495942E+03  0.00000000000E+00 0.  1.
        -13    1    5    5    0    0  0.30527276245E+02 -0.11605557841E+03  0.67473260185E+02  0.13767153923E+03  0.00000000000E+00 0. -1.
          5    1    6    6  503    0 -0.12940836670E+03 -0.14984164288E+03  0.12681370702E+03  0.23516557912E+03  0.47000000000E+01 0. -1.
         -5    1    6    6    0  503 -0.14530583808E+03 -0.57396596646E+02  0.11262852024E+03  0.19265365156E+03  0.47000000000E+01 0.  1.
<mgrwt>
<rscale>  0 0.75995404E+03</rscale>
<asrwt>0</asrwt>
<pdfrwt beam="1">  1        1 0.94285206E-01 0.75995404E+03</pdfrwt>
<pdfrwt beam="2">  1       -1 0.16041265E+00 0.75995404E+03</pdfrwt>
<totfact> 0.99182638E+00</totfact>
</mgrwt>
</event>
<event>
12    1  0.3127365E-008  0.4338044E+03  0.7818608E-02  0.1032665E+00
          1   -1    0    0  501    0  0.00000000000E+00  0.00000000000E+00  0.89010935792E+03  0.89010935792E+03  0.00000000000E+00 0. -1.
         -1   -1    0    0    0  501 -0.00000000000E+00 -0.00000000000E+00 -0.33903795126E+03  0.33903795126E+03  0.00000000000E+00 0.  1.
         23    2    1    2    0    0 -0.69883038997E+02  0.36492046628E+03  0.14132663442E+03  0.41315585840E+03  0.11257868307E+03 0.  0.
    5000000    2    1    2    0    0  0.69883038997E+02 -0.36492046628E+03  0.40974477224E+03  0.81599145079E+03  0.59991723056E+03 0.  0.
         23    2    4    4    0    0  0.99817836782E+02 -0.36093333595E+03  0.53367807105E+03  0.65840052392E+03  0.91883038924E+02 0.  0.
         23    2    4    4    0    0 -0.29934797785E+02 -0.39871303283E+01 -0.12393329881E+03  0.15759092686E+03  0.92538901818E+02 0.  0.
          2    1    3    3  502    0 -0.40290392410E+02  0.35361668837E+03  0.13615000128E+03  0.38105760832E+03  0.00000000000E+00 0.  1.
         -2    1    3    3    0  502 -0.29592646586E+02  0.11303777913E+02  0.51766331346E+01  0.32098250072E+02  0.00000000000E+00 0. -1.
         11    1    5    5    0    0  0.43168954530E+02 -0.28419287670E+03  0.43284976632E+03  0.51960376250E+03  0.00000000000E+00 0.  1.
        -11    1    5    5    0    0  0.56648882252E+02 -0.76740459249E+02  0.10082830473E+03  0.13879676142E+03  0.00000000000E+00 0. -1.
          5    1    6    6  503    0 -0.35941589942E+02  0.39166809605E+02 -0.72428920680E+02  0.89965968083E+02  0.47000000000E+01 0. -1.
         -5    1    6    6    0  503  0.60067921572E+01 -0.43153939933E+02 -0.51504378128E+02  0.67624958781E+02  0.47000000000E+01 0.  1.
<mgrwt>
<rscale>  0 0.43380435E+03</rscale>
<asrwt>0</asrwt>
<pdfrwt beam="1">  1        1 0.13693990E+00 0.43380435E+03</pdfrwt>
<pdfrwt beam="2">  1       -1 0.52159685E-01 0.43380435E+03</pdfrwt>
<totfact> 0.72635702E+01</totfact>
</mgrwt>
</event>
<event>
12    1  0.3127365E-008  0.1048737E+04  0.7818608E-02  0.9256649E-01
          1   -1    0    0  501    0  0.00000000000E+00  0.00000000000E+00  0.24335926286E+04  0.24335926286E+04  0.00000000000E+00 0. -1.
         -1   -1    0    0    0  501 -0.00000000000E+00 -0.00000000000E+00 -0.67138687101E+03  0.67138687101E+03  0.00000000000E+00 0.  1.
         23    2    1    2    0    0 -0.74462814614E+03 -0.64048244128E+03  0.16837613818E+04  0.19514255743E+04  0.91217036159E+02 0.  0.
    5000000    2    1    2    0    0  0.74462814614E+03  0.64048244128E+03  0.78444375829E+02  0.11535539253E+04  0.59987024006E+03 0.  0.
         23    2    4    4    0    0  0.70728337068E+02  0.38138828141E+03 -0.85363276377E+02  0.40759606194E+03  0.91586799781E+02 0.  0.
         23    2    4    4    0    0  0.67389980907E+03  0.25909415986E+03  0.16380765221E+03  0.74595786338E+03  0.91375328549E+02 0.  0.
          3    1    3    3  502    0 -0.26633237231E+03 -0.18844478065E+03  0.61840999100E+03  0.69919617052E+03  0.00000000000E+00 0. -1.
         -3    1    3    3    0  502 -0.47829577383E+03 -0.45203766062E+03  0.10653513908E+04  0.12522294038E+04  0.00000000000E+00 0.  1.
         13    1    5    5    0    0  0.44722148546E+02  0.14118361995E+03  0.86291444536E+01  0.14834873524E+03  0.00000000000E+00 0. -1.
        -13    1    5    5    0    0  0.26006188521E+02  0.24020466146E+03 -0.93992420831E+02  0.25924732670E+03  0.00000000000E+00 0.  1.
          5    1    6    6  503    0  0.18245385594E+03  0.91327232200E+02  0.83330135544E+02  0.22044517318E+03  0.47000000000E+01 0. -1.
         -5    1    6    6    0  503  0.49144595314E+03  0.16776692766E+03  0.80477516662E+02  0.52551269020E+03  0.47000000000E+01 0.  1.
<mgrwt>
<rscale>  0 0.10487368E+04</rscale>
<asrwt>0</asrwt>
<pdfrwt beam="1">  1        1 0.37439886E+00 0.10487368E+04</pdfrwt>
<pdfrwt beam="2">  1       -1 0.10329029E+00 0.10487368E+04</pdfrwt>
<totfact> 0.13453870E+00</totfact>
</mgrwt>
</event>
<event>
12    1  0.3127365E-008  0.1454443E+04  0.7818608E-02  0.8915326E-01
          2   -1    0    0  501    0  0.00000000000E+00  0.00000000000E+00  0.35053419859E+04  0.35053419859E+04  0.00000000000E+00 0. -1.
         -2   -1    0    0    0  501 -0.00000000000E+00 -0.00000000000E+00 -0.63570610824E+03  0.63570610824E+03  0.00000000000E+00 0.  1.
         23    2    1    2    0    0  0.10411813392E+04 -0.94741295496E+03  0.10226652606E+04  0.17425101760E+04  0.94061628049E+02 0.  0.
    5000000    2    1    2    0    0 -0.10411813392E+04  0.94741295496E+03  0.18469706171E+04  0.23985379181E+04  0.60002816269E+03 0.  0.
         23    2    4    4    0    0 -0.20862440496E+03 -0.23300243043E+02  0.43568473453E+03  0.49189511198E+03  0.89847479712E+02 0.  0.
         23    2    4    4    0    0 -0.83255693428E+03  0.97071319800E+03  0.14112858825E+04  0.19066428061E+04  0.90132050068E+02 0.  0.
          3    1    3    3  502    0  0.88394095738E+03 -0.84493777272E+03  0.89962024305E+03  0.15180869664E+04  0.00000000000E+00 0. -1.
         -3    1    3    3    0  502  0.15724038186E+03 -0.10247518224E+03  0.12304501758E+03  0.22442320961E+03  0.00000000000E+00 0.  1.
         11    1    5    5    0    0 -0.42791120188E+02 -0.28954050094E+02  0.49410170851E+02  0.71489733301E+02  0.00000000000E+00 0. -1.
        -11    1    5    5    0    0 -0.16583328478E+03  0.56538070514E+01  0.38627456368E+03  0.42040537868E+03  0.00000000000E+00 0.  1.
          5    1    6    6  503    0 -0.37910696685E+03  0.49579233182E+03  0.64618104693E+03  0.89838976175E+03  0.47000000000E+01 0. -1.
         -5    1    6    6    0  503 -0.45344996743E+03  0.47492086618E+03  0.76510483560E+03  0.10082530444E+04  0.47000000000E+01 0.  1.
<mgrwt>
<rscale>  0 0.14544433E+04</rscale>
<asrwt>0</asrwt>
<pdfrwt beam="1">  1        2 0.53928337E+00 0.14544433E+04</pdfrwt>
<pdfrwt beam="2">  1       -2 0.97800941E-01 0.14544433E+04</pdfrwt>
<totfact> 0.67903128E-01</totfact>
</mgrwt>
</event>
<event>
12    1  0.3127365E-008  0.6837603E+03  0.7818608E-02  0.9745415E-01
          2   -1    0    0  501    0  0.00000000000E+00  0.00000000000E+00  0.34025106432E+04  0.34025106432E+04  0.00000000000E+00 0. -1.
         -2   -1    0    0    0  501 -0.00000000000E+00 -0.00000000000E+00 -0.19034076690E+03  0.19034076690E+03  0.00000000000E+00 0.  1.
         23    2    1    2    0    0 -0.32525177877E+03  0.46505550231E+03  0.22628060052E+04  0.23346801022E+04  0.91514055389E+02 0.  0.
    5000000    2    1    2    0    0  0.32525177877E+03 -0.46505550231E+03  0.94936387111E+03  0.12581713080E+04  0.59969820793E+03 0.  0.
         23    2    4    4    0    0  0.28692505631E+03  0.29185068576E+02  0.49272517888E+03  0.57760256964E+03  0.87572086811E+02 0.  0.
         23    2    4    4    0    0  0.38326722460E+02 -0.49424057088E+03  0.45663869223E+03  0.68056873832E+03  0.94404622656E+02 0.  0.
          3    1    3    3  502    0 -0.10432813152E+03  0.22200938211E+03  0.89698025076E+03  0.92991725171E+03  0.00000000000E+00 0. -1.
         -3    1    3    3    0  502 -0.22092364726E+03  0.24304612020E+03  0.13658257545E+04  0.14047628505E+04  0.00000000000E+00 0.  1.
         13    1    5    5    0    0  0.11691305651E+03 -0.24888471491E+02  0.24165678040E+03  0.26960359476E+03  0.00000000000E+00 0.  1.
        -13    1    5    5    0    0  0.17001199980E+03  0.54073540067E+02  0.25106839848E+03  0.30799897489E+03  0.00000000000E+00 0. -1.
          5    1    6    6  503    0  0.12243931711E+02 -0.14756747336E+03  0.81500415007E+02  0.16908719852E+03  0.47000000000E+01 0. -1.
         -5    1    6    6    0  503  0.26082790749E+02 -0.34667309753E+03  0.37513827723E+03  0.51148153981E+03  0.47000000000E+01 0.  1.
<mgrwt>
<rscale>  0 0.68376027E+03</rscale>
<asrwt>0</asrwt>
<pdfrwt beam="1">  1        2 0.52346313E+00 0.68376027E+03</pdfrwt>
<pdfrwt beam="2">  1       -2 0.29283197E-01 0.68376027E+03</pdfrwt>
<totfact> 0.11099310E+01</totfact>
</mgrwt>
</event>
<event>
12    1  0.3127365E-008  0.6092737E+03  0.7818608E-02  0.9886351E-01
          2   -1    0    0  501    0  0.00000000000E+00  0.00000000000E+00  0.12518779260E+04  0.12518779260E+04  0.00000000000E+00 0. -1.
         -2   -1    0    0    0  501 -0.00000000000E+00 -0.00000000000E+00 -0.33185844415E+03  0.33185844415E+03  0.00000000000E+00 0.  1.
         23    2    1    2    0    0  0.29106649234E+03 -0.37015989093E+03  0.15669702704E+03  0.50458526421E+03  0.91182688883E+02 0.  0.
    5000000    2    1    2    0    0 -0.29106649234E+03  0.37015989093E+03  0.76332245477E+03  0.10791511059E+04  0.60013989335E+03 0.  0.
         23    2    4    4    0    0 -0.36501747274E+03  0.15517558812E+02  0.47940231667E+03  0.60977086100E+03  0.92278771421E+02 0.  0.
         23    2    4    4    0    0  0.73950980403E+02  0.35464233212E+03  0.28392013810E+03  0.46938024490E+03  0.92017597524E+02 0.  0.
          3    1    3    3  502    0  0.17903108199E+01 -0.11012233216E+02  0.21159969538E+02  0.23921095378E+02  0.00000000000E+00 0. -1.
         -3    1    3    3    0  502  0.28927618152E+03 -0.35914765771E+03  0.13553705751E+03  0.48066416883E+03  0.00000000000E+00 0.  1.
         11    1    5    5    0    0 -0.19881008847E+03  0.53529405437E+02  0.27671495412E+03  0.34490870438E+03  0.00000000000E+00 0. -1.
        -11    1    5    5    0    0 -0.16620738428E+03 -0.38011846625E+02  0.20268736255E+03  0.26486215662E+03  0.00000000000E+00 0.  1.
          5    1    6    6  503    0  0.65497980002E+02  0.13637734372E+03  0.83338372566E+02  0.17278929251E+03  0.47000000000E+01 0. -1.
         -5    1    6    6    0  503  0.84530004008E+01  0.21826498840E+03  0.20058176554E+03  0.29659095239E+03  0.47000000000E+01 0.  1.
<mgrwt>
<rscale>  0 0.60927374E+03</rscale>
<asrwt>0</asrwt>
<pdfrwt beam="1">  1        2 0.19259660E+00 0.60927374E+03</pdfrwt>
<pdfrwt beam="2">  1       -2 0.51055146E-01 0.60927374E+03</pdfrwt>
<totfact> 0.66017616E+01</totfact>
</mgrwt>
</event>
<event>
12    1  0.3127365E-008  0.9998635E+03  0.7818608E-02  0.9308694E-01
          1   -1    0    0  501    0  0.00000000000E+00  0.00000000000E+00  0.12937840174E+04  0.12937840174E+04  0.00000000000E+00 0. -1.
         -1   -1    0    0    0  501 -0.00000000000E+00 -0.00000000000E+00 -0.83356920082E+03  0.83356920082E+03  0.00000000000E+00 0.  1.
         23    2    1    2    0    0  0.39020187540E+03 -0.82708988575E+03  0.47269619841E+03  0.10336041927E+04  0.92524312802E+02 0.  0.
    5000000    2    1    2    0    0 -0.39020187540E+03  0.82708988575E+03 -0.12481381852E+02  0.10937490255E+04  0.59982994531E+03 0.  0.
         23    2    4    4    0    0  0.14500185057E+03  0.19538056718E+03 -0.28936874878E+02  0.26074768252E+03  0.89179081116E+02 0.  0.
         23    2    4    4    0    0 -0.53520372597E+03  0.63170931856E+03  0.16455493026E+02  0.83300134301E+03  0.90115274832E+02 0.  0.
          4    1    3    3  502    0 -0.11075431677E+01 -0.38789596465E+02  0.14809202922E+02  0.41535189141E+02  0.00000000000E+00 0. -1.
         -4    1    3    3    0  502  0.39130941856E+03 -0.78830028928E+03  0.45788699549E+03  0.99206900354E+03  0.00000000000E+00 0.  1.
         11    1    5    5    0    0  0.71649338809E+02  0.44223340578E+02 -0.38240271882E+02  0.92475131778E+02  0.00000000000E+00 0. -1.
        -11    1    5    5    0    0  0.73352511763E+02  0.15115722660E+03  0.93033970046E+01  0.16827255074E+03  0.00000000000E+00 0.  1.
          5    1    6    6  503    0 -0.27375998782E+03  0.29821918669E+03 -0.33774280765E+02  0.40625362310E+03  0.47000000000E+01 0. -1.
         -5    1    6    6    0  503 -0.26144373815E+03  0.33349013188E+03  0.50229773791E+02  0.42674771991E+03  0.47000000000E+01 0.  1.
<mgrwt>
<rscale>  0 0.99986354E+03</rscale>
<asrwt>0</asrwt>
<pdfrwt beam="1">  1        1 0.19904370E+00 0.99986354E+03</pdfrwt>
<pdfrwt beam="2">  1       -1 0.12824142E+00 0.99986354E+03</pdfrwt>
<totfact> 0.48152997E+00</totfact>
</mgrwt>
</event>
<event>
12    1  0.3127365E-008  0.8168491E+03  0.7818608E-02  0.9535944E-01
         -1   -1    0    0    0  501 -0.00000000000E+00  0.00000000000E+00  0.89020630784E+03  0.89020630784E+03  0.00000000000E+00 0. -1.
          1   -1    0    0  501    0  0.00000000000E+00 -0.00000000000E+00 -0.84064575040E+03  0.84064575040E+03  0.00000000000E+00 0.  1.
         23    2    1    2    0    0  0.72829532283E+03 -0.16320390000E+03 -0.11010917417E+03  0.75996188668E+03  0.91479225733E+02 0.  0.
    5000000    2    1    2    0    0 -0.72829532283E+03  0.16320390000E+03  0.15966973161E+03  0.97089017157E+03  0.60006975580E+03 0.  0.
         23    2    4    4    0    0 -0.53368156089E+03  0.31643556291E+03  0.27253557526E+03  0.68400169832E+03  0.92925828539E+02 0.  0.
         23    2    4    4    0    0 -0.19461376193E+03 -0.15323166291E+03 -0.11286584366E+03  0.28688847325E+03  0.90619195348E+02 0.  0.
          3    1    3    3  502    0  0.41313427910E+03 -0.47293851896E+02 -0.71766799877E+02  0.42197999308E+03  0.00000000000E+00 0. -1.
         -3    1    3    3    0  502  0.31516104373E+03 -0.11591004810E+03 -0.38342374293E+02  0.33798189360E+03  0.00000000000E+00 0.  1.
         11    1    5    5    0    0 -0.40285784009E+03  0.22652053036E+03  0.24428781057E+03  0.52276431055E+03  0.00000000000E+00 0.  1.
        -11    1    5    5    0    0 -0.13082372081E+03  0.89915032550E+02  0.28247764693E+02  0.16123738777E+03  0.00000000000E+00 0. -1.
          5    1    6    6  503    0 -0.11540963412E+03 -0.38698995286E+02 -0.32646560546E+02  0.12611456616E+03  0.47000000000E+01 0. -1.
         -5    1    6    6    0  503 -0.79204127817E+02 -0.11453266762E+03 -0.80219283110E+02  0.16077390708E+03  0.47000000000E+01 0.  1.
<mgrwt>
<rscale>  0 0.81684908E+03</rscale>
<asrwt>0</asrwt>
<pdfrwt beam="1">  1        1 0.12933012E+00 0.81684908E+03</pdfrwt>
<pdfrwt beam="2">  1       -1 0.13695482E+00 0.81684908E+03</pdfrwt>
<totfact> 0.92610938E+00</totfact>
</mgrwt>
</event>
<event>
12    1  0.3127365E-008  0.4012873E+03  0.7818608E-02  0.1043335E+00
         -1   -1    0    0    0  501 -0.00000000000E+00  0.00000000000E+00  0.38515077515E+03  0.38515077515E+03  0.00000000000E+00 0.  1.
          1   -1    0    0  501    0  0.00000000000E+00 -0.00000000000E+00 -0.43879108599E+03  0.43879108599E+03  0.00000000000E+00 0. -1.
         23    2    1    2    0    0  0.78210518789E+02 -0.15226361987E+03 -0.19844847380E+02  0.19852791222E+03  0.98582040861E+02 0.  0.
    5000000    2    1    2    0    0 -0.78210518789E+02  0.15226361987E+03 -0.33795463464E+02  0.62541394892E+03  0.60058253302E+03 0.  0.
         23    2    4    4    0    0  0.41236450006E+02 -0.20894707135E+03  0.66711002686E+01  0.23186101387E+03  0.91409533095E+02 0.  0.
         23    2    4    4    0    0 -0.11944696880E+03  0.36121069122E+03 -0.40466563732E+02  0.39355293505E+03  0.92225962177E+02 0.  0.
          2    1    3    3  502    0 -0.21386285828E+02 -0.30920695224E+02  0.96117865117E+01  0.38805270964E+02  0.00000000000E+00 0.  1.
         -2    1    3    3    0  502  0.99596804617E+02 -0.12134292464E+03 -0.29456633891E+02  0.15972264126E+03  0.00000000000E+00 0. -1.
         13    1    5    5    0    0 -0.19484488296E+02 -0.73237973525E+02 -0.25092712758E+02  0.79831637111E+02  0.00000000000E+00 0.  1.
        -13    1    5    5    0    0  0.60720938302E+02 -0.13570909782E+03  0.31763813027E+02  0.15202937676E+03  0.00000000000E+00 0. -1.
          5    1    6    6  503    0 -0.11981933484E+03  0.31444074324E+03 -0.83695303939E+01  0.33663302430E+03  0.47000000000E+01 0. -1.
         -5    1    6    6    0  503  0.37236604349E+00  0.46769947979E+02 -0.32097033339E+02  0.56919910748E+02  0.47000000000E+01 0.  1.
<mgrwt>
<rscale>  0 0.40128726E+03</rscale>
<asrwt>0</asrwt>
<pdfrwt beam="1">  1        1 0.67506321E-01 0.40128726E+03</pdfrwt>
<pdfrwt beam="2">  1       -1 0.59253965E-01 0.40128726E+03</pdfrwt>
<totfact> 0.15916738E+02</totfact>
</mgrwt>
</event>
<event>
12    1  0.3127365E-008  0.9462571E+03  0.7818608E-02  0.9369536E-01
         -2   -1    0    0    0  501 -0.00000000000E+00  0.00000000000E+00  0.89992624816E+03  0.89992624816E+03  0.00000000000E+00 0.  1.
          2   -1    0    0  501    0  0.00000000000E+00 -0.00000000000E+00 -0.10536562819E+04  0.10536562819E+04  0.00000000000E+00 0. -1.
         23    2    1    2    0    0  0.76117363316E+03  0.41356954927E+03  0.76659475143E+02  0.87495235246E+03  0.96124253176E+02 0.  0.
    5000000    2    1    2    0    0 -0.76117363316E+03 -0.41356954927E+03 -0.23038950889E+03  0.10786301776E+04  0.59994888308E+03 0.  0.
         23    2    4    4    0    0 -0.78198615357E+03 -0.49420666708E+03 -0.20451083658E+03  0.95217957187E+03  0.95282110812E+02 0.  0.
         23    2    4    4    0    0  0.20812520410E+02  0.80637117805E+02 -0.25878672307E+02  0.12645060573E+03  0.91567156966E+02 0.  0.
          2    1    3    3  502    0  0.27811072460E+03  0.12110085100E+03  0.64527525045E+02  0.31012060999E+03  0.00000000000E+00 0. -1.
         -2    1    3    3    0  502  0.48306290856E+03  0.29246869827E+03  0.12131950098E+02  0.56483174248E+03  0.00000000000E+00 0.  1.
         13    1    5    5    0    0 -0.97334391677E+02 -0.68188408285E+02 -0.59369330223E+02  0.13284713094E+03  0.00000000000E+00 0.  1.
        -13    1    5    5    0    0 -0.68465176189E+03 -0.42601825879E+03 -0.14514150636E+03  0.81933244093E+03  0.00000000000E+00 0. -1.
          5    1    6    6  503    0  0.37885392111E+02  0.41980197583E+02  0.23387128934E+02  0.61373347019E+02  0.47000000000E+01 0. -1.
         -5    1    6    6    0  503 -0.17072871700E+02  0.38656920223E+02 -0.49265801241E+02  0.65077258709E+02  0.47000000000E+01 0.  1.
<mgrwt>
<rscale>  0 0.94625714E+03</rscale>
<asrwt>0</asrwt>
<pdfrwt beam="1">  1        2 0.16210097E+00 0.94625714E+03</pdfrwt>
<pdfrwt beam="2">  1       -2 0.13845019E+00 0.94625714E+03</pdfrwt>
<totfact> 0.85796498E+00</totfact>
</mgrwt>
</event>
<event>
12    1  0.3127365E-008  0.1444405E+04  0.7818608E-02  0.8922289E-01
         -2   -1    0    0    0  501 -0.00000000000E+00  0.00000000000E+00  0.17133623936E+04  0.17133623936E+04  0.00000000000E+00 0.  1.
          2   -1    0    0  501    0  0.00000000000E+00 -0.00000000000E+00 -0.25104752366E+04  0.25104752366E+04  0.00000000000E+00 0. -1.
         23    2    1    2    0    0  0.13186186501E+04  0.42773219107E+03  0.11189018042E+04  0.17840138811E+04  0.95154133820E+02 0.  0.
    5000000    2    1    2    0    0 -0.13186186501E+04 -0.42773219107E+03 -0.19160146471E+04  0.24398237491E+04  0.59993151875E+03 0.  0.
         23    2    4    4    0    0 -0.50585932747E+03 -0.46136009330E+03 -0.86480778974E+03  0.11068906686E+04  0.92561569673E+02 0.  0.
         23    2    4    4    0    0 -0.81275932258E+03  0.33627902228E+02 -0.10512068574E+04  0.13329330805E+04  0.99830796023E+02 0.  0.
          1    1    3    3  502    0  0.26142854864E+03  0.64459131024E+02  0.25985452638E+03  0.37419813000E+03  0.00000000000E+00 0. -1.
         -1    1    3    3    0  502  0.10571901014E+04  0.36327306005E+03  0.85904727777E+03  0.14098157511E+04  0.00000000000E+00 0.  1.
         11    1    5    5    0    0 -0.17322517210E+03 -0.12403325776E+03 -0.32583744313E+03  0.38930868038E+03  0.00000000000E+00 0. -1.
        -11    1    5    5    0    0 -0.33263415537E+03 -0.33732683555E+03 -0.53897034662E+03  0.71758198823E+03  0.00000000000E+00 0.  1.
          5    1    6    6  503    0 -0.40397625953E+03  0.40456481720E+02 -0.45277214077E+03  0.60815972132E+03  0.47000000000E+01 0. -1.
         -5    1    6    6    0  503 -0.40878306306E+03 -0.68285794916E+01 -0.59843471658E+03  0.72477335916E+03  0.47000000000E+01 0. -1.
<mgrwt>
<rscale>  0 0.14444051E+04</rscale>
<asrwt>0</asrwt>
<pdfrwt beam="1">  1        2 0.38622696E+00 0.14444051E+04</pdfrwt>
<pdfrwt beam="2">  1       -2 0.26359422E+00 0.14444051E+04</pdfrwt>
<totfact> 0.17197570E-01</totfact>
</mgrwt>
</event>
<event>
12    1  0.3127365E-008  0.8890963E+03  0.7818608E-02  0.9439315E-01
         -2   -1    0    0    0  501 -0.00000000000E+00  0.00000000000E+00  0.57006671375E+03  0.57006671375E+03  0.00000000000E+00 0.  1.
          2   -1    0    0  501    0  0.00000000000E+00 -0.00000000000E+00 -0.22818302983E+04  0.22818302983E+04  0.00000000000E+00 0. -1.
         23    2    1    2    0    0  0.69785874951E+03  0.38214860835E+03  0.76626137180E+02  0.80463337564E+03  0.92297947790E+02 0.  0.
    5000000    2    1    2    0    0 -0.69785874951E+03 -0.38214860835E+03 -0.17883897218E+04  0.20472636365E+04  0.59992183414E+03 0.  0.
         23    2    4    4    0    0 -0.36452511691E+03  0.10265607930E+03 -0.56141870444E+03  0.68337046928E+03  0.91582777377E+02 0.  0.
         23    2    4    4    0    0 -0.33333363260E+03 -0.48480468765E+03 -0.12269710173E+04  0.13638931672E+04  0.92735097461E+02 0.  0.
          1    1    3    3  502    0  0.32012795518E+03  0.22294118998E+03  0.17719694265E+02  0.39051078018E+03  0.00000000000E+00 0.  1.
         -1    1    3    3    0  502  0.37773079433E+03  0.15920741837E+03  0.58906442915E+02  0.41412259546E+03  0.00000000000E+00 0. -1.
         13    1    5    5    0    0 -0.36440288142E+03  0.11085312899E+03 -0.55405941465E+03  0.67235385858E+03  0.00000000000E+00 0.  1.
        -13    1    5    5    0    0 -0.12223549595E+00 -0.81970496829E+01 -0.73592897874E+01  0.11016610694E+02  0.00000000000E+00 0. -1.
          5    1    6    6  503    0 -0.18488093095E+03 -0.24420400676E+03 -0.53693615624E+03  0.61817398961E+03  0.47000000000E+01 0. -1.
         -5    1    6    6    0  503 -0.14845270165E+03 -0.24060068089E+03 -0.69003486109E+03  0.74571917757E+03  0.47000000000E+01 0.  1.
<mgrwt>
<rscale>  0 0.88909625E+03</rscale>
<asrwt>0</asrwt>
<pdfrwt beam="1">  1        2 0.35105081E+00 0.88909625E+03</pdfrwt>
<pdfrwt beam="2">  1       -2 0.87702572E-01 0.88909625E+03</pdfrwt>
<totfact> 0.53158506E+00</totfact>
</mgrwt>
</event>
<event>
12    1  0.3127365E-008  0.1882854E+04  0.7818608E-02  0.8663439E-01
         -1   -1    0    0    0  501 -0.00000000000E+00  0.00000000000E+00  0.47118881536E+04  0.47118881536E+04  0.00000000000E+00 0.  1.
          1   -1    0    0  501    0  0.00000000000E+00 -0.00000000000E+00 -0.10784883782E+04  0.10784883782E+04  0.00000000000E+00 0. -1.
         23    2    1    2    0    0 -0.45494783674E+03  0.17908207947E+04  0.33504530648E+04  0.38271698743E+04  0.87617661159E+02 0.  0.
    5000000    2    1    2    0    0  0.45494783674E+03 -0.17908207947E+04  0.28294671061E+03  0.19632066574E+04  0.60008739841E+03 0.  0.
         23    2    4    4    0    0 -0.10899862246E+03 -0.38886428784E+03  0.16291033277E+03  0.44459998110E+03  0.89628302555E+02 0.  0.
         23    2    4    4    0    0  0.56394645919E+03 -0.14019565069E+04  0.12003637784E+03  0.15186066763E+04  0.90773615739E+02 0.  0.
          2    1    3    3  502    0 -0.33133216199E+03  0.11389870399E+04  0.21268919429E+04  0.24353114411E+04  0.00000000000E+00 0.  1.
         -2    1    3    3    0  502 -0.12361567474E+03  0.65183375480E+03  0.12235611220E+04  0.13918584332E+04  0.00000000000E+00 0. -1.
         11    1    5    5    0    0 -0.51951144733E+02 -0.21875553200E+03  0.13707569886E+03  0.26332992887E+03  0.00000000000E+00 0.  1.
        -11    1    5    5    0    0 -0.57047477724E+02 -0.17010875583E+03  0.25834633911E+02  0.18127005223E+03  0.00000000000E+00 0. -1.
          5    1    6    6  503    0  0.27179292760E+03 -0.61732736364E+03  0.92940539507E+02  0.68089977477E+03  0.47000000000E+01 0. -1.
         -5    1    6    6    0  503  0.29215353160E+03 -0.78462914322E+03  0.27095838333E+02  0.83770690153E+03  0.47000000000E+01 0.  1.
<mgrwt>
<rscale>  0 0.18828537E+04</rscale>
<asrwt>0</asrwt>
<pdfrwt beam="1">  1        1 0.16592129E+00 0.18828537E+04</pdfrwt>
<pdfrwt beam="2">  1       -1 0.72490586E+00 0.18828537E+04</pdfrwt>
<totfact> 0.19151425E-03</totfact>
</mgrwt>
</event>
<event>
12    1  0.3127365E-008  0.4761659E+03  0.7818608E-02  0.1020194E+00
          1   -1    0    0  501    0  0.00000000000E+00  0.00000000000E+00  0.11540453064E+04  0.11540453064E+04  0.00000000000E+00 0. -1.
         -1   -1    0    0    0  501 -0.00000000000E+00 -0.00000000000E+00 -0.21805029122E+03  0.21805029122E+03  0.00000000000E+00 0.  1.
         23    2    1    2    0    0 -0.22338363933E+03 -0.22243919517E+03  0.33286937335E+03  0.46484058532E+03  0.76780884210E+02 0.  0.
    5000000    2    1    2    0    0  0.22338363933E+03  0.22243919517E+03  0.60312564182E+03  0.90725501229E+03  0.59997639256E+03 0.  0.
         23    2    4    4    0    0  0.27535932670E+03 -0.10025814350E+03  0.42321309796E+03  0.52276276332E+03  0.91088562890E+02 0.  0.
         23    2    4    4    0    0 -0.51975687378E+02  0.32269733868E+03  0.17991254386E+03  0.38449224897E+03  0.92901677112E+02 0.  0.
          3    1    3    3  502    0 -0.73532659559E+02 -0.59560113304E+02  0.15182430469E+03  0.17889963279E+03  0.00000000000E+00 0. -1.
         -3    1    3    3    0  502 -0.14985097977E+03 -0.16287908187E+03  0.18104506866E+03  0.28594095253E+03  0.00000000000E+00 0.  1.
         11    1    5    5    0    0  0.16222817057E+03 -0.10864080581E+02  0.21779769565E+03  0.27179375232E+03  0.00000000000E+00 0.  1.
        -11    1    5    5    0    0  0.11313115613E+03 -0.89394062920E+02  0.20541540231E+03  0.25096901100E+03  0.00000000000E+00 0. -1.
          5    1    6    6  503    0  0.12821732271E+01  0.11591376891E+03  0.10968973095E+03  0.15966080567E+03  0.47000000000E+01 0. -1.
         -5    1    6    6    0  503 -0.53257860605E+02  0.20678356977E+03  0.70222812905E+02  0.22483144329E+03  0.47000000000E+01 0.  1.
<mgrwt>
<rscale>  0 0.47616589E+03</rscale>
<asrwt>0</asrwt>
<pdfrwt beam="1">  1        1 0.17754543E+00 0.47616589E+03</pdfrwt>
<pdfrwt beam="2">  1       -1 0.33546199E-01 0.47616589E+03</pdfrwt>
<totfact> 0.10152699E+02</totfact>
</mgrwt>
</event>
<event>
12    1  0.3127365E-008  0.6198209E+03  0.7818608E-02  0.9865116E-01
          4   -1    0    0  501    0  0.00000000000E+00  0.00000000000E+00  0.15415019024E+04  0.15415019024E+04  0.00000000000E+00 0. -1.
         -4   -1    0    0    0  501 -0.00000000000E+00 -0.00000000000E+00 -0.33321391360E+03  0.33321391360E+03  0.00000000000E+00 0.  1.
         23    2    1    2    0    0  0.40313891688E+03 -0.35758299605E+03  0.19636492780E+03  0.58077886875E+03  0.91423870813E+02 0.  0.
    5000000    2    1    2    0    0 -0.40313891688E+03  0.35758299605E+03  0.10119230610E+04  0.12939369472E+04  0.59991495791E+03 0.  0.
         23    2    4    4    0    0 -0.86560533452E+02 -0.90931993836E+02  0.20767737190E+02  0.15683396930E+03  0.91674650599E+02 0.  0.
         23    2    4    4    0    0 -0.31657838342E+03  0.44851498988E+03  0.99115532380E+03  0.11371029780E+04  0.96055908554E+02 0.  0.
          3    1    3    3  502    0  0.19340780824E+03 -0.19980043786E+03  0.14400538050E+03  0.31315227106E+03  0.00000000000E+00 0. -1.
         -3    1    3    3    0  502  0.20973110863E+03 -0.15778255818E+03  0.52359547301E+02  0.26762659769E+03  0.00000000000E+00 0.  1.
         13    1    5    5    0    0 -0.33105789480E+02 -0.90726924528E+02  0.32883480630E+02  0.10202299461E+03  0.00000000000E+00 0.  1.
        -13    1    5    5    0    0 -0.53454743972E+02 -0.20506930816E+00 -0.12115743441E+02  0.54810974682E+02  0.00000000000E+00 0. -1.
          5    1    6    6  503    0 -0.16031922096E+03  0.22448806013E+03  0.59542748119E+03  0.65624166060E+03  0.47000000000E+01 0. -1.
         -5    1    6    6    0  503 -0.15625916246E+03  0.22402692975E+03  0.39572784261E+03  0.48086131735E+03  0.47000000000E+01 0.  1.
<mgrwt>
<rscale>  0 0.61982091E+03</rscale>
<asrwt>0</asrwt>
<pdfrwt beam="1">  1        4 0.23715414E+00 0.61982091E+03</pdfrwt>
<pdfrwt beam="2">  1       -4 0.51263680E-01 0.61982091E+03</pdfrwt>
<totfact> 0.55594626E-01</totfact>
</mgrwt>
</event>
<event>
12    1  0.3127365E-008  0.8126688E+03  0.7818608E-02  0.9541858E-01
         -2   -1    0    0    0  501 -0.00000000000E+00  0.00000000000E+00  0.80228150135E+03  0.80228150135E+03  0.00000000000E+00 0.  1.
          2   -1    0    0  501    0  0.00000000000E+00 -0.00000000000E+00 -0.15567921346E+04  0.15567921346E+04  0.00000000000E+00 0. -1.
         23    2    1    2    0    0  0.51311119515E+03 -0.56243108693E+03  0.39032586882E+03  0.85889844062E+03  0.75765568033E+02 0.  0.
    5000000    2    1    2    0    0 -0.51311119515E+03  0.56243108693E+03 -0.11448365021E+04  0.15001751953E+04  0.60021927164E+03 0.  0.
         23    2    4    4    0    0 -0.10579767741E+03  0.37982085536E+03 -0.89061621033E+03  0.97827415081E+03  0.91466110245E+02 0.  0.
         23    2    4    4    0    0 -0.40731351774E+03  0.18261023158E+03 -0.25422029173E+03  0.52190104451E+03  0.92205992861E+02 0.  0.
          3    1    3    3  502    0  0.12157337687E+03 -0.18341915876E+03  0.11854572265E+03  0.24995151955E+03  0.00000000000E+00 0. -1.
         -3    1    3    3    0  502  0.39153781827E+03 -0.37901192817E+03  0.27178014617E+03  0.60894692108E+03  0.00000000000E+00 0.  1.
         13    1    5    5    0    0 -0.37505947115E+02  0.29599798394E+02 -0.11415322860E+03  0.12374895447E+03  0.00000000000E+00 0. -1.
        -13    1    5    5    0    0 -0.68291730292E+02  0.35022105696E+03 -0.77646298174E+03  0.85452519634E+03  0.00000000000E+00 0.  1.
          5    1    6    6  503    0 -0.32118737901E+03  0.10026374157E+03 -0.19081704232E+03  0.38684284141E+03  0.47000000000E+01 0. -1.
         -5    1    6    6    0  503 -0.86126138732E+02  0.82346490002E+02 -0.63403249415E+02  0.13505820310E+03  0.47000000000E+01 0.  1.
<mgrwt>
<rscale>  0 0.81266876E+03</rscale>
<asrwt>0</asrwt>
<pdfrwt beam="1">  1        2 0.23950648E+00 0.81266876E+03</pdfrwt>
<pdfrwt beam="2">  1       -2 0.12342792E+00 0.81266876E+03</pdfrwt>
<totfact> 0.59370610E+00</totfact>
</mgrwt>
</event>
<event>
12    1  0.3127365E-008  0.1148910E+04  0.7818608E-02  0.9158790E-01
         -2   -1    0    0    0  501 -0.00000000000E+00  0.00000000000E+00  0.38002409783E+03  0.38002409783E+03  0.00000000000E+00 0.  1.
          2   -1    0    0  501    0  0.00000000000E+00 -0.00000000000E+00 -0.35741800123E+04  0.35741800123E+04  0.00000000000E+00 0. -1.
         23    2    1    2    0    0  0.72572092374E+03  0.80761802813E+03 -0.14385922222E+04  0.18045920638E+04  0.89928841663E+02 0.  0.
    5000000    2    1    2    0    0 -0.72572092374E+03 -0.80761802813E+03 -0.17555636923E+04  0.21496120463E+04  0.59992527322E+03 0.  0.
         23    2    4    4    0    0 -0.25689001512E+03  0.13012787550E+02 -0.56080658630E+03  0.62349320234E+03  0.89877325400E+02 0.  0.
         23    2    4    4    0    0 -0.46883090862E+03 -0.82063081568E+03 -0.11947571060E+04  0.15261188440E+04  0.91415682908E+02 0.  0.
          2    1    3    3  502    0  0.52458587340E+03  0.55397822374E+03 -0.10681476732E+04  0.13126391975E+04  0.00000000000E+00 0. -1.
         -2    1    3    3    0  502  0.20113505033E+03  0.25363980439E+03 -0.37044454896E+03  0.49195286634E+03  0.00000000000E+00 0.  1.
         13    1    5    5    0    0 -0.25555195815E+03  0.59339072207E+01 -0.56077625038E+03  0.61628890755E+03  0.00000000000E+00 0.  1.
        -13    1    5    5    0    0 -0.13380569629E+01  0.70788803296E+01 -0.30335912613E-01  0.72042947902E+01  0.00000000000E+00 0. -1.
          5    1    6    6  503    0 -0.38099979566E+03 -0.72062440890E+03 -0.99941132878E+03  0.12896920086E+04  0.47000000000E+01 0. -1.
         -5    1    6    6    0  503 -0.87831112966E+02 -0.10000640678E+03 -0.19534577721E+03  0.23642683535E+03  0.47000000000E+01 0.  1.
<mgrwt>
<rscale>  0 0.11489097E+04</rscale>
<asrwt>0</asrwt>
<pdfrwt beam="1">  1        2 0.54987384E+00 0.11489097E+04</pdfrwt>
<pdfrwt beam="2">  1       -2 0.58465246E-01 0.11489097E+04</pdfrwt>
<totfact> 0.20018941E+00</totfact>
</mgrwt>
</event>
<event>
12    1  0.3127365E-008  0.8880636E+03  0.7818608E-02  0.9440627E-01
         -1   -1    0    0    0  501 -0.00000000000E+00  0.00000000000E+00  0.99010415001E+03  0.99010415001E+03  0.00000000000E+00 0.  1.
          1   -1    0    0  501    0  0.00000000000E+00 -0.00000000000E+00 -0.18810361136E+04  0.18810361136E+04  0.00000000000E+00 0. -1.
         23    2    1    2    0    0  0.13547288935E+03 -0.83095513047E+03 -0.14623600422E+04  0.16898599562E+04  0.91051885257E+02 0.  0.
    5000000    2    1    2    0    0 -0.13547288935E+03  0.83095513047E+03  0.57142807863E+03  0.11812803074E+04  0.60004481756E+03 0.  0.
         23    2    4    4    0    0  0.16695666291E+02  0.75121493511E+03  0.23437121122E+03  0.79271667207E+03  0.94165989252E+02 0.  0.
         23    2    4    4    0    0 -0.15216855564E+03  0.79740195357E+02  0.33705686741E+03  0.38856363535E+03  0.88660017899E+02 0.  0.
          1    1    3    3  502    0  0.48781822835E+02 -0.50562611337E+03 -0.93803296360E+03  0.10667442400E+04  0.00000000000E+00 0. -1.
         -1    1    3    3    0  502  0.86691066511E+02 -0.32532901710E+03 -0.52432707860E+03  0.62311571616E+03  0.00000000000E+00 0.  1.
         13    1    5    5    0    0 -0.34638607109E+02  0.20684981111E+03  0.81059422458E+02  0.22484952174E+03  0.00000000000E+00 0.  1.
        -13    1    5    5    0    0  0.51334273400E+02  0.54436512400E+03  0.15331178876E+03  0.56786715033E+03  0.00000000000E+00 0. -1.
          5    1    6    6  503    0 -0.56485196647E+02  0.47286701709E+02  0.22877867773E+03  0.24039214418E+03  0.47000000000E+01 0. -1.
         -5    1    6    6    0  503 -0.95683358990E+02  0.32453493648E+02  0.10827818967E+03  0.14817149117E+03  0.47000000000E+01 0.  1.
<mgrwt>
<rscale>  0 0.88806362E+03</rscale>
<asrwt>0</asrwt>
<pdfrwt beam="1">  1        1 0.28939017E+00 0.88806362E+03</pdfrwt>
<pdfrwt beam="2">  1       -1 0.15232371E+00 0.88806362E+03</pdfrwt>
<totfact> 0.12348028E+00</totfact>
</mgrwt>
</event>
<event>
12    1  0.3127365E-008  0.1288209E+04  0.7818608E-02  0.9038968E-01
          2   -1    0    0  501    0  0.00000000000E+00  0.00000000000E+00  0.32005043303E+04  0.32005043303E+04  0.00000000000E+00 0. -1.
         -2   -1    0    0    0  501 -0.00000000000E+00 -0.00000000000E+00 -0.98438202810E+03  0.98438202810E+03  0.00000000000E+00 0.  1.
         23    2    1    2    0    0  0.64874931421E+03 -0.10922547784E+04 -0.29507649044E+03  0.13074182908E+04  0.91522010153E+02 0.  0.
    5000000    2    1    2    0    0 -0.64874931421E+03  0.10922547784E+04  0.25111987926E+04  0.28774680675E+04  0.59983908691E+03 0.  0.
         23    2    4    4    0    0 -0.62604254961E+03  0.83574340212E+03  0.23058774544E+04  0.25330674250E+04  0.94675429952E+02 0.  0.
         23    2    4    4    0    0 -0.22706764595E+02  0.25651137627E+03  0.20532133823E+03  0.34440064252E+03  0.10070385951E+03 0.  0.
          3    1    3    3  502    0  0.19092807894E+03 -0.32395754922E+03 -0.44765228095E+02  0.37868978158E+03  0.00000000000E+00 0. -1.
         -3    1    3    3    0  502  0.45782123527E+03 -0.76829722917E+03 -0.25031126234E+03  0.92872850924E+03  0.00000000000E+00 0.  1.
         11    1    5    5    0    0 -0.18077376738E+03  0.31018663591E+03  0.83327539481E+03  0.90732727704E+03  0.00000000000E+00 0. -1.
        -11    1    5    5    0    0 -0.44526878223E+03  0.52555676621E+03  0.14726020596E+04  0.16257401480E+04  0.00000000000E+00 0.  1.
          5    1    6    6  503    0 -0.50909626519E+00  0.91169532407E+02  0.13574312980E+03  0.16358615499E+03  0.47000000000E+01 0. -1.
         -5    1    6    6    0  503 -0.22197668330E+02  0.16534184386E+03  0.69578208438E+02  0.18081448753E+03  0.47000000000E+01 0.  1.
<mgrwt>
<rscale>  0 0.12882095E+04</rscale>
<asrwt>0</asrwt>
<pdfrwt beam="1">  1        2 0.49238528E+00 0.12882095E+04</pdfrwt>
<pdfrwt beam="2">  1       -2 0.15144339E+00 0.12882095E+04</pdfrwt>
<totfact> 0.36929929E-01</totfact>
</mgrwt>
</event>
<event>
12    1  0.3127365E-008  0.3805993E+03  0.7818608E-02  0.1050712E+00
         -2   -1    0    0    0  501 -0.00000000000E+00  0.00000000000E+00  0.26212199560E+03  0.26212199560E+03  0.00000000000E+00 0.  1.
          2   -1    0    0  501    0  0.00000000000E+00 -0.00000000000E+00 -0.72409453926E+03  0.72409453926E+03  0.00000000000E+00 0. -1.
         23    2    1    2    0    0  0.13579161401E+03 -0.62865629884E+02  0.51817165439E+02  0.18231635801E+03  0.90348137269E+02 0.  0.
    5000000    2    1    2    0    0 -0.13579161401E+03  0.62865629884E+02 -0.51378970910E+03  0.80390017686E+03  0.59990347501E+03 0.  0.
         23    2    4    4    0    0 -0.14416797419E+03  0.30492346329E+03 -0.22464544277E+03  0.41539078113E+03  0.91220627333E+02 0.  0.
         23    2    4    4    0    0  0.83763601801E+01 -0.24205783340E+03 -0.28914426633E+03  0.38850939573E+03  0.93128866059E+02 0.  0.
          3    1    3    3  502    0  0.11350949664E+03 -0.70745307158E+01  0.43045112679E+02  0.12160319296E+03  0.00000000000E+00 0. -1.
         -3    1    3    3    0  502  0.22282117368E+02 -0.55791099168E+02  0.87720527593E+01  0.60713165050E+02  0.00000000000E+00 0.  1.
         11    1    5    5    0    0 -0.54759966685E+02  0.13770823428E+03 -0.46770011540E+02  0.15540156280E+03  0.00000000000E+00 0.  1.
        -11    1    5    5    0    0 -0.89408007501E+02  0.16721522900E+03 -0.17787543123E+03  0.25998921834E+03  0.00000000000E+00 0. -1.
          5    1    6    6  503    0  0.32948353335E+02 -0.10165487113E+03 -0.17813920217E+03  0.20778588056E+03  0.47000000000E+01 0. -1.
         -5    1    6    6    0  503 -0.24571993154E+02 -0.14040296228E+03 -0.11100506416E+03  0.18072351516E+03  0.47000000000E+01 0.  1.
<mgrwt>
<rscale>  0 0.38059928E+03</rscale>
<asrwt>0</asrwt>
<pdfrwt beam="1">  1        2 0.11139916E+00 0.38059928E+03</pdfrwt>
<pdfrwt beam="2">  1       -2 0.40326461E-01 0.38059928E+03</pdfrwt>
<totfact> 0.23566126E+02</totfact>
</mgrwt>
</event>
<event>
12    1  0.3333202E-008  0.7160748E+03  0.7818608E-02  0.9690130E-01
          2   -1    0    0  501    0  0.00000000000E+00  0.00000000000E+00  0.89771892179E+03  0.89771892179E+03  0.00000000000E+00 0. -1.
         -2   -1    0    0    0  501 -0.00000000000E+00 -0.00000000000E+00 -0.91436479022E+03  0.91436479022E+03  0.00000000000E+00 0.  1.
         23    2    1    2    0    0  0.55386772754E+03 -0.43231983605E+03 -0.39780844885E+03  0.81262136985E+03  0.91826077542E+02 0.  0.
    5000000    2    1    2    0    0 -0.55386772754E+03  0.43231983605E+03  0.38116258042E+03  0.99946234216E+03  0.59997513319E+03 0.  0.
         23    2    4    4    0    0 -0.46758578561E+03  0.30724566593E+03 -0.13548803584E+02  0.56667958336E+03  0.88914644312E+02 0.  0.
         23    2    4    4    0    0 -0.86281941923E+02  0.12507417012E+03  0.39471138400E+03  0.43278275881E+03  0.91737223239E+02 0.  0.
          4    1    3    3  502    0  0.32206517911E+03 -0.19469651178E+03 -0.19974550043E+03  0.42606452122E+03  0.00000000000E+00 0. -1.
         -4    1    3    3    0  502  0.23180254842E+03 -0.23762332426E+03 -0.19806294841E+03  0.38655684863E+03  0.00000000000E+00 0.  1.
         11    1    5    5    0    0 -0.36063700720E+03  0.22991077191E+03  0.27197000027E+02  0.42855301984E+03  0.00000000000E+00 0. -1.
        -11    1    5    5    0    0 -0.10694877842E+03  0.77334894017E+02 -0.40745803611E+02  0.13812656352E+03  0.00000000000E+00 0.  1.
          5    1    6    6  503    0 -0.87096230367E+01 -0.61624332013E+01  0.10250666190E+03  0.10316752808E+03  0.47000000000E+01 0. -1.
         -5    1    6    6    0  503 -0.77572318887E+02  0.13123660332E+03  0.29220472210E+03  0.32961523072E+03  0.47000000000E+01 0.  1.
<mgrwt>
<rscale>  0 0.71607478E+03</rscale>
<asrwt>0</asrwt>
<pdfrwt beam="1">  1        2 0.13811060E+00 0.71607478E+03</pdfrwt>
<pdfrwt beam="2">  1       -2 0.14067151E+00 0.71607478E+03</pdfrwt>
<totfact> 0.10653505E+01</totfact>
</mgrwt>
</event>
<event>
12    1  0.3127365E-008  0.1684599E+04  0.7818608E-02  0.8770197E-01
          2   -1    0    0  501    0  0.00000000000E+00  0.00000000000E+00  0.26268931912E+04  0.26268931912E+04  0.00000000000E+00 0. -1.
         -2   -1    0    0    0  501 -0.00000000000E+00 -0.00000000000E+00 -0.10993072395E+04  0.10993072395E+04  0.00000000000E+00 0.  1.
         23    2    1    2    0    0 -0.11519368616E+04  0.11732912399E+04  0.79722386015E+03  0.18295774366E+04  0.90646823531E+02 0.  0.
    5000000    2    1    2    0    0  0.11519368616E+04 -0.11732912399E+04  0.73036209152E+03  0.18966229940E+04  0.60014925640E+03 0.  0.
         23    2    4    4    0    0  0.29483334200E+02  0.32304569522E+02  0.50316791669E+02  0.11275730575E+03  0.90937221583E+02 0.  0.
         23    2    4    4    0    0  0.11224535274E+04 -0.12055958094E+04  0.68004529985E+03  0.17838656883E+04  0.79699479526E+02 0.  0.
          1    1    3    3  502    0 -0.28273348980E+03  0.27627187811E+03  0.23433391011E+03  0.45953972441E+03  0.00000000000E+00 0. -1.
         -1    1    3    3    0  502 -0.86920337180E+03  0.89701936181E+03  0.56288995005E+03  0.13700377122E+04  0.00000000000E+00 0.  1.
         13    1    5    5    0    0 -0.19515367166E+02  0.10284961932E+02 -0.16118421424E+02  0.27320935320E+02  0.00000000000E+00 0. -1.
        -13    1    5    5    0    0  0.48998701366E+02  0.22019607590E+02  0.66435213093E+02  0.85436370433E+02  0.00000000000E+00 0.  1.
          5    1    6    6  503    0  0.54057143029E+03 -0.63708718421E+03  0.35451682418E+03  0.90763529028E+03  0.47000000000E+01 0. -1.
         -5    1    6    6    0  503  0.58188209711E+03 -0.56850862522E+03  0.32552847567E+03  0.87623039799E+03  0.47000000000E+01 0.  1.
<mgrwt>
<rscale>  0 0.16845989E+04</rscale>
<asrwt>0</asrwt>
<pdfrwt beam="1">  1        2 0.40413741E+00 0.16845989E+04</pdfrwt>
<pdfrwt beam="2">  1       -2 0.16912419E+00 0.16845989E+04</pdfrwt>
<totfact> 0.58714972E-01</totfact>
</mgrwt>
</event>
<event>
12    1  0.3127365E-008  0.4139083E+03  0.7818608E-02  0.1039067E+00
         -1   -1    0    0    0  501 -0.00000000000E+00  0.00000000000E+00  0.10411861294E+03  0.10411861294E+03  0.00000000000E+00 0.  1.
          1   -1    0    0  501    0  0.00000000000E+00 -0.00000000000E+00 -0.25415483563E+04  0.25415483563E+04  0.00000000000E+00 0. -1.
         23    2    1    2    0    0 -0.27630063719E+03 -0.54749052279E+02 -0.36436917094E+03  0.46927058737E+03  0.90058262273E+02 0.  0.
    5000000    2    1    2    0    0  0.27630063719E+03  0.54749052279E+02 -0.20730605724E+04  0.21763963818E+04  0.59981795007E+03 0.  0.
         23    2    4    4    0    0  0.81632547899E+02 -0.19060502975E+03 -0.31239506280E+03  0.38579678977E+03  0.90853384607E+02 0.  0.
         23    2    4    4    0    0  0.19466808929E+03  0.24535408203E+03 -0.17606655096E+04  0.17905995921E+04  0.90606687711E+02 0.  0.
          2    1    3    3  502    0 -0.93547941125E+02  0.20976846299E+02 -0.94057180123E+02  0.13430561605E+03  0.00000000000E+00 0. -1.
         -2    1    3    3    0  502 -0.18275269607E+03 -0.75725898578E+02 -0.27031199081E+03  0.33496497132E+03  0.00000000000E+00 0.  1.
         11    1    5    5    0    0  0.11963496408E+02 -0.12136900768E+03 -0.12752715872E+03  0.17645604972E+03  0.00000000000E+00 0.  1.
        -11    1    5    5    0    0  0.69669051492E+02 -0.69236022078E+02 -0.18486790408E+03  0.20934074006E+03  0.00000000000E+00 0. -1.
          5    1    6    6  503    0  0.11416098379E+03  0.12829286988E+03 -0.71680540705E+03  0.73710506188E+03  0.47000000000E+01 0. -1.
         -5    1    6    6    0  503  0.80507105506E+02  0.11706121216E+03 -0.10438601026E+04  0.10534945302E+04  0.47000000000E+01 0.  1.
<mgrwt>
<rscale>  0 0.41390831E+03</rscale>
<asrwt>0</asrwt>
<pdfrwt beam="1">  1        1 0.39100741E+00 0.41390831E+03</pdfrwt>
<pdfrwt beam="2">  1       -1 0.16018249E-01 0.41390831E+03</pdfrwt>
<totfact> 0.41479225E+01</totfact>
</mgrwt>
</event>
<event>
12    1  0.3127365E-008  0.1199061E+04  0.7818608E-02  0.9113679E-01
         -1   -1    0    0    0  501 -0.00000000000E+00  0.00000000000E+00  0.54273792273E+03  0.54273792273E+03  0.00000000000E+00 0.  1.
          1   -1    0    0  501    0  0.00000000000E+00 -0.00000000000E+00 -0.28000994796E+04  0.28000994796E+04  0.00000000000E+00 0. -1.
         23    2    1    2    0    0 -0.26774718948E+03  0.11130104388E+04 -0.82702518147E+03  0.14150390540E+04  0.88792336998E+02 0.  0.
    5000000    2    1    2    0    0  0.26774718948E+03 -0.11130104388E+04 -0.14303363754E+04  0.19277983484E+04  0.60005293999E+03 0.  0.
         23    2    4    4    0    0  0.27616622744E+03 -0.23329795037E+03 -0.64395460518E+03  0.74407958704E+03  0.91000986158E+02 0.  0.
         23    2    4    4    0    0 -0.84190379631E+01 -0.87971248843E+03 -0.78638177023E+03  0.11837187613E+04  0.93962092796E+02 0.  0.
          2    1    3    3  502    0 -0.15426111761E+03  0.74097998999E+03 -0.50261739737E+03  0.90855494391E+03  0.00000000000E+00 0.  1.
         -2    1    3    3    0  502 -0.11348607187E+03  0.37203044882E+03 -0.32440778410E+03  0.50648411005E+03  0.00000000000E+00 0. -1.
         11    1    5    5    0    0  0.86292242195E+02 -0.12841788504E+03 -0.29739065472E+03  0.33522933311E+03  0.00000000000E+00 0.  1.
        -11    1    5    5    0    0  0.18987398525E+03 -0.10488006533E+03 -0.34656395047E+03  0.40885025393E+03  0.00000000000E+00 0. -1.
          5    1    6    6  503    0  0.14760160101E+02 -0.48524151010E+03 -0.37660445481E+03  0.61443485483E+03  0.47000000000E+01 0. -1.
         -5    1    6    6    0  503 -0.23179198064E+02 -0.39447097833E+03 -0.40977731542E+03  0.56928390650E+03  0.47000000000E+01 0.  1.
<mgrwt>
<rscale>  0 0.11990610E+04</rscale>
<asrwt>0</asrwt>
<pdfrwt beam="1">  1        1 0.43078455E+00 0.11990610E+04</pdfrwt>
<pdfrwt beam="2">  1       -1 0.83498140E-01 0.11990610E+04</pdfrwt>
<totfact> 0.11799412E+00</totfact>
</mgrwt>
</event>
<event>
12    1  0.3127365E-008  0.5597508E+03  0.7818608E-02  0.9992619E-01
         -2   -1    0    0    0  501 -0.00000000000E+00  0.00000000000E+00  0.10545532886E+04  0.10545532886E+04  0.00000000000E+00 0.  1.
          2   -1    0    0  501    0  0.00000000000E+00 -0.00000000000E+00 -0.80981072351E+03  0.80981072351E+03  0.00000000000E+00 0. -1.
         23    2    1    2    0    0  0.28604500911E+03 -0.38446177798E+03  0.78576919963E+03  0.92485541778E+03  0.91058787269E+02 0.  0.
    5000000    2    1    2    0    0 -0.28604500911E+03  0.38446177798E+03 -0.54102663455E+03  0.93950859434E+03  0.60027824680E+03 0.  0.
         23    2    4    4    0    0  0.73262640559E+02  0.18774798642E+03 -0.46298140566E+03  0.51307507052E+03  0.90980905079E+02 0.  0.
         23    2    4    4    0    0 -0.35930764967E+03  0.19671379156E+03 -0.78045228882E+02  0.42643352382E+03  0.89197475213E+02 0.  0.
          2    1    3    3  502    0  0.12518637967E+03 -0.17707384967E+03  0.27142217692E+03  0.34741441538E+03  0.00000000000E+00 0. -1.
         -2    1    3    3    0  502  0.16085862945E+03 -0.20738792830E+03  0.51434702271E+03  0.57744100239E+03  0.00000000000E+00 0.  1.
         13    1    5    5    0    0  0.11414602720E+02  0.14574612188E+03 -0.31562485830E+03  0.34783800306E+03  0.00000000000E+00 0. -1.
        -13    1    5    5    0    0  0.61848037839E+02  0.42001864534E+02 -0.14735654737E+03  0.16523706746E+03  0.00000000000E+00 0.  1.
          5    1    6    6  503    0 -0.55536450640E+02  0.71437991552E+02 -0.16774148762E+02  0.92147414795E+02  0.47000000000E+01 0. -1.
         -5    1    6    6    0  503 -0.30377119903E+03  0.12527580001E+03 -0.61271080120E+02  0.33428610903E+03  0.47000000000E+01 0.  1.
<mgrwt>
<rscale>  0 0.55975082E+03</rscale>
<asrwt>0</asrwt>
<pdfrwt beam="1">  1        2 0.12458627E+00 0.55975082E+03</pdfrwt>
<pdfrwt beam="2">  1       -2 0.16223897E+00 0.55975082E+03</pdfrwt>
<totfact> 0.85807992E+00</totfact>
</mgrwt>
</event>
<event>
12    1  0.3127365E-008  0.4951476E+03  0.7818608E-02  0.1015053E+00
         -2   -1    0    0    0  501 -0.00000000000E+00  0.00000000000E+00  0.21603298499E+03  0.21603298499E+03  0.00000000000E+00 0. -1.
          2   -1    0    0  501    0  0.00000000000E+00 -0.00000000000E+00 -0.15421455596E+04  0.15421455596E+04  0.00000000000E+00 0.  1.
         23    2    1    2    0    0  0.36342114285E+03  0.13394736962E+03 -0.26100881336E+03  0.47582562630E+03  0.90926349820E+02 0.  0.
    5000000    2    1    2    0    0 -0.36342114285E+03 -0.13394736962E+03 -0.10651037613E+04  0.12823529183E+04  0.59997179929E+03 0.  0.
         23    2    4    4    0    0 -0.31241427244E+03  0.11694215696E+03 -0.26005085927E+03  0.43261292108E+03  0.90825901468E+02 0.  0.
         23    2    4    4    0    0 -0.51006870407E+02 -0.25088952659E+03 -0.80505290199E+03  0.84973999723E+03  0.91654964443E+02 0.  0.
          4    1    3    3  502    0  0.13401886864E+03  0.77758784331E+02 -0.14694065843E+03  0.21353932376E+03  0.00000000000E+00 0. -1.
         -4    1    3    3    0  502  0.22940227421E+03  0.56188585292E+02 -0.11406815493E+03  0.26228630253E+03  0.00000000000E+00 0.  1.
         13    1    5    5    0    0 -0.10012656511E+03  0.74836866511E+02 -0.63268808782E+02  0.14010291858E+03  0.00000000000E+00 0.  1.
        -13    1    5    5    0    0 -0.21228770733E+03  0.42105290454E+02 -0.19678205049E+03  0.29251000250E+03  0.00000000000E+00 0. -1.
          5    1    6    6  503    0 -0.14677751388E+02 -0.28924762652E+02 -0.22871544209E+03  0.23105177284E+03  0.47000000000E+01 0. -1.
         -5    1    6    6    0  503 -0.36329119019E+02 -0.22196476394E+03 -0.57633745990E+03  0.61868822439E+03  0.47000000000E+01 0.  1.
<mgrwt>
<rscale>  0 0.49514755E+03</rscale>
<asrwt>0</asrwt>
<pdfrwt beam="1">  1        2 0.23725315E+00 0.49514755E+03</pdfrwt>
<pdfrwt beam="2">  1       -2 0.33235845E-01 0.49514755E+03</pdfrwt>
<totfact> 0.10646002E+02</totfact>
</mgrwt>
</event>
<event>
12    1  0.3127365E-008  0.6305388E+03  0.7818608E-02  0.9843998E-01
         -2   -1    0    0    0  501 -0.00000000000E+00  0.00000000000E+00  0.59286518697E+03  0.59286518697E+03  0.00000000000E+00 0.  1.
          2   -1    0    0  501    0  0.00000000000E+00 -0.00000000000E+00 -0.72953350189E+03  0.72953350189E+03  0.00000000000E+00 0. -1.
         23    2    1    2    0    0 -0.37890687900E+02  0.50493796759E+03  0.47635421976E+02  0.51595820704E+03  0.86865888788E+02 0.  0.
    5000000    2    1    2    0    0  0.37890687900E+02 -0.50493796759E+03 -0.18430373690E+03  0.80644048183E+03  0.59998360640E+03 0.  0.
         23    2    4    4    0    0  0.29307092975E+03 -0.23298722044E+03 -0.17204813685E+03  0.42233199023E+03  0.92682974816E+02 0.  0.
         23    2    4    4    0    0 -0.25518024185E+03 -0.27195074715E+03 -0.12255600047E+02  0.38410849160E+03  0.91186451184E+02 0.  0.
          2    1    3    3  502    0 -0.35431750957E+02  0.47897365168E+03  0.64948969385E+02  0.48465403805E+03  0.00000000000E+00 0. -1.
         -2    1    3    3    0  502 -0.24589369430E+01  0.25964315919E+02 -0.17313547410E+02  0.31304168987E+02  0.00000000000E+00 0.  1.
         11    1    5    5    0    0  0.81300691448E+02 -0.25579069308E+02 -0.64953417056E+02  0.10715893618E+03  0.00000000000E+00 0. -1.
        -11    1    5    5    0    0  0.21177023830E+03 -0.20740815113E+03 -0.10709471979E+03  0.31517305404E+03  0.00000000000E+00 0.  1.
          5    1    6    6  503    0 -0.10247235863E+03 -0.10681276047E+03  0.39478096824E+02  0.15326499995E+03  0.47000000000E+01 0. -1.
         -5    1    6    6    0  503 -0.15270788322E+03 -0.16513798669E+03 -0.51733696870E+02  0.23084349165E+03  0.47000000000E+01 0.  1.
<mgrwt>
<rscale>  0 0.63053883E+03</rscale>
<asrwt>0</asrwt>
<pdfrwt beam="1">  1        2 0.11223592E+00 0.63053883E+03</pdfrwt>
<pdfrwt beam="2">  1       -2 0.91210029E-01 0.63053883E+03</pdfrwt>
<totfact> 0.40779967E+01</totfact>
</mgrwt>
</event>
<event>
12    1  0.3127365E-008  0.8071646E+03  0.7818608E-02  0.9549704E-01
          1   -1    0    0  501    0  0.00000000000E+00  0.00000000000E+00  0.28040605598E+04  0.28040605598E+04  0.00000000000E+00 0. -1.
         -1   -1    0    0    0  501 -0.00000000000E+00 -0.00000000000E+00 -0.29035972105E+03  0.29035972105E+03  0.00000000000E+00 0.  1.
         23    2    1    2    0    0  0.26370323934E+03  0.75411562215E+03  0.11851436056E+04  0.14321403050E+04  0.90723299817E+02 0.  0.
    5000000    2    1    2    0    0 -0.26370323934E+03 -0.75411562215E+03  0.13285572331E+04  0.16622799759E+04  0.59990051389E+03 0.  0.
         23    2    4    4    0    0 -0.13595018537E+03 -0.18338520629E+03  0.45934336757E+02  0.24968189288E+03  0.90102705562E+02 0.  0.
         23    2    4    4    0    0 -0.12775305398E+03 -0.57073041586E+03  0.12826228964E+04  0.14125980830E+04  0.90872435235E+02 0.  0.
          3    1    3    3  502    0  0.20304998030E+02  0.64144475829E+02  0.60676539407E+02  0.90600492045E+02  0.00000000000E+00 0. -1.
         -3    1    3    3    0  502  0.24339824132E+03  0.68997114632E+03  0.11244670662E+04  0.13415398129E+04  0.00000000000E+00 0.  1.
         13    1    5    5    0    0 -0.60173608134E+02 -0.10019433431E+03  0.67700315068E+02  0.13506702190E+03  0.00000000000E+00 0. -1.
        -13    1    5    5    0    0 -0.75776577232E+02 -0.83190871980E+02 -0.21765978311E+02  0.11461487098E+03  0.00000000000E+00 0.  1.
          5    1    6    6  503    0 -0.65323688909E+02 -0.21331839689E+03  0.58787432390E+03  0.62880063095E+03  0.47000000000E+01 0. -1.
         -5    1    6    6    0  503 -0.62429365070E+02 -0.35741201897E+03  0.69474857245E+03  0.78379745206E+03  0.47000000000E+01 0.  1.
<mgrwt>
<rscale>  0 0.80716459E+03</rscale>
<asrwt>0</asrwt>
<pdfrwt beam="1">  1        1 0.43139391E+00 0.80716459E+03</pdfrwt>
<pdfrwt beam="2">  1       -1 0.44670728E-01 0.80716459E+03</pdfrwt>
<totfact> 0.43337796E+00</totfact>
</mgrwt>
</event>
<event>
12    1  0.3127365E-008  0.3545071E+03  0.7818608E-02  0.1060780E+00
         -1   -1    0    0    0  501 -0.00000000000E+00  0.00000000000E+00  0.70516144671E+02  0.70516144671E+02  0.00000000000E+00 0.  1.
          1   -1    0    0  501    0  0.00000000000E+00 -0.00000000000E+00 -0.19160769707E+04  0.19160769707E+04  0.00000000000E+00 0. -1.
         23    2    1    2    0    0  0.82571133073E+02 -0.25697895042E+02 -0.39208619818E+03  0.41169738307E+03  0.91020737198E+02 0.  0.
    5000000    2    1    2    0    0 -0.82571133073E+02  0.25697895042E+02 -0.14534746279E+04  0.15748957323E+04  0.60019138614E+03 0.  0.
         23    2    4    4    0    0  0.21603142619E+03  0.13434309539E+03 -0.57726947673E+03  0.63807461523E+03  0.95820256034E+02 0.  0.
         23    2    4    4    0    0 -0.29860255926E+03 -0.10864520035E+03 -0.87620515117E+03  0.93682111711E+03  0.94504341546E+02 0.  0.
          1    1    3    3  502    0  0.53478577416E+02 -0.58344580402E+02 -0.29073149863E+03  0.30131188592E+03  0.00000000000E+00 0. -1.
         -1    1    3    3    0  502  0.29092555657E+02  0.32646685360E+02 -0.10135469955E+03  0.11038549714E+03  0.00000000000E+00 0.  1.
         13    1    5    5    0    0  0.56192255872E+02  0.24739804539E+02 -0.60666307062E+02  0.86313546800E+02  0.00000000000E+00 0. -1.
        -13    1    5    5    0    0  0.15983917032E+03  0.10960329085E+03 -0.51660316966E+03  0.55176106843E+03  0.00000000000E+00 0.  1.
          5    1    6    6  503    0 -0.17974289272E+03 -0.11218145623E+03 -0.58714601426E+03  0.62422329231E+03  0.47000000000E+01 0. -1.
         -5    1    6    6    0  503 -0.11885966655E+03  0.35362558864E+01 -0.28905913691E+03  0.31259782480E+03  0.47000000000E+01 0.  1.
<mgrwt>
<rscale>  0 0.35450714E+03</rscale>
<asrwt>0</asrwt>
<pdfrwt beam="1">  1        1 0.29478110E+00 0.35450714E+03</pdfrwt>
<pdfrwt beam="2">  1       -1 0.10848637E-01 0.35450714E+03</pdfrwt>
<totfact> 0.20256928E+02</totfact>
</mgrwt>
</event>
<event>
12    1  0.3127365E-008  0.8951286E+03  0.7818608E-02  0.9431692E-01
          2   -1    0    0  501    0  0.00000000000E+00  0.00000000000E+00  0.70154977537E+03  0.70154977537E+03  0.00000000000E+00 0.  1.
         -2   -1    0    0    0  501 -0.00000000000E+00 -0.00000000000E+00 -0.13289896276E+04  0.13289896276E+04  0.00000000000E+00 0. -1.
         23    2    1    2    0    0  0.27767732322E+03 -0.82255821103E+03 -0.22833250222E+03  0.90223835239E+03  0.90507494627E+02 0.  0.
    5000000    2    1    2    0    0 -0.27767732322E+03  0.82255821103E+03 -0.39910735002E+03  0.11283010506E+04  0.60005822847E+03 0.  0.
         23    2    4    4    0    0 -0.10203697074E+03  0.62701288788E+03 -0.97411345702E+00  0.64175684819E+03  0.91072489462E+02 0.  0.
         23    2    4    4    0    0 -0.17564035248E+03  0.19554532316E+03 -0.39813323656E+03  0.48654420240E+03  0.95538892649E+02 0.  0.
          2    1    3    3  502    0  0.11691302370E+03 -0.48619005781E+03 -0.13253921934E+03  0.51731622059E+03  0.00000000000E+00 0.  1.
         -2    1    3    3    0  502  0.16076429952E+03 -0.33636815322E+03 -0.95793282884E+02  0.38492213180E+03  0.00000000000E+00 0. -1.
         13    1    5    5    0    0 -0.51143445550E+02  0.50069315888E+03 -0.22886672885E+02  0.50381851015E+03  0.00000000000E+00 0.  1.
        -13    1    5    5    0    0 -0.50893525194E+02  0.12631972900E+03  0.21912559428E+02  0.13793833804E+03  0.00000000000E+00 0. -1.
          5    1    6    6  503    0 -0.74257670748E+02  0.23266039725E+02 -0.13729340966E+03  0.15788312325E+03  0.47000000000E+01 0. -1.
         -5    1    6    6    0  503 -0.10138268173E+03  0.17227928343E+03 -0.26083982690E+03  0.32866107916E+03  0.47000000000E+01 0.  1.
<mgrwt>
<rscale>  0 0.89512856E+03</rscale>
<asrwt>0</asrwt>
<pdfrwt beam="1">  1        2 0.10793074E+00 0.89512856E+03</pdfrwt>
<pdfrwt beam="2">  1       -2 0.20445994E+00 0.89512856E+03</pdfrwt>
<totfact> 0.51035497E+00</totfact>
</mgrwt>
</event>
<event>
12    1  0.3127365E-008  0.1719382E+04  0.7818608E-02  0.8750387E-01
         -1   -1    0    0    0  501 -0.00000000000E+00  0.00000000000E+00  0.24632685052E+04  0.24632685052E+04  0.00000000000E+00 0.  1.
          1   -1    0    0  501    0  0.00000000000E+00 -0.00000000000E+00 -0.15482895779E+04  0.15482895779E+04  0.00000000000E+00 0. -1.
         23    2    1    2    0    0  0.16839588156E+04  0.21802223270E+03  0.13355675650E+04  0.21622145543E+04  0.90443747516E+02 0.  0.
    5000000    2    1    2    0    0 -0.16839588156E+04 -0.21802223270E+03 -0.42058863770E+03  0.18493435289E+04  0.59993807934E+03 0.  0.
         23    2    4    4    0    0 -0.45288037266E+03  0.90923659832E+02 -0.32742512775E+03  0.57352042987E+03  0.91382303151E+02 0.  0.
         23    2    4    4    0    0 -0.12310784429E+04 -0.30894589254E+03 -0.93163509945E+02  0.12758230990E+04  0.89685245165E+02 0.  0.
          2    1    3    3  502    0  0.76091781971E+03  0.60410481543E+02  0.63087233858E+03  0.99027534667E+03  0.00000000000E+00 0. -1.
         -2    1    3    3    0  502  0.92304099589E+03  0.15761175116E+03  0.70469522644E+03  0.11719392076E+04  0.00000000000E+00 0.  1.
         11    1    5    5    0    0 -0.25968438268E+03  0.94431264325E+02 -0.17139191283E+03  0.32515908426E+03  0.00000000000E+00 0.  1.
        -11    1    5    5    0    0 -0.19319598998E+03 -0.35076044932E+01 -0.15603321492E+03  0.24836134561E+03  0.00000000000E+00 0. -1.
          5    1    6    6  503    0 -0.97924572218E+03 -0.25500327993E+03 -0.39382717946E+02  0.10126805743E+04  0.47000000000E+01 0. -1.
         -5    1    6    6    0  503 -0.25183272076E+03 -0.53942612611E+02 -0.53780791998E+02  0.26314252466E+03  0.47000000000E+01 0.  1.
<mgrwt>
<rscale>  0 0.17193820E+04</rscale>
<asrwt>0</asrwt>
<pdfrwt beam="1">  1        1 0.23819840E+00 0.17193820E+04</pdfrwt>
<pdfrwt beam="2">  1       -1 0.37896439E+00 0.17193820E+04</pdfrwt>
<totfact> 0.55492605E-02</totfact>
</mgrwt>
</event>
<event>
12    1  0.3127365E-008  0.1376698E+04  0.7818608E-02  0.8970861E-01
          1   -1    0    0  501    0  0.00000000000E+00  0.00000000000E+00  0.21030694321E+04  0.21030694321E+04  0.00000000000E+00 0. -1.
         -1   -1    0    0    0  501 -0.00000000000E+00 -0.00000000000E+00 -0.98810943627E+03  0.98810943627E+03  0.00000000000E+00 0.  1.
         23    2    1    2    0    0  0.12134174207E+04 -0.62525803811E+03  0.33458462449E+03  0.14082262331E+04  0.88457908599E+02 0.  0.
    5000000    2    1    2    0    0 -0.12134174207E+04  0.62525803811E+03  0.78037537134E+03  0.16829526352E+04  0.60001200084E+03 0.  0.
         23    2    4    4    0    0 -0.74232553550E+03  0.26616546316E+03  0.73501145849E+03  0.10818852763E+04  0.91338121813E+02 0.  0.
         23    2    4    4    0    0 -0.47109188522E+03  0.35909257494E+03  0.45363912851E+02  0.60106735895E+03  0.91373101701E+02 0.  0.
          2    1    3    3  502    0  0.46429201522E+03 -0.28652677418E+03  0.14423597862E+03  0.56433029801E+03  0.00000000000E+00 0.  1.
         -2    1    3    3    0  502  0.74912540549E+03 -0.33873126393E+03  0.19034864587E+03  0.84389593511E+03  0.00000000000E+00 0. -1.
         11    1    5    5    0    0 -0.37243868651E+03  0.14888435002E+03  0.43254937278E+03  0.58989497776E+03  0.00000000000E+00 0.  1.
        -11    1    5    5    0    0 -0.36988684899E+03  0.11728111314E+03  0.30246208572E+03  0.49199029853E+03  0.00000000000E+00 0. -1.
          5    1    6    6  503    0 -0.26442765098E+03  0.15763895940E+03  0.52520415839E+02  0.31233396902E+03  0.47000000000E+01 0. -1.
         -5    1    6    6    0  503 -0.20666423423E+03  0.20145361554E+03 -0.71565029882E+01  0.28873338993E+03  0.47000000000E+01 0.  1.
<mgrwt>
<rscale>  0 0.13766979E+04</rscale>
<asrwt>0</asrwt>
<pdfrwt beam="1">  1        1 0.32354914E+00 0.13766979E+04</pdfrwt>
<pdfrwt beam="2">  1       -1 0.15201684E+00 0.13766979E+04</pdfrwt>
<totfact> 0.82134228E-01</totfact>
</mgrwt>
</event>
<event>
12    1  0.3127365E-008  0.6779281E+03  0.7818608E-02  0.9755741E-01
          1   -1    0    0  501    0  0.00000000000E+00  0.00000000000E+00  0.69332458341E+03  0.69332458341E+03  0.00000000000E+00 0. -1.
         -1   -1    0    0    0  501 -0.00000000000E+00 -0.00000000000E+00 -0.11981722291E+04  0.11981722291E+04  0.00000000000E+00 0.  1.
         23    2    1    2    0    0 -0.12219654717E+03  0.53786252397E+03  0.38956623936E+03  0.68132006032E+03  0.90592929742E+02 0.  0.
    5000000    2    1    2    0    0  0.12219654717E+03 -0.53786252397E+03 -0.89441388503E+03  0.12101767522E+04  0.60026950858E+03 0.  0.
         23    2    4    4    0    0 -0.97504930484E+02 -0.54682681154E+03 -0.51868206386E+03  0.76543688486E+03  0.91300427487E+02 0.  0.
         23    2    4    4    0    0  0.21970147766E+03  0.89642875689E+01 -0.37573182117E+03  0.44473986730E+03  0.90939817422E+02 0.  0.
          1    1    3    3  502    0 -0.38920827503E+01  0.14271267251E+03  0.67081142980E+02  0.15774008669E+03  0.00000000000E+00 0. -1.
         -1    1    3    3    0  502 -0.11830446442E+03  0.39514985145E+03  0.32248509638E+03  0.52357997364E+03  0.00000000000E+00 0.  1.
         11    1    5    5    0    0 -0.51657232195E+02 -0.91707191987E+02 -0.10563560596E+03  0.14912263392E+03  0.00000000000E+00 0.  1.
        -11    1    5    5    0    0 -0.45847698289E+02 -0.45511961955E+03 -0.41304645789E+03  0.61631425094E+03  0.00000000000E+00 0. -1.
          5    1    6    6  503    0  0.22062737366E+03 -0.74805296608E+01 -0.34735979303E+03  0.41159848414E+03  0.47000000000E+01 0. -1.
         -5    1    6    6    0  503 -0.92589600547E+00  0.16444817230E+02 -0.28372028135E+02  0.33141383158E+02  0.47000000000E+01 0.  1.
<mgrwt>
<rscale>  0 0.67792807E+03</rscale>
<asrwt>0</asrwt>
<pdfrwt beam="1">  1        1 0.10666532E+00 0.67792807E+03</pdfrwt>
<pdfrwt beam="2">  1       -1 0.18433419E+00 0.67792807E+03</pdfrwt>
<totfact> 0.56059709E+00</totfact>
</mgrwt>
</event>
<event>
12    1  0.3349139E-008  0.2082501E+04  0.7818608E-02  0.8568991E-01
          2   -1    0    0  501    0  0.00000000000E+00  0.00000000000E+00  0.17781955570E+04  0.17781955570E+04  0.00000000000E+00 0.  1.
         -2   -1    0    0    0  501 -0.00000000000E+00 -0.00000000000E+00 -0.24840165634E+04  0.24840165634E+04  0.00000000000E+00 0. -1.
         23    2    1    2    0    0 -0.20411453195E+04  0.53220370780E+02 -0.84164992514E+02  0.20451891409E+04  0.81291161547E+02 0.  0.
    5000000    2    1    2    0    0  0.20411453195E+04 -0.53220370780E+02 -0.62165601381E+03  0.22170229795E+04  0.59968997721E+03 0.  0.
         23    2    4    4    0    0  0.95352638345E+03  0.25566311890E+03 -0.34310890870E+03  0.10491787436E+04  0.92065837812E+02 0.  0.
         23    2    4    4    0    0  0.10876189361E+04 -0.30888348968E+03 -0.27854710512E+03  0.11678442359E+04  0.89149925494E+02 0.  0.
          1    1    3    3  502    0 -0.15284774944E+04  0.72478606617E+02 -0.49656532966E+02  0.15310004476E+04  0.00000000000E+00 0.  1.
         -1    1    3    3    0  502 -0.51266782508E+03 -0.19258235837E+02 -0.34508459547E+02  0.51418869328E+03  0.00000000000E+00 0. -1.
         11    1    5    5    0    0  0.62036113630E+03  0.12270061666E+03 -0.20468259859E+03  0.66467913080E+03  0.00000000000E+00 0.  1.
        -11    1    5    5    0    0  0.33316524715E+03  0.13296250224E+03 -0.13842631011E+03  0.38449961279E+03  0.00000000000E+00 0. -1.
          5    1    6    6  503    0  0.59576365559E+03 -0.16654619269E+03 -0.19768355747E+03  0.64944041029E+03  0.47000000000E+01 0. -1.
         -5    1    6    6    0  503  0.49185528047E+03 -0.14233729699E+03 -0.80863547645E+02  0.51840382558E+03  0.47000000000E+01 0.  1.
<mgrwt>
<rscale>  0 0.20825009E+04</rscale>
<asrwt>0</asrwt>
<pdfrwt beam="1">  1        2 0.27356855E+00 0.20825009E+04</pdfrwt>
<pdfrwt beam="2">  1       -2 0.38215640E+00 0.20825009E+04</pdfrwt>
<totfact> 0.75991180E-02</totfact>
</mgrwt>
</event>
<event>
12    1  0.3127365E-008  0.1722720E+04  0.7818608E-02  0.8748511E-01
          1   -1    0    0  501    0  0.00000000000E+00  0.00000000000E+00  0.76694092829E+03  0.76694092829E+03  0.00000000000E+00 0. -1.
         -1   -1    0    0    0  501 -0.00000000000E+00 -0.00000000000E+00 -0.38893560444E+04  0.38893560444E+04  0.00000000000E+00 0.  1.
         23    2    1    2    0    0 -0.11455466278E+04  0.12201081207E+04 -0.14824779107E+04  0.22375828262E+04  0.89973584182E+02 0.  0.
    5000000    2    1    2    0    0  0.11455466278E+04 -0.12201081207E+04 -0.16399372054E+04  0.24187141465E+04  0.59986930421E+03 0.  0.
         23    2    4    4    0    0  0.13253599385E+03  0.31411498738E+02 -0.11607276174E+03  0.20026725396E+03  0.89897803493E+02 0.  0.
         23    2    4    4    0    0  0.10130106339E+04 -0.12515196194E+04 -0.15238644437E+04  0.22184468925E+04  0.82776023048E+02 0.  0.
          2    1    3    3  502    0 -0.60807246548E+03  0.67292206764E+03 -0.85827667415E+03  0.12486853414E+04  0.00000000000E+00 0.  1.
         -2    1    3    3    0  502 -0.53747416229E+03  0.54718605305E+03 -0.62420123655E+03  0.98889748483E+03  0.00000000000E+00 0. -1.
         13    1    5    5    0    0  0.14398039856E+03  0.33858090127E+02 -0.11691201460E+03  0.18853420006E+03  0.00000000000E+00 0. -1.
        -13    1    5    5    0    0 -0.11444404704E+02 -0.24465913894E+01  0.83925286020E+00  0.11733053900E+02  0.00000000000E+00 0.  1.
          5    1    6    6  503    0  0.16980935226E+03 -0.16813192733E+03 -0.24333809229E+03  0.34108514811E+03  0.47000000000E+01 0. -1.
         -5    1    6    6    0  503  0.84320128166E+03 -0.10833876921E+04 -0.12805263514E+04  0.18773617444E+04  0.47000000000E+01 0.  1.
<mgrwt>
<rscale>  0 0.17227199E+04</rscale>
<asrwt>0</asrwt>
<pdfrwt beam="1">  1        1 0.11799091E+00 0.17227199E+04</pdfrwt>
<pdfrwt beam="2">  1       -1 0.59836246E+00 0.17227199E+04</pdfrwt>
<totfact> 0.95768132E-03</totfact>
</mgrwt>
</event>
<event>
12    1  0.3127365E-008  0.1000491E+04  0.7818608E-02  0.9308007E-01
         -2   -1    0    0    0  501 -0.00000000000E+00  0.00000000000E+00  0.14983323647E+04  0.14983323647E+04  0.00000000000E+00 0.  1.
          2   -1    0    0  501    0  0.00000000000E+00 -0.00000000000E+00 -0.71175293510E+03  0.71175293510E+03  0.00000000000E+00 0. -1.
         23    2    1    2    0    0 -0.13471189049E+03  0.92073569854E+03  0.52569605757E+03  0.10726075137E+04  0.90713910319E+02 0.  0.
    5000000    2    1    2    0    0  0.13471189049E+03 -0.92073569854E+03  0.26088337206E+03  0.11374777861E+04  0.59991171023E+03 0.  0.
         23    2    4    4    0    0  0.32546185645E+03 -0.45244235694E+03  0.77673880155E+01  0.56519161776E+03  0.93550660718E+02 0.  0.
         23    2    4    4    0    0 -0.19074996596E+03 -0.46829334160E+03  0.25311598404E+03  0.57228616835E+03  0.88088329544E+02 0.  0.
          3    1    3    3  502    0 -0.10724754732E+03  0.55590599978E+03  0.27753640181E+03  0.63052356921E+03  0.00000000000E+00 0. -1.
         -3    1    3    3    0  502 -0.27464343173E+02  0.36482969876E+03  0.24815965576E+03  0.44208394450E+03  0.00000000000E+00 0.  1.
         13    1    5    5    0    0  0.12039157406E+03 -0.19821910224E+03 -0.39208235711E+02  0.23520677997E+03  0.00000000000E+00 0. -1.
        -13    1    5    5    0    0  0.20507028239E+03 -0.25422325470E+03  0.46975623727E+02  0.32998483779E+03  0.00000000000E+00 0.  1.
          5    1    6    6  503    0 -0.14500100805E+03 -0.41707721559E+03  0.19727898347E+03  0.48365254410E+03  0.47000000000E+01 0. -1.
         -5    1    6    6    0  503 -0.45748957905E+02 -0.51216126012E+02  0.55837000577E+02  0.88633624243E+02  0.47000000000E+01 0.  1.
<mgrwt>
<rscale>  0 0.10004909E+04</rscale>
<asrwt>0</asrwt>
<pdfrwt beam="1">  1        2 0.10950045E+00 0.10004909E+04</pdfrwt>
<pdfrwt beam="2">  1       -2 0.23051267E+00 0.10004909E+04</pdfrwt>
<totfact> 0.33902435E+00</totfact>
</mgrwt>
</event>
<event>
12    1  0.3127365E-008  0.4474932E+03  0.7818608E-02  0.1028472E+00
         -2   -1    0    0    0  501 -0.00000000000E+00  0.00000000000E+00  0.31695084814E+03  0.31695084814E+03  0.00000000000E+00 0.  1.
          2   -1    0    0  501    0  0.00000000000E+00 -0.00000000000E+00 -0.12632867827E+04  0.12632867827E+04  0.00000000000E+00 0. -1.
         23    2    1    2    0    0 -0.31618820530E+03 -0.27768341860E+03 -0.67316408547E+02  0.43582893754E+03  0.91281442808E+02 0.  0.
    5000000    2    1    2    0    0  0.31618820530E+03  0.27768341860E+03 -0.87901952604E+03  0.11444086933E+04  0.59992738565E+03 0.  0.
         23    2    4    4    0    0  0.21582459958E+03  0.25244856425E+03 -0.10800411163E+03  0.36100041773E+03  0.91355777541E+02 0.  0.
         23    2    4    4    0    0  0.10036360572E+03  0.25234854349E+02 -0.77101541441E+03  0.78340827559E+03  0.92488408928E+02 0.  0.
          2    1    3    3  502    0 -0.26025004482E+03 -0.18388968595E+03 -0.71328460292E+02  0.32654747231E+03  0.00000000000E+00 0. -1.
         -2    1    3    3    0  502 -0.55938160483E+02 -0.93793732656E+02  0.40120517451E+01  0.10928146523E+03  0.00000000000E+00 0.  1.
         13    1    5    5    0    0  0.10781827380E+03  0.13059846810E+03 -0.72243060540E+01  0.16950790729E+03  0.00000000000E+00 0.  1.
        -13    1    5    5    0    0  0.10800632578E+03  0.12185009616E+03 -0.10077980558E+03  0.19149251044E+03  0.00000000000E+00 0. -1.
          5    1    6    6  503    0  0.16067704502E+02  0.45182136283E+02 -0.36947264512E+03  0.37260129100E+03  0.47000000000E+01 0. -1.
         -5    1    6    6    0  503  0.84295901216E+02 -0.19947281934E+02 -0.40154276929E+03  0.41080698459E+03  0.47000000000E+01 0.  1.
<mgrwt>
<rscale>  0 0.44749322E+03</rscale>
<asrwt>0</asrwt>
<pdfrwt beam="1">  1        2 0.19435181E+00 0.44749322E+03</pdfrwt>
<pdfrwt beam="2">  1       -2 0.48761669E-01 0.44749322E+03</pdfrwt>
<totfact> 0.72873303E+01</totfact>
</mgrwt>
</event>
<event>
12    1  0.3127365E-008  0.4492225E+03  0.7818608E-02  0.1027954E+00
         -2   -1    0    0    0  501 -0.00000000000E+00  0.00000000000E+00  0.13875924555E+03  0.13875924555E+03  0.00000000000E+00 0.  1.
          2   -1    0    0  501    0  0.00000000000E+00 -0.00000000000E+00 -0.22639243277E+04  0.22639243277E+04  0.00000000000E+00 0. -1.
         23    2    1    2    0    0  0.35443502559E+03 -0.13117260472E+02 -0.11281755551E+04  0.11861248414E+04  0.91191043260E+02 0.  0.
    5000000    2    1    2    0    0 -0.35443502559E+03  0.13117260472E+02 -0.99698952702E+03  0.12165587318E+04  0.60019228676E+03 0.  0.
         23    2    4    4    0    0 -0.53272620326E+02 -0.15230555482E+03 -0.32632005642E+02  0.18879638711E+03  0.92435241582E+02 0.  0.
         23    2    4    4    0    0 -0.30116240526E+03  0.16542281530E+03 -0.96435752138E+03  0.10277623447E+04  0.90810274747E+02 0.  0.
          2    1    3    3  502    0  0.34222509388E+03  0.72301836427E+01 -0.10637671887E+04  0.11174841933E+04  0.00000000000E+00 0. -1.
         -2    1    3    3    0  502  0.12209931710E+02 -0.20347444114E+02 -0.64408366444E+02  0.68640648179E+02  0.00000000000E+00 0.  1.
         11    1    5    5    0    0  0.15974994496E+02 -0.72973436401E+02 -0.37081844451E+02  0.83398957171E+02  0.00000000000E+00 0. -1.
        -11    1    5    5    0    0 -0.69247614822E+02 -0.79332118423E+02  0.44498388090E+01  0.10539742994E+03  0.00000000000E+00 0.  1.
          5    1    6    6  503    0 -0.14790581229E+03  0.37332851427E+02 -0.48467158288E+03  0.50813236893E+03  0.47000000000E+01 0. -1.
         -5    1    6    6    0  503 -0.15325659297E+03  0.12808996387E+03 -0.47968593850E+03  0.51962997578E+03  0.47000000000E+01 0.  1.
<mgrwt>
<rscale>  0 0.44922247E+03</rscale>
<asrwt>0</asrwt>
<pdfrwt beam="1">  1        2 0.34829605E+00 0.44922247E+03</pdfrwt>
<pdfrwt beam="2">  1       -2 0.21347576E-01 0.44922247E+03</pdfrwt>
<totfact> 0.97491320E+01</totfact>
</mgrwt>
</event>
<event>
12    1  0.3127365E-008  0.3914160E+03  0.7818608E-02  0.1046793E+00
         -2   -1    0    0    0  501 -0.00000000000E+00  0.00000000000E+00  0.46914648895E+03  0.46914648895E+03  0.00000000000E+00 0.  1.
          2   -1    0    0  501    0  0.00000000000E+00 -0.00000000000E+00 -0.71917620649E+03  0.71917620649E+03  0.00000000000E+00 0. -1.
         23    2    1    2    0    0 -0.29887240440E+03 -0.15279024591E+03  0.16638692127E+03  0.38458181656E+03  0.86884939434E+02 0.  0.
    5000000    2    1    2    0    0  0.29887240440E+03  0.15279024591E+03 -0.41641663882E+03  0.80374087887E+03  0.59993917186E+03 0.  0.
         23    2    4    4    0    0  0.13607265862E+03  0.22252910642E+03  0.67160005248E+02  0.28227389693E+03  0.84457770236E+02 0.  0.
         23    2    4    4    0    0  0.16279974578E+03 -0.69738860511E+02 -0.48357664407E+03  0.52146698195E+03  0.81940079831E+02 0.  0.
          4    1    3    3  502    0 -0.13425060117E+03 -0.46430947970E+02  0.11281432581E+03  0.18140046569E+03  0.00000000000E+00 0. -1.
         -4    1    3    3    0  502 -0.16462180324E+03 -0.10635929794E+03  0.53572595463E+02  0.20318135088E+03  0.00000000000E+00 0.  1.
         11    1    5    5    0    0  0.94798037624E+01  0.44152214448E+02 -0.16513583421E+02  0.48083085981E+02  0.00000000000E+00 0.  1.
        -11    1    5    5    0    0  0.12659285486E+03  0.17837689197E+03  0.83673588670E+02  0.23419081095E+03  0.00000000000E+00 0. -1.
          5    1    6    6  503    0  0.52130959108E+02 -0.40922629810E+02 -0.91847196572E+02  0.11335914628E+03  0.47000000000E+01 0. -1.
         -5    1    6    6    0  503  0.11066878668E+03 -0.28816230701E+02 -0.39172944749E+03  0.40810783566E+03  0.47000000000E+01 0.  1.
<mgrwt>
<rscale>  0 0.39141602E+03</rscale>
<asrwt>0</asrwt>
<pdfrwt beam="1">  1        2 0.11064249E+00 0.39141602E+03</pdfrwt>
<pdfrwt beam="2">  1       -2 0.72176383E-01 0.39141602E+03</pdfrwt>
<totfact> 0.72050243E+01</totfact>
</mgrwt>
</event>
<event>
12    1  0.3127365E-008  0.9820786E+03  0.7818608E-02  0.9328422E-01
          1   -1    0    0  501    0  0.00000000000E+00  0.00000000000E+00  0.11412229795E+04  0.11412229795E+04  0.00000000000E+00 0. -1.
         -1   -1    0    0    0  501 -0.00000000000E+00 -0.00000000000E+00 -0.90161247161E+03  0.90161247161E+03  0.00000000000E+00 0.  1.
         23    2    1    2    0    0  0.62298068233E+01 -0.91860792838E+03  0.16812336509E+02  0.92323216670E+03  0.90529787420E+02 0.  0.
    5000000    2    1    2    0    0 -0.62298068233E+01  0.91860792838E+03  0.22279817137E+03  0.11196032844E+04  0.59999429389E+03 0.  0.
         23    2    4    4    0    0 -0.24596092656E+03  0.44602140185E+03 -0.45923560068E+02  0.51962680443E+03  0.92038982021E+02 0.  0.
         23    2    4    4    0    0  0.23973111974E+03  0.47258652653E+03  0.26872173144E+03  0.59997647997E+03  0.83374892749E+02 0.  0.
          1    1    3    3  502    0  0.32474487365E+02 -0.67832636932E+03 -0.16081266358E+02  0.67929364988E+03  0.00000000000E+00 0. -1.
         -1    1    3    3    0  502 -0.26244680542E+02 -0.24028155906E+03  0.32893602867E+02  0.24393851682E+03  0.00000000000E+00 0.  1.
         11    1    5    5    0    0 -0.11260588311E+03  0.26975862211E+03 -0.59009567587E+02  0.29821456735E+03  0.00000000000E+00 0.  1.
        -11    1    5    5    0    0 -0.13335504345E+03  0.17626277973E+03  0.13086007519E+02  0.22141223708E+03  0.00000000000E+00 0. -1.
          5    1    6    6  503    0  0.12798912758E+03  0.25395662613E+03  0.19017215475E+03  0.34214430169E+03  0.47000000000E+01 0. -1.
         -5    1    6    6    0  503  0.11174199216E+03  0.21862990040E+03  0.78549576685E+02  0.25783217828E+03  0.47000000000E+01 0.  1.
<mgrwt>
<rscale>  0 0.98207857E+03</rscale>
<asrwt>0</asrwt>
<pdfrwt beam="1">  1        1 0.17557277E+00 0.98207857E+03</pdfrwt>
<pdfrwt beam="2">  1       -1 0.13870961E+00 0.98207857E+03</pdfrwt>
<totfact> 0.50969399E+00</totfact>
</mgrwt>
</event>
<event>
12    1  0.3127365E-008  0.5326706E+03  0.7818608E-02  0.1005587E+00
          2   -1    0    0  501    0  0.00000000000E+00  0.00000000000E+00  0.97943891533E+03  0.97943891533E+03  0.00000000000E+00 0. -1.
         -2   -1    0    0    0  501 -0.00000000000E+00 -0.00000000000E+00 -0.39364744582E+03  0.39364744582E+03  0.00000000000E+00 0.  1.
         23    2    1    2    0    0  0.17699422183E+03  0.40936084890E+03  0.39240337983E+03  0.60085908221E+03  0.90266078973E+02 0.  0.
    5000000    2    1    2    0    0 -0.17699422183E+03 -0.40936084890E+03  0.19338808968E+03  0.77222727894E+03  0.60002729766E+03 0.  0.
         23    2    4    4    0    0 -0.12557450771E+03  0.47732691322E+02  0.25329643255E+03  0.30044456948E+03  0.89780230448E+02 0.  0.
         23    2    4    4    0    0 -0.51419714120E+02 -0.45709354022E+03 -0.59908342872E+02  0.47178270946E+03  0.86089627071E+02 0.  0.
          2    1    3    3  502    0  0.27224493565E+02  0.58261083830E+02  0.19423132625E+02  0.67177265648E+02  0.00000000000E+00 0. -1.
         -2    1    3    3    0  502  0.14976972826E+03  0.35109976506E+03  0.37298024720E+03  0.53368181657E+03  0.00000000000E+00 0.  1.
         11    1    5    5    0    0 -0.91437879681E+02 -0.99611816761E+01  0.17222359988E+03  0.19524620185E+03  0.00000000000E+00 0. -1.
        -11    1    5    5    0    0 -0.34136628026E+02  0.57693872998E+02  0.81072832668E+02  0.10519836763E+03  0.00000000000E+00 0.  1.
          5    1    6    6  503    0 -0.36231652812E+02 -0.25695409306E+03 -0.75810714307E+02  0.27038397329E+03  0.47000000000E+01 0. -1.
         -5    1    6    6    0  503 -0.15188061309E+02 -0.20013944715E+03  0.15902371435E+02  0.20139873617E+03  0.47000000000E+01 0.  1.
<mgrwt>
<rscale>  0 0.53267059E+03</rscale>
<asrwt>0</asrwt>
<pdfrwt beam="1">  1        2 0.15068291E+00 0.53267059E+03</pdfrwt>
<pdfrwt beam="2">  1       -2 0.60561146E-01 0.53267059E+03</pdfrwt>
<totfact> 0.68311380E+01</totfact>
</mgrwt>
</event>
<event>
12    1  0.3127365E-008  0.7187135E+03  0.7818608E-02  0.9685754E-01
          1   -1    0    0  501    0  0.00000000000E+00  0.00000000000E+00  0.63313047395E+03  0.63313047395E+03  0.00000000000E+00 0. -1.
         -1   -1    0    0    0  501 -0.00000000000E+00 -0.00000000000E+00 -0.11710157649E+04  0.11710157649E+04  0.00000000000E+00 0.  1.
         23    2    1    2    0    0  0.17761574876E+03  0.58041774196E+03  0.23051382287E+03  0.65569142407E+03  0.91446769621E+02 0.  0.
    5000000    2    1    2    0    0 -0.17761574876E+03 -0.58041774196E+03 -0.76839911386E+03  0.11484548148E+04  0.60006595814E+03 0.  0.
         23    2    4    4    0    0  0.20134397540E+03 -0.25405072336E+03 -0.22715156860E+03  0.40645264087E+03  0.92329560187E+02 0.  0.
         23    2    4    4    0    0 -0.37895972416E+03 -0.32636701860E+03 -0.54124754526E+03  0.74200217395E+03  0.86558751875E+02 0.  0.
          4    1    3    3  502    0  0.43129039796E+02  0.22975376739E+03  0.12738157486E+03  0.26621978386E+03  0.00000000000E+00 0. -1.
         -4    1    3    3    0  502  0.13448670896E+03  0.35066397457E+03  0.10313224801E+03  0.38947164021E+03  0.00000000000E+00 0.  1.
         11    1    5    5    0    0  0.56098726277E+02 -0.45358043155E+02 -0.96798076388E+02  0.12072401071E+03  0.00000000000E+00 0. -1.
        -11    1    5    5    0    0  0.14524524913E+03 -0.20869268021E+03 -0.13035349221E+03  0.28572863017E+03  0.00000000000E+00 0.  1.
          5    1    6    6  503    0 -0.22877553470E+03 -0.17193594611E+03 -0.36363593432E+03  0.46276710943E+03  0.47000000000E+01 0. -1.
         -5    1    6    6    0  503 -0.15018418946E+03 -0.15443107249E+03 -0.17761161094E+03  0.27923506451E+03  0.47000000000E+01 0.  1.
<mgrwt>
<rscale>  0 0.71871348E+03</rscale>
<asrwt>0</asrwt>
<pdfrwt beam="1">  1        1 0.97404690E-01 0.71871348E+03</pdfrwt>
<pdfrwt beam="2">  1       -1 0.18015627E+00 0.71871348E+03</pdfrwt>
<totfact> 0.68224132E+00</totfact>
</mgrwt>
</event>
<event>
12    1  0.3127365E-008  0.9675232E+03  0.7818608E-02  0.9344900E-01
         -2   -1    0    0    0  501 -0.00000000000E+00  0.00000000000E+00  0.33144567320E+03  0.33144567320E+03  0.00000000000E+00 0.  1.
          2   -1    0    0  501    0  0.00000000000E+00 -0.00000000000E+00 -0.32153265714E+04  0.32153265714E+04  0.00000000000E+00 0. -1.
         23    2    1    2    0    0 -0.81167384335E+02 -0.89964419259E+03 -0.85918190387E+03  0.12499461692E+04  0.90686628109E+02 0.  0.
    5000000    2    1    2    0    0  0.81167384335E+02  0.89964419259E+03 -0.20246989943E+04  0.22968260753E+04  0.60004681921E+03 0.  0.
         23    2    4    4    0    0  0.28477570584E+03  0.60516451376E+03 -0.99241211798E+03  0.12003105241E+04  0.92424298793E+02 0.  0.
         23    2    4    4    0    0 -0.20360832151E+03  0.29447967883E+03 -0.10322868763E+04  0.10965155512E+04  0.92496103819E+02 0.  0.
          1    1    3    3  502    0 -0.29580782448E+02 -0.47315117009E+03 -0.51024793447E+03  0.69649121106E+03  0.00000000000E+00 0. -1.
         -1    1    3    3    0  502 -0.51586601887E+02 -0.42649302250E+03 -0.34893396940E+03  0.55345495818E+03  0.00000000000E+00 0.  1.
         13    1    5    5    0    0  0.75535584520E+02  0.18060493167E+03 -0.36738888627E+03  0.41629119571E+03  0.00000000000E+00 0.  1.
        -13    1    5    5    0    0  0.20924012132E+03  0.42455958208E+03 -0.62502323171E+03  0.78401932839E+03  0.00000000000E+00 0. -1.
          5    1    6    6  503    0 -0.18007347340E+03  0.22173371515E+03 -0.71155127596E+03  0.76675915682E+03  0.47000000000E+01 0. -1.
         -5    1    6    6    0  503 -0.23534848105E+02  0.72745963685E+02 -0.32073560038E+03  0.32975639442E+03  0.47000000000E+01 0.  1.
<mgrwt>
<rscale>  0 0.96752320E+03</rscale>
<asrwt>0</asrwt>
<pdfrwt beam="1">  1        2 0.49466561E+00 0.96752320E+03</pdfrwt>
<pdfrwt beam="2">  1       -2 0.50991644E-01 0.96752320E+03</pdfrwt>
<totfact> 0.47619763E+00</totfact>
</mgrwt>
</event>
<event>
12    1  0.3127365E-008  0.3531689E+03  0.7818608E-02  0.1061322E+00
          1   -1    0    0  501    0  0.00000000000E+00  0.00000000000E+00  0.22961316548E+04  0.22961316548E+04  0.00000000000E+00 0.  1.
         -1   -1    0    0    0  501 -0.00000000000E+00 -0.00000000000E+00 -0.86317049135E+02  0.86317049135E+02  0.00000000000E+00 0. -1.
         23    2    1    2    0    0  0.18117719076E+03  0.75029599924E+01  0.23978560947E+03  0.31510127205E+03  0.94393878409E+02 0.  0.
    5000000    2    1    2    0    0 -0.18117719076E+03 -0.75029599924E+01  0.19700289962E+04  0.20673474318E+04  0.60002474064E+03 0.  0.
         23    2    4    4    0    0  0.12399992523E+03  0.10383248248E+03  0.13409241875E+04  0.13536578197E+04  0.90303102877E+02 0.  0.
         23    2    4    4    0    0 -0.30517711599E+03 -0.11133544248E+03  0.62910480866E+03  0.71368961212E+03  0.89729311260E+02 0.  0.
          2    1    3    3  502    0  0.99213350833E+02 -0.43014703986E+02  0.12854906361E+03  0.16798337864E+03  0.00000000000E+00 0. -1.
         -2    1    3    3    0  502  0.81963839931E+02  0.50517663978E+02  0.11123654585E+03  0.14711789342E+03  0.00000000000E+00 0.  1.
         11    1    5    5    0    0  0.83333847196E+02  0.99954384381E+02  0.11968504662E+04  0.12039046671E+04  0.00000000000E+00 0. -1.
        -11    1    5    5    0    0  0.40666078030E+02  0.38780981035E+01  0.14407372130E+03  0.14975315261E+03  0.00000000000E+00 0.  1.
          5    1    6    6  503    0 -0.11936290620E+03 -0.76420038975E+02  0.33801398801E+03  0.36655568721E+03  0.47000000000E+01 0. -1.
         -5    1    6    6    0  503 -0.18581420979E+03 -0.34915403502E+02  0.29109082065E+03  0.34713392491E+03  0.47000000000E+01 0.  1.
<mgrwt>
<rscale>  0 0.35316887E+03</rscale>
<asrwt>0</asrwt>
<pdfrwt beam="1">  1        1 0.35325098E+00 0.35316887E+03</pdfrwt>
<pdfrwt beam="2">  1       -1 0.13279548E-01 0.35316887E+03</pdfrwt>
<totfact> 0.82887453E+01</totfact>
</mgrwt>
</event>
<event>
12    1  0.3127365E-008  0.4351600E+03  0.7818608E-02  0.1032242E+00
          3   -1    0    0  501    0  0.00000000000E+00  0.00000000000E+00  0.66009461589E+03  0.66009461589E+03  0.00000000000E+00 0. -1.
         -3   -1    0    0    0  501 -0.00000000000E+00 -0.00000000000E+00 -0.34643038721E+03  0.34643038721E+03  0.00000000000E+00 0.  1.
         23    2    1    2    0    0  0.25996732108E+03  0.93736602179E+02  0.14481889683E+03  0.32478707804E+03  0.90247296735E+02 0.  0.
    5000000    2    1    2    0    0 -0.25996732108E+03 -0.93736602179E+02  0.16884533184E+03  0.68173792506E+03  0.59990690424E+03 0.  0.
         23    2    4    4    0    0 -0.29312012767E+03  0.14305722713E+03 -0.53285745903E+02  0.34260207988E+03  0.90288620216E+02 0.  0.
         23    2    4    4    0    0  0.33152806592E+02 -0.23679382930E+03  0.22213107774E+03  0.33913584518E+03  0.92198045561E+02 0.  0.
          2    1    3    3  502    0  0.10953113884E+03  0.15081263668E+02  0.10032038682E+03  0.14929398816E+03  0.00000000000E+00 0. -1.
         -2    1    3    3    0  502  0.15043618224E+03  0.78655338510E+02  0.44498510007E+02  0.17549308988E+03  0.00000000000E+00 0.  1.
         13    1    5    5    0    0 -0.57116114701E+02  0.62197445730E+02 -0.38177853783E+02  0.92673196413E+02  0.00000000000E+00 0.  1.
        -13    1    5    5    0    0 -0.23600401297E+03  0.80859781396E+02 -0.15107892120E+02  0.24992888346E+03  0.00000000000E+00 0. -1.
          5    1    6    6  503    0 -0.28564068691E+02 -0.12489074604E+03  0.10482725325E+03  0.16560328345E+03  0.47000000000E+01 0. -1.
         -5    1    6    6    0  503  0.61716875283E+02 -0.11190308326E+03  0.11730382450E+03  0.17353256173E+03  0.47000000000E+01 0.  1.
<mgrwt>
<rscale>  0 0.43516005E+03</rscale>
<asrwt>0</asrwt>
<pdfrwt beam="1">  1        3 0.10155302E+00 0.43516005E+03</pdfrwt>
<pdfrwt beam="2">  1       -3 0.53296983E-01 0.43516005E+03</pdfrwt>
<totfact> 0.76543245E+00</totfact>
</mgrwt>
</event>
<event>
12    1  0.3127365E-008  0.5759427E+03  0.7818608E-02  0.9956614E-01
         -1   -1    0    0    0  501 -0.00000000000E+00  0.00000000000E+00  0.78272847492E+03  0.78272847492E+03  0.00000000000E+00 0.  1.
          1   -1    0    0  501    0  0.00000000000E+00 -0.00000000000E+00 -0.83503198370E+03  0.83503198370E+03  0.00000000000E+00 0. -1.
         23    2    1    2    0    0 -0.37417047703E+03 -0.38458260834E+03  0.41810601114E+03  0.68544827987E+03  0.84376414445E+02 0.  0.
    5000000    2    1    2    0    0  0.37417047703E+03  0.38458260834E+03 -0.47040951992E+03  0.93231217875E+03  0.60001129464E+03 0.  0.
         23    2    4    4    0    0  0.13817950013E+03  0.33118144919E+03  0.27814003965E+02  0.37190034918E+03  0.93603014679E+02 0.  0.
         23    2    4    4    0    0  0.23599097689E+03  0.53401159148E+02 -0.49822352388E+03  0.56041182957E+03  0.85389191314E+02 0.  0.
          3    1    3    3  502    0 -0.25862646009E+03 -0.28552987770E+03  0.34264131851E+03  0.51557543587E+03  0.00000000000E+00 0. -1.
         -3    1    3    3    0  502 -0.11554401694E+03 -0.99052730635E+02  0.75464692624E+02  0.16987284400E+03  0.00000000000E+00 0.  1.
         13    1    5    5    0    0  0.29274630460E+02  0.55437024899E+02 -0.30549170058E+02  0.69738938258E+02  0.00000000000E+00 0.  1.
        -13    1    5    5    0    0  0.10890486967E+03  0.27574442429E+03  0.58363174023E+02  0.30216141092E+03  0.00000000000E+00 0. -1.
          5    1    6    6  503    0  0.20742133043E+03  0.16145805302E+02 -0.38263351719E+03  0.43556261757E+03  0.47000000000E+01 0. -1.
         -5    1    6    6    0  503  0.28569646467E+02  0.37255353846E+02 -0.11559000669E+03  0.12484921200E+03  0.47000000000E+01 0.  1.
<mgrwt>
<rscale>  0 0.57594266E+03</rscale>
<asrwt>0</asrwt>
<pdfrwt beam="1">  1        1 0.12846646E+00 0.57594266E+03</pdfrwt>
<pdfrwt beam="2">  1       -1 0.12041976E+00 0.57594266E+03</pdfrwt>
<totfact> 0.13370941E+01</totfact>
</mgrwt>
</event>
<event>
12    1  0.3127365E-008  0.2079798E+04  0.7818608E-02  0.8570195E-01
          2   -1    0    0  501    0  0.00000000000E+00  0.00000000000E+00  0.20462113417E+04  0.20462113417E+04  0.00000000000E+00 0. -1.
         -2   -1    0    0    0  501 -0.00000000000E+00 -0.00000000000E+00 -0.21223080389E+04  0.21223080389E+04  0.00000000000E+00 0.  1.
         23    2    1    2    0    0 -0.20023061567E+04 -0.38280293542E+03  0.31409205236E+02  0.20407640621E+04  0.89237808262E+02 0.  0.
    5000000    2    1    2    0    0  0.20023061567E+04  0.38280293542E+03 -0.10750590248E+03  0.21277553185E+04  0.60001428623E+03 0.  0.
         23    2    4    4    0    0  0.84705460195E+03  0.45139380759E+03 -0.56411986859E+02  0.96581288232E+03  0.91402096057E+02 0.  0.
         23    2    4    4    0    0  0.11552515548E+04 -0.68590872179E+02 -0.51093915617E+02  0.11619424362E+04  0.90491846164E+02 0.  0.
          4    1    3    3  502    0 -0.15009105726E+04 -0.32591859361E+03  0.27645898009E+02  0.15361379405E+04  0.00000000000E+00 0. -1.
         -4    1    3    3    0  502 -0.50139558412E+03 -0.56884341806E+02  0.37633072272E+01  0.50462612160E+03  0.00000000000E+00 0.  1.
         11    1    5    5    0    0  0.64445625554E+03  0.37127923732E+03 -0.14159891899E+02  0.74389020689E+03  0.00000000000E+00 0. -1.
        -11    1    5    5    0    0  0.20259834641E+03  0.80114570270E+02 -0.42252094960E+02  0.22192267542E+03  0.00000000000E+00 0.  1.
          5    1    6    6  503    0  0.87520734571E+03 -0.44291320322E+02 -0.78225612120E+00  0.87634029974E+03  0.47000000000E+01 0. -1.
         -5    1    6    6    0  503  0.28004420907E+03 -0.24299551858E+02 -0.50311659496E+02  0.28560213643E+03  0.47000000000E+01 0.  1.
<mgrwt>
<rscale>  0 0.20797979E+04</rscale>
<asrwt>0</asrwt>
<pdfrwt beam="1">  1        2 0.31480175E+00 0.20797979E+04</pdfrwt>
<pdfrwt beam="2">  1       -2 0.32650893E+00 0.20797979E+04</pdfrwt>
<totfact> 0.12128664E-01</totfact>
</mgrwt>
</event>
<event>
12    1  0.3127365E-008  0.9842750E+03  0.7818608E-02  0.9325962E-01
         -1   -1    0    0    0  501 -0.00000000000E+00  0.00000000000E+00  0.12674569446E+04  0.12674569446E+04  0.00000000000E+00 0.  1.
          1   -1    0    0  501    0  0.00000000000E+00 -0.00000000000E+00 -0.90926687222E+03  0.90926687222E+03  0.00000000000E+00 0. -1.
         23    2    1    2    0    0 -0.33426640102E+03  0.91037000402E+03  0.35354936474E+03  0.10363063539E+04  0.91793979429E+02 0.  0.
    5000000    2    1    2    0    0  0.33426640102E+03 -0.91037000402E+03  0.46407076574E+01  0.11404174630E+04  0.60001906855E+03 0.  0.
         23    2    4    4    0    0 -0.23726113045E+02 -0.18283715430E+03 -0.21249605882E+03  0.29575898179E+03  0.91249366379E+02 0.  0.
         23    2    4    4    0    0  0.35799251407E+03 -0.72753284971E+03  0.21713676647E+03  0.84465848118E+03  0.94004717640E+02 0.  0.
          4    1    3    3  502    0 -0.12783919405E+03  0.33302807986E+03  0.17722366373E+03  0.39831995744E+03  0.00000000000E+00 0. -1.
         -4    1    3    3    0  502 -0.20642720697E+03  0.57734192416E+03  0.17632570101E+03  0.63798639642E+03  0.00000000000E+00 0.  1.
         13    1    5    5    0    0 -0.23306066866E+02 -0.14818185968E+03 -0.10576253671E+03  0.18353950654E+03  0.00000000000E+00 0. -1.
        -13    1    5    5    0    0 -0.42004617912E+00 -0.34655294628E+02 -0.10673352211E+03  0.11221947525E+03  0.00000000000E+00 0.  1.
          5    1    6    6  503    0  0.53686088650E+02 -0.17641821633E+03  0.23315412375E+02  0.18593354088E+03  0.47000000000E+01 0. -1.
         -5    1    6    6    0  503  0.30430642542E+03 -0.55111463338E+03  0.19382135410E+03  0.65872494030E+03  0.47000000000E+01 0.  1.
<mgrwt>
<rscale>  0 0.98427504E+03</rscale>
<asrwt>0</asrwt>
<pdfrwt beam="1">  1        1 0.13988721E+00 0.98427504E+03</pdfrwt>
<pdfrwt beam="2">  1       -1 0.19499338E+00 0.98427504E+03</pdfrwt>
<totfact> 0.29321609E+00</totfact>
</mgrwt>
</event>
<event>
12    1  0.3127365E-008  0.1030426E+04  0.7818608E-02  0.9275790E-01
         -1   -1    0    0    0  501 -0.00000000000E+00  0.00000000000E+00  0.11147964948E+04  0.11147964948E+04  0.00000000000E+00 0.  1.
          1   -1    0    0  501    0  0.00000000000E+00 -0.00000000000E+00 -0.10655642661E+04  0.10655642661E+04  0.00000000000E+00 0. -1.
         23    2    1    2    0    0 -0.91298821715E+03 -0.41736622607E+03 -0.27053968161E+02  0.10084547310E+04  0.92233268944E+02 0.  0.
    5000000    2    1    2    0    0  0.91298821715E+03  0.41736622607E+03  0.76286196841E+02  0.11719060300E+04  0.59983506728E+03 0.  0.
         23    2    4    4    0    0  0.41212761130E+03  0.35858929322E+03 -0.20125936644E+03  0.58924880821E+03  0.90958101310E+02 0.  0.
         23    2    4    4    0    0  0.50086060585E+03  0.58776932847E+02  0.27754556328E+03  0.58265722176E+03  0.90232056641E+02 0.  0.
          1    1    3    3  502    0 -0.13003769165E+03 -0.60786668095E+02 -0.36365243258E+02  0.14807853046E+03  0.00000000000E+00 0. -1.
         -1    1    3    3    0  502 -0.78295052550E+03 -0.35657955797E+03  0.93112750971E+01  0.86037620050E+03  0.00000000000E+00 0.  1.
         11    1    5    5    0    0  0.16675944727E+03  0.18556505358E+03 -0.12706251622E+03  0.27997854452E+03  0.00000000000E+00 0. -1.
        -11    1    5    5    0    0  0.24536816403E+03  0.17302423964E+03 -0.74196850219E+02  0.30927026370E+03  0.00000000000E+00 0.  1.
          5    1    6    6  503    0  0.40512783648E+03  0.26106545631E+02  0.25329933814E+03  0.47853188014E+03  0.47000000000E+01 0. -1.
         -5    1    6    6    0  503  0.95732769372E+02  0.32670387216E+02  0.24246225135E+02  0.10412534161E+03  0.47000000000E+01 0.  1.
<mgrwt>
<rscale>  0 0.10304259E+04</rscale>
<asrwt>0</asrwt>
<pdfrwt beam="1">  1        1 0.16393296E+00 0.10304259E+04</pdfrwt>
<pdfrwt beam="2">  1       -1 0.17150715E+00 0.10304259E+04</pdfrwt>
<totfact> 0.32283585E+00</totfact>
</mgrwt>
</event>
<event>
12    1  0.3127365E-008  0.6026351E+03  0.7818608E-02  0.9899954E-01
          1   -1    0    0  501    0  0.00000000000E+00  0.00000000000E+00  0.92029843987E+03  0.92029843987E+03  0.00000000000E+00 0. -1.
         -1   -1    0    0    0  501 -0.00000000000E+00 -0.00000000000E+00 -0.46150607594E+03  0.46150607594E+03  0.00000000000E+00 0.  1.
         23    2    1    2    0    0  0.20980502132E+03  0.43007104118E+03  0.36233491456E+03  0.60705099148E+03  0.90802359614E+02 0.  0.
    5000000    2    1    2    0    0 -0.20980502132E+03 -0.43007104118E+03  0.96457449364E+02  0.77475352433E+03  0.60163089722E+03 0.  0.
         23    2    4    4    0    0 -0.33740690080E+03 -0.44334673279E+03 -0.39767889365E+02  0.56622840232E+03  0.92915964106E+02 0.  0.
         23    2    4    4    0    0  0.12760187948E+03  0.13275691608E+02  0.13622533873E+03  0.20852512201E+03  0.92015759323E+02 0.  0.
          4    1    3    3  502    0  0.52056410691E+02  0.17689631142E+03  0.99775039617E+02  0.20965980401E+03  0.00000000000E+00 0. -1.
         -4    1    3    3    0  502  0.15774861063E+03  0.25317472976E+03  0.26255987495E+03  0.39739118747E+03  0.00000000000E+00 0.  1.
         11    1    5    5    0    0 -0.14906794436E+03 -0.12368882687E+03 -0.82644546859E+01  0.19387748487E+03  0.00000000000E+00 0. -1.
        -11    1    5    5    0    0 -0.18833895644E+03 -0.31965790591E+03 -0.31503434680E+02  0.37235091745E+03  0.00000000000E+00 0.  1.
          5    1    6    6  503    0  0.52602830094E+02  0.51310998077E+02  0.61886918355E+02  0.96187093318E+02  0.47000000000E+01 0. -1.
         -5    1    6    6    0  503  0.74999049382E+02 -0.38035306469E+02  0.74338420375E+02  0.11233802869E+03  0.47000000000E+01 0.  1.
<mgrwt>
<rscale>  0 0.60263510E+03</rscale>
<asrwt>0</asrwt>
<pdfrwt beam="1">  1        1 0.14158438E+00 0.60263510E+03</pdfrwt>
<pdfrwt beam="2">  1       -1 0.71000935E-01 0.60263510E+03</pdfrwt>
<totfact> 0.36608960E+01</totfact>
</mgrwt>
</event>
<event>
12    1  0.3127365E-008  0.1162930E+04  0.7818608E-02  0.9145937E-01
         -1   -1    0    0    0  501 -0.00000000000E+00  0.00000000000E+00  0.19032239629E+04  0.19032239629E+04  0.00000000000E+00 0.  1.
          1   -1    0    0  501    0  0.00000000000E+00 -0.00000000000E+00 -0.73282068160E+03  0.73282068160E+03  0.00000000000E+00 0. -1.
         23    2    1    2    0    0  0.99981784537E+02  0.10944604654E+04  0.44693912349E+03  0.11899532226E+04  0.91618907109E+02 0.  0.
    5000000    2    1    2    0    0 -0.99981784537E+02 -0.10944604654E+04  0.72346415785E+03  0.14460914220E+04  0.59994995239E+03 0.  0.
         23    2    4    4    0    0 -0.28985379507E+03 -0.89443801318E+03  0.65106874167E+03  0.11471713583E+04  0.89872336557E+02 0.  0.
         23    2    4    4    0    0  0.18987201053E+03 -0.20002245226E+03  0.72395416179E+02  0.29892006372E+03  0.89731524122E+02 0.  0.
          4    1    3    3  502    0  0.58250822047E+02  0.63737445225E+03  0.21127035065E+03  0.67399889593E+03  0.00000000000E+00 0. -1.
         -4    1    3    3    0  502  0.41730962490E+02  0.45708601319E+03  0.23566877283E+03  0.51595432663E+03  0.00000000000E+00 0.  1.
         13    1    5    5    0    0 -0.63119133947E+02 -0.10704114416E+03  0.69605120054E+02  0.14243140226E+03  0.00000000000E+00 0. -1.
        -13    1    5    5    0    0 -0.22673466112E+03 -0.78739686902E+03  0.58146362162E+03  0.10047399560E+04  0.00000000000E+00 0.  1.
          5    1    6    6  503    0  0.10378604467E+03 -0.15311980707E+03  0.16010681846E+02  0.18573004689E+03  0.47000000000E+01 0. -1.
         -5    1    6    6    0  503  0.86085965864E+02 -0.46902645186E+02  0.56384734333E+02  0.11319001683E+03  0.47000000000E+01 0.  1.
<mgrwt>
<rscale>  0 0.11629298E+04</rscale>
<asrwt>0</asrwt>
<pdfrwt beam="1">  1        1 0.11274164E+00 0.11629298E+04</pdfrwt>
<pdfrwt beam="2">  1       -1 0.29280368E+00 0.11629298E+04</pdfrwt>
<totfact> 0.92575084E-01</totfact>
</mgrwt>
</event>
<event>
12    1  0.3127365E-008  0.7896562E+03  0.7818608E-02  0.9575111E-01
         -1   -1    0    0    0  501 -0.00000000000E+00  0.00000000000E+00  0.78671280962E+03  0.78671280962E+03  0.00000000000E+00 0.  1.
          1   -1    0    0  501    0  0.00000000000E+00 -0.00000000000E+00 -0.10967180210E+04  0.10967180210E+04  0.00000000000E+00 0. -1.
         23    2    1    2    0    0 -0.44044397711E+03  0.57649133221E+03 -0.54578498001E+03  0.91299463309E+03  0.96668518966E+02 0.  0.
    5000000    2    1    2    0    0  0.44044397711E+03 -0.57649133221E+03  0.23577976865E+03  0.97043619751E+03  0.59985094904E+03 0.  0.
         23    2    4    4    0    0  0.24089166280E+03 -0.61239831203E+01 -0.96318661235E+02  0.27531775192E+03  0.91958053709E+02 0.  0.
         23    2    4    4    0    0  0.19955231431E+03 -0.57036734909E+03  0.33209842988E+03  0.69511844560E+03  0.88092265443E+02 0.  0.
          4    1    3    3  502    0 -0.11217994429E+03  0.21946290490E+03 -0.19874551062E+03  0.31661977910E+03  0.00000000000E+00 0. -1.
         -4    1    3    3    0  502 -0.32826403282E+03  0.35702842731E+03 -0.34703946939E+03  0.59637485398E+03  0.00000000000E+00 0.  1.
         13    1    5    5    0    0  0.11926050373E+03 -0.16340204004E+02 -0.94843578437E+02  0.15324938626E+03  0.00000000000E+00 0.  1.
        -13    1    5    5    0    0  0.12163115907E+03  0.10216220883E+02 -0.14750827972E+01  0.12206836566E+03  0.00000000000E+00 0. -1.
          5    1    6    6  503    0  0.16449435348E+03 -0.42376196607E+03  0.20849014259E+03  0.50012281069E+03  0.47000000000E+01 0. -1.
         -5    1    6    6    0  503  0.35057960831E+02 -0.14660538301E+03  0.12360828729E+03  0.19499563491E+03  0.47000000000E+01 0.  1.
<mgrwt>
<rscale>  0 0.78965624E+03</rscale>
<asrwt>0</asrwt>
<pdfrwt beam="1">  1        1 0.16872585E+00 0.78965624E+03</pdfrwt>
<pdfrwt beam="2">  1       -1 0.12103274E+00 0.78965624E+03</pdfrwt>
<totfact> 0.79525994E+00</totfact>
</mgrwt>
</event>
<event>
12    1  0.3190904E-008  0.1851501E+04  0.7818608E-02  0.8679381E-01
         -2   -1    0    0    0  501 -0.00000000000E+00  0.00000000000E+00  0.13678285758E+04  0.13678285758E+04  0.00000000000E+00 0.  1.
          2   -1    0    0  501    0  0.00000000000E+00 -0.00000000000E+00 -0.26949278730E+04  0.26949278730E+04  0.00000000000E+00 0. -1.
         23    2    1    2    0    0 -0.18215527630E+04  0.17054374899E+03 -0.10661568695E+04  0.21197971118E+04  0.98537740011E+02 0.  0.
    5000000    2    1    2    0    0  0.18215527630E+04 -0.17054374899E+03 -0.26094242760E+03  0.19429593370E+04  0.59988365206E+03 0.  0.
         23    2    4    4    0    0  0.12099531677E+04  0.61453641312E+02  0.43769215861E+02  0.12156955062E+04  0.90755724660E+02 0.  0.
         23    2    4    4    0    0  0.61159959531E+03 -0.23199739031E+03 -0.30471164346E+03  0.72726383078E+03  0.90480052011E+02 0.  0.
          3    1    3    3  502    0 -0.66242207179E+03  0.23315176706E+02 -0.41787730481E+03  0.78356112751E+03  0.00000000000E+00 0. -1.
         -3    1    3    3    0  502 -0.11591306912E+04  0.14722857229E+03 -0.64827956472E+03  0.13362359843E+04  0.00000000000E+00 0.  1.
         13    1    5    5    0    0  0.55015445993E+03  0.27517330828E+02 -0.25307636297E+02  0.55142325825E+03  0.00000000000E+00 0.  1.
        -13    1    5    5    0    0  0.65979870774E+03  0.33936310484E+02  0.69076852158E+02  0.66427224796E+03  0.00000000000E+00 0. -1.
          5    1    6    6  503    0  0.29369206381E+03 -0.15897945783E+03 -0.16159677243E+03  0.37103248270E+03  0.47000000000E+01 0. -1.
         -5    1    6    6    0  503  0.31790753150E+03 -0.73017932471E+02 -0.14311487103E+03  0.35623134809E+03  0.47000000000E+01 0.  1.
<mgrwt>
<rscale>  0 0.18515007E+04</rscale>
<asrwt>0</asrwt>
<pdfrwt beam="1">  1        2 0.41460428E+00 0.18515007E+04</pdfrwt>
<pdfrwt beam="2">  1       -2 0.21043517E+00 0.18515007E+04</pdfrwt>
<totfact> 0.27547696E-01</totfact>
</mgrwt>
</event>
<event>
12    1  0.3127365E-008  0.7176584E+03  0.7818608E-02  0.9687502E-01
          1   -1    0    0  501    0  0.00000000000E+00  0.00000000000E+00  0.10914576374E+04  0.10914576374E+04  0.00000000000E+00 0. -1.
         -1   -1    0    0    0  501 -0.00000000000E+00 -0.00000000000E+00 -0.59460571936E+03  0.59460571936E+03  0.00000000000E+00 0.  1.
         23    2    1    2    0    0  0.20124109662E+03  0.62637734792E+03  0.43330772051E+03  0.79337318638E+03  0.94015271419E+02 0.  0.
    5000000    2    1    2    0    0 -0.20124109662E+03 -0.62637734792E+03  0.63544197497E+02  0.89269017036E+03  0.60000942848E+03 0.  0.
         23    2    4    4    0    0  0.70081341933E+02 -0.41506526300E+03 -0.17372717341E+03  0.46450067024E+03  0.91592438727E+02 0.  0.
         23    2    4    4    0    0 -0.27132243855E+03 -0.21131208492E+03  0.23727137091E+03  0.42818950012E+03  0.93701022768E+02 0.  0.
          2    1    3    3  502    0  0.14140472599E+02  0.17432770380E+03  0.12717031122E+03  0.21624613137E+03  0.00000000000E+00 0. -1.
         -2    1    3    3    0  502  0.18710062402E+03  0.45204964412E+03  0.30613740930E+03  0.57712705501E+03  0.00000000000E+00 0.  1.
         11    1    5    5    0    0  0.35310587965E+02 -0.27443492099E+03 -0.15839490190E+03  0.31882645503E+03  0.00000000000E+00 0. -1.
        -11    1    5    5    0    0  0.34770753968E+02 -0.14063034202E+03 -0.15332271513E+02  0.14567421521E+03  0.00000000000E+00 0.  1.
          5    1    6    6  503    0 -0.15314860261E+03 -0.15732386079E+03  0.18824121843E+03  0.28924408027E+03  0.47000000000E+01 0. -1.
         -5    1    6    6    0  503 -0.11817383594E+03 -0.53988224127E+02  0.49030152476E+02  0.13894541985E+03  0.47000000000E+01 0.  1.
<mgrwt>
<rscale>  0 0.71765844E+03</rscale>
<asrwt>0</asrwt>
<pdfrwt beam="1">  1        1 0.16791656E+00 0.71765844E+03</pdfrwt>
<pdfrwt beam="2">  1       -1 0.91477803E-01 0.71765844E+03</pdfrwt>
<totfact> 0.15528622E+01</totfact>
</mgrwt>
</event>
<event>
12    1  0.3127365E-008  0.6409222E+03  0.7818608E-02  0.9823964E-01
         -2   -1    0    0    0  501 -0.00000000000E+00  0.00000000000E+00  0.22208691792E+03  0.22208691792E+03  0.00000000000E+00 0.  1.
          2   -1    0    0  501    0  0.00000000000E+00 -0.00000000000E+00 -0.27754684430E+04  0.27754684430E+04  0.00000000000E+00 0. -1.
         23    2    1    2    0    0  0.14238816766E+03 -0.61696096317E+03 -0.14901543006E+04  0.16221435437E+04  0.99371104074E+02 0.  0.
    5000000    2    1    2    0    0 -0.14238816766E+03  0.61696096317E+03 -0.10632272245E+04  0.13754118173E+04  0.60032517505E+03 0.  0.
         23    2    4    4    0    0 -0.46089083174E+02  0.34294681722E+03 -0.10971286119E+03  0.37449887000E+03  0.92063938061E+02 0.  0.
         23    2    4    4    0    0 -0.96299084484E+02  0.27401414595E+03 -0.95351436333E+03  0.10009129473E+04  0.90993522405E+02 0.  0.
          4    1    3    3  502    0  0.16145901416E+02 -0.21544946761E+03 -0.42286750022E+03  0.47486428163E+03  0.00000000000E+00 0. -1.
         -4    1    3    3    0  502  0.12624226624E+03 -0.40151149556E+03 -0.10672868004E+04  0.11472792621E+04  0.00000000000E+00 0.  1.
         13    1    5    5    0    0 -0.31915896099E+02  0.48085831836E+02  0.46915959527E+01  0.57904082065E+02  0.00000000000E+00 0. -1.
        -13    1    5    5    0    0 -0.14173187075E+02  0.29486098538E+03 -0.11440445714E+03  0.31659478793E+03  0.00000000000E+00 0.  1.
          5    1    6    6  503    0 -0.65984716781E+02  0.14504315327E+03 -0.37638214104E+03  0.40875066392E+03  0.47000000000E+01 0. -1.
         -5    1    6    6    0  503 -0.30314367702E+02  0.12897099268E+03 -0.57713222229E+03  0.59216228337E+03  0.47000000000E+01 0.  1.
<mgrwt>
<rscale>  0 0.64092224E+03</rscale>
<asrwt>0</asrwt>
<pdfrwt beam="1">  1        2 0.42699512E+00 0.64092224E+03</pdfrwt>
<pdfrwt beam="2">  1       -2 0.34167221E-01 0.64092224E+03</pdfrwt>
<totfact> 0.20591179E+01</totfact>
</mgrwt>
</event>
<event>
12    1  0.3127365E-008  0.9184005E+03  0.7818608E-02  0.9402868E-01
          1   -1    0    0  501    0  0.00000000000E+00  0.00000000000E+00  0.48015480456E+03  0.48015480456E+03  0.00000000000E+00 0. -1.
         -1   -1    0    0    0  501 -0.00000000000E+00 -0.00000000000E+00 -0.19201007614E+04  0.19201007614E+04  0.00000000000E+00 0.  1.
         23    2    1    2    0    0  0.21160633777E+03  0.83748781865E+03 -0.65677196514E+03  0.10889352616E+04  0.90925800626E+02 0.  0.
    5000000    2    1    2    0    0 -0.21160633777E+03 -0.83748781865E+03 -0.78317399166E+03  0.13113203043E+04  0.60003029147E+03 0.  0.
         23    2    4    4    0    0  0.12864499904E+03 -0.36070264540E+03 -0.98545767922E+02  0.40568441696E+03  0.90623637168E+02 0.  0.
         23    2    4    4    0    0 -0.34025133681E+03 -0.47678517325E+03 -0.68462822374E+03  0.90563588734E+03  0.91463009280E+02 0.  0.
          3    1    3    3  502    0  0.18765343790E+03  0.61817756799E+03 -0.45721323006E+03  0.79145515101E+03  0.00000000000E+00 0. -1.
         -3    1    3    3    0  502  0.23952899873E+02  0.21931025065E+03 -0.19955873508E+03  0.29748011060E+03  0.00000000000E+00 0.  1.
         11    1    5    5    0    0  0.43289895059E+02 -0.10483686939E+03  0.12260941903E+02  0.11408380645E+03  0.00000000000E+00 0. -1.
        -11    1    5    5    0    0  0.85355103976E+02 -0.25586577602E+03 -0.11080670982E+03  0.29160061052E+03  0.00000000000E+00 0.  1.
          5    1    6    6  503    0 -0.23795734807E+03 -0.36141838877E+03 -0.44557726664E+03  0.62113456013E+03  0.47000000000E+01 0. -1.
         -5    1    6    6    0  503 -0.10229398873E+03 -0.11536678447E+03 -0.23905095710E+03  0.28450132721E+03  0.47000000000E+01 0.  1.
<mgrwt>
<rscale>  0 0.91840050E+03</rscale>
<asrwt>0</asrwt>
<pdfrwt beam="1">  1        1 0.73869969E-01 0.91840050E+03</pdfrwt>
<pdfrwt beam="2">  1       -1 0.29540012E+00 0.91840050E+03</pdfrwt>
<totfact> 0.16990505E+00</totfact>
</mgrwt>
</event>
<event>
12    1  0.3127365E-008  0.4295805E+03  0.7818608E-02  0.1033993E+00
         -2   -1    0    0    0  501 -0.00000000000E+00  0.00000000000E+00  0.87440113106E+02  0.87440113106E+02  0.00000000000E+00 0.  1.
          2   -1    0    0  501    0  0.00000000000E+00 -0.00000000000E+00 -0.26113148583E+04  0.26113148583E+04  0.00000000000E+00 0. -1.
         23    2    1    2    0    0  0.55624643575E+01 -0.25398557850E+03 -0.10911186991E+04  0.11247254830E+04  0.99638253490E+02 0.  0.
    5000000    2    1    2    0    0 -0.55624643575E+01  0.25398557850E+03 -0.14327560461E+04  0.15740294884E+04  0.60019940649E+03 0.  0.
         23    2    4    4    0    0 -0.32805144845E+02  0.40947417491E+03 -0.67407415820E+03  0.79446885554E+03  0.89774797244E+02 0.  0.
         23    2    4    4    0    0  0.27242680488E+02 -0.15548859641E+03 -0.75868188789E+03  0.77956063283E+03  0.84839295114E+02 0.  0.
          3    1    3    3  502    0  0.35473120760E+02 -0.21048232694E+03 -0.95861648096E+03  0.98209302503E+03  0.00000000000E+00 0. -1.
         -3    1    3    3    0  502 -0.29910656402E+02 -0.43503251559E+02 -0.13250221815E+03  0.14263245801E+03  0.00000000000E+00 0.  1.
         13    1    5    5    0    0  0.17563383077E+02  0.27484077466E+03 -0.47225117024E+03  0.54668738017E+03  0.00000000000E+00 0. -1.
        -13    1    5    5    0    0 -0.50368527922E+02  0.13463340025E+03 -0.20182298796E+03  0.24778147538E+03  0.00000000000E+00 0.  1.
          5    1    6    6  503    0  0.44689165997E+02 -0.14716942331E+03 -0.59102829453E+03  0.61073111568E+03  0.47000000000E+01 0. -1.
         -5    1    6    6    0  503 -0.17446485509E+02 -0.83191730950E+01 -0.16765359336E+03  0.16882951716E+03  0.47000000000E+01 0.  1.
<mgrwt>
<rscale>  0 0.42958046E+03</rscale>
<asrwt>0</asrwt>
<pdfrwt beam="1">  1        2 0.40174071E+00 0.42958046E+03</pdfrwt>
<pdfrwt beam="2">  1       -2 0.13452326E-01 0.42958046E+03</pdfrwt>
<totfact> 0.13775216E+02</totfact>
</mgrwt>
</event>
<event>
12    1  0.3127365E-008  0.3121831E+03  0.7818608E-02  0.1079304E+00
          2   -1    0    0  501    0  0.00000000000E+00  0.00000000000E+00  0.32942083789E+04  0.32942083789E+04  0.00000000000E+00 0. -1.
         -2   -1    0    0    0  501 -0.00000000000E+00 -0.00000000000E+00 -0.36187467767E+02  0.36187467767E+02  0.00000000000E+00 0.  1.
         23    2    1    2    0    0  0.16466063100E+01 -0.30897803269E+01  0.42675100265E+03  0.43622998991E+03  0.90376588675E+02 0.  0.
    5000000    2    1    2    0    0 -0.16466063100E+01  0.30897803269E+01  0.28312699085E+04  0.28941658568E+04  0.60007870624E+03 0.  0.
         23    2    4    4    0    0 -0.22339334096E+03  0.14801583409E+03  0.19066354804E+04  0.19280798348E+04  0.10207704108E+03 0.  0.
         23    2    4    4    0    0  0.22174673465E+03 -0.14492605376E+03  0.92463442811E+03  0.96608602198E+03  0.90543916618E+02 0.  0.
          2    1    3    3  502    0  0.18534611271E+02  0.24777599613E+02  0.55429039669E+02  0.63481018393E+02  0.00000000000E+00 0.  1.
         -2    1    3    3    0  502 -0.16888004961E+02 -0.27867379939E+02  0.37132196298E+03  0.37274897151E+03  0.00000000000E+00 0. -1.
         13    1    5    5    0    0 -0.17639931345E+03  0.15461939895E+03  0.14328820217E+04  0.14519554967E+04  0.00000000000E+00 0. -1.
        -13    1    5    5    0    0 -0.46994027515E+02 -0.66035648660E+01  0.47375345868E+03  0.47612433807E+03  0.00000000000E+00 0.  1.
          5    1    6    6  503    0  0.19100286811E+03 -0.80610114399E+02  0.64777583912E+03  0.68015859468E+03  0.47000000000E+01 0. -1.
         -5    1    6    6    0  503  0.30743866538E+02 -0.64315939361E+02  0.27685858899E+03  0.28592742730E+03  0.47000000000E+01 0.  1.
<mgrwt>
<rscale>  0 0.31218307E+03</rscale>
<asrwt>0</asrwt>
<pdfrwt beam="1">  1        2 0.50680105E+00 0.31218307E+03</pdfrwt>
<pdfrwt beam="2">  1       -2 0.55673053E-02 0.31218307E+03</pdfrwt>
<totfact> 0.22609992E+02</totfact>
</mgrwt>
</event>
<event>
12    1  0.3127365E-008  0.4653154E+03  0.7818608E-02  0.1023251E+00
         -2   -1    0    0    0  501 -0.00000000000E+00  0.00000000000E+00  0.24866652546E+03  0.24866652546E+03  0.00000000000E+00 0.  1.
          2   -1    0    0  501    0  0.00000000000E+00 -0.00000000000E+00 -0.22210113871E+04  0.22210113871E+04  0.00000000000E+00 0. -1.
         23    2    1    2    0    0  0.38242568358E+03 -0.52063133987E+02 -0.16318442736E+04  0.16792409967E+04  0.89300718119E+02 0.  0.
    5000000    2    1    2    0    0 -0.38242568358E+03  0.52063133987E+02 -0.34050058805E+03  0.79043691590E+03  0.59990823813E+03 0.  0.
         23    2    4    4    0    0 -0.23174955104E+03  0.19264028746E+03 -0.44263319650E+03  0.54312344299E+03  0.90778813138E+02 0.  0.
         23    2    4    4    0    0 -0.15067613253E+03 -0.14057715347E+03  0.10213260845E+03  0.24731347291E+03  0.90926625271E+02 0.  0.
          1    1    3    3  502    0  0.27264467389E+03 -0.75767906472E+02 -0.11167150948E+04  0.11520106322E+04  0.00000000000E+00 0. -1.
         -1    1    3    3    0  502  0.10978100968E+03  0.23704772485E+02 -0.51512917882E+03  0.52723036445E+03  0.00000000000E+00 0.  1.
         11    1    5    5    0    0 -0.19500496211E+03  0.11003032775E+03 -0.32772537421E+03  0.39690997615E+03  0.00000000000E+00 0.  1.
        -11    1    5    5    0    0 -0.36744588937E+02  0.82609959703E+02 -0.11490782230E+03  0.14621346683E+03  0.00000000000E+00 0. -1.
          5    1    6    6  503    0 -0.42769445074E+01 -0.46517010796E+02  0.42440412902E+02  0.63288254795E+02  0.47000000000E+01 0.  1.
         -5    1    6    6    0  503 -0.14639918803E+03 -0.94060142674E+02  0.59692195546E+02  0.18402521812E+03  0.47000000000E+01 0. -1.
<mgrwt>
<rscale>  0 0.46531538E+03</rscale>
<asrwt>0</asrwt>
<pdfrwt beam="1">  1        2 0.34169406E+00 0.46531538E+03</pdfrwt>
<pdfrwt beam="2">  1       -2 0.38256388E-01 0.46531538E+03</pdfrwt>
<totfact> 0.35276090E+01</totfact>
</mgrwt>
</event>
<event>
12    1  0.3127365E-008  0.4785659E+03  0.7818608E-02  0.1019530E+00
          1   -1    0    0  501    0  0.00000000000E+00  0.00000000000E+00  0.50241726051E+03  0.50241726051E+03  0.00000000000E+00 0. -1.
         -1   -1    0    0    0  501 -0.00000000000E+00 -0.00000000000E+00 -0.53226032911E+03  0.53226032911E+03  0.00000000000E+00 0.  1.
         23    2    1    2    0    0  0.32695122491E+03  0.71547067326E+02 -0.13121349596E+02  0.34729371327E+03  0.91785985563E+02 0.  0.
    5000000    2    1    2    0    0 -0.32695122491E+03 -0.71547067326E+02 -0.16721719012E+02  0.68738387635E+03  0.60016738604E+03 0.  0.
         23    2    4    4    0    0  0.52837767728E+02 -0.18322389472E+03 -0.14832003653E+03  0.25971236828E+03  0.95335490269E+02 0.  0.
         23    2    4    4    0    0 -0.37978899264E+03  0.11167682740E+03  0.13159831752E+03  0.42767150808E+03  0.94198773557E+02 0.  0.
          2    1    3    3  502    0  0.22064926292E+03  0.86477432956E+02  0.11097954262E+02  0.23725009637E+03  0.00000000000E+00 0.  1.
         -2    1    3    3    0  502  0.10630196199E+03 -0.14930365630E+02 -0.24219303857E+02  0.11004361689E+03  0.00000000000E+00 0. -1.
         11    1    5    5    0    0 -0.24597197550E+02 -0.24691130887E+02 -0.38312122551E+02  0.51792787202E+02  0.00000000000E+00 0.  1.
        -11    1    5    5    0    0  0.77434965278E+02 -0.15853276383E+03 -0.11000791398E+03  0.20791958108E+03  0.00000000000E+00 0. -1.
          5    1    6    6  503    0 -0.33024645979E+03  0.72422435283E+02  0.13527191322E+03  0.36418170444E+03  0.47000000000E+01 0. -1.
         -5    1    6    6    0  503 -0.49542532845E+02  0.39254392112E+02 -0.36735957062E+01  0.63489803640E+02  0.47000000000E+01 0.  1.
<mgrwt>
<rscale>  0 0.47856593E+03</rscale>
<asrwt>0</asrwt>
<pdfrwt beam="1">  1        1 0.77294962E-01 0.47856593E+03</pdfrwt>
<pdfrwt beam="2">  1       -1 0.81886205E-01 0.47856593E+03</pdfrwt>
<totfact> 0.68384151E+01</totfact>
</mgrwt>
</event>
<event>
12    1  0.3127365E-008  0.7681632E+03  0.7818608E-02  0.9607278E-01
         -1   -1    0    0    0  501 -0.00000000000E+00  0.00000000000E+00  0.26063303275E+03  0.26063303275E+03  0.00000000000E+00 0.  1.
          1   -1    0    0  501    0  0.00000000000E+00 -0.00000000000E+00 -0.37390634965E+04  0.37390634965E+04  0.00000000000E+00 0. -1.
         23    2    1    2    0    0 -0.48545530197E+03 -0.56612460844E+03 -0.58560217961E+03  0.95261020459E+03  0.91500637355E+02 0.  0.
    5000000    2    1    2    0    0  0.48545530197E+03  0.56612460844E+03 -0.28928282842E+04  0.30470863247E+04  0.60009638053E+03 0.  0.
         23    2    4    4    0    0  0.71551234380E+02  0.22862969877E+03 -0.28622900371E+03  0.38484332338E+03  0.93734853112E+02 0.  0.
         23    2    4    4    0    0  0.41390406759E+03  0.33749490967E+03 -0.26065992805E+04  0.26622430013E+04  0.89210973999E+02 0.  0.
          2    1    3    3  502    0 -0.61402695577E+02 -0.76546216879E+02 -0.11955477551E+03  0.15467048423E+03  0.00000000000E+00 0.  1.
         -2    1    3    3    0  502 -0.42405260639E+03 -0.48957839156E+03 -0.46604740410E+03  0.79793972036E+03  0.00000000000E+00 0. -1.
         11    1    5    5    0    0 -0.16776468812E+02  0.23538606595E+02 -0.12257922084E+02  0.31397015146E+02  0.00000000000E+00 0. -1.
        -11    1    5    5    0    0  0.88327703192E+02  0.20509109217E+03 -0.27397108162E+03  0.35344630823E+03  0.00000000000E+00 0.  1.
          5    1    6    6  503    0  0.22367665541E+01  0.13280488603E+02 -0.13191048406E+03  0.13267946453E+03  0.47000000000E+01 0. -1.
         -5    1    6    6    0  503  0.41166730104E+03  0.32421442107E+03 -0.24746887964E+04  0.25295635368E+04  0.47000000000E+01 0.  1.
<mgrwt>
<rscale>  0 0.76816324E+03</rscale>
<asrwt>0</asrwt>
<pdfrwt beam="1">  1        1 0.57524053E+00 0.76816324E+03</pdfrwt>
<pdfrwt beam="2">  1       -1 0.40097390E-01 0.76816324E+03</pdfrwt>
<totfact> 0.10616607E+00</totfact>
</mgrwt>
</event>
<event>
12    1  0.3127365E-008  0.1000181E+04  0.7818608E-02  0.9308346E-01
         -2   -1    0    0    0  501 -0.00000000000E+00  0.00000000000E+00  0.21275442046E+04  0.21275442046E+04  0.00000000000E+00 0.  1.
          2   -1    0    0  501    0  0.00000000000E+00 -0.00000000000E+00 -0.15330730795E+04  0.15330730795E+04  0.00000000000E+00 0. -1.
         23    2    1    2    0    0 -0.29229677194E+03 -0.88648214384E+03 -0.12173112328E+04  0.15360656874E+04  0.79769444713E+02 0.  0.
    5000000    2    1    2    0    0  0.29229677194E+03  0.88648214384E+03  0.18117823578E+04  0.21245515967E+04  0.59989680848E+03 0.  0.
         23    2    4    4    0    0  0.10051402912E+03 -0.26064705521E+02  0.94416403913E+02  0.16811357020E+03  0.92548777601E+02 0.  0.
         23    2    4    4    0    0  0.19178274282E+03  0.91254684936E+03  0.17173659539E+04  0.19564380265E+04  0.93709974281E+02 0.  0.
          3    1    3    3  502    0 -0.32559371353E+02 -0.10737057553E+03 -0.19213961937E+03  0.22249985727E+03  0.00000000000E+00 0. -1.
         -3    1    3    3    0  502 -0.25973740059E+03 -0.77911156831E+03 -0.10251716134E+04  0.13135658301E+04  0.00000000000E+00 0.  1.
         11    1    5    5    0    0  0.83286793363E+02 -0.52597221852E+02  0.94463348283E+02  0.13647886966E+03  0.00000000000E+00 0. -1.
        -11    1    5    5    0    0  0.17227235753E+02  0.26532516331E+02 -0.46944370215E-01  0.31634700541E+02  0.00000000000E+00 0.  1.
          5    1    6    6  503    0  0.19370970803E+02  0.29226350134E+03  0.56449571460E+03  0.63598010231E+03  0.47000000000E+01 0. -1.
         -5    1    6    6    0  503  0.17241177202E+03  0.62028334801E+03  0.11528702393E+04  0.13204579242E+04  0.47000000000E+01 0.  1.
<mgrwt>
<rscale>  0 0.10001815E+04</rscale>
<asrwt>0</asrwt>
<pdfrwt beam="1">  1        2 0.23585740E+00 0.10001815E+04</pdfrwt>
<pdfrwt beam="2">  1       -2 0.32731449E+00 0.10001815E+04</pdfrwt>
<totfact> 0.26485542E-01</totfact>
</mgrwt>
</event>
<event>
12    1  0.3127365E-008  0.1501804E+04  0.7818608E-02  0.8883254E-01
         -1   -1    0    0    0  501 -0.00000000000E+00  0.00000000000E+00  0.78090036246E+03  0.78090036246E+03  0.00000000000E+00 0.  1.
          1   -1    0    0  501    0  0.00000000000E+00 -0.00000000000E+00 -0.36671699561E+04  0.36671699561E+04  0.00000000000E+00 0. -1.
         23    2    1    2    0    0 -0.60996269666E+03  0.13137559325E+04 -0.39437860006E+03  0.15039655375E+04  0.91480689137E+02 0.  0.
    5000000    2    1    2    0    0  0.60996269666E+03 -0.13137559325E+04 -0.24918909936E+04  0.29441047810E+04  0.60018588477E+03 0.  0.
         23    2    4    4    0    0  0.10599226558E+03 -0.88442539824E+03 -0.15342527718E+04  0.17764152659E+04  0.90977931192E+02 0.  0.
         23    2    4    4    0    0  0.50397043108E+03 -0.42933053425E+03 -0.95763822184E+03  0.11676895151E+04  0.90094043759E+02 0.  0.
          4    1    3    3  502    0 -0.43344405729E+03  0.87875679789E+03 -0.22906779974E+03  0.10062600646E+04  0.00000000000E+00 0. -1.
         -4    1    3    3    0  502 -0.17651863937E+03  0.43499913460E+03 -0.16531080033E+03  0.49770547300E+03  0.00000000000E+00 0.  1.
         11    1    5    5    0    0  0.64201067336E+02 -0.59928483946E+03 -0.11183994551E+04  0.12704650475E+04  0.00000000000E+00 0.  1.
        -11    1    5    5    0    0  0.41791198245E+02 -0.28514055878E+03 -0.41585331665E+03  0.50595021838E+03  0.00000000000E+00 0. -1.
          5    1    6    6  503    0  0.86123987405E+02 -0.54222916630E+02 -0.10138912495E+03  0.14373347054E+03  0.47000000000E+01 0. -1.
         -5    1    6    6    0  503  0.41784644367E+03 -0.37510761762E+03 -0.85624909688E+03  0.10239560446E+04  0.47000000000E+01 0.  1.
<mgrwt>
<rscale>  0 0.15018039E+04</rscale>
<asrwt>0</asrwt>
<pdfrwt beam="1">  1        1 0.56418000E+00 0.15018039E+04</pdfrwt>
<pdfrwt beam="2">  1       -1 0.12013852E+00 0.15018039E+04</pdfrwt>
<totfact> 0.10894982E-01</totfact>
</mgrwt>
</event>
<event>
12    1  0.3127365E-008  0.1062973E+04  0.7818608E-02  0.9242052E-01
         -2   -1    0    0    0  501 -0.00000000000E+00  0.00000000000E+00  0.72432382360E+03  0.72432382360E+03  0.00000000000E+00 0.  1.
          2   -1    0    0  501    0  0.00000000000E+00 -0.00000000000E+00 -0.23030404981E+04  0.23030404981E+04  0.00000000000E+00 0. -1.
         23    2    1    2    0    0 -0.72671544625E+03 -0.66988279909E+03 -0.15861817723E+04  0.18710416209E+04  0.89251487724E+02 0.  0.
    5000000    2    1    2    0    0  0.72671544625E+03  0.66988279909E+03  0.74650977750E+01  0.11563227008E+04  0.60014011397E+03 0.  0.
         23    2    4    4    0    0 -0.36154758156E+02 -0.16771956835E+02  0.56824637498E+02  0.12416188970E+03  0.10294984387E+03 0.  0.
         23    2    4    4    0    0  0.76287020440E+03  0.68665475593E+03 -0.49359539723E+02  0.10321608111E+04  0.97231030235E+02 0.  0.
          1    1    3    3  502    0 -0.94354009455E+02 -0.13043674758E+03 -0.24361244413E+03  0.29199905334E+03  0.00000000000E+00 0. -1.
         -1    1    3    3    0  502 -0.63236143679E+03 -0.53944605151E+03 -0.13425693281E+04  0.15790425675E+04  0.00000000000E+00 0.  1.
         11    1    5    5    0    0  0.35298526390E+00 -0.53256230483E+02  0.94230825948E+01  0.54084611207E+02  0.00000000000E+00 0.  1.
        -11    1    5    5    0    0 -0.36507743420E+02  0.36484273648E+02  0.47401554903E+02  0.70077278490E+02  0.00000000000E+00 0. -1.
          5    1    6    6  503    0  0.29169588811E+03  0.21679788695E+03  0.13891873161E+02  0.36373464101E+03  0.47000000000E+01 0. -1.
         -5    1    6    6    0  503  0.47117431629E+03  0.46985686898E+03 -0.63251412884E+02  0.66842617011E+03  0.47000000000E+01 0.  1.
<mgrwt>
<rscale>  0 0.10629731E+04</rscale>
<asrwt>0</asrwt>
<pdfrwt beam="1">  1        2 0.35431392E+00 0.10629731E+04</pdfrwt>
<pdfrwt beam="2">  1       -2 0.11143443E+00 0.10629731E+04</pdfrwt>
<totfact> 0.28631403E+00</totfact>
</mgrwt>
</event>
<event>
12    1  0.3127365E-008  0.5351871E+03  0.7818608E-02  0.1004982E+00
          1   -1    0    0  501    0  0.00000000000E+00  0.00000000000E+00  0.59876255674E+03  0.59876255674E+03  0.00000000000E+00 0. -1.
         -1   -1    0    0    0  501 -0.00000000000E+00 -0.00000000000E+00 -0.95711294177E+03  0.95711294177E+03  0.00000000000E+00 0.  1.
         23    2    1    2    0    0 -0.18030186808E+03 -0.32036556735E+03  0.37950837319E+03  0.53621296404E+03  0.91405016853E+02 0.  0.
    5000000    2    1    2    0    0  0.18030186808E+03  0.32036556735E+03 -0.73785875821E+03  0.10196625345E+04  0.60011105369E+03 0.  0.
         23    2    4    4    0    0  0.33558144510E+03  0.37831408687E+03 -0.55265134420E+03  0.75494781110E+03  0.93734916788E+02 0.  0.
         23    2    4    4    0    0 -0.15527957702E+03 -0.57948519516E+02 -0.18520741401E+03  0.26471472337E+03  0.91117070916E+02 0.  0.
          4    1    3    3  502    0 -0.14927859510E+03 -0.29888292592E+03  0.30353899364E+03  0.45138788533E+03  0.00000000000E+00 0. -1.
         -4    1    3    3    0  502 -0.31023272979E+02 -0.21482641431E+02  0.75969379547E+02  0.84825078708E+02  0.00000000000E+00 0.  1.
         11    1    5    5    0    0  0.17196830246E+03  0.13671264790E+03 -0.27702417582E+03  0.35356164828E+03  0.00000000000E+00 0.  1.
        -11    1    5    5    0    0  0.16361314265E+03  0.24160143897E+03 -0.27562716838E+03  0.40138616282E+03  0.00000000000E+00 0. -1.
          5    1    6    6  503    0 -0.31358355705E+00  0.15006159758E+02 -0.61628312724E+01  0.16892414115E+02  0.47000000000E+01 0. -1.
         -5    1    6    6    0  503 -0.15496599346E+03 -0.72954679274E+02 -0.17904458274E+03  0.24782230926E+03  0.47000000000E+01 0.  1.
<mgrwt>
<rscale>  0 0.53518709E+03</rscale>
<asrwt>0</asrwt>
<pdfrwt beam="1">  1        1 0.92117317E-01 0.53518709E+03</pdfrwt>
<pdfrwt beam="2">  1       -1 0.14724814E+00 0.53518709E+03</pdfrwt>
<totfact> 0.13365258E+01</totfact>
</mgrwt>
</event>
<event>
12    1  0.3127365E-008  0.1269839E+04  0.7818608E-02  0.9053831E-01
         -1   -1    0    0    0  501 -0.00000000000E+00  0.00000000000E+00  0.22396837296E+04  0.22396837296E+04  0.00000000000E+00 0.  1.
          1   -1    0    0  501    0  0.00000000000E+00 -0.00000000000E+00 -0.10206116192E+04  0.10206116192E+04  0.00000000000E+00 0. -1.
         23    2    1    2    0    0  0.94489140807E+03 -0.78174067651E+03 -0.24988736790E+03  0.12548138398E+04  0.90420227869E+02 0.  0.
    5000000    2    1    2    0    0 -0.94489140807E+03  0.78174067651E+03  0.14689594783E+04  0.20054815090E+04  0.60014654513E+03 0.  0.
         23    2    4    4    0    0 -0.10387610705E+03  0.33649068333E+03  0.65836888515E+03  0.75204072572E+03  0.89996881183E+02 0.  0.
         23    2    4    4    0    0 -0.84101530102E+03  0.44524999318E+03  0.81059059315E+03  0.12534407833E+04  0.92208429492E+02 0.  0.
          2    1    3    3  502    0  0.77911354537E+03 -0.61959039007E+03 -0.17204330312E+03  0.10102024877E+04  0.00000000000E+00 0. -1.
         -2    1    3    3    0  502  0.16577786270E+03 -0.16215028644E+03 -0.77844064783E+02  0.24461135210E+03  0.00000000000E+00 0.  1.
         11    1    5    5    0    0 -0.15960922249E+02  0.14309291755E+03  0.34078816866E+03  0.36995528107E+03  0.00000000000E+00 0. -1.
        -11    1    5    5    0    0 -0.87915184803E+02  0.19339776578E+03  0.31758071649E+03  0.38208544465E+03  0.00000000000E+00 0.  1.
          5    1    6    6  503    0 -0.65152924563E+03  0.30093755206E+03  0.59903822686E+03  0.93483830441E+03  0.47000000000E+01 0. -1.
         -5    1    6    6    0  503 -0.18948605539E+03  0.14431244112E+03  0.21155236629E+03  0.31860247885E+03  0.47000000000E+01 0.  1.
<mgrwt>
<rscale>  0 0.12698394E+04</rscale>
<asrwt>0</asrwt>
<pdfrwt beam="1">  1        1 0.15701717E+00 0.12698394E+04</pdfrwt>
<pdfrwt beam="2">  1       -1 0.34456673E+00 0.12698394E+04</pdfrwt>
<totfact> 0.24097715E-01</totfact>
</mgrwt>
</event>
<event>
12    1  0.3127365E-008  0.9755396E+03  0.7818608E-02  0.9335787E-01
          1   -1    0    0  501    0  0.00000000000E+00  0.00000000000E+00  0.21061464046E+04  0.21061464046E+04  0.00000000000E+00 0. -1.
         -1   -1    0    0    0  501 -0.00000000000E+00 -0.00000000000E+00 -0.45910224022E+03  0.45910224022E+03  0.00000000000E+00 0.  1.
         23    2    1    2    0    0 -0.37341306098E+03 -0.80684020071E+03  0.74058789614E+03  0.11609221064E+04  0.94028089424E+02 0.  0.
    5000000    2    1    2    0    0  0.37341306098E+03  0.80684020071E+03  0.90645626826E+03  0.14043265384E+04  0.60003469626E+03 0.  0.
         23    2    4    4    0    0  0.19411932853E+03 -0.19567489878E+02  0.12827431849E+03  0.25189745479E+03  0.94513631695E+02 0.  0.
         23    2    4    4    0    0  0.17929373245E+03  0.82640769059E+03  0.77818194977E+03  0.11524290837E+04  0.86195895186E+02 0.  0.
          1    1    3    3  502    0 -0.85952414003E+02 -0.27925842671E+03  0.26861539267E+03  0.39689710951E+03  0.00000000000E+00 0. -1.
         -1    1    3    3    0  502 -0.28746064697E+03 -0.52758177400E+03  0.47197250347E+03  0.76402499688E+03  0.00000000000E+00 0.  1.
         13    1    5    5    0    0  0.12390574171E+03  0.24346085807E+02  0.10913226318E+03  0.16689881841E+03  0.00000000000E+00 0.  1.
        -13    1    5    5    0    0  0.70213586823E+02 -0.43913575685E+02  0.19142055314E+02  0.84998636375E+02  0.00000000000E+00 0. -1.
          5    1    6    6  503    0  0.28782134651E+02  0.30155067838E+03  0.25084231203E+03  0.39332579169E+03  0.47000000000E+01 0. -1.
         -5    1    6    6    0  503  0.15051159779E+03  0.52485701221E+03  0.52733963774E+03  0.75910329197E+03  0.47000000000E+01 0.  1.
<mgrwt>
<rscale>  0 0.97553958E+03</rscale>
<asrwt>0</asrwt>
<pdfrwt beam="1">  1        1 0.32402252E+00 0.97553958E+03</pdfrwt>
<pdfrwt beam="2">  1       -1 0.70631115E-01 0.97553958E+03</pdfrwt>
<totfact> 0.51945310E+00</totfact>
</mgrwt>
</event>
<event>
12    1  0.3127365E-008  0.5159396E+03  0.7818608E-02  0.1009700E+00
          2   -1    0    0  501    0  0.00000000000E+00  0.00000000000E+00  0.17819862042E+04  0.17819862042E+04  0.00000000000E+00 0. -1.
         -2   -1    0    0    0  501 -0.00000000000E+00 -0.00000000000E+00 -0.18236639219E+03  0.18236639219E+03  0.00000000000E+00 0.  1.
         23    2    1    2    0    0 -0.13597280568E+03 -0.34087253440E+03  0.28486338716E+03  0.47326245772E+03  0.90263591511E+02 0.  0.
    5000000    2    1    2    0    0  0.13597280568E+03  0.34087253440E+03  0.13147564249E+04  0.14910901387E+04  0.60006887632E+03 0.  0.
         23    2    4    4    0    0  0.21558557777E+03 -0.59756363849E+02  0.75018936875E+03  0.78815738976E+03  0.91433132314E+02 0.  0.
         23    2    4    4    0    0 -0.79612772084E+02  0.40062889825E+03  0.56456705614E+03  0.70293274893E+03  0.92394702523E+02 0.  0.
          2    1    3    3  502    0 -0.76192677402E+02 -0.87767044081E+02  0.10878098548E+03  0.15919070613E+03  0.00000000000E+00 0. -1.
         -2    1    3    3    0  502 -0.59780128282E+02 -0.25310549032E+03  0.17608240168E+03  0.31407175159E+03  0.00000000000E+00 0.  1.
         11    1    5    5    0    0  0.75063129591E+02 -0.62981879533E+02  0.37212679104E+03  0.38481104348E+03  0.00000000000E+00 0. -1.
        -11    1    5    5    0    0  0.14052244818E+03  0.32255156844E+01  0.37806257771E+03  0.40334634628E+03  0.00000000000E+00 0.  1.
          5    1    6    6  503    0 -0.44168497403E+02  0.60598315103E+02  0.12790559639E+03  0.14834063349E+03  0.47000000000E+01 0. -1.
         -5    1    6    6    0  503 -0.35444274680E+02  0.34003058315E+03  0.43666145975E+03  0.55459211544E+03  0.47000000000E+01 0.  1.
<mgrwt>
<rscale>  0 0.51593956E+03</rscale>
<asrwt>0</asrwt>
<pdfrwt beam="1">  1        2 0.27415171E+00 0.51593956E+03</pdfrwt>
<pdfrwt beam="2">  1       -2 0.28056369E-01 0.51593956E+03</pdfrwt>
<totfact> 0.10767897E+02</totfact>
</mgrwt>
</event>
<event>
12    1  0.3127365E-008  0.4384127E+03  0.7818608E-02  0.1031235E+00
          2   -1    0    0  501    0  0.00000000000E+00  0.00000000000E+00  0.25004047299E+03  0.25004047299E+03  0.00000000000E+00 0. -1.
         -2   -1    0    0    0  501 -0.00000000000E+00 -0.00000000000E+00 -0.13803064395E+04  0.13803064395E+04  0.00000000000E+00 0.  1.
         23    2    1    2    0    0 -0.24975462716E+03 -0.18114942847E+03 -0.83700919091E+03  0.89488660773E+03  0.71029330585E+02 0.  0.
    5000000    2    1    2    0    0  0.24975462716E+03  0.18114942847E+03 -0.29325677557E+03  0.73546030474E+03  0.59975814643E+03 0.  0.
         23    2    4    4    0    0 -0.39112005102E+02  0.24519035008E+03  0.51745059031E+02  0.27183348282E+03  0.97815308266E+02 0.  0.
         23    2    4    4    0    0  0.28886663226E+03 -0.64040921610E+02 -0.34500183460E+03  0.46362682193E+03  0.91533563548E+02 0.  0.
          3    1    3    3  502    0 -0.78833968377E+01 -0.34172872763E+01 -0.81298552868E+02  0.81751333300E+02  0.00000000000E+00 0. -1.
         -3    1    3    3    0  502 -0.24187123032E+03 -0.17773214119E+03 -0.75571063804E+03  0.81313527442E+03  0.00000000000E+00 0.  1.
         13    1    5    5    0    0  0.38838954907E+01  0.21328415560E+03  0.41825710742E+02  0.21738124517E+03  0.00000000000E+00 0.  1.
        -13    1    5    5    0    0 -0.42995900593E+02  0.31906194481E+02  0.99193482888E+01  0.54452237645E+02  0.00000000000E+00 0. -1.
          5    1    6    6  503    0  0.22407808676E+03 -0.25207249698E+02 -0.30086210284E+03  0.37601394832E+03  0.47000000000E+01 0. -1.
         -5    1    6    6    0  503  0.64788545497E+02 -0.38833671912E+02 -0.44139731765E+02  0.87612873609E+02  0.47000000000E+01 0.  1.
<mgrwt>
<rscale>  0 0.43841274E+03</rscale>
<asrwt>0</asrwt>
<pdfrwt beam="1">  1        2 0.38467765E-01 0.43841274E+03</pdfrwt>
<pdfrwt beam="2">  1       -2 0.21235484E+00 0.43841274E+03</pdfrwt>
<totfact> 0.15714323E+01</totfact>
</mgrwt>
</event>
<event>
12    1  0.3127365E-008  0.2143469E+04  0.7818608E-02  0.8542333E-01
          2   -1    0    0  501    0  0.00000000000E+00  0.00000000000E+00  0.26702823306E+04  0.26702823306E+04  0.00000000000E+00 0. -1.
         -2   -1    0    0    0  501 -0.00000000000E+00 -0.00000000000E+00 -0.18828649461E+04  0.18828649461E+04  0.00000000000E+00 0.  1.
         23    2    1    2    0    0  0.20955472617E+04 -0.40423964101E+03  0.93391633988E+03  0.23314027660E+04  0.92255700051E+02 0.  0.
    5000000    2    1    2    0    0 -0.20955472617E+04  0.40423964101E+03 -0.14649895536E+03  0.22217445107E+04  0.59996559380E+03 0.  0.
         23    2    4    4    0    0 -0.19340958909E+04  0.35415300867E+03  0.15226714012E+02  0.19684549929E+04  0.91825581091E+02 0.  0.
         23    2    4    4    0    0 -0.16145137076E+03  0.50086632332E+02 -0.16172566937E+03  0.25328951785E+03  0.97083324318E+02 0.  0.
          3    1    3    3  502    0  0.94585061473E+03 -0.15995845485E+03  0.37585835811E+03  0.10302861729E+04  0.00000000000E+00 0. -1.
         -3    1    3    3    0  502  0.11496966469E+04 -0.24428118616E+03  0.55805798177E+03  0.13011165931E+04  0.00000000000E+00 0.  1.
         11    1    5    5    0    0 -0.53287521286E+03  0.74588555018E+02 -0.29959152525E+02  0.53890351255E+03  0.00000000000E+00 0.  1.
        -11    1    5    5    0    0 -0.14012206780E+04  0.27956445366E+03  0.45185866537E+02  0.14295514803E+04  0.00000000000E+00 0. -1.
          5    1    6    6  503    0  0.37313492174E+01  0.15411513647E+02 -0.45213851407E+02  0.48143743923E+02  0.47000000000E+01 0. -1.
         -5    1    6    6    0  503 -0.16518271998E+03  0.34675118686E+02 -0.11651181797E+03  0.20514577393E+03  0.47000000000E+01 0.  1.
<mgrwt>
<rscale>  0 0.21434687E+04</rscale>
<asrwt>0</asrwt>
<pdfrwt beam="1">  1        2 0.41081266E+00 0.21434687E+04</pdfrwt>
<pdfrwt beam="2">  1       -2 0.28967153E+00 0.21434687E+04</pdfrwt>
<totfact> 0.88875800E-02</totfact>
</mgrwt>
</event>
<event>
12    1  0.3127365E-008  0.5444277E+03  0.7818608E-02  0.1002792E+00
          2   -1    0    0  501    0  0.00000000000E+00  0.00000000000E+00  0.10871485187E+04  0.10871485187E+04  0.00000000000E+00 0. -1.
         -2   -1    0    0    0  501 -0.00000000000E+00 -0.00000000000E+00 -0.52739873892E+03  0.52739873892E+03  0.00000000000E+00 0.  1.
         23    2    1    2    0    0  0.19966410706E+03 -0.38282997055E+03  0.73247787248E+03  0.85533646571E+03  0.93016632414E+02 0.  0.
    5000000    2    1    2    0    0 -0.19966410706E+03  0.38282997055E+03 -0.17272809267E+03  0.75921079194E+03  0.60011789726E+03 0.  0.
         23    2    4    4    0    0  0.45442681794E+02  0.39222367482E+03  0.58810120458E+02  0.40990474759E+03  0.93052799027E+02 0.  0.
         23    2    4    4    0    0 -0.24510678885E+03 -0.93937042730E+01 -0.23153821313E+03  0.34930604436E+03  0.90769977778E+02 0.  0.
          1    1    3    3  502    0  0.22710358332E+02 -0.13579256041E+03  0.23774426449E+03  0.27473207883E+03  0.00000000000E+00 0. -1.
         -1    1    3    3    0  502  0.17695374872E+03 -0.24703741014E+03  0.49473360799E+03  0.58060438689E+03  0.00000000000E+00 0.  1.
         13    1    5    5    0    0  0.56861486764E+02  0.19313905959E+03  0.61355598348E+02  0.21047668390E+03  0.00000000000E+00 0.  1.
        -13    1    5    5    0    0 -0.11418804970E+02  0.19908461523E+03 -0.25454778898E+01  0.19942806369E+03  0.00000000000E+00 0. -1.
          5    1    6    6  503    0 -0.22586719156E+03 -0.36975804615E+01 -0.16535716071E+03  0.27999060863E+03  0.47000000000E+01 0. -1.
         -5    1    6    6    0  503 -0.19239597290E+02 -0.56961238115E+01 -0.66181052422E+02  0.69315435727E+02  0.47000000000E+01 0.  1.
<mgrwt>
<rscale>  0 0.54442771E+03</rscale>
<asrwt>0</asrwt>
<pdfrwt beam="1">  1        2 0.16725362E+00 0.54442771E+03</pdfrwt>
<pdfrwt beam="2">  1       -2 0.81138268E-01 0.54442771E+03</pdfrwt>
<totfact> 0.30955337E+01</totfact>
</mgrwt>
</event>
<event>
12    1  0.3127365E-008  0.1251914E+04  0.7818608E-02  0.9068592E-01
         -2   -1    0    0    0  501 -0.00000000000E+00  0.00000000000E+00  0.32323311238E+04  0.32323311238E+04  0.00000000000E+00 0.  1.
          2   -1    0    0  501    0  0.00000000000E+00 -0.00000000000E+00 -0.51826092092E+03  0.51826092092E+03  0.00000000000E+00 0. -1.
         23    2    1    2    0    0 -0.37842920896E+03  0.11624063677E+04  0.12982953974E+04  0.17862415298E+04  0.10339552283E+03 0.  0.
    5000000    2    1    2    0    0  0.37842920896E+03 -0.11624063677E+04  0.14157748055E+04  0.19643505149E+04  0.59988116780E+03 0.  0.
         23    2    4    4    0    0  0.14790851746E+03 -0.94881495177E+03  0.12935287434E+04  0.16133967537E+04  0.87782302409E+02 0.  0.
         23    2    4    4    0    0  0.23052069151E+03 -0.21359141597E+03  0.12224606214E+03  0.35095376121E+03  0.97279805768E+02 0.  0.
          3    1    3    3  502    0 -0.10518058860E+02  0.74563056121E+02  0.11378816796E+03  0.13644788774E+03  0.00000000000E+00 0. -1.
         -3    1    3    3    0  502 -0.36791115010E+03  0.10878433116E+04  0.11845072294E+04  0.16497936421E+04  0.00000000000E+00 0.  1.
         13    1    5    5    0    0  0.11791069110E+03 -0.86511794147E+03  0.12035819180E+04  0.14869234738E+04  0.00000000000E+00 0.  1.
        -13    1    5    5    0    0  0.29997826359E+02 -0.83697010307E+02  0.89946825428E+02  0.12647327989E+03  0.00000000000E+00 0. -1.
          5    1    6    6  503    0  0.10542788963E+02 -0.27972015207E+02  0.42634739462E+02  0.52281880637E+02  0.47000000000E+01 0. -1.
         -5    1    6    6    0  503  0.21997790254E+03 -0.18561940076E+03  0.79611322675E+02  0.29867188057E+03  0.47000000000E+01 0.  1.
<mgrwt>
<rscale>  0 0.12519138E+04</rscale>
<asrwt>0</asrwt>
<pdfrwt beam="1">  1        2 0.79732451E-01 0.12519138E+04</pdfrwt>
<pdfrwt beam="2">  1       -2 0.49728170E+00 0.12519138E+04</pdfrwt>
<totfact> 0.99204423E-02</totfact>
</mgrwt>
</event>
<event>
12    1  0.3127365E-008  0.8040011E+03  0.7818608E-02  0.9554244E-01
         -2   -1    0    0    0  501 -0.00000000000E+00  0.00000000000E+00  0.98270192843E+03  0.98270192843E+03  0.00000000000E+00 0.  1.
          2   -1    0    0  501    0  0.00000000000E+00 -0.00000000000E+00 -0.73269143430E+03  0.73269143430E+03  0.00000000000E+00 0. -1.
         23    2    1    2    0    0  0.58523901178E+02  0.71392627869E+03  0.29478259618E+03  0.77990376537E+03  0.90759714769E+02 0.  0.
    5000000    2    1    2    0    0 -0.58523901178E+02 -0.71392627869E+03 -0.44772102046E+02  0.93548959735E+03  0.60001705578E+03 0.  0.
         23    2    4    4    0    0  0.11927993049E+03  0.11553290376E+02  0.85449510070E+02  0.17157543628E+03  0.88177838639E+02 0.  0.
         23    2    4    4    0    0 -0.17780383167E+03 -0.72547956906E+03 -0.13022161212E+03  0.76391416107E+03  0.93125557915E+02 0.  0.
          4    1    3    3  502    0  0.35862686091E+02  0.15048905915E+03  0.32884187123E+02  0.15815959958E+03  0.00000000000E+00 0.  1.
         -4    1    3    3    0  502  0.22661215087E+02  0.56343721954E+03  0.26189840905E+03  0.62174416579E+03  0.00000000000E+00 0. -1.
         13    1    5    5    0    0  0.26359116345E+02  0.33843624658E+02 -0.72079203478E+00  0.42903536983E+02  0.00000000000E+00 0.  1.
        -13    1    5    5    0    0  0.92920814148E+02 -0.22290334282E+02  0.86170302104E+02  0.12867189930E+03  0.00000000000E+00 0. -1.
          5    1    6    6  503    0 -0.20958810573E+02 -0.23508247598E+03 -0.16655503766E+02  0.23664855389E+03  0.47000000000E+01 0. -1.
         -5    1    6    6    0  503 -0.15684502110E+03 -0.49039709309E+03 -0.11356610835E+03  0.52726560718E+03  0.47000000000E+01 0.  1.
<mgrwt>
<rscale>  0 0.80400110E+03</rscale>
<asrwt>0</asrwt>
<pdfrwt beam="1">  1        2 0.11272176E+00 0.80400110E+03</pdfrwt>
<pdfrwt beam="2">  1       -2 0.15118491E+00 0.80400110E+03</pdfrwt>
<totfact> 0.11453583E+01</totfact>
</mgrwt>
</event>
<event>
12    1  0.3127365E-008  0.1227722E+04  0.7818608E-02  0.9088932E-01
         -1   -1    0    0    0  501 -0.00000000000E+00  0.00000000000E+00  0.11550866572E+04  0.11550866572E+04  0.00000000000E+00 0.  1.
          1   -1    0    0  501    0  0.00000000000E+00 -0.00000000000E+00 -0.23095938153E+04  0.23095938153E+04  0.00000000000E+00 0. -1.
         23    2    1    2    0    0  0.61161629708E+03 -0.98171213408E+03 -0.16949448172E+04  0.20540564849E+04  0.92070087792E+02 0.  0.
    5000000    2    1    2    0    0 -0.61161629708E+03  0.98171213408E+03  0.54043765908E+03  0.14106239876E+04  0.59996163381E+03 0.  0.
         23    2    4    4    0    0 -0.41538389107E+03  0.99997971166E+03  0.41556953664E+03  0.11634265347E+04  0.91433370034E+02 0.  0.
         23    2    4    4    0    0 -0.19623240601E+03 -0.18267577582E+02  0.12486812245E+03  0.24719745293E+03  0.81692540487E+02 0.  0.
          4    1    3    3  502    0  0.15531425782E+03 -0.17977246940E+03 -0.33839235668E+03  0.41346105801E+03  0.00000000000E+00 0. -1.
         -4    1    3    3    0  502  0.45630203926E+03 -0.80193966468E+03 -0.13565524605E+04  0.16405954269E+04  0.00000000000E+00 0.  1.
         13    1    5    5    0    0 -0.36032743842E+03  0.78908523547E+03  0.35419778844E+03  0.93698849782E+03  0.00000000000E+00 0. -1.
        -13    1    5    5    0    0 -0.55056452655E+02  0.21089447619E+03  0.61371748198E+02  0.22643803687E+03  0.00000000000E+00 0.  1.
          5    1    6    6  503    0 -0.14149458441E+03  0.19782020058E+02  0.10535655895E+03  0.17757854670E+03  0.47000000000E+01 0. -1.
         -5    1    6    6    0  503 -0.54737821597E+02 -0.38049597640E+02  0.19511563500E+02  0.69618906225E+02  0.47000000000E+01 0.  1.
<mgrwt>
<rscale>  0 0.12277219E+04</rscale>
<asrwt>0</asrwt>
<pdfrwt beam="1">  1        1 0.35532213E+00 0.12277219E+04</pdfrwt>
<pdfrwt beam="2">  1       -1 0.17770564E+00 0.12277219E+04</pdfrwt>
<totfact> 0.38848364E-01</totfact>
</mgrwt>
</event>
<event>
12    1  0.3127365E-008  0.8937067E+03  0.7818608E-02  0.9433483E-01
         -1   -1    0    0    0  501 -0.00000000000E+00  0.00000000000E+00  0.46035702040E+03  0.46035702040E+03  0.00000000000E+00 0.  1.
          1   -1    0    0  501    0  0.00000000000E+00 -0.00000000000E+00 -0.18233512251E+04  0.18233512251E+04  0.00000000000E+00 0. -1.
         23    2    1    2    0    0  0.78665188461E+03  0.19958234256E+03 -0.51386360869E+03  0.96475436155E+03  0.89670902524E+02 0.  0.
    5000000    2    1    2    0    0 -0.78665188461E+03 -0.19958234256E+03 -0.84913059602E+03  0.13189538840E+04  0.59996856577E+03 0.  0.
         23    2    4    4    0    0  0.68536856429E+02 -0.73838255381E+02 -0.14469734267E+03  0.19989738519E+03  0.94192648253E+02 0.  0.
         23    2    4    4    0    0 -0.85518874104E+03 -0.12574408718E+03 -0.70443325335E+03  0.11190564988E+04  0.94349778778E+02 0.  0.
          3    1    3    3  502    0  0.56058964425E+03  0.10009949901E+03 -0.35243558783E+03  0.66969508174E+03  0.00000000000E+00 0. -1.
         -3    1    3    3    0  502  0.22606224036E+03  0.99482843552E+02 -0.16142802086E+03  0.29505927980E+03  0.00000000000E+00 0.  1.
         13    1    5    5    0    0  0.26429416126E+02 -0.47542072588E+02 -0.13980369178E+03  0.15001278259E+03  0.00000000000E+00 0.  1.
        -13    1    5    5    0    0  0.42107440303E+02 -0.26296182793E+02 -0.48936508853E+01  0.49884602608E+02  0.00000000000E+00 0. -1.
          5    1    6    6  503    0 -0.69397673797E+03 -0.75917127209E+02 -0.53180509351E+03  0.87761373652E+03  0.47000000000E+01 0. -1.
         -5    1    6    6    0  503 -0.16121200308E+03 -0.49826959972E+02 -0.17262815984E+03  0.24144276225E+03  0.47000000000E+01 0.  1.
<mgrwt>
<rscale>  0 0.89370670E+03</rscale>
<asrwt>0</asrwt>
<pdfrwt beam="1">  1        1 0.28051557E+00 0.89370670E+03</pdfrwt>
<pdfrwt beam="2">  1       -1 0.70824157E-01 0.89370670E+03</pdfrwt>
<totfact> 0.80901692E+00</totfact>
</mgrwt>
</event>
<event>
12    1  0.3127365E-008  0.1136226E+04  0.7818608E-02  0.9170585E-01
          2   -1    0    0  501    0  0.00000000000E+00  0.00000000000E+00  0.18750960565E+04  0.18750960565E+04  0.00000000000E+00 0.  1.
         -2   -1    0    0    0  501 -0.00000000000E+00 -0.00000000000E+00 -0.75057379370E+03  0.75057379370E+03  0.00000000000E+00 0. -1.
         23    2    1    2    0    0 -0.36091117184E+03  0.99777870055E+03  0.88197144955E+03  0.13827082877E+04  0.90495092273E+02 0.  0.
    5000000    2    1    2    0    0  0.36091117184E+03 -0.99777870055E+03  0.24255081327E+03  0.12429615626E+04  0.60025272990E+03 0.  0.
         23    2    4    4    0    0 -0.11482063609E+03 -0.49659809697E+03  0.15230397187E+03  0.53976518308E+03  0.91413919231E+02 0.  0.
         23    2    4    4    0    0  0.47573180793E+03 -0.50118060358E+03  0.90246841405E+02  0.70319637948E+03  0.94010133765E+02 0.  0.
          1    1    3    3  502    0 -0.25979272008E+03  0.80902868740E+03  0.67928691520E+03  0.10878650595E+04  0.00000000000E+00 0. -1.
         -1    1    3    3    0  502 -0.10111845176E+03  0.18875001315E+03  0.20268453435E+03  0.29484322820E+03  0.00000000000E+00 0.  1.
         13    1    5    5    0    0 -0.65935083374E+01 -0.10278523961E+03 -0.24226160618E+01  0.10302499164E+03  0.00000000000E+00 0. -1.
        -13    1    5    5    0    0 -0.10822712776E+03 -0.39381285736E+03  0.15472658793E+03  0.43674019143E+03  0.00000000000E+00 0.  1.
          5    1    6    6  503    0  0.15994377260E+03 -0.23421613931E+03  0.44692014509E+02  0.28715618828E+03  0.47000000000E+01 0. -1.
         -5    1    6    6    0  503  0.31578803533E+03 -0.26696446427E+03  0.45554826896E+02  0.41604019120E+03  0.47000000000E+01 0.  1.
<mgrwt>
<rscale>  0 0.11362264E+04</rscale>
<asrwt>0</asrwt>
<pdfrwt beam="1">  1        2 0.28847632E+00 0.11362264E+04</pdfrwt>
<pdfrwt beam="2">  1       -2 0.11547289E+00 0.11362264E+04</pdfrwt>
<totfact> 0.44966996E+00</totfact>
</mgrwt>
</event>
<event>
12    1  0.3127365E-008  0.4501215E+03  0.7818608E-02  0.1027686E+00
          1   -1    0    0  501    0  0.00000000000E+00  0.00000000000E+00  0.19144194151E+03  0.19144194151E+03  0.00000000000E+00 0. -1.
         -1   -1    0    0    0  501 -0.00000000000E+00 -0.00000000000E+00 -0.18125521219E+04  0.18125521219E+04  0.00000000000E+00 0.  1.
         23    2    1    2    0    0  0.27384605930E+03 -0.22028630303E+03 -0.10273415250E+04  0.10895807401E+04  0.90762660945E+02 0.  0.
    5000000    2    1    2    0    0 -0.27384605930E+03  0.22028630303E+03 -0.59376865542E+03  0.91441332339E+03  0.60006065554E+03 0.  0.
         23    2    4    4    0    0 -0.15369270913E+03 -0.11053467597E+03  0.85880682371E+01  0.21067688344E+03  0.92041462762E+02 0.  0.
         23    2    4    4    0    0 -0.12015335017E+03  0.33082097900E+03 -0.60235672366E+03  0.70373643995E+03  0.92368862047E+02 0.  0.
          1    1    3    3  502    0  0.10960315670E+03 -0.65598007335E+02 -0.25879652541E+03  0.28860282758E+03  0.00000000000E+00 0. -1.
         -1    1    3    3    0  502  0.16424290260E+03 -0.15468829570E+03 -0.76854499960E+03  0.80097791249E+03  0.00000000000E+00 0.  1.
         13    1    5    5    0    0 -0.13300135301E+03 -0.10070147503E+03  0.40236156550E+02  0.17160738699E+03  0.00000000000E+00 0. -1.
        -13    1    5    5    0    0 -0.20691356123E+02 -0.98332009393E+01 -0.31648088313E+02  0.39069496449E+02  0.00000000000E+00 0.  1.
          5    1    6    6  503    0 -0.88730872033E+01  0.10380905084E+03 -0.11900753810E+03  0.15824011766E+03  0.47000000000E+01 0. -1.
         -5    1    6    6    0  503 -0.11128026297E+03  0.22701192816E+03 -0.48334918556E+03  0.54549632229E+03  0.47000000000E+01 0.  1.
<mgrwt>
<rscale>  0 0.45012149E+03</rscale>
<asrwt>0</asrwt>
<pdfrwt beam="1">  1        1 0.29452606E-01 0.45012149E+03</pdfrwt>
<pdfrwt beam="2">  1       -1 0.27885417E+00 0.45012149E+03</pdfrwt>
<totfact> 0.77886029E+00</totfact>
</mgrwt>
</event>
<event>
12    1  0.3127365E-008  0.1251812E+04  0.7818608E-02  0.9068676E-01
          1   -1    0    0  501    0  0.00000000000E+00  0.00000000000E+00  0.31422764764E+04  0.31422764764E+04  0.00000000000E+00 0. -1.
         -1   -1    0    0    0  501 -0.00000000000E+00 -0.00000000000E+00 -0.51973937482E+03  0.51973937482E+03  0.00000000000E+00 0.  1.
         23    2    1    2    0    0  0.12043520347E+04 -0.52750983297E+02  0.12547668148E+04  0.17426112799E+04  0.94909555571E+02 0.  0.
    5000000    2    1    2    0    0 -0.12043520347E+04  0.52750983297E+02  0.13677702868E+04  0.19194045713E+04  0.60005988120E+03 0.  0.
         23    2    4    4    0    0 -0.11693641786E+04  0.12653731617E+03  0.10551885453E+04  0.15826366096E+04  0.88834100879E+02 0.  0.
         23    2    4    4    0    0 -0.34987856153E+02 -0.73786332877E+02  0.31258174152E+03  0.33676796167E+03  0.95061779278E+02 0.  0.
          1    1    3    3  502    0  0.83474922199E+03 -0.39483232090E+02  0.80536410493E+03  0.11605931805E+04  0.00000000000E+00 0. -1.
         -1    1    3    3    0  502  0.36960281273E+03 -0.13267751207E+02  0.44940270986E+03  0.58201809940E+03  0.00000000000E+00 0.  1.
         13    1    5    5    0    0 -0.36622134058E+03  0.79908156010E+02  0.34926587004E+03  0.51233781011E+03  0.00000000000E+00 0.  1.
        -13    1    5    5    0    0 -0.80314283799E+03  0.46629160163E+02  0.70592267522E+03  0.10702987995E+04  0.00000000000E+00 0. -1.
          5    1    6    6  503    0 -0.47928914603E+02 -0.87156460286E+02  0.21007547736E+03  0.23248059190E+03  0.47000000000E+01 0. -1.
         -5    1    6    6    0  503  0.12941058450E+02  0.13370127410E+02  0.10250626416E+03  0.10428736977E+03  0.47000000000E+01 0.  1.
<mgrwt>
<rscale>  0 0.12518124E+04</rscale>
<asrwt>0</asrwt>
<pdfrwt beam="1">  1        1 0.48342714E+00 0.12518124E+04</pdfrwt>
<pdfrwt beam="2">  1       -1 0.79959906E-01 0.12518124E+04</pdfrwt>
<totfact> 0.72792520E-01</totfact>
</mgrwt>
</event>
<event>
12    1  0.3127365E-008  0.4841221E+03  0.7818608E-02  0.1018008E+00
          2   -1    0    0  501    0  0.00000000000E+00  0.00000000000E+00  0.22906474067E+04  0.22906474067E+04  0.00000000000E+00 0. -1.
         -2   -1    0    0    0  501 -0.00000000000E+00 -0.00000000000E+00 -0.35255236742E+03  0.35255236742E+03  0.00000000000E+00 0.  1.
         23    2    1    2    0    0  0.23232041373E+03  0.35368089217E+03 -0.12721862486E+03  0.45127878945E+03  0.91678891639E+02 0.  0.
    5000000    2    1    2    0    0 -0.23232041373E+03 -0.35368089217E+03  0.20653136641E+04  0.21919209846E+04  0.59994510049E+03 0.  0.
         23    2    4    4    0    0 -0.21631531281E+03 -0.41363025905E+03  0.20086655379E+04  0.20637914293E+04  0.81335814287E+02 0.  0.
         23    2    4    4    0    0 -0.16005100923E+02  0.59949366889E+02  0.56648126202E+02  0.12812955534E+03  0.96737184702E+02 0.  0.
          1    1    3    3  502    0  0.13978934318E+03  0.28538476577E+03 -0.87518498522E+02  0.32961342901E+03  0.00000000000E+00 0. -1.
         -1    1    3    3    0  502  0.92531070555E+02  0.68296126395E+02 -0.39700126342E+02  0.12166536044E+03  0.00000000000E+00 0.  1.
         11    1    5    5    0    0 -0.18468497891E+03 -0.30604468802E+03  0.14021071017E+04  0.14469541171E+04  0.00000000000E+00 0. -1.
        -11    1    5    5    0    0 -0.31630333899E+02 -0.10758557104E+03  0.60655843621E+03  0.61683731215E+03  0.00000000000E+00 0.  1.
          5    1    6    6  503    0  0.43290199984E+01  0.15200183822E+02 -0.26625495051E+02  0.31317614677E+02  0.47000000000E+01 0. -1.
         -5    1    6    6    0  503 -0.20334120921E+02  0.44749183066E+02  0.83273621252E+02  0.96811940665E+02  0.47000000000E+01 0.  1.
<mgrwt>
<rscale>  0 0.48412215E+03</rscale>
<asrwt>0</asrwt>
<pdfrwt beam="1">  1        2 0.35240728E+00 0.48412215E+03</pdfrwt>
<pdfrwt beam="2">  1       -2 0.54238827E-01 0.48412215E+03</pdfrwt>
<totfact> 0.16091620E+01</totfact>
</mgrwt>
</event>
<event>
12    1  0.3127365E-008  0.4312485E+03  0.7818608E-02  0.1033466E+00
         -1   -1    0    0    0  501 -0.00000000000E+00  0.00000000000E+00  0.15366871711E+03  0.15366871711E+03  0.00000000000E+00 0. -1.
          1   -1    0    0  501    0  0.00000000000E+00 -0.00000000000E+00 -0.15444327786E+04  0.15444327786E+04  0.00000000000E+00 0.  1.
         23    2    1    2    0    0 -0.17569592439E+03 -0.22320477956E+03 -0.56471859949E+03  0.63836295380E+03  0.88942299896E+02 0.  0.
    5000000    2    1    2    0    0  0.17569592439E+03  0.22320477956E+03 -0.82604546195E+03  0.10597385419E+04  0.60000436700E+03 0.  0.
         23    2    4    4    0    0 -0.13477465070E+03 -0.35748846676E+02 -0.42137196130E+02  0.17215633268E+03  0.91760956154E+02 0.  0.
         23    2    4    4    0    0  0.31047057508E+03  0.25895362624E+03 -0.78390826583E+03  0.88758220918E+03  0.99202067974E+02 0.  0.
          4    1    3    3  502    0 -0.82887725638E+02 -0.15718779783E+03 -0.40425447613E+03  0.44158811161E+03  0.00000000000E+00 0.  1.
         -4    1    3    3    0  502 -0.92808198750E+02 -0.66016981737E+02 -0.16046412336E+03  0.19677484219E+03  0.00000000000E+00 0. -1.
         13    1    5    5    0    0 -0.57175530894E+01 -0.30647432321E+02 -0.28571247139E+02  0.42287961458E+02  0.00000000000E+00 0. -1.
        -13    1    5    5    0    0 -0.12905709761E+03 -0.51014143557E+01 -0.13565948990E+02  0.12986837122E+03  0.00000000000E+00 0.  1.
          5    1    6    6  503    0  0.15239733743E+03  0.81549031289E+02 -0.25943690933E+03  0.31177683186E+03  0.47000000000E+01 0. -1.
         -5    1    6    6    0  503  0.15807323765E+03  0.17740459495E+03 -0.52447135649E+03  0.57580537732E+03  0.47000000000E+01 0.  1.
<mgrwt>
<rscale>  0 0.43124852E+03</rscale>
<asrwt>0</asrwt>
<pdfrwt beam="1">  1        1 0.23760505E+00 0.43124852E+03</pdfrwt>
<pdfrwt beam="2">  1       -1 0.23641340E-01 0.43124852E+03</pdfrwt>
<totfact> 0.99908383E+01</totfact>
</mgrwt>
</event>
<event>
12    1  0.3127365E-008  0.4094223E+03  0.7818608E-02  0.1040565E+00
         -1   -1    0    0    0  501 -0.00000000000E+00  0.00000000000E+00  0.24261021217E+03  0.24261021217E+03  0.00000000000E+00 0.  1.
          1   -1    0    0  501    0  0.00000000000E+00 -0.00000000000E+00 -0.20278970006E+04  0.20278970006E+04  0.00000000000E+00 0. -1.
         23    2    1    2    0    0 -0.26817841302E+03  0.18579290960E+03 -0.14872758835E+04  0.15253309152E+04  0.90587972324E+02 0.  0.
    5000000    2    1    2    0    0  0.26817841302E+03 -0.18579290960E+03 -0.29801090492E+03  0.74517629757E+03  0.60003212293E+03 0.  0.
         23    2    4    4    0    0 -0.29248546795E+02 -0.14994296220E+03 -0.38188190661E+03  0.42086028255E+03  0.89169599247E+02 0.  0.
         23    2    4    4    0    0  0.29742695981E+03 -0.35849947404E+02  0.83871001694E+02  0.32431601502E+03  0.91643425956E+02 0.  0.
          3    1    3    3  502    0 -0.13907759349E+03  0.52220575877E+02 -0.78295154052E+03  0.79692074910E+03  0.00000000000E+00 0. -1.
         -3    1    3    3    0  502 -0.12910081953E+03  0.13357233372E+03 -0.70432434298E+03  0.72841016609E+03  0.00000000000E+00 0.  1.
         13    1    5    5    0    0 -0.37640020116E+02 -0.13303617985E+02 -0.81354387055E+02  0.90621706334E+02  0.00000000000E+00 0.  1.
        -13    1    5    5    0    0  0.83914733206E+01 -0.13663934421E+03 -0.30052751956E+03  0.33023857622E+03  0.00000000000E+00 0. -1.
          5    1    6    6  503    0  0.20759515262E+03  0.76354102225E+01  0.27510527363E+02  0.20960192270E+03  0.47000000000E+01 0. -1.
         -5    1    6    6    0  503  0.89831807186E+02 -0.43485357626E+02  0.56360474332E+02  0.11471409232E+03  0.47000000000E+01 0.  1.
<mgrwt>
<rscale>  0 0.40942229E+03</rscale>
<asrwt>0</asrwt>
<pdfrwt beam="1">  1        1 0.31198415E+00 0.40942229E+03</pdfrwt>
<pdfrwt beam="2">  1       -1 0.37324648E-01 0.40942229E+03</pdfrwt>
<totfact> 0.21886085E+01</totfact>
</mgrwt>
</event>
<event>
12    1  0.3127365E-008  0.1573650E+04  0.7818608E-02  0.8836901E-01
         -2   -1    0    0    0  501 -0.00000000000E+00  0.00000000000E+00  0.15906733091E+04  0.15906733091E+04  0.00000000000E+00 0.  1.
          2   -1    0    0  501    0  0.00000000000E+00 -0.00000000000E+00 -0.23946329004E+04  0.23946329004E+04  0.00000000000E+00 0. -1.
         23    2    1    2    0    0 -0.44087309940E+02 -0.15291165550E+04  0.76555260986E+03  0.17129752018E+04  0.89844944036E+02 0.  0.
    5000000    2    1    2    0    0  0.44087309940E+02  0.15291165550E+04 -0.15695122011E+04  0.22723310077E+04  0.59998210769E+03 0.  0.
         23    2    4    4    0    0 -0.17434181764E+03  0.19185859959E+03 -0.36422526814E+03  0.45654773251E+03  0.92579665656E+02 0.  0.
         23    2    4    4    0    0  0.21842912758E+03  0.13372579554E+04 -0.12052869330E+04  0.18157832752E+04  0.91554293638E+02 0.  0.
          2    1    3    3  502    0  0.26865175821E+02 -0.52855011022E+03  0.25627204130E+03  0.58801557449E+03  0.00000000000E+00 0. -1.
         -2    1    3    3    0  502 -0.70952485761E+02 -0.10005664447E+04  0.50928056856E+03  0.11249596273E+04  0.00000000000E+00 0.  1.
         11    1    5    5    0    0 -0.11524449605E+03  0.11599645079E+03 -0.29758910978E+03  0.33955227687E+03  0.00000000000E+00 0.  1.
        -11    1    5    5    0    0 -0.59097321592E+02  0.75862148801E+02 -0.66636158354E+02  0.11699545564E+03  0.00000000000E+00 0. -1.
          5    1    6    6  503    0  0.20715718333E+03  0.12262777865E+04 -0.10720046311E+04  0.16419157492E+04  0.47000000000E+01 0. -1.
         -5    1    6    6    0  503  0.11271944255E+02  0.11098016882E+03 -0.13328230189E+03  0.17386752600E+03  0.47000000000E+01 0.  1.
<mgrwt>
<rscale>  0 0.15736500E+04</rscale>
<asrwt>0</asrwt>
<pdfrwt beam="1">  1        2 0.36840506E+00 0.15736500E+04</pdfrwt>
<pdfrwt beam="2">  1       -2 0.24471897E+00 0.15736500E+04</pdfrwt>
<totfact> 0.25780634E-01</totfact>
</mgrwt>
</event>
<event>
12    1  0.3127365E-008  0.5483923E+03  0.7818608E-02  0.1001867E+00
          1   -1    0    0  501    0  0.00000000000E+00  0.00000000000E+00  0.57497033839E+03  0.57497033839E+03  0.00000000000E+00 0. -1.
         -1   -1    0    0    0  501 -0.00000000000E+00 -0.00000000000E+00 -0.74301015275E+03  0.74301015275E+03  0.00000000000E+00 0.  1.
         23    2    1    2    0    0  0.14440233793E+03  0.37219712896E+03  0.25501203055E+03  0.48205708656E+03  0.89247750481E+02 0.  0.
    5000000    2    1    2    0    0 -0.14440233793E+03 -0.37219712896E+03 -0.42305184491E+03  0.83592340458E+03  0.60034351569E+03 0.  0.
         23    2    4    4    0    0  0.13691390010E+03 -0.37398025434E+03 -0.33303079991E+03  0.52698753853E+03  0.90552224719E+02 0.  0.
         23    2    4    4    0    0 -0.28131623803E+03  0.17831253795E+01 -0.90021045004E+02  0.30893586604E+03  0.90529417705E+02 0.  0.
          1    1    3    3  502    0  0.43544848345E+02  0.35705812252E+02  0.50134183584E+02  0.75395591447E+02  0.00000000000E+00 0. -1.
         -1    1    3    3    0  502  0.10085748958E+03  0.33649131671E+03  0.20487784697E+03  0.40666149511E+03  0.00000000000E+00 0.  1.
         13    1    5    5    0    0  0.33203703398E+02 -0.21305020696E+03 -0.19765946843E+03  0.29251007173E+03  0.00000000000E+00 0. -1.
        -13    1    5    5    0    0  0.10371019670E+03 -0.16093004738E+03 -0.13537133148E+03  0.23447746680E+03  0.00000000000E+00 0.  1.
          5    1    6    6  503    0 -0.21551070749E+03  0.89965033946E+01 -0.10642758093E+03  0.24057165689E+03  0.47000000000E+01 0. -1.
         -5    1    6    6    0  503 -0.65805530539E+02 -0.72133780151E+01  0.16406535929E+02  0.68364209153E+02  0.47000000000E+01 0.  1.
<mgrwt>
<rscale>  0 0.54839234E+03</rscale>
<asrwt>0</asrwt>
<pdfrwt beam="1">  1        1 0.88456975E-01 0.54839234E+03</pdfrwt>
<pdfrwt beam="2">  1       -1 0.11430925E+00 0.54839234E+03</pdfrwt>
<totfact> 0.26628008E+01</totfact>
</mgrwt>
</event>
<event>
12    1  0.3127365E-008  0.6604136E+03  0.7818608E-02  0.9787433E-01
          1   -1    0    0  501    0  0.00000000000E+00  0.00000000000E+00  0.17480930520E+04  0.17480930520E+04  0.00000000000E+00 0. -1.
         -1   -1    0    0    0  501 -0.00000000000E+00 -0.00000000000E+00 -0.37580932000E+03  0.37580932000E+03  0.00000000000E+00 0.  1.
         23    2    1    2    0    0  0.60447529239E+03  0.38057225008E+02  0.10438850096E+04  0.12102250096E+04  0.90055144720E+02 0.  0.
    5000000    2    1    2    0    0 -0.60447529239E+03 -0.38057225008E+02  0.32839872242E+03  0.91367736242E+03  0.60010154993E+03 0.  0.
         23    2    4    4    0    0 -0.60017130240E+03  0.10920463935E+02  0.41261987100E+02  0.60861643399E+03  0.91578181822E+02 0.  0.
         23    2    4    4    0    0 -0.43039899990E+01 -0.48977688944E+02  0.28713673532E+03  0.30506092844E+03  0.90539090698E+02 0.  0.
          3    1    3    3  502    0  0.46345429406E+03  0.67283259801E+02  0.79850945200E+03  0.92570744011E+03  0.00000000000E+00 0. -1.
         -3    1    3    3    0  502  0.14102099834E+03 -0.29226034793E+02  0.24537555756E+03  0.28451756945E+03  0.00000000000E+00 0.  1.
         11    1    5    5    0    0 -0.51351572857E+03  0.41789020772E+02  0.36459918257E+02  0.51650174384E+03  0.00000000000E+00 0. -1.
        -11    1    5    5    0    0 -0.86655573821E+02 -0.30868556836E+02  0.48020688430E+01  0.92114690145E+02  0.00000000000E+00 0.  1.
          5    1    6    6  503    0 -0.98731005364E+01  0.24828089855E+02  0.10391704730E+03  0.10739997616E+03  0.47000000000E+01 0. -1.
         -5    1    6    6    0  503  0.55691105374E+01 -0.73805778798E+02  0.18321968803E+03  0.19766095228E+03  0.47000000000E+01 0.  1.
<mgrwt>
<rscale>  0 0.66041362E+03</rscale>
<asrwt>0</asrwt>
<pdfrwt beam="1">  1        1 0.26893739E+00 0.66041362E+03</pdfrwt>
<pdfrwt beam="2">  1       -1 0.57816819E-01 0.66041362E+03</pdfrwt>
<totfact> 0.14124289E+01</totfact>
</mgrwt>
</event>
<event>
12    1  0.3127365E-008  0.5492224E+03  0.7818608E-02  0.1001674E+00
         -1   -1    0    0    0  501 -0.00000000000E+00  0.00000000000E+00  0.27288792509E+03  0.27288792509E+03  0.00000000000E+00 0.  1.
          1   -1    0    0  501    0  0.00000000000E+00 -0.00000000000E+00 -0.24297956621E+04  0.24297956621E+04  0.00000000000E+00 0. -1.
         23    2    1    2    0    0  0.43909581138E+03  0.11886617944E+03 -0.52068141460E+02  0.46719881015E+03  0.92894222994E+02 0.  0.
    5000000    2    1    2    0    0 -0.43909581138E+03 -0.11886617944E+03 -0.21048395955E+04  0.22354847770E+04  0.60009013093E+03 0.  0.
         23    2    4    4    0    0 -0.20869635655E+03  0.16566984008E+03 -0.39757856863E+03  0.48694932318E+03  0.89723240938E+02 0.  0.
         23    2    4    4    0    0 -0.23039945482E+03 -0.28453601951E+03 -0.17072610269E+04  0.17485354538E+04  0.92689612210E+02 0.  0.
          3    1    3    3  502    0  0.27895913856E+03  0.32103773273E+02 -0.14107649828E+02  0.28115454652E+03  0.00000000000E+00 0. -1.
         -3    1    3    3    0  502  0.16013667281E+03  0.86762406163E+02 -0.37960491632E+02  0.18604426363E+03  0.00000000000E+00 0.  1.
         11    1    5    5    0    0 -0.14092791980E+03  0.10223352667E+03 -0.32655657752E+03  0.37006968381E+03  0.00000000000E+00 0.  1.
        -11    1    5    5    0    0 -0.67768436747E+02  0.63436313408E+02 -0.71021991111E+02  0.11687963937E+03  0.00000000000E+00 0. -1.
          5    1    6    6  503    0 -0.20394745616E+02 -0.47253432535E+02 -0.13286766178E+03  0.14256485571E+03  0.47000000000E+01 0. -1.
         -5    1    6    6    0  503 -0.21000470921E+03 -0.23728258698E+03 -0.15743933651E+04  0.16059705981E+04  0.47000000000E+01 0.  1.
<mgrwt>
<rscale>  0 0.54922243E+03</rscale>
<asrwt>0</asrwt>
<pdfrwt beam="1">  1        1 0.37381470E+00 0.54922243E+03</pdfrwt>
<pdfrwt beam="2">  1       -1 0.41982759E-01 0.54922243E+03</pdfrwt>
<totfact> 0.92477841E+00</totfact>
</mgrwt>
</event>
<event>
12    1  0.3127365E-008  0.8949755E+03  0.7818608E-02  0.9431884E-01
         -2   -1    0    0    0  501 -0.00000000000E+00  0.00000000000E+00  0.39925539905E+03  0.39925539905E+03  0.00000000000E+00 0.  1.
          2   -1    0    0  501    0  0.00000000000E+00 -0.00000000000E+00 -0.21386750903E+04  0.21386750903E+04  0.00000000000E+00 0. -1.
         23    2    1    2    0    0 -0.65624129678E+03  0.48728900599E+03 -0.92297995217E+03  0.12361683756E+04  0.90094648435E+02 0.  0.
    5000000    2    1    2    0    0  0.65624129678E+03 -0.48728900599E+03 -0.81643973905E+03  0.13017621138E+04  0.59992294371E+03 0.  0.
         23    2    4    4    0    0  0.67542776267E+03 -0.25855491436E+03 -0.75102279657E+03  0.10466105923E+04  0.91132785733E+02 0.  0.
         23    2    4    4    0    0 -0.19186465896E+02 -0.22873409163E+03 -0.65416942479E+02  0.25515152146E+03  0.90197103013E+02 0.  0.
          1    1    3    3  502    0 -0.27026132328E+03  0.18559200924E+03 -0.30721177539E+03  0.44929350284E+03  0.00000000000E+00 0. -1.
         -1    1    3    3    0  502 -0.38597997350E+03  0.30169699675E+03 -0.61576817678E+03  0.78687487272E+03  0.00000000000E+00 0.  1.
         11    1    5    5    0    0  0.59171931435E+03 -0.19776418071E+03 -0.61878484970E+03  0.87871332547E+03  0.00000000000E+00 0. -1.
        -11    1    5    5    0    0  0.83708448323E+02 -0.60790733651E+02 -0.13223794686E+03  0.16789726683E+03  0.00000000000E+00 0.  1.
          5    1    6    6  503    0  0.29649173989E+02 -0.14262607048E+03 -0.23877304766E+02  0.14769389013E+03  0.47000000000E+01 0. -1.
         -5    1    6    6    0  503 -0.48835639885E+02 -0.86108021149E+02 -0.41539637714E+02  0.10745763133E+03  0.47000000000E+01 0.  1.
<mgrwt>
<rscale>  0 0.89497548E+03</rscale>
<asrwt>0</asrwt>
<pdfrwt beam="1">  1        2 0.32902694E+00 0.89497548E+03</pdfrwt>
<pdfrwt beam="2">  1       -2 0.61423907E-01 0.89497548E+03</pdfrwt>
<totfact> 0.14021610E+01</totfact>
</mgrwt>
</event>
<event>
12    1  0.3127365E-008  0.7761687E+03  0.7818608E-02  0.9595167E-01
         -1   -1    0    0    0  501 -0.00000000000E+00  0.00000000000E+00  0.21767549787E+03  0.21767549787E+03  0.00000000000E+00 0.  1.
          1   -1    0    0  501    0  0.00000000000E+00 -0.00000000000E+00 -0.32430459226E+04  0.32430459226E+04  0.00000000000E+00 0. -1.
         23    2    1    2    0    0  0.53164285259E+03 -0.48677546558E+03 -0.15605951495E+04  0.17213937455E+04  0.90248155377E+02 0.  0.
    5000000    2    1    2    0    0 -0.53164285259E+03  0.48677546558E+03 -0.14647752752E+04  0.17393276750E+04  0.60008305897E+03 0.  0.
         23    2    4    4    0    0  0.35864510973E+02  0.98478787226E+02 -0.23987154456E+02  0.14022683884E+03  0.90021375636E+02 0.  0.
         23    2    4    4    0    0 -0.56750736357E+03  0.38829667835E+03 -0.14407881207E+04  0.15991008362E+04  0.91728715701E+02 0.  0.
          1    1    3    3  502    0  0.37567385847E+03 -0.39054573459E+03 -0.12094038776E+04  0.13252601849E+04  0.00000000000E+00 0. -1.
         -1    1    3    3    0  502  0.15596899412E+03 -0.96229730988E+02 -0.35119127199E+03  0.39613356052E+03  0.00000000000E+00 0.  1.
         13    1    5    5    0    0  0.26626514052E+02 -0.74334708157E+01  0.87329924096E+01  0.28991255498E+02  0.00000000000E+00 0. -1.
        -13    1    5    5    0    0  0.92379969215E+01  0.10591225804E+03 -0.32720146866E+02  0.11123558334E+03  0.00000000000E+00 0.  1.
          5    1    6    6  503    0 -0.40423275121E+03  0.22690824051E+03 -0.99211341866E+03  0.10950810893E+04  0.47000000000E+01 0. -1.
         -5    1    6    6    0  503 -0.16327461236E+03  0.16138843785E+03 -0.44867470206E+03  0.50401974681E+03  0.47000000000E+01 0.  1.
<mgrwt>
<rscale>  0 0.77616873E+03</rscale>
<asrwt>0</asrwt>
<pdfrwt beam="1">  1        1 0.49893011E+00 0.77616873E+03</pdfrwt>
<pdfrwt beam="2">  1       -1 0.33488540E-01 0.77616873E+03</pdfrwt>
<totfact> 0.35448603E+00</totfact>
</mgrwt>
</event>
<event>
12    1  0.3127365E-008  0.3700398E+03  0.7818608E-02  0.1054678E+00
         -1   -1    0    0    0  501 -0.00000000000E+00  0.00000000000E+00  0.35042123373E+03  0.35042123373E+03  0.00000000000E+00 0.  1.
          1   -1    0    0  501    0  0.00000000000E+00 -0.00000000000E+00 -0.10438284198E+04  0.10438284198E+04  0.00000000000E+00 0. -1.
         23    2    1    2    0    0 -0.93511908396E+02 -0.24932375932E+03  0.15441765947E+03  0.32168952373E+03  0.93447964905E+02 0.  0.
    5000000    2    1    2    0    0  0.93511908396E+02  0.24932375932E+03 -0.84782484555E+03  0.10725601298E+04  0.60055928046E+03 0.  0.
         23    2    4    4    0    0 -0.15961882130E+02 -0.84671384637E+02 -0.64494236013E+03  0.65687897246E+03  0.90085023806E+02 0.  0.
         23    2    4    4    0    0  0.10947379053E+03  0.33399514396E+03 -0.20288248542E+03  0.41568115735E+03  0.89956960160E+02 0.  0.
          4    1    3    3  502    0 -0.48673376683E+02 -0.11737702248E+03  0.12701372080E+03  0.17966343054E+03  0.00000000000E+00 0. -1.
         -4    1    3    3    0  502 -0.44838531713E+02 -0.13194673685E+03  0.27403938669E+02  0.14202609318E+03  0.00000000000E+00 0.  1.
         13    1    5    5    0    0  0.18976609208E+02  0.76438058096E+01 -0.20403593154E+03  0.20505901791E+03  0.00000000000E+00 0. -1.
        -13    1    5    5    0    0 -0.34938491338E+02 -0.92315190447E+02 -0.44090642859E+03  0.45181995456E+03  0.00000000000E+00 0.  1.
          5    1    6    6  503    0  0.94264015257E+02  0.22002698448E+03 -0.93839911820E+02  0.25714897924E+03  0.47000000000E+01 0. -1.
         -5    1    6    6    0  503  0.15209775269E+02  0.11396815948E+03 -0.10904257360E+03  0.15853217811E+03  0.47000000000E+01 0.  1.
<mgrwt>
<rscale>  0 0.37003983E+03</rscale>
<asrwt>0</asrwt>
<pdfrwt beam="1">  1        1 0.16058899E+00 0.37003983E+03</pdfrwt>
<pdfrwt beam="2">  1       -1 0.53910959E-01 0.37003983E+03</pdfrwt>
<totfact> 0.52484538E+01</totfact>
</mgrwt>
</event>
<event>
12    1  0.3127365E-008  0.6636607E+03  0.7818608E-02  0.9781478E-01
          2   -1    0    0  501    0  0.00000000000E+00  0.00000000000E+00  0.11679477135E+04  0.11679477135E+04  0.00000000000E+00 0. -1.
         -2   -1    0    0    0  501 -0.00000000000E+00 -0.00000000000E+00 -0.48956440701E+03  0.48956440701E+03  0.00000000000E+00 0.  1.
         23    2    1    2    0    0  0.44479816206E+03 -0.39611091153E+03  0.52372198008E+03  0.79815470662E+03  0.89537500927E+02 0.  0.
    5000000    2    1    2    0    0 -0.44479816206E+03  0.39611091153E+03  0.15466132643E+03  0.85935741390E+03  0.59985479888E+03 0.  0.
         23    2    4    4    0    0 -0.25173277298E+03 -0.15434153026E+02  0.27101379801E+03  0.38134080238E+03  0.91458880220E+02 0.  0.
         23    2    4    4    0    0 -0.19306538908E+03  0.41154506456E+03 -0.11635247158E+03  0.47801661153E+03  0.91205255501E+02 0.  0.
          3    1    3    3  502    0  0.11464498234E+03 -0.62773579507E+02  0.85675257104E+02  0.15628257721E+03  0.00000000000E+00 0. -1.
         -3    1    3    3    0  502  0.33015317972E+03 -0.33333733203E+03  0.43804672297E+03  0.64187212941E+03  0.00000000000E+00 0.  1.
         11    1    5    5    0    0 -0.83961011521E+02 -0.46722471246E+02  0.78539863388E+02  0.12410056775E+03  0.00000000000E+00 0.  1.
        -11    1    5    5    0    0 -0.16777176146E+03  0.31288318220E+02  0.19247393462E+03  0.25724023463E+03  0.00000000000E+00 0. -1.
          5    1    6    6  503    0 -0.60924203182E+02  0.62302572395E+02 -0.13585205706E+01  0.87277171348E+02  0.47000000000E+01 0. -1.
         -5    1    6    6    0  503 -0.13214118590E+03  0.34924249216E+03 -0.11499395101E+03  0.39073944018E+03  0.47000000000E+01 0.  1.
<mgrwt>
<rscale>  0 0.66366067E+03</rscale>
<asrwt>0</asrwt>
<pdfrwt beam="1">  1        2 0.17968426E+00 0.66366067E+03</pdfrwt>
<pdfrwt beam="2">  1       -2 0.75317601E-01 0.66366067E+03</pdfrwt>
<totfact> 0.32190145E+01</totfact>
</mgrwt>
</event>
<event>
12    1  0.3127365E-008  0.9579285E+03  0.7818608E-02  0.9355931E-01
         -2   -1    0    0    0  501 -0.00000000000E+00  0.00000000000E+00  0.39691559027E+03  0.39691559027E+03  0.00000000000E+00 0.  1.
          2   -1    0    0  501    0  0.00000000000E+00 -0.00000000000E+00 -0.34231116857E+04  0.34231116857E+04  0.00000000000E+00 0. -1.
         23    2    1    2    0    0  0.90556472064E+03 -0.43290439053E+02 -0.23964714664E+04  0.25635946074E+04  0.83787209249E+02 0.  0.
    5000000    2    1    2    0    0 -0.90556472064E+03  0.43290439053E+02 -0.62972462904E+03  0.12564326686E+04  0.60012366797E+03 0.  0.
         23    2    4    4    0    0 -0.95074689448E+03  0.35457751187E+02 -0.64924185908E+03  0.11555749491E+04  0.93067513161E+02 0.  0.
         23    2    4    4    0    0  0.45182173846E+02  0.78326878660E+01  0.19517230042E+02  0.10085771943E+03  0.87684533803E+02 0.  0.
          1    1    3    3  502    0  0.35542444902E+03  0.75809108153E+01 -0.84758059908E+03  0.91911744685E+03  0.00000000000E+00 0. -1.
         -1    1    3    3    0  502  0.55014027162E+03 -0.50871349868E+02 -0.15488908673E+04  0.16444771605E+04  0.00000000000E+00 0.  1.
         11    1    5    5    0    0 -0.61775151258E+03 -0.10353445354E+02 -0.38457656876E+03  0.72775219846E+03  0.00000000000E+00 0.  1.
        -11    1    5    5    0    0 -0.33299538190E+03  0.45811196541E+02 -0.26466529032E+03  0.42782275067E+03  0.00000000000E+00 0. -1.
          5    1    6    6  503    0  0.34849657014E+02 -0.63443744687E+01 -0.30918048877E+02  0.47252147335E+02  0.47000000000E+01 0. -1.
         -5    1    6    6    0  503  0.10332516832E+02  0.14177062335E+02  0.50435278919E+02  0.53605572100E+02  0.47000000000E+01 0.  1.
<mgrwt>
<rscale>  0 0.95792852E+03</rscale>
<asrwt>0</asrwt>
<pdfrwt beam="1">  1        2 0.52663258E+00 0.95792852E+03</pdfrwt>
<pdfrwt beam="2">  1       -2 0.61063935E-01 0.95792852E+03</pdfrwt>
<totfact> 0.23889190E+00</totfact>
</mgrwt>
</event>
<event>
12    1  0.3127365E-008  0.8817287E+03  0.7818608E-02  0.9448714E-01
         -2   -1    0    0    0  501 -0.00000000000E+00  0.00000000000E+00  0.15586756544E+04  0.15586756544E+04  0.00000000000E+00 0. -1.
          2   -1    0    0  501    0  0.00000000000E+00 -0.00000000000E+00 -0.58672703020E+03  0.58672703020E+03  0.00000000000E+00 0.  1.
         23    2    1    2    0    0  0.83153775463E+03  0.19604130134E+03  0.33335760587E+03  0.92149499952E+03  0.90213699357E+02 0.  0.
    5000000    2    1    2    0    0 -0.83153775463E+03 -0.19604130134E+03  0.63859101838E+03  0.12239076851E+04  0.60022021271E+03 0.  0.
         23    2    4    4    0    0 -0.52996873911E+03 -0.24777027780E+03  0.68035163153E+03  0.90204302844E+03  0.92446241891E+02 0.  0.
         23    2    4    4    0    0 -0.30156901552E+03  0.51728976460E+02 -0.41760613142E+02  0.32186465669E+03  0.90736708597E+02 0.  0.
          2    1    3    3  502    0  0.40458288002E+02 -0.95754403157E+01  0.19804890265E+02  0.46052098798E+02  0.00000000000E+00 0. -1.
         -2    1    3    3    0  502  0.79107946663E+03  0.20561674166E+03  0.31355271560E+03  0.87544290073E+03  0.00000000000E+00 0.  1.
         11    1    5    5    0    0 -0.10674257057E+02 -0.20840379414E+02  0.44591825788E+02  0.50365584529E+02  0.00000000000E+00 0. -1.
        -11    1    5    5    0    0 -0.51929448206E+03 -0.22692989839E+03  0.63575980574E+03  0.85167744391E+03  0.00000000000E+00 0.  1.
          5    1    6    6  503    0 -0.84475417117E+02 -0.17654612722E+02  0.13049310266E+02  0.87407985596E+02  0.47000000000E+01 0. -1.
         -5    1    6    6    0  503 -0.21709359840E+03  0.69383589182E+02 -0.54809923408E+02  0.23445667109E+03  0.47000000000E+01 0.  1.
<mgrwt>
<rscale>  0 0.88172870E+03</rscale>
<asrwt>0</asrwt>
<pdfrwt beam="1">  1        2 0.90265698E-01 0.88172870E+03</pdfrwt>
<pdfrwt beam="2">  1       -2 0.23979625E+00 0.88172870E+03</pdfrwt>
<totfact> 0.38261930E+00</totfact>
</mgrwt>
</event>
<event>
12    1  0.3127365E-008  0.5615534E+03  0.7818608E-02  0.9988546E-01
          2   -1    0    0  501    0  0.00000000000E+00  0.00000000000E+00  0.12095940027E+04  0.12095940027E+04  0.00000000000E+00 0. -1.
         -2   -1    0    0    0  501 -0.00000000000E+00 -0.00000000000E+00 -0.40719255017E+03  0.40719255017E+03  0.00000000000E+00 0.  1.
         23    2    1    2    0    0  0.42816167453E+03 -0.31338901620E+03  0.92163456263E+02  0.54667006143E+03  0.93909309337E+02 0.  0.
    5000000    2    1    2    0    0 -0.42816167453E+03  0.31338901620E+03  0.71023799630E+03  0.10701164915E+04  0.59931310589E+03 0.  0.
         23    2    4    4    0    0 -0.37477976818E+03  0.30589919272E+03  0.79472511288E+03  0.93468673016E+03  0.89538191615E+02 0.  0.
         23    2    4    4    0    0 -0.53381906355E+02  0.74898234874E+01 -0.84487116582E+02  0.13542976130E+03  0.91090186055E+02 0.  0.
          3    1    3    3  502    0  0.33920969287E+03 -0.27304744119E+03  0.43710795485E+02  0.43763998277E+03  0.00000000000E+00 0. -1.
         -3    1    3    3    0  502  0.88951981663E+02 -0.40341575010E+02  0.48452660778E+02  0.10903007866E+03  0.00000000000E+00 0.  1.
         11    1    5    5    0    0 -0.14265717788E+03  0.10446132519E+03  0.37370218297E+03  0.41342056119E+03  0.00000000000E+00 0. -1.
        -11    1    5    5    0    0 -0.23212259030E+03  0.20143786752E+03  0.42102292991E+03  0.52126616897E+03  0.00000000000E+00 0.  1.
          5    1    6    6  503    0 -0.23793802401E+02  0.48977816695E+02 -0.42430072349E+02  0.69190841883E+02  0.47000000000E+01 0. -1.
         -5    1    6    6    0  503 -0.29588103954E+02 -0.41487993208E+02 -0.42057044233E+02  0.66238919418E+02  0.47000000000E+01 0.  1.
<mgrwt>
<rscale>  0 0.56155339E+03</rscale>
<asrwt>0</asrwt>
<pdfrwt beam="1">  1        2 0.18609138E+00 0.56155339E+03</pdfrwt>
<pdfrwt beam="2">  1       -2 0.62645008E-01 0.56155339E+03</pdfrwt>
<totfact> 0.45921818E+01</totfact>
</mgrwt>
</event>
<event>
12    1  0.3127365E-008  0.9207568E+03  0.7818608E-02  0.9400000E-01
         -2   -1    0    0    0  501 -0.00000000000E+00  0.00000000000E+00  0.14379266464E+04  0.14379266464E+04  0.00000000000E+00 0.  1.
          2   -1    0    0  501    0  0.00000000000E+00 -0.00000000000E+00 -0.78093474154E+03  0.78093474154E+03  0.00000000000E+00 0. -1.
         23    2    1    2    0    0 -0.69906886150E+03  0.50253896003E+03 -0.17055811274E+03  0.88240900151E+03  0.91175087870E+02 0.  0.
    5000000    2    1    2    0    0  0.69906886150E+03 -0.50253896003E+03  0.82755001755E+03  0.13364523864E+04  0.60001939140E+03 0.  0.
         23    2    4    4    0    0  0.70747124731E+03 -0.52943658436E+03  0.85900577202E+03  0.12357591238E+04  0.91602582822E+02 0.  0.
         23    2    4    4    0    0 -0.84023858049E+01  0.26897624329E+02 -0.31455754461E+02  0.10069326254E+03  0.91408896457E+02 0.  0.
          1    1    3    3  502    0 -0.46414282140E+03  0.37448365112E+03 -0.14412837648E+03  0.61354669954E+03  0.00000000000E+00 0. -1.
         -1    1    3    3    0  502 -0.23492604011E+03  0.12805530891E+03 -0.26429736264E+02  0.26886230197E+03  0.00000000000E+00 0.  1.
         11    1    5    5    0    0  0.31228510844E+03 -0.18516608473E+03  0.32007013591E+03  0.48399727251E+03  0.00000000000E+00 0.  1.
        -11    1    5    5    0    0  0.39518613887E+03 -0.34427049963E+03  0.53893563610E+03  0.75176185134E+03  0.00000000000E+00 0. -1.
          5    1    6    6  503    0  0.49012783868E+01 -0.30528375324E+02 -0.27128708676E+02  0.41401220564E+02  0.47000000000E+01 0. -1.
         -5    1    6    6    0  503 -0.13303664192E+02  0.57425999653E+02 -0.43270457848E+01  0.59292041981E+02  0.47000000000E+01 0.  1.
<mgrwt>
<rscale>  0 0.92075680E+03</rscale>
<asrwt>0</asrwt>
<pdfrwt beam="1">  1        2 0.12014381E+00 0.92075680E+03</pdfrwt>
<pdfrwt beam="2">  1       -2 0.22121948E+00 0.92075680E+03</pdfrwt>
<totfact> 0.34645734E+00</totfact>
</mgrwt>
</event>
<event>
12    1  0.3127365E-008  0.3664890E+03  0.7818608E-02  0.1056044E+00
         -3   -1    0    0    0  501 -0.00000000000E+00  0.00000000000E+00  0.15071017448E+03  0.15071017448E+03  0.00000000000E+00 0.  1.
          3   -1    0    0  501    0  0.00000000000E+00 -0.00000000000E+00 -0.11822235252E+04  0.11822235252E+04  0.00000000000E+00 0. -1.
         23    2    1    2    0    0  0.14010098099E+03  0.13326465541E+03 -0.16128407371E+03  0.25830149261E+03  0.57613847246E+02 0.  0.
    5000000    2    1    2    0    0 -0.14010098099E+03 -0.13326465541E+03 -0.87022927700E+03  0.10746322071E+04  0.60012301460E+03 0.  0.
         23    2    4    4    0    0 -0.23406377328E+03  0.99686230649E+02 -0.71634288358E+03  0.76589103418E+03  0.93374272846E+02 0.  0.
         23    2    4    4    0    0  0.93962792296E+02 -0.23295088606E+03 -0.15388639342E+03  0.30874117288E+03  0.92438996642E+02 0.  0.
          3    1    3    3  502    0  0.11411924503E+03  0.75790293635E+02 -0.12546898914E+03  0.18576823715E+03  0.00000000000E+00 0. -1.
         -3    1    3    3    0  502  0.25981735956E+02  0.57474361780E+02 -0.35815084563E+02  0.72533255460E+02  0.00000000000E+00 0.  1.
         13    1    5    5    0    0 -0.83627172129E+02 -0.36559947325E+01 -0.29658292814E+03  0.30816927731E+03  0.00000000000E+00 0. -1.
        -13    1    5    5    0    0 -0.15043660116E+03  0.10334222538E+03 -0.41975995544E+03  0.45772175687E+03  0.00000000000E+00 0.  1.
          5    1    6    6  503    0  0.82209983717E+02 -0.85528030346E+02 -0.81595942789E+02  0.14406079716E+03  0.47000000000E+01 0. -1.
         -5    1    6    6    0  503  0.11752808579E+02 -0.14742285572E+03 -0.72290450626E+02  0.16468037573E+03  0.47000000000E+01 0.  1.
<mgrwt>
<rscale>  0 0.36648896E+03</rscale>
<asrwt>0</asrwt>
<pdfrwt beam="1">  1        3 0.18188055E+00 0.36648896E+03</pdfrwt>
<pdfrwt beam="2">  1       -3 0.23186180E-01 0.36648896E+03</pdfrwt>
<totfact> 0.89032642E+00</totfact>
</mgrwt>
</event>
<event>
12    1  0.3127365E-008  0.1379291E+04  0.7818608E-02  0.8968947E-01
         -2   -1    0    0    0  501 -0.00000000000E+00  0.00000000000E+00  0.65548782888E+03  0.65548782888E+03  0.00000000000E+00 0.  1.
          2   -1    0    0  501    0  0.00000000000E+00 -0.00000000000E+00 -0.31661086069E+04  0.31661086069E+04  0.00000000000E+00 0. -1.
         23    2    1    2    0    0 -0.39365846914E+02 -0.13215801382E+04 -0.69548648473E+03  0.14968715331E+04  0.93804075893E+02 0.  0.
    5000000    2    1    2    0    0  0.39365846914E+02  0.13215801382E+04 -0.18151342932E+04  0.23247249026E+04  0.60125671638E+03 0.  0.
         23    2    4    4    0    0  0.28331528650E+03  0.66310484589E+03 -0.10996085469E+04  0.13180710868E+04  0.90536430653E+02 0.  0.
         23    2    4    4    0    0 -0.24394943959E+03  0.65847529227E+03 -0.71552574631E+03  0.10066538158E+04  0.90960275039E+02 0.  0.
          1    1    3    3  502    0 -0.15343486059E+01 -0.11326169429E+04 -0.58613281833E+03  0.12752941521E+04  0.00000000000E+00 0. -1.
         -1    1    3    3    0  502 -0.37831498308E+02 -0.18896319527E+03 -0.10935366640E+03  0.22157738103E+03  0.00000000000E+00 0.  1.
         13    1    5    5    0    0  0.77314061470E+02  0.28407726736E+03 -0.47945079949E+03  0.56262814279E+03  0.00000000000E+00 0. -1.
        -13    1    5    5    0    0  0.20600122503E+03  0.37902757854E+03 -0.62015774744E+03  0.75544294405E+03  0.00000000000E+00 0.  1.
          5    1    6    6  503    0 -0.14297301002E+03  0.26442600597E+03 -0.28318701769E+03  0.41301255576E+03  0.47000000000E+01 0. -1.
         -5    1    6    6    0  503 -0.10097642957E+03  0.39404928630E+03 -0.43233872862E+03  0.59364126004E+03  0.47000000000E+01 0.  1.
<mgrwt>
<rscale>  0 0.13792905E+04</rscale>
<asrwt>0</asrwt>
<pdfrwt beam="1">  1        2 0.48709363E+00 0.13792905E+04</pdfrwt>
<pdfrwt beam="2">  1       -2 0.10084428E+00 0.13792905E+04</pdfrwt>
<totfact> 0.10727134E+00</totfact>
</mgrwt>
</event>
<event>
12    1  0.3127365E-008  0.1439751E+04  0.7818608E-02  0.8925537E-01
         -2   -1    0    0    0  501 -0.00000000000E+00  0.00000000000E+00  0.12312690658E+04  0.12312690658E+04  0.00000000000E+00 0. -1.
          2   -1    0    0  501    0  0.00000000000E+00 -0.00000000000E+00 -0.18478358100E+04  0.18478358100E+04  0.00000000000E+00 0.  1.
         23    2    1    2    0    0 -0.37510151414E+03  0.13774264615E+04 -0.54005094378E+03  0.15286949763E+04  0.85138157581E+02 0.  0.
    5000000    2    1    2    0    0  0.37510151414E+03 -0.13774264615E+04 -0.76515800357E+02  0.15504098995E+04  0.59992615040E+03 0.  0.
         23    2    4    4    0    0  0.13500724307E+03 -0.90555459635E+03 -0.30170413500E+03  0.96830068318E+03  0.91240042335E+02 0.  0.
         23    2    4    4    0    0  0.24009427107E+03 -0.47187186519E+03  0.22518833464E+03  0.58210921633E+03  0.88504449143E+02 0.  0.
          1    1    3    3  502    0 -0.59185014440E+02  0.12510840482E+03 -0.59315406325E+02  0.15057654637E+03  0.00000000000E+00 0. -1.
         -1    1    3    3    0  502 -0.31591649970E+03  0.12523180567E+04 -0.48073553746E+03  0.13781184299E+04  0.00000000000E+00 0.  1.
         13    1    5    5    0    0  0.12625062357E+03 -0.57085015294E+03 -0.17447653370E+03  0.61012390371E+03  0.00000000000E+00 0. -1.
        -13    1    5    5    0    0  0.87566195035E+01 -0.33470444341E+03 -0.12722760130E+03  0.35817677947E+03  0.00000000000E+00 0.  1.
          5    1    6    6  503    0  0.21047024795E+03 -0.39560657686E+03  0.15491945867E+03  0.47415653281E+03  0.47000000000E+01 0. -1.
         -5    1    6    6    0  503  0.29624023115E+02 -0.76265288329E+02  0.70268875967E+02  0.10795268352E+03  0.47000000000E+01 0.  1.
<mgrwt>
<rscale>  0 0.14397509E+04</rscale>
<asrwt>0</asrwt>
<pdfrwt beam="1">  1        2 0.28428243E+00 0.14397509E+04</pdfrwt>
<pdfrwt beam="2">  1       -2 0.18942601E+00 0.14397509E+04</pdfrwt>
<totfact> 0.12010356E+00</totfact>
</mgrwt>
</event>
<event>
12    1  0.3127365E-008  0.6573928E+03  0.7818608E-02  0.9793005E-01
          2   -1    0    0  501    0  0.00000000000E+00  0.00000000000E+00  0.23086347900E+04  0.23086347900E+04  0.00000000000E+00 0.  1.
         -2   -1    0    0    0  501 -0.00000000000E+00 -0.00000000000E+00 -0.34494914512E+03  0.34494914512E+03  0.00000000000E+00 0. -1.
         23    2    1    2    0    0  0.57892893731E+03 -0.22464691768E+03  0.15078110507E+03  0.64553568971E+03  0.91413527203E+02 0.  0.
    5000000    2    1    2    0    0 -0.57892893731E+03  0.22464691768E+03  0.18129045398E+04  0.20080482455E+04  0.60000827776E+03 0.  0.
         23    2    4    4    0    0 -0.46977835123E+03  0.28243318833E+03  0.17612509055E+04  0.18468642671E+04  0.91883970803E+02 0.  0.
         23    2    4    4    0    0 -0.10915058608E+03 -0.57786270648E+02  0.51653634389E+02  0.16118397832E+03  0.89772342078E+02 0.  0.
          1    1    3    3  502    0  0.60457799583E+02 -0.43197504438E+02 -0.52792151638E+01  0.74491878972E+02  0.00000000000E+00 0. -1.
         -1    1    3    3    0  502  0.51847113773E+03 -0.18144941324E+03  0.15606032023E+03  0.57104381073E+03  0.00000000000E+00 0.  1.
         13    1    5    5    0    0 -0.13561451662E+03  0.94959930492E+02  0.67537216791E+03  0.69536770899E+03  0.00000000000E+00 0.  1.
        -13    1    5    5    0    0 -0.33416383460E+03  0.18747325784E+03  0.10858787376E+04  0.11514965581E+04  0.00000000000E+00 0. -1.
          5    1    6    6  503    0 -0.10272653641E+03 -0.21172524897E+02  0.62488526806E+02  0.12217988000E+03  0.47000000000E+01 0. -1.
         -5    1    6    6    0  503 -0.64240496738E+01 -0.36613745750E+02 -0.10834892417E+02  0.39004098320E+02  0.47000000000E+01 0.  1.
<mgrwt>
<rscale>  0 0.65739279E+03</rscale>
<asrwt>0</asrwt>
<pdfrwt beam="1">  1        2 0.35517457E+00 0.65739279E+03</pdfrwt>
<pdfrwt beam="2">  1       -2 0.53069101E-01 0.65739279E+03</pdfrwt>
<totfact> 0.15878480E+01</totfact>
</mgrwt>
</event>
<event>
12    1  0.3127365E-008  0.4141390E+03  0.7818608E-02  0.1038991E+00
         -1   -1    0    0    0  501 -0.00000000000E+00  0.00000000000E+00  0.32691941864E+03  0.32691941864E+03  0.00000000000E+00 0.  1.
          1   -1    0    0  501    0  0.00000000000E+00 -0.00000000000E+00 -0.76381406797E+03  0.76381406797E+03  0.00000000000E+00 0. -1.
         23    2    1    2    0    0 -0.28514789909E+03 -0.79468759556E+02 -0.24465518637E+03  0.39473259971E+03  0.91285579148E+02 0.  0.
    5000000    2    1    2    0    0  0.28514789909E+03  0.79468759556E+02 -0.19223946296E+03  0.69600088690E+03  0.59986383067E+03 0.  0.
         23    2    4    4    0    0  0.26443924020E+03  0.23427806816E+03 -0.30994583388E+03  0.47960640927E+03  0.95611520696E+02 0.  0.
         23    2    4    4    0    0  0.20708658888E+02 -0.15480930861E+03  0.11770637092E+03  0.21639447763E+03  0.92612146118E+02 0.  0.
          2    1    3    3  502    0 -0.11405671986E+03 -0.67117978354E+02 -0.69132596500E+02  0.14930865435E+03  0.00000000000E+00 0. -1.
         -2    1    3    3    0  502 -0.17109117922E+03 -0.12350781202E+02 -0.17552258987E+03  0.24542394537E+03  0.00000000000E+00 0.  1.
         13    1    5    5    0    0  0.20215455431E+03  0.17902948241E+03 -0.17743853148E+03  0.32311368255E+03  0.00000000000E+00 0. -1.
        -13    1    5    5    0    0  0.62284685890E+02  0.55248585753E+02 -0.13250730240E+03  0.15649272671E+03  0.00000000000E+00 0.  1.
          5    1    6    6  503    0 -0.24057883965E+02 -0.81302966018E+02  0.22255495139E+02  0.87785825326E+02  0.47000000000E+01 0. -1.
         -5    1    6    6    0  503  0.44766542852E+02 -0.73506342589E+02  0.95450875782E+02  0.12860865230E+03  0.47000000000E+01 0.  1.
<mgrwt>
<rscale>  0 0.41413901E+03</rscale>
<asrwt>0</asrwt>
<pdfrwt beam="1">  1        1 0.11750986E+00 0.41413901E+03</pdfrwt>
<pdfrwt beam="2">  1       -1 0.50295296E-01 0.41413901E+03</pdfrwt>
<totfact> 0.99500019E+01</totfact>
</mgrwt>
</event>
<event>
12    1  0.3127365E-008  0.8113819E+03  0.7818608E-02  0.9543687E-01
          2   -1    0    0  501    0  0.00000000000E+00  0.00000000000E+00  0.21793683774E+04  0.21793683774E+04  0.00000000000E+00 0. -1.
         -2   -1    0    0    0  501 -0.00000000000E+00 -0.00000000000E+00 -0.43175430950E+03  0.43175430950E+03  0.00000000000E+00 0.  1.
         23    2    1    2    0    0  0.60435582037E+03 -0.45376951813E+03  0.13840787034E+04  0.15799642965E+04  0.97265553627E+02 0.  0.
    5000000    2    1    2    0    0 -0.60435582037E+03  0.45376951813E+03  0.36353536448E+03  0.10311583903E+04  0.59998077599E+03 0.  0.
         23    2    4    4    0    0 -0.50154080616E+03  0.13128611687E+03 -0.19237857811E+01  0.52506770460E+03  0.83145467296E+02 0.  0.
         23    2    4    4    0    0 -0.10281501420E+03  0.32248340126E+03  0.36545915026E+03  0.50609068575E+03  0.89447864474E+02 0.  0.
          1    1    3    3  502    0  0.46637270395E+03 -0.37347501844E+03  0.10143204784E+04  0.11772141357E+04  0.00000000000E+00 0. -1.
         -1    1    3    3    0  502  0.13798311641E+03 -0.80294499686E+02  0.36975822501E+03  0.40275016084E+03  0.00000000000E+00 0.  1.
         13    1    5    5    0    0 -0.32351830304E+03  0.12478262548E+03  0.51301805798E+01  0.34678684343E+03  0.00000000000E+00 0.  1.
        -13    1    5    5    0    0 -0.17802250312E+03  0.65034913958E+01 -0.70539663609E+01  0.17828086116E+03  0.00000000000E+00 0. -1.
          5    1    6    6  503    0 -0.19936957361E+02  0.12275988308E+03  0.19214096093E+03  0.22892730294E+03  0.47000000000E+01 0. -1.
         -5    1    6    6    0  503 -0.82878056844E+02  0.19972351817E+03  0.17331818933E+03  0.27716338281E+03  0.47000000000E+01 0.  1.
<mgrwt>
<rscale>  0 0.81138195E+03</rscale>
<asrwt>0</asrwt>
<pdfrwt beam="1">  1        2 0.33528744E+00 0.81138195E+03</pdfrwt>
<pdfrwt beam="2">  1       -2 0.66423741E-01 0.81138195E+03</pdfrwt>
<totfact> 0.11384015E+01</totfact>
</mgrwt>
</event>
<event>
12    1  0.3127365E-008  0.9761130E+03  0.7818608E-02  0.9335139E-01
         -2   -1    0    0    0  501 -0.00000000000E+00  0.00000000000E+00  0.52960377490E+03  0.52960377490E+03  0.00000000000E+00 0. -1.
          2   -1    0    0  501    0  0.00000000000E+00 -0.00000000000E+00 -0.20134101618E+04  0.20134101618E+04  0.00000000000E+00 0.  1.
         23    2    1    2    0    0  0.83726496988E+03 -0.31108247015E+03 -0.10532209874E+04  0.13840384612E+04  0.92212149563E+02 0.  0.
    5000000    2    1    2    0    0 -0.83726496988E+03  0.31108247015E+03 -0.43058539949E+03  0.11589754756E+04  0.60002952736E+03 0.  0.
         23    2    4    4    0    0 -0.84173016395E+03  0.39511538039E+03 -0.44460543582E+03  0.10348357640E+04  0.92656528430E+02 0.  0.
         23    2    4    4    0    0  0.44651940733E+01 -0.84032910233E+02  0.14020036328E+02  0.12413971153E+03  0.90181143261E+02 0.  0.
          2    1    3    3  502    0  0.50624580130E+03 -0.22229288756E+03 -0.69783210946E+03  0.89031937650E+03  0.00000000000E+00 0. -1.
         -2    1    3    3    0  502  0.33101916859E+03 -0.88789582595E+02 -0.35538887799E+03  0.49371908465E+03  0.00000000000E+00 0.  1.
         11    1    5    5    0    0 -0.20920289858E+02  0.26969581370E+02 -0.24322593281E+02  0.41911876490E+02  0.00000000000E+00 0. -1.
        -11    1    5    5    0    0 -0.82080987410E+03  0.36814579902E+03 -0.42028284254E+03  0.99292388756E+03  0.00000000000E+00 0.  1.
          5    1    6    6  503    0  0.46480744614E+02 -0.36623358272E+02  0.14128274770E+01  0.59378582607E+02  0.47000000000E+01 0. -1.
         -5    1    6    6    0  503 -0.42015550540E+02 -0.47409551961E+02  0.12607208851E+02  0.64761128923E+02  0.47000000000E+01 0.  1.
<mgrwt>
<rscale>  0 0.97611302E+03</rscale>
<asrwt>0</asrwt>
<pdfrwt beam="1">  1        2 0.30975541E+00 0.97611302E+03</pdfrwt>
<pdfrwt beam="2">  1       -2 0.81477503E-01 0.97611302E+03</pdfrwt>
<totfact> 0.87543666E+00</totfact>
</mgrwt>
</event>
<event>
12    1  0.3127365E-008  0.4130781E+03  0.7818608E-02  0.1039343E+00
         -2   -1    0    0    0  501 -0.00000000000E+00  0.00000000000E+00  0.57899001900E+03  0.57899001900E+03  0.00000000000E+00 0.  1.
          2   -1    0    0  501    0  0.00000000000E+00 -0.00000000000E+00 -0.10844780676E+04  0.10844780676E+04  0.00000000000E+00 0. -1.
         23    2    1    2    0    0  0.10634774592E+03 -0.17840423831E+03 -0.89138564360E+03  0.92053258859E+03  0.98356320277E+02 0.  0.
    5000000    2    1    2    0    0 -0.10634774592E+03  0.17840423831E+03  0.38589759495E+03  0.74293549805E+03  0.59991523165E+03 0.  0.
         23    2    4    4    0    0  0.20109619175E+03  0.21747564656E+03  0.21791388467E+03  0.37890860784E+03  0.91377988484E+02 0.  0.
         23    2    4    4    0    0 -0.30744393767E+03 -0.39071408250E+02  0.16798371028E+03  0.36402689021E+03  0.90822354744E+02 0.  0.
          1    1    3    3  502    0  0.52599667302E+02 -0.93520664191E+02 -0.26106073796E+03  0.28225086100E+03  0.00000000000E+00 0. -1.
         -1    1    3    3    0  502  0.53748078619E+02 -0.84883574120E+02 -0.63032490564E+03  0.63828172760E+03  0.00000000000E+00 0.  1.
         13    1    5    5    0    0  0.14781818083E+03  0.17391613367E+03  0.20906395003E+03  0.30952345846E+03  0.00000000000E+00 0. -1.
        -13    1    5    5    0    0  0.53278010924E+02  0.43559512896E+02  0.88499346368E+01  0.69385149382E+02  0.00000000000E+00 0.  1.
          5    1    6    6  503    0 -0.79059844976E+02 -0.48190220751E+02  0.32267396572E+02  0.98163289193E+02  0.47000000000E+01 0. -1.
         -5    1    6    6    0  503 -0.22838409270E+03  0.91188125018E+01  0.13571631371E+03  0.26586360102E+03  0.47000000000E+01 0.  1.
<mgrwt>
<rscale>  0 0.41307808E+03</rscale>
<asrwt>0</asrwt>
<pdfrwt beam="1">  1        2 0.16684278E+00 0.41307808E+03</pdfrwt>
<pdfrwt beam="2">  1       -2 0.89075389E-01 0.41307808E+03</pdfrwt>
<totfact> 0.25694781E+01</totfact>
</mgrwt>
</event>
<event>
12    1  0.3127365E-008  0.1866353E+04  0.7818608E-02  0.8671788E-01
         -1   -1    0    0    0  501 -0.00000000000E+00  0.00000000000E+00  0.16402569235E+04  0.16402569235E+04  0.00000000000E+00 0.  1.
          1   -1    0    0  501    0  0.00000000000E+00 -0.00000000000E+00 -0.23776369437E+04  0.23776369437E+04  0.00000000000E+00 0. -1.
         23    2    1    2    0    0 -0.88273072149E+03  0.15964723842E+04  0.27507201345E+03  0.18469364188E+04  0.87016792404E+02 0.  0.
    5000000    2    1    2    0    0  0.88273072149E+03 -0.15964723842E+04 -0.10124520337E+04  0.21709574484E+04  0.60004959947E+03 0.  0.
         23    2    4    4    0    0  0.27394133861E+03 -0.10551458787E+03 -0.15214992386E+03  0.34280351556E+03  0.90484615827E+02 0.  0.
         23    2    4    4    0    0  0.60878938288E+03 -0.14909577964E+04 -0.86030210981E+03  0.18281539328E+04  0.91909839512E+02 0.  0.
          4    1    3    3  502    0 -0.61817852947E+03  0.11597922066E+04  0.16420294338E+03  0.13244716922E+04  0.00000000000E+00 0.  1.
         -4    1    3    3    0  502 -0.26455219202E+03  0.43668017765E+03  0.11086907007E+03  0.52246472661E+03  0.00000000000E+00 0. -1.
         13    1    5    5    0    0  0.24415545921E+03 -0.10866005420E+03 -0.10538958287E+03  0.28727314496E+03  0.00000000000E+00 0. -1.
        -13    1    5    5    0    0  0.29785879400E+02  0.31454663303E+01 -0.46760340981E+02  0.55530370598E+02  0.00000000000E+00 0.  1.
          5    1    6    6  503    0  0.22052535428E+03 -0.50802875749E+03 -0.34346017385E+03  0.65169903432E+03  0.47000000000E+01 0. -1.
         -5    1    6    6    0  503  0.38826402861E+03 -0.98292903889E+03 -0.51684193596E+03  0.11764548985E+04  0.47000000000E+01 0.  1.
<mgrwt>
<rscale>  0 0.18663530E+04</rscale>
<asrwt>0</asrwt>
<pdfrwt beam="1">  1        1 0.36579030E+00 0.18663530E+04</pdfrwt>
<pdfrwt beam="2">  1       -1 0.25234722E+00 0.18663530E+04</pdfrwt>
<totfact> 0.10015880E-01</totfact>
</mgrwt>
</event>
<event>
12    1  0.3127365E-008  0.1123957E+04  0.7818608E-02  0.9182152E-01
          2   -1    0    0  501    0  0.00000000000E+00  0.00000000000E+00  0.17637062082E+04  0.17637062082E+04  0.00000000000E+00 0.  1.
         -2   -1    0    0    0  501 -0.00000000000E+00 -0.00000000000E+00 -0.11315791879E+04  0.11315791879E+04  0.00000000000E+00 0. -1.
         23    2    1    2    0    0  0.10681292847E+04 -0.48104906935E+02  0.11421919896E+04  0.15674221297E+04  0.94843769482E+02 0.  0.
    5000000    2    1    2    0    0 -0.10681292847E+04  0.48104906935E+02 -0.51006496932E+03  0.13278632664E+04  0.59986692735E+03 0.  0.
         23    2    4    4    0    0 -0.50985421436E+03  0.26521736358E+03 -0.82692117827E+02  0.58623176251E+03  0.80858661734E+02 0.  0.
         23    2    4    4    0    0 -0.55827507032E+03 -0.21711245665E+03 -0.42737285149E+03  0.74163150391E+03  0.92524917887E+02 0.  0.
          3    1    3    3  502    0  0.74174212387E+03 -0.13357533395E+02  0.73368025528E+03  0.10433822497E+04  0.00000000000E+00 0. -1.
         -3    1    3    3    0  502  0.32638716082E+03 -0.34747373540E+02  0.40851173436E+03  0.52403987999E+03  0.00000000000E+00 0.  1.
         13    1    5    5    0    0 -0.55924916525E+02  0.54811986493E+02 -0.26947492555E+02  0.82813751917E+02  0.00000000000E+00 0. -1.
        -13    1    5    5    0    0 -0.45392929784E+03  0.21040537709E+03 -0.55744625271E+02  0.50341801059E+03  0.00000000000E+00 0.  1.
          5    1    6    6  503    0 -0.31202451589E+03 -0.11525245477E+03 -0.18119597720E+03  0.37880931747E+03  0.47000000000E+01 0. -1.
         -5    1    6    6    0  503 -0.24625055443E+03 -0.10186000188E+03 -0.24617687430E+03  0.36282218645E+03  0.47000000000E+01 0.  1.
<mgrwt>
<rscale>  0 0.11239565E+04</rscale>
<asrwt>0</asrwt>
<pdfrwt beam="1">  1        2 0.27133942E+00 0.11239565E+04</pdfrwt>
<pdfrwt beam="2">  1       -2 0.17408911E+00 0.11239565E+04</pdfrwt>
<totfact> 0.17652245E+00</totfact>
</mgrwt>
</event>
<event>
12    1  0.3127365E-008  0.6761876E+03  0.7818608E-02  0.9758844E-01
         -2   -1    0    0    0  501 -0.00000000000E+00  0.00000000000E+00  0.48778845826E+03  0.48778845826E+03  0.00000000000E+00 0.  1.
          2   -1    0    0  501    0  0.00000000000E+00 -0.00000000000E+00 -0.13296338945E+04  0.13296338945E+04  0.00000000000E+00 0. -1.
         23    2    1    2    0    0 -0.32917334539E+03  0.44723786841E+03 -0.82606557643E+03  0.99975685168E+03  0.93555457650E+02 0.  0.
    5000000    2    1    2    0    0  0.32917334539E+03 -0.44723786841E+03 -0.15779859759E+02  0.81766550104E+03  0.59995921975E+03 0.  0.
         23    2    4    4    0    0  0.35153337932E+03 -0.56397282225E+03 -0.16323065181E+02  0.67058522591E+03  0.88187537338E+02 0.  0.
         23    2    4    4    0    0 -0.22360033928E+02  0.11673495383E+03  0.54320542184E+00  0.14708027513E+03  0.86633086614E+02 0.  0.
          3    1    3    3  502    0 -0.14271438233E+03  0.21192852306E+03 -0.30007998496E+03  0.39411811831E+03  0.00000000000E+00 0. -1.
         -3    1    3    3    0  502 -0.18645896306E+03  0.23530934536E+03 -0.52598559147E+03  0.60563873337E+03  0.00000000000E+00 0.  1.
         11    1    5    5    0    0  0.25812493990E+03 -0.47008141334E+03 -0.31870494227E+02  0.53723435126E+03  0.00000000000E+00 0.  1.
        -11    1    5    5    0    0  0.93408439416E+02 -0.93891408909E+02  0.15547429046E+02  0.13335087465E+03  0.00000000000E+00 0. -1.
          5    1    6    6  503    0  0.14409961059E+02  0.30886661067E+02 -0.33061479171E+02  0.47715660055E+02  0.47000000000E+01 0. -1.
         -5    1    6    6    0  503 -0.36769994987E+02  0.85848292768E+02  0.33604684593E+02  0.99364615076E+02  0.47000000000E+01 0.  1.
<mgrwt>
<rscale>  0 0.67618757E+03</rscale>
<asrwt>0</asrwt>
<pdfrwt beam="1">  1        2 0.20455906E+00 0.67618757E+03</pdfrwt>
<pdfrwt beam="2">  1       -2 0.75044380E-01 0.67618757E+03</pdfrwt>
<totfact> 0.26088067E+01</totfact>
</mgrwt>
</event>
<event>
12    1  0.3127365E-008  0.5594575E+03  0.7818608E-02  0.9993283E-01
         -1   -1    0    0    0  501 -0.00000000000E+00  0.00000000000E+00  0.20944759313E+04  0.20944759313E+04  0.00000000000E+00 0.  1.
          1   -1    0    0  501    0  0.00000000000E+00 -0.00000000000E+00 -0.20913994392E+03  0.20913994392E+03  0.00000000000E+00 0. -1.
         23    2    1    2    0    0  0.30934331203E+03 -0.32726853142E+03  0.29691738283E+03  0.54686361782E+03  0.90010598908E+02 0.  0.
    5000000    2    1    2    0    0 -0.30934331203E+03  0.32726853142E+03  0.15884186045E+04  0.17567522574E+04  0.60025565736E+03 0.  0.
         23    2    4    4    0    0  0.11343309345E+03  0.16621997214E+03  0.91195219610E+03  0.93827368564E+03  0.90579000693E+02 0.  0.
         23    2    4    4    0    0 -0.42277640548E+03  0.16104855928E+03  0.67646640842E+03  0.81847857172E+03  0.87314621705E+02 0.  0.
          3    1    3    3  502    0  0.16917093715E+03 -0.21258769435E+03  0.13257160883E+03  0.30230376318E+03  0.00000000000E+00 0. -1.
         -3    1    3    3    0  502  0.14017237487E+03 -0.11468083707E+03  0.16434577400E+03  0.24455985464E+03  0.00000000000E+00 0.  1.
         13    1    5    5    0    0  0.98235948637E+02  0.11101795149E+03  0.47522423108E+03  0.49780855453E+03  0.00000000000E+00 0. -1.
        -13    1    5    5    0    0  0.15197144816E+02  0.55202020649E+02  0.43672796502E+03  0.44046513111E+03  0.00000000000E+00 0.  1.
          5    1    6    6  503    0 -0.72349006206E+02  0.64680077669E+02  0.15085303219E+03  0.17943416193E+03  0.47000000000E+01 0. -1.
         -5    1    6    6    0  503 -0.35042739927E+03  0.96368481610E+02  0.52561337623E+03  0.63904440979E+03  0.47000000000E+01 0.  1.
<mgrwt>
<rscale>  0 0.55945747E+03</rscale>
<asrwt>0</asrwt>
<pdfrwt beam="1">  1        1 0.32175377E-01 0.55945747E+03</pdfrwt>
<pdfrwt beam="2">  1       -1 0.32222705E+00 0.55945747E+03</pdfrwt>
<totfact> 0.36043147E+00</totfact>
</mgrwt>
</event>
<event>
12    1  0.3127365E-008  0.5205035E+03  0.7818608E-02  0.1008562E+00
         -1   -1    0    0    0  501 -0.00000000000E+00  0.00000000000E+00  0.26050723953E+03  0.26050723953E+03  0.00000000000E+00 0.  1.
          1   -1    0    0  501    0  0.00000000000E+00 -0.00000000000E+00 -0.11111239241E+04  0.11111239241E+04  0.00000000000E+00 0. -1.
         23    2    1    2    0    0  0.34292924949E+03  0.11577582314E+03 -0.33781204621E+03  0.50327676890E+03  0.90366012246E+02 0.  0.
    5000000    2    1    2    0    0 -0.34292924949E+03 -0.11577582314E+03 -0.51280463840E+03  0.86835439477E+03  0.60005520277E+03 0.  0.
         23    2    4    4    0    0  0.12775185680E+03  0.84799981580E+02 -0.12750899098E+03  0.22173517791E+03  0.96934888202E+02 0.  0.
         23    2    4    4    0    0 -0.47068110629E+03 -0.20057580472E+03 -0.38529564742E+03  0.64661921686E+03  0.88838721477E+02 0.  0.
          2    1    3    3  502    0  0.26015869395E+03  0.11957593707E+03 -0.29039107377E+03  0.40780868859E+03  0.00000000000E+00 0.  1.
         -2    1    3    3    0  502  0.82770555543E+02 -0.38001139371E+01 -0.47420972442E+02  0.95468080310E+02  0.00000000000E+00 0. -1.
         11    1    5    5    0    0  0.87919096968E+02  0.79553093181E+02 -0.39475623590E+02  0.12496714410E+03  0.00000000000E+00 0.  1.
        -11    1    5    5    0    0  0.39832759830E+02  0.52468883996E+01 -0.88033367393E+02  0.96768033814E+02  0.00000000000E+00 0. -1.
          5    1    6    6  503    0 -0.33372676640E+03 -0.12363322050E+03 -0.31156087467E+03  0.47302325149E+03  0.47000000000E+01 0. -1.
         -5    1    6    6    0  503 -0.13695433989E+03 -0.76942584216E+02 -0.73734772751E+02  0.17359596537E+03  0.47000000000E+01 0.  1.
<mgrwt>
<rscale>  0 0.52050348E+03</rscale>
<asrwt>0</asrwt>
<pdfrwt beam="1">  1        1 0.17094214E+00 0.52050348E+03</pdfrwt>
<pdfrwt beam="2">  1       -1 0.40078037E-01 0.52050348E+03</pdfrwt>
<totfact> 0.79040055E+01</totfact>
</mgrwt>
</event>
<event>
12    1  0.3127365E-008  0.7173972E+03  0.7818608E-02  0.9687935E-01
          2   -1    0    0  501    0  0.00000000000E+00  0.00000000000E+00  0.12466391005E+04  0.12466391005E+04  0.00000000000E+00 0.  1.
         -2   -1    0    0    0  501 -0.00000000000E+00 -0.00000000000E+00 -0.50333840585E+03  0.50333840585E+03  0.00000000000E+00 0. -1.
         23    2    1    2    0    0  0.43622755255E+03  0.49878454049E+03  0.17438509858E+03  0.69034727415E+03  0.84194423153E+02 0.  0.
    5000000    2    1    2    0    0 -0.43622755255E+03 -0.49878454049E+03  0.56891559610E+03  0.10596302322E+04  0.60005897889E+03 0.  0.
         23    2    4    4    0    0 -0.36158872361E+03 -0.14839761572E+03  0.25597370961E+02  0.40262472038E+03  0.93183596554E+02 0.  0.
         23    2    4    4    0    0 -0.74638828942E+02 -0.35038692477E+03  0.54331822514E+03  0.65700551186E+03  0.90108806494E+02 0.  0.
          4    1    3    3  502    0  0.34851214784E+03  0.36156278926E+03  0.15903503905E+03  0.52676418957E+03  0.00000000000E+00 0. -1.
         -4    1    3    3    0  502  0.87715404707E+02  0.13722175123E+03  0.15350059530E+02  0.16358308458E+03  0.00000000000E+00 0.  1.
         11    1    5    5    0    0 -0.37553964328E+02 -0.49034914971E+02 -0.68791399436E+01  0.62145359355E+02  0.00000000000E+00 0. -1.
        -11    1    5    5    0    0 -0.32403475928E+03 -0.99362700749E+02  0.32476510904E+02  0.34047936102E+03  0.00000000000E+00 0.  1.
          5    1    6    6  503    0 -0.94839456137E+02 -0.29565484677E+03  0.46722422298E+03  0.56100523652E+03  0.47000000000E+01 0. -1.
         -5    1    6    6    0  503  0.20200627194E+02 -0.54732077996E+02  0.76094002162E+02  0.96000275342E+02  0.47000000000E+01 0.  1.
<mgrwt>
<rscale>  0 0.71739723E+03</rscale>
<asrwt>0</asrwt>
<pdfrwt beam="1">  1        2 0.19179063E+00 0.71739723E+03</pdfrwt>
<pdfrwt beam="2">  1       -2 0.77436678E-01 0.71739723E+03</pdfrwt>
<totfact> 0.27034155E+01</totfact>
</mgrwt>
</event>
<event>
12    1  0.3127365E-008  0.6879181E+03  0.7818608E-02  0.9738120E-01
          2   -1    0    0  501    0  0.00000000000E+00  0.00000000000E+00  0.28307401407E+04  0.28307401407E+04  0.00000000000E+00 0.  1.
         -2   -1    0    0    0  501 -0.00000000000E+00 -0.00000000000E+00 -0.56135250160E+03  0.56135250160E+03  0.00000000000E+00 0. -1.
         23    2    1    2    0    0  0.45575234553E+03  0.39810351772E+03  0.24461947711E+04  0.25215608933E+04  0.90575212626E+02 0.  0.
    5000000    2    1    2    0    0 -0.45575234553E+03 -0.39810351772E+03 -0.17680713196E+03  0.87053174904E+03  0.60030671569E+03 0.  0.
         23    2    4    4    0    0 -0.78723448930E+02  0.10291148696E+03 -0.17457353146E+03  0.23606126268E+03  0.91982858682E+02 0.  0.
         23    2    4    4    0    0 -0.37702889660E+03 -0.50101500468E+03 -0.22336005008E+01  0.63447048636E+03  0.96855486734E+02 0.  0.
          1    1    3    3  502    0  0.17373899625E+03  0.21027795379E+03  0.10532369052E+04  0.10879843910E+04  0.00000000000E+00 0. -1.
         -1    1    3    3    0  502  0.28201334928E+03  0.18782556393E+03  0.13929578659E+04  0.14335765023E+04  0.00000000000E+00 0.  1.
         11    1    5    5    0    0 -0.12850227198E+01  0.36953880555E+01  0.11089508683E+02  0.11759437874E+02  0.00000000000E+00 0.  1.
        -11    1    5    5    0    0 -0.77438426210E+02  0.99216098902E+02 -0.18566304014E+03  0.22430182481E+03  0.00000000000E+00 0. -1.
          5    1    6    6  503    0 -0.31644368293E+03 -0.35102102466E+03 -0.50110742917E+00  0.47262533293E+03  0.47000000000E+01 0. -1.
         -5    1    6    6    0  503 -0.60585213672E+02 -0.14999398002E+03 -0.17324930716E+01  0.16184515343E+03  0.47000000000E+01 0.  1.
<mgrwt>
<rscale>  0 0.68791811E+03</rscale>
<asrwt>0</asrwt>
<pdfrwt beam="1">  1        2 0.43549847E+00 0.68791811E+03</pdfrwt>
<pdfrwt beam="2">  1       -2 0.86361925E-01 0.68791811E+03</pdfrwt>
<totfact> 0.27672623E+00</totfact>
</mgrwt>
</event>
<event>
12    1  0.3127365E-008  0.5231121E+03  0.7818608E-02  0.1007916E+00
         -1   -1    0    0    0  501 -0.00000000000E+00  0.00000000000E+00  0.48704681556E+03  0.48704681556E+03  0.00000000000E+00 0.  1.
          1   -1    0    0  501    0  0.00000000000E+00 -0.00000000000E+00 -0.10381457078E+04  0.10381457078E+04  0.00000000000E+00 0. -1.
         23    2    1    2    0    0 -0.23471868089E+03 -0.29963950841E+03 -0.69717396388E+03  0.79981464809E+03  0.93676257540E+02 0.  0.
    5000000    2    1    2    0    0  0.23471868089E+03  0.29963950841E+03  0.14607507167E+03  0.72537787525E+03  0.59996536665E+03 0.  0.
         23    2    4    4    0    0  0.38691344345E+03  0.29501762763E+03  0.21144358699E+03  0.53839764279E+03  0.91794433069E+02 0.  0.
         23    2    4    4    0    0 -0.15219476256E+03  0.46218807752E+01 -0.65368515324E+02  0.18698023246E+03  0.86625383124E+02 0.  0.
          1    1    3    3  502    0 -0.16684133126E+03 -0.26838700184E+03 -0.53744061868E+03  0.62346614277E+03  0.00000000000E+00 0. -1.
         -1    1    3    3    0  502 -0.67877349627E+02 -0.31252506571E+02 -0.15973334520E+03  0.17634850532E+03  0.00000000000E+00 0.  1.
         11    1    5    5    0    0  0.30806127628E+03  0.19308687993E+03  0.18027380487E+03  0.40581145605E+03  0.00000000000E+00 0. -1.
        -11    1    5    5    0    0  0.78852167173E+02  0.10193074770E+03  0.31169782126E+02  0.13258618673E+03  0.00000000000E+00 0.  1.
          5    1    6    6  503    0 -0.24033767432E+02 -0.20995179715E+02 -0.43857221016E+02  0.54442312437E+02  0.47000000000E+01 0. -1.
         -5    1    6    6    0  503 -0.12816099513E+03  0.25617060490E+02 -0.21511294308E+02  0.13253792002E+03  0.47000000000E+01 0.  1.
<mgrwt>
<rscale>  0 0.52311213E+03</rscale>
<asrwt>0</asrwt>
<pdfrwt beam="1">  1        1 0.15971472E+00 0.52311213E+03</pdfrwt>
<pdfrwt beam="2">  1       -1 0.74930280E-01 0.52311213E+03</pdfrwt>
<totfact> 0.26858252E+01</totfact>
</mgrwt>
</event>
<event>
12    1  0.3127365E-008  0.1229168E+03  0.7818608E-02  0.1238361E+00
          1   -1    0    0  501    0  0.00000000000E+00  0.00000000000E+00  0.52223784377E+03  0.52223784377E+03  0.00000000000E+00 0. -1.
         -1   -1    0    0    0  501 -0.00000000000E+00 -0.00000000000E+00 -0.23774870968E+03  0.23774870968E+03  0.00000000000E+00 0.  1.
         23    2    1    2    0    0 -0.17550349730E+02  0.41255973477E+02  0.55782263684E+02  0.11635167915E+03  0.91738662387E+02 0.  0.
    5000000    2    1    2    0    0  0.17550349730E+02 -0.41255973477E+02  0.22870687041E+03  0.64363487429E+03  0.59995745575E+03 0.  0.
         23    2    4    4    0    0 -0.10957518838E+02 -0.32453853443E+02 -0.19012234368E+03  0.21370676176E+03  0.91382463498E+02 0.  0.
         23    2    4    4    0    0  0.28507868568E+02 -0.88021200344E+01  0.41882921409E+03  0.42992811253E+03  0.92358516053E+02 0.  0.
          4    1    3    3  502    0  0.73496369627E+01  0.62493624859E+02  0.55066615148E+02  0.83616998363E+02  0.00000000000E+00 0. -1.
         -4    1    3    3    0  502 -0.24899986693E+02 -0.21237651381E+02  0.71564853631E+00  0.32734680789E+02  0.00000000000E+00 0.  1.
         13    1    5    5    0    0  0.19880382933E+02 -0.15331946919E+02 -0.17242603053E+03  0.17424417990E+03  0.00000000000E+00 0.  1.
        -13    1    5    5    0    0 -0.30837901770E+02 -0.17121906524E+02 -0.17696313142E+02  0.39462581865E+02  0.00000000000E+00 0. -1.
          5    1    6    6  503    0 -0.16354410228E+02 -0.34083343936E+02  0.10150063860E+03  0.10841407060E+03  0.47000000000E+01 0. -1.
         -5    1    6    6    0  503  0.44862278796E+02  0.25281223902E+02  0.31732857549E+03  0.32151404193E+03  0.47000000000E+01 0.  1.
<mgrwt>
<rscale>  0 0.12291679E+03</rscale>
<asrwt>0</asrwt>
<pdfrwt beam="1">  1        1 0.80344283E-01 0.12291679E+03</pdfrwt>
<pdfrwt beam="2">  1       -1 0.36576725E-01 0.12291679E+03</pdfrwt>
<totfact> 0.31600370E+02</totfact>
</mgrwt>
</event>
<event>
12    1  0.3127365E-008  0.1490032E+04  0.7818608E-02  0.8891109E-01
          1   -1    0    0  501    0  0.00000000000E+00  0.00000000000E+00  0.10381642445E+04  0.10381642445E+04  0.00000000000E+00 0. -1.
         -1   -1    0    0    0  501 -0.00000000000E+00 -0.00000000000E+00 -0.21853991491E+04  0.21853991491E+04  0.00000000000E+00 0.  1.
         23    2    1    2    0    0  0.92118157473E+03  0.11132273629E+04 -0.53670748080E+03  0.15441299000E+04  0.91823597332E+02 0.  0.
    5000000    2    1    2    0    0 -0.92118157473E+03 -0.11132273629E+04 -0.61052742381E+03  0.16794334936E+04  0.59991871885E+03 0.  0.
         23    2    4    4    0    0 -0.89882966393E+03 -0.80081213064E+03 -0.61097218679E+03  0.13530039423E+04  0.90209874810E+02 0.  0.
         23    2    4    4    0    0 -0.22351910801E+02 -0.31241523221E+03  0.44476297973E+00  0.32642955131E+03  0.91941116604E+02 0.  0.
          4    1    3    3  502    0  0.10540360312E+03  0.86358790233E+02 -0.44720276575E+02  0.14341430660E+03  0.00000000000E+00 0. -1.
         -4    1    3    3    0  502  0.81577797161E+03  0.10268685726E+04 -0.49198720423E+03  0.14007155934E+04  0.00000000000E+00 0.  1.
         11    1    5    5    0    0 -0.51123796282E+03 -0.39697644981E+03 -0.33965862633E+03  0.73097369226E+03  0.00000000000E+00 0.  1.
        -11    1    5    5    0    0 -0.38759170111E+03 -0.40383568083E+03 -0.27131356046E+03  0.62203025004E+03  0.00000000000E+00 0. -1.
          5    1    6    6  503    0 -0.49423373069E+02 -0.27172843542E+03 -0.92702927631E+01  0.27638205577E+03  0.47000000000E+01 0. -1.
         -5    1    6    6    0  503  0.27071462268E+02 -0.40686796788E+02  0.97150557428E+01  0.50047495544E+02  0.47000000000E+01 0.  1.
<mgrwt>
<rscale>  0 0.14900319E+04</rscale>
<asrwt>0</asrwt>
<pdfrwt beam="1">  1        1 0.15971758E+00 0.14900319E+04</pdfrwt>
<pdfrwt beam="2">  1       -1 0.33621525E+00 0.14900319E+04</pdfrwt>
<totfact> 0.25798429E-01</totfact>
</mgrwt>
</event>
<event>
12    1  0.3127365E-008  0.1490337E+04  0.7818608E-02  0.8890904E-01
          1   -1    0    0  501    0  0.00000000000E+00  0.00000000000E+00  0.18511094919E+04  0.18511094919E+04  0.00000000000E+00 0. -1.
         -1   -1    0    0    0  501 -0.00000000000E+00 -0.00000000000E+00 -0.12884875273E+04  0.12884875273E+04  0.00000000000E+00 0.  1.
         23    2    1    2    0    0 -0.20233830041E+02 -0.14456299605E+04 -0.72091428988E+02  0.14504004501E+04  0.90602985294E+02 0.  0.
    5000000    2    1    2    0    0  0.20233830041E+02  0.14456299605E+04  0.63471339353E+03  0.16891965691E+04  0.60022376363E+03 0.  0.
         23    2    4    4    0    0 -0.18169301485E+03  0.22763212058E+03  0.17087812671E+02  0.30589206591E+03  0.91919686023E+02 0.  0.
         23    2    4    4    0    0  0.20192684489E+03  0.12179978399E+04  0.61762558086E+03  0.13833045032E+04  0.88186175587E+02 0.  0.
          3    1    3    3  502    0 -0.37157943154E+02 -0.95029729449E+03 -0.83185047628E+02  0.95465460393E+03  0.00000000000E+00 0. -1.
         -3    1    3    3    0  502  0.16924113114E+02 -0.49533266602E+03  0.11093618640E+02  0.49574584618E+03  0.00000000000E+00 0.  1.
         13    1    5    5    0    0 -0.13784684216E+03  0.20508194810E+03 -0.14176217987E+02  0.24751024723E+03  0.00000000000E+00 0.  1.
        -13    1    5    5    0    0 -0.43846172694E+02  0.22550172479E+02  0.31264030658E+02  0.58381818675E+02  0.00000000000E+00 0. -1.
          5    1    6    6  503    0  0.35479430456E+02  0.46770860706E+03  0.24447226927E+03  0.52896021735E+03  0.47000000000E+01 0. -1.
         -5    1    6    6    0  503  0.16644741444E+03  0.75028923287E+03  0.37315331160E+03  0.85434428581E+03  0.47000000000E+01 0.  1.
<mgrwt>
<rscale>  0 0.14903374E+04</rscale>
<asrwt>0</asrwt>
<pdfrwt beam="1">  1        1 0.28478608E+00 0.14903374E+04</pdfrwt>
<pdfrwt beam="2">  1       -1 0.19822885E+00 0.14903374E+04</pdfrwt>
<totfact> 0.55134026E-01</totfact>
</mgrwt>
</event>
<event>
12    1  0.3127365E-008  0.4851842E+03  0.7818608E-02  0.1017720E+00
         -2   -1    0    0    0  501 -0.00000000000E+00  0.00000000000E+00  0.17563539881E+03  0.17563539881E+03  0.00000000000E+00 0.  1.
          2   -1    0    0  501    0  0.00000000000E+00 -0.00000000000E+00 -0.22537396051E+04  0.22537396051E+04  0.00000000000E+00 0. -1.
         23    2    1    2    0    0  0.44251926863E+03 -0.31300259024E+01 -0.44501467964E+03  0.63416486196E+03  0.91070889265E+02 0.  0.
    5000000    2    1    2    0    0 -0.44251926863E+03  0.31300259024E+01 -0.16330895266E+04  0.17952101419E+04  0.59997079226E+03 0.  0.
         23    2    4    4    0    0 -0.56118005751E+02  0.76816912529E+02 -0.21201150258E+02  0.13346851798E+03  0.91182717112E+02 0.  0.
         23    2    4    4    0    0 -0.38640126288E+03 -0.73686886626E+02 -0.16118883764E+04  0.16617416239E+04  0.92007574128E+02 0.  0.
          2    1    3    3  502    0  0.16693554244E+03 -0.43755960242E+02 -0.18713290211E+03  0.25455997807E+03  0.00000000000E+00 0. -1.
         -2    1    3    3    0  502  0.27558372619E+03  0.40625934339E+02 -0.25788177754E+03  0.37960488389E+03  0.00000000000E+00 0.  1.
         13    1    5    5    0    0 -0.25297087398E+02  0.85804451922E+02 -0.38049281226E+02  0.97211596027E+02  0.00000000000E+00 0.  1.
        -13    1    5    5    0    0 -0.30820918353E+02 -0.89875393928E+01  0.16848130968E+02  0.36256921954E+02  0.00000000000E+00 0. -1.
          5    1    6    6  503    0 -0.58399145388E+01 -0.88488817182E+01 -0.15654416604E+02  0.19482250094E+02  0.47000000000E+01 0. -1.
         -5    1    6    6    0  503 -0.38056134834E+03 -0.64838004908E+02 -0.15962339598E+04  0.16422593739E+04  0.47000000000E+01 0.  1.
<mgrwt>
<rscale>  0 0.48518423E+03</rscale>
<asrwt>0</asrwt>
<pdfrwt beam="1">  1        2 0.34672914E+00 0.48518423E+03</pdfrwt>
<pdfrwt beam="2">  1       -2 0.27020833E-01 0.48518423E+03</pdfrwt>
<totfact> 0.64471124E+01</totfact>
</mgrwt>
</event>
<event>
12    1  0.3127365E-008  0.8230638E+03  0.7818608E-02  0.9527220E-01
         -2   -1    0    0    0  501 -0.00000000000E+00  0.00000000000E+00  0.14641441655E+03  0.14641441655E+03  0.00000000000E+00 0. -1.
          2   -1    0    0  501    0  0.00000000000E+00 -0.00000000000E+00 -0.50968355948E+04  0.50968355948E+04  0.00000000000E+00 0.  1.
         23    2    1    2    0    0 -0.53491028668E+03 -0.48136800805E+03 -0.14744571110E+04  0.16432257806E+04  0.91230586583E+02 0.  0.
    5000000    2    1    2    0    0  0.53491028668E+03  0.48136800805E+03 -0.34759640672E+04  0.36000242307E+04  0.60000340923E+03 0.  0.
         23    2    4    4    0    0  0.91761683590E+02  0.45764894829E+03 -0.20174905359E+04  0.20728075876E+04  0.91654056696E+02 0.  0.
         23    2    4    4    0    0  0.44314860309E+03  0.23719059761E+02 -0.14584735313E+04  0.15272166431E+04  0.91117261548E+02 0.  0.
          1    1    3    3  502    0 -0.24723691565E+03 -0.28255501308E+03 -0.78423994462E+03  0.86948014274E+03  0.00000000000E+00 0. -1.
         -1    1    3    3    0  502 -0.28767337104E+03 -0.19881299498E+03 -0.69021716639E+03  0.77374563789E+03  0.00000000000E+00 0.  1.
         11    1    5    5    0    0  0.88519676406E+02  0.21352077771E+03 -0.93982626658E+03  0.96783276809E+03  0.00000000000E+00 0. -1.
        -11    1    5    5    0    0  0.32420071842E+01  0.24412817058E+03 -0.10776642693E+04  0.11049748195E+04  0.00000000000E+00 0.  1.
          5    1    6    6  503    0  0.25729878345E+03 -0.60765043779E+01 -0.97405362383E+03  0.10074929975E+04  0.47000000000E+01 0. -1.
         -5    1    6    6    0  503  0.18584981964E+03  0.29795564139E+02 -0.48441990746E+03  0.51972364565E+03  0.47000000000E+01 0.  1.
<mgrwt>
<rscale>  0 0.82306381E+03</rscale>
<asrwt>0</asrwt>
<pdfrwt beam="1">  1        2 0.78412853E+00 0.82306381E+03</pdfrwt>
<pdfrwt beam="2">  1       -2 0.22525296E-01 0.82306381E+03</pdfrwt>
<totfact> 0.51452328E-01</totfact>
</mgrwt>
</event>
<event>
12    1  0.3127365E-008  0.5947801E+03  0.7818608E-02  0.9916295E-01
          2   -1    0    0  501    0  0.00000000000E+00  0.00000000000E+00  0.10173615603E+04  0.10173615603E+04  0.00000000000E+00 0. -1.
         -2   -1    0    0    0  501 -0.00000000000E+00 -0.00000000000E+00 -0.47318671179E+03  0.47318671179E+03  0.00000000000E+00 0.  1.
         23    2    1    2    0    0  0.29349164537E+03  0.44892033010E+03  0.39433185598E+03  0.67193259320E+03  0.91263292119E+02 0.  0.
    5000000    2    1    2    0    0 -0.29349164537E+03 -0.44892033010E+03  0.14984299252E+03  0.81861567888E+03  0.60000991544E+03 0.  0.
         23    2    4    4    0    0  0.36472177843E+02 -0.24702428263E+03  0.29547871497E+03  0.39722530690E+03  0.90161285877E+02 0.  0.
         23    2    4    4    0    0 -0.32996382322E+03 -0.20189604746E+03 -0.14563572245E+03  0.42139037199E+03  0.81987458415E+02 0.  0.
          3    1    3    3  502    0  0.50124033298E+02  0.58386510805E+02  0.98055403472E+02  0.12464455667E+03  0.00000000000E+00 0. -1.
         -3    1    3    3    0  502  0.24336761207E+03  0.39053381929E+03  0.29627645251E+03  0.54728803653E+03  0.00000000000E+00 0.  1.
         13    1    5    5    0    0 -0.15775960317E+02 -0.95222515288E+02  0.16139800719E+03  0.18805723881E+03  0.00000000000E+00 0.  1.
        -13    1    5    5    0    0  0.52248138160E+02 -0.15180176734E+03  0.13408070778E+03  0.20916806809E+03  0.00000000000E+00 0. -1.
          5    1    6    6  503    0 -0.79985285629E+02 -0.92797070083E+02 -0.47704413319E+02  0.13155509562E+03  0.47000000000E+01 0.  1.
         -5    1    6    6    0  503 -0.24997853759E+03 -0.10909897738E+03 -0.97931309127E+02  0.28983527637E+03  0.47000000000E+01 0. -1.
<mgrwt>
<rscale>  0 0.59478009E+03</rscale>
<asrwt>0</asrwt>
<pdfrwt beam="1">  1        2 0.15651716E+00 0.59478009E+03</pdfrwt>
<pdfrwt beam="2">  1       -2 0.72797956E-01 0.59478009E+03</pdfrwt>
<totfact> 0.43217321E+01</totfact>
</mgrwt>
</event>
<event>
12    1  0.3127365E-008  0.1341673E+04  0.7818608E-02  0.8997156E-01
         -2   -1    0    0    0  501 -0.00000000000E+00  0.00000000000E+00  0.13182534500E+04  0.13182534500E+04  0.00000000000E+00 0.  1.
          2   -1    0    0  501    0  0.00000000000E+00 -0.00000000000E+00 -0.17584618933E+04  0.17584618933E+04  0.00000000000E+00 0. -1.
         23    2    1    2    0    0 -0.89615741692E+03 -0.92932956365E+03 -0.90468926336E+03  0.15792059033E+04  0.93150780948E+02 0.  0.
    5000000    2    1    2    0    0  0.89615741692E+03  0.92932956365E+03  0.46448082010E+03  0.14975094400E+04  0.60003377980E+03 0.  0.
         23    2    4    4    0    0  0.27632293753E+03  0.64722206426E+03  0.88120749679E+02  0.71507781938E+03  0.91215431690E+02 0.  0.
         23    2    4    4    0    0  0.61983447939E+03  0.28210749939E+03  0.37636007042E+03  0.78243162063E+03  0.82297723518E+02 0.  0.
          1    1    3    3  502    0 -0.85833652400E+03 -0.91295396753E+03 -0.87268874332E+03  0.15270272355E+04  0.00000000000E+00 0.  1.
         -1    1    3    3    0  502 -0.37820892921E+02 -0.16375596124E+02 -0.32000520041E+02  0.52178667793E+02  0.00000000000E+00 0. -1.
         13    1    5    5    0    0  0.21046776202E+02  0.35940648281E+02 -0.15774599824E+02  0.44536894671E+02  0.00000000000E+00 0. -1.
        -13    1    5    5    0    0  0.25527616133E+03  0.61128141598E+03  0.10389534950E+03  0.67054092471E+03  0.00000000000E+00 0.  1.
          5    1    6    6  503    0  0.47886947546E+03  0.18344677625E+03  0.26302708548E+03  0.57634541027E+03  0.47000000000E+01 0. -1.
         -5    1    6    6    0  503  0.14096500393E+03  0.98660723143E+02  0.11333298494E+03  0.20608621036E+03  0.47000000000E+01 0.  1.
<mgrwt>
<rscale>  0 0.13416726E+04</rscale>
<asrwt>0</asrwt>
<pdfrwt beam="1">  1        2 0.27053260E+00 0.13416726E+04</pdfrwt>
<pdfrwt beam="2">  1       -2 0.20280822E+00 0.13416726E+04</pdfrwt>
<totfact> 0.11079709E+00</totfact>
</mgrwt>
</event>
<event>
12    1  0.3127365E-008  0.5942433E+03  0.7818608E-02  0.9917422E-01
         -1   -1    0    0    0  501 -0.00000000000E+00  0.00000000000E+00  0.39998245133E+03  0.39998245133E+03  0.00000000000E+00 0.  1.
          1   -1    0    0  501    0  0.00000000000E+00 -0.00000000000E+00 -0.12924550065E+04  0.12924550065E+04  0.00000000000E+00 0. -1.
         23    2    1    2    0    0 -0.20847653734E+00 -0.55720254155E+03 -0.59761350263E+03  0.82221753836E+03  0.91788158813E+02 0.  0.
    5000000    2    1    2    0    0  0.20847653734E+00  0.55720254155E+03 -0.29485905251E+03  0.87021991944E+03  0.59988843260E+03 0.  0.
         23    2    4    4    0    0  0.10922328337E+03  0.39043550003E+03 -0.44222371162E+03  0.60616845966E+03  0.86653246098E+02 0.  0.
         23    2    4    4    0    0 -0.10901480683E+03  0.16676704152E+03  0.14736465911E+03  0.26405145978E+03  0.91166640880E+02 0.  0.
          2    1    3    3  502    0 -0.19514758042E+02 -0.15869322463E+03 -0.22706358590E+03  0.27770890761E+03  0.00000000000E+00 0. -1.
         -2    1    3    3    0  502  0.19306281505E+02 -0.39850931692E+03 -0.37054991673E+03  0.54450863075E+03  0.00000000000E+00 0.  1.
         13    1    5    5    0    0  0.63504453574E+02  0.11279700999E+03 -0.17870737201E+03  0.22066333157E+03  0.00000000000E+00 0. -1.
        -13    1    5    5    0    0  0.45718829795E+02  0.27763849004E+03 -0.26351633961E+03  0.38550512810E+03  0.00000000000E+00 0.  1.
          5    1    6    6  503    0 -0.32828764325E+02 -0.23572326568E+01  0.17523056209E+02  0.37582333773E+02  0.47000000000E+01 0. -1.
         -5    1    6    6    0  503 -0.76186042507E+02  0.16912427418E+03  0.12984160290E+03  0.22646912600E+03  0.47000000000E+01 0.  1.
<mgrwt>
<rscale>  0 0.59424331E+03</rscale>
<asrwt>0</asrwt>
<pdfrwt beam="1">  1        1 0.19883923E+00 0.59424331E+03</pdfrwt>
<pdfrwt beam="2">  1       -1 0.61535763E-01 0.59424331E+03</pdfrwt>
<totfact> 0.25832964E+01</totfact>
</mgrwt>
</event>
<event>
12    1  0.3222319E-008  0.9096356E+03  0.7818608E-02  0.9413616E-01
         -2   -1    0    0    0  501 -0.00000000000E+00  0.00000000000E+00  0.13653910958E+04  0.13653910958E+04  0.00000000000E+00 0.  1.
          2   -1    0    0  501    0  0.00000000000E+00 -0.00000000000E+00 -0.13022171506E+04  0.13022171506E+04  0.00000000000E+00 0. -1.
         23    2    1    2    0    0  0.82465538586E+03 -0.11002880073E+03  0.98236518005E+03  0.12902461507E+04  0.86780988243E+02 0.  0.
    5000000    2    1    2    0    0 -0.82465538586E+03  0.11002880073E+03 -0.91919123481E+03  0.13773620957E+04  0.60004247697E+03 0.  0.
         23    2    4    4    0    0 -0.88434891741E+03  0.16775375321E+03 -0.80304219181E+03  0.12101369502E+04  0.96645470369E+02 0.  0.
         23    2    4    4    0    0  0.59693531552E+02 -0.57724952482E+02 -0.11614904300E+03  0.16722514554E+03  0.87052635007E+02 0.  0.
          1    1    3    3  502    0  0.51546421744E+03 -0.71024165351E+02  0.67778933285E+03  0.85448591050E+03  0.00000000000E+00 0. -1.
         -1    1    3    3    0  502  0.30919116842E+03 -0.39004635374E+02  0.30457584720E+03  0.43576024016E+03  0.00000000000E+00 0.  1.
         11    1    5    5    0    0 -0.42877596208E+03  0.74442899896E+02 -0.45228207119E+03  0.62765407903E+03  0.00000000000E+00 0.  1.
        -11    1    5    5    0    0 -0.45557295533E+03  0.93310853311E+02 -0.35076012061E+03  0.58248287116E+03  0.00000000000E+00 0. -1.
          5    1    6    6  503    0  0.21286182111E+02 -0.37593931926E+02 -0.32231953329E+00  0.43458016020E+02  0.47000000000E+01 0. -1.
         -5    1    6    6    0  503  0.38407349440E+02 -0.20131020556E+02 -0.11582672347E+03  0.12376712952E+03  0.47000000000E+01 0.  1.
<mgrwt>
<rscale>  0 0.90963561E+03</rscale>
<asrwt>0</asrwt>
<pdfrwt beam="1">  1        2 0.20034110E+00 0.90963561E+03</pdfrwt>
<pdfrwt beam="2">  1       -2 0.21006017E+00 0.90963561E+03</pdfrwt>
<totfact> 0.18956190E+00</totfact>
</mgrwt>
</event>
<event>
12    1  0.3127365E-008  0.6130095E+03  0.7818608E-02  0.9878777E-01
         -1   -1    0    0    0  501 -0.00000000000E+00  0.00000000000E+00  0.73963710439E+03  0.73963710439E+03  0.00000000000E+00 0.  1.
          1   -1    0    0  501    0  0.00000000000E+00 -0.00000000000E+00 -0.60246635101E+03  0.60246635101E+03  0.00000000000E+00 0. -1.
         23    2    1    2    0    0 -0.42184257716E+03 -0.23567339760E+03  0.27088464036E+03  0.56154348090E+03  0.91975444120E+02 0.  0.
    5000000    2    1    2    0    0  0.42184257716E+03  0.23567339760E+03 -0.13371388698E+03  0.78055997450E+03  0.59824857707E+03 0.  0.
         23    2    4    4    0    0  0.10119893389E+03  0.37209447387E+03  0.14532061253E+01  0.39587069120E+03  0.89531953180E+02 0.  0.
         23    2    4    4    0    0  0.32064364327E+03 -0.13642107627E+03 -0.13516709311E+03  0.38468928330E+03  0.91063964353E+02 0.  0.
          2    1    3    3  502    0 -0.55366260899E+02 -0.60007895611E+01  0.10377707926E+02  0.56649176015E+02  0.00000000000E+00 0. -1.
         -2    1    3    3    0  502 -0.36647631626E+03 -0.22967260804E+03  0.26050693243E+03  0.50489430489E+03  0.00000000000E+00 0.  1.
         11    1    5    5    0    0  0.10275430902E+03  0.31390447784E+03 -0.26383249128E+02  0.33134656338E+03  0.00000000000E+00 0. -1.
        -11    1    5    5    0    0 -0.15553751358E+01  0.58189996025E+02  0.27836455253E+02  0.64524127815E+02  0.00000000000E+00 0.  1.
          5    1    6    6  503    0  0.81832822606E+02 -0.24528243927E+02  0.55418780113E+01  0.85738252943E+02  0.47000000000E+01 0. -1.
         -5    1    6    6    0  503  0.23881082067E+03 -0.11189283234E+03 -0.14070897112E+03  0.29895103035E+03  0.47000000000E+01 0.  1.
<mgrwt>
<rscale>  0 0.61300950E+03</rscale>
<asrwt>0</asrwt>
<pdfrwt beam="1">  1        1 0.92687131E-01 0.61300950E+03</pdfrwt>
<pdfrwt beam="2">  1       -1 0.11379032E+00 0.61300950E+03</pdfrwt>
<totfact> 0.24970402E+01</totfact>
</mgrwt>
</event>
<event>
12    1  0.3127365E-008  0.7370305E+03  0.7818608E-02  0.9655920E-01
         -2   -1    0    0    0  501 -0.00000000000E+00  0.00000000000E+00  0.35731717744E+03  0.35731717744E+03  0.00000000000E+00 0.  1.
          2   -1    0    0  501    0  0.00000000000E+00 -0.00000000000E+00 -0.19564851160E+04  0.19564851160E+04  0.00000000000E+00 0. -1.
         23    2    1    2    0    0 -0.93203059816E+02  0.68878330646E+03 -0.41423941457E+03  0.81463556743E+03  0.94485774226E+02 0.  0.
    5000000    2    1    2    0    0  0.93203059816E+02 -0.68878330646E+03 -0.11849285240E+04  0.14991667260E+04  0.60027994452E+03 0.  0.
         23    2    4    4    0    0  0.11809488284E+03 -0.51164831560E+02 -0.62702630160E+03  0.64663756205E+03  0.91727381006E+02 0.  0.
         23    2    4    4    0    0 -0.24891823020E+02 -0.63761847490E+03 -0.55790222243E+03  0.85252916398E+03  0.91510454405E+02 0.  0.
          3    1    3    3  502    0 -0.81172263358E+02  0.42543521484E+03 -0.30260653000E+03  0.52835099164E+03  0.00000000000E+00 0. -1.
         -3    1    3    3    0  502 -0.12030796458E+02  0.26334809162E+03 -0.11163288457E+03  0.28628457580E+03  0.00000000000E+00 0.  1.
         11    1    5    5    0    0  0.41717048678E+02 -0.44987366168E+02 -0.44398546598E+03  0.44820449492E+03  0.00000000000E+00 0.  1.
        -11    1    5    5    0    0  0.76377834158E+02 -0.61774653917E+01 -0.18304083561E+03  0.19843306713E+03  0.00000000000E+00 0. -1.
          5    1    6    6  503    0  0.10261918355E+02 -0.12763312753E+03 -0.70731549412E+02  0.14635765882E+03  0.47000000000E+01 0. -1.
         -5    1    6    6    0  503 -0.35153741375E+02 -0.50998534736E+03 -0.48717067302E+03  0.70617150516E+03  0.47000000000E+01 0.  1.
<mgrwt>
<rscale>  0 0.73703048E+03</rscale>
<asrwt>0</asrwt>
<pdfrwt beam="1">  1        2 0.30099771E+00 0.73703048E+03</pdfrwt>
<pdfrwt beam="2">  1       -2 0.54971873E-01 0.73703048E+03</pdfrwt>
<totfact> 0.22744147E+01</totfact>
</mgrwt>
</event>
<event>
12    1  0.3127365E-008  0.8574613E+03  0.7818608E-02  0.9480377E-01
         -1   -1    0    0    0  501 -0.00000000000E+00  0.00000000000E+00  0.69714635276E+03  0.69714635276E+03  0.00000000000E+00 0.  1.
          1   -1    0    0  501    0  0.00000000000E+00 -0.00000000000E+00 -0.12277072879E+04  0.12277072879E+04  0.00000000000E+00 0. -1.
         23    2    1    2    0    0 -0.36238674837E+03 -0.66594892051E+03 -0.57660292451E+03  0.95689118754E+03  0.91420414071E+02 0.  0.
    5000000    2    1    2    0    0  0.36238674837E+03  0.66594892051E+03  0.46041989377E+02  0.96796245311E+03  0.60001610455E+03 0.  0.
         23    2    4    4    0    0  0.58425854180E+01  0.57586517996E+03 -0.19466750155E+02  0.58356945382E+03  0.92301201351E+02 0.  0.
         23    2    4    4    0    0  0.35654416296E+03  0.90083740549E+02  0.65508739532E+02  0.38439299929E+03  0.90707014616E+02 0.  0.
          3    1    3    3  502    0 -0.99889481580E+02 -0.13659421691E+03 -0.91340105475E+02  0.19229899504E+03  0.00000000000E+00 0. -1.
         -3    1    3    3    0  502 -0.26249726679E+03 -0.52935470360E+03 -0.48526281903E+03  0.76459219250E+03  0.00000000000E+00 0.  1.
         11    1    5    5    0    0  0.40674656529E+02  0.32858858651E+03  0.15263348973E+02  0.33144812066E+03  0.00000000000E+00 0. -1.
        -11    1    5    5    0    0 -0.34832071111E+02  0.24727659345E+03 -0.34730099128E+02  0.25212133316E+03  0.00000000000E+00 0.  1.
          5    1    6    6  503    0  0.26177771741E+03  0.96220540156E+02  0.74976231769E+02  0.28884163656E+03  0.47000000000E+01 0. -1.
         -5    1    6    6    0  503  0.94766445545E+02 -0.61367996066E+01 -0.94674922368E+01  0.95551362731E+02  0.47000000000E+01 0.  1.
<mgrwt>
<rscale>  0 0.85746133E+03</rscale>
<asrwt>0</asrwt>
<pdfrwt beam="1">  1        1 0.18887804E+00 0.85746133E+03</pdfrwt>
<pdfrwt beam="2">  1       -1 0.10725329E+00 0.85746133E+03</pdfrwt>
<totfact> 0.84323752E+00</totfact>
</mgrwt>
</event>
<event>
12    1  0.3127365E-008  0.8068057E+03  0.7818608E-02  0.9550218E-01
          1   -1    0    0  501    0  0.00000000000E+00  0.00000000000E+00  0.11170308760E+04  0.11170308760E+04  0.00000000000E+00 0. -1.
         -1   -1    0    0    0  501 -0.00000000000E+00 -0.00000000000E+00 -0.66540571717E+03  0.66540571717E+03  0.00000000000E+00 0.  1.
         23    2    1    2    0    0  0.56430857145E+03 -0.48727085709E+03  0.31971831100E+03  0.81642766381E+03  0.91963470332E+02 0.  0.
    5000000    2    1    2    0    0 -0.56430857145E+03  0.48727085709E+03  0.13190684778E+03  0.96600892931E+03  0.59991397970E+03 0.  0.
         23    2    4    4    0    0 -0.39351381245E+03  0.55007338924E+03 -0.57402007660E+02  0.68492769676E+03  0.91635719870E+02 0.  0.
         23    2    4    4    0    0 -0.17079475899E+03 -0.62802532156E+02  0.18930885544E+03  0.28108123255E+03  0.10026868304E+03 0.  0.
          3    1    3    3  502    0  0.34439451317E+03 -0.30481971834E+03  0.14842399878E+03  0.48327251608E+03  0.00000000000E+00 0. -1.
         -3    1    3    3    0  502  0.21991405828E+03 -0.18245113875E+03  0.17129431222E+03  0.33315514773E+03  0.00000000000E+00 0.  1.
         11    1    5    5    0    0 -0.27186732193E+03  0.42047059304E+03 -0.93341640051E+01  0.50079385676E+03  0.00000000000E+00 0. -1.
        -11    1    5    5    0    0 -0.12164649053E+03  0.12960279620E+03 -0.48067843655E+02  0.18413384000E+03  0.00000000000E+00 0.  1.
          5    1    6    6  503    0 -0.81816352130E+02 -0.26621980078E+01  0.26854725622E+02  0.86280177691E+02  0.47000000000E+01 0. -1.
         -5    1    6    6    0  503 -0.88978406862E+02 -0.60140334148E+02  0.16245412982E+03  0.19480105486E+03  0.47000000000E+01 0.  1.
<mgrwt>
<rscale>  0 0.80680571E+03</rscale>
<asrwt>0</asrwt>
<pdfrwt beam="1">  1        1 0.17185090E+00 0.80680571E+03</pdfrwt>
<pdfrwt beam="2">  1       -1 0.10237011E+00 0.80680571E+03</pdfrwt>
<totfact> 0.11398219E+01</totfact>
</mgrwt>
</event>
<event>
12    1  0.3127365E-008  0.1074420E+04  0.7818608E-02  0.9230488E-01
          1   -1    0    0  501    0  0.00000000000E+00  0.00000000000E+00  0.86186920178E+03  0.86186920178E+03  0.00000000000E+00 0. -1.
         -1   -1    0    0    0  501 -0.00000000000E+00 -0.00000000000E+00 -0.19372244544E+04  0.19372244544E+04  0.00000000000E+00 0.  1.
         23    2    1    2    0    0  0.21573227152E+03  0.10317238616E+04  0.15762886779E+03  0.10695265226E+04  0.89697173903E+02 0.  0.
    5000000    2    1    2    0    0 -0.21573227152E+03 -0.10317238616E+04 -0.12329841204E+04  0.17295671335E+04  0.60013172607E+03 0.  0.
         23    2    4    4    0    0 -0.27692653236E+01 -0.68636280453E+03 -0.10872046263E+04  0.12891059720E+04  0.93159751272E+02 0.  0.
         23    2    4    4    0    0 -0.21296300620E+03 -0.34536105710E+03 -0.14577949404E+03  0.44046116151E+03  0.90149166130E+02 0.  0.
          1    1    3    3  502    0  0.55353405167E+02  0.37030886647E+03  0.18566949063E+02  0.37488316533E+03  0.00000000000E+00 0. -1.
         -1    1    3    3    0  502  0.16037886635E+03  0.66141499515E+03  0.13906191872E+03  0.69464335729E+03  0.00000000000E+00 0.  1.
         11    1    5    5    0    0 -0.89590429406E+01 -0.43212943796E+03 -0.59929711003E+03  0.73889995378E+03  0.00000000000E+00 0. -1.
        -11    1    5    5    0    0  0.61897776170E+01 -0.25423336657E+03 -0.48790751631E+03  0.55020601823E+03  0.00000000000E+00 0.  1.
          5    1    6    6  503    0 -0.14818596837E+03 -0.26817976097E+03 -0.70082389576E+02  0.31434550537E+03  0.47000000000E+01 0. -1.
         -5    1    6    6    0  503 -0.64777037829E+02 -0.77181296122E+02 -0.75697104463E+02  0.12611565615E+03  0.47000000000E+01 0.  1.
<mgrwt>
<rscale>  0 0.10744205E+04</rscale>
<asrwt>0</asrwt>
<pdfrwt beam="1">  1        1 0.13259526E+00 0.10744205E+04</pdfrwt>
<pdfrwt beam="2">  1       -1 0.29803453E+00 0.10744205E+04</pdfrwt>
<totfact> 0.66738845E-01</totfact>
</mgrwt>
</event>
<event>
12    1  0.3127365E-008  0.1784373E+04  0.7818608E-02  0.8714654E-01
          1   -1    0    0  501    0  0.00000000000E+00  0.00000000000E+00  0.19713780952E+04  0.19713780952E+04  0.00000000000E+00 0. -1.
         -1   -1    0    0    0  501 -0.00000000000E+00 -0.00000000000E+00 -0.18658285864E+04  0.18658285864E+04  0.00000000000E+00 0.  1.
         23    2    1    2    0    0  0.99346588500E+03 -0.14226207654E+04  0.74845938373E+03  0.18918988363E+04  0.90914525093E+02 0.  0.
    5000000    2    1    2    0    0 -0.99346588500E+03  0.14226207654E+04 -0.64290987500E+03  0.19453078453E+04  0.60005432966E+03 0.  0.
         23    2    4    4    0    0 -0.73626185041E-02  0.38674256953E+03 -0.10991506035E+03  0.41204613613E+03  0.90171407152E+02 0.  0.
         23    2    4    4    0    0 -0.99345852238E+03  0.10358781959E+04 -0.53299481465E+03  0.15332617091E+04  0.82489537432E+02 0.  0.
          1    1    3    3  502    0  0.32799223403E+03 -0.54313610294E+03  0.28655632578E+03  0.69619699780E+03  0.00000000000E+00 0. -1.
         -1    1    3    3    0  502  0.66547365097E+03 -0.87948466250E+03  0.46190305795E+03  0.11957018385E+04  0.00000000000E+00 0.  1.
         11    1    5    5    0    0  0.16978513044E+02  0.16936242163E+02 -0.19651077758E+02  0.31004371641E+02  0.00000000000E+00 0. -1.
        -11    1    5    5    0    0 -0.16985875662E+02  0.36980632737E+03 -0.90263982594E+02  0.38104176449E+03  0.00000000000E+00 0.  1.
          5    1    6    6  503    0 -0.86089252615E+03  0.85955347282E+03 -0.43734816060E+03  0.12927736143E+04  0.47000000000E+01 0.  1.
         -5    1    6    6    0  503 -0.13256599623E+03  0.17632472309E+03 -0.95646654051E+02  0.24048809484E+03  0.47000000000E+01 0. -1.
<mgrwt>
<rscale>  0 0.17843731E+04</rscale>
<asrwt>0</asrwt>
<pdfrwt beam="1">  1        1 0.30328894E+00 0.17843731E+04</pdfrwt>
<pdfrwt beam="2">  1       -1 0.28705055E+00 0.17843731E+04</pdfrwt>
<totfact> 0.11396016E-01</totfact>
</mgrwt>
</event>
<event>
12    1  0.3127365E-008  0.8613226E+03  0.7818608E-02  0.9475265E-01
         -2   -1    0    0    0  501 -0.00000000000E+00  0.00000000000E+00  0.89619978176E+03  0.89619978176E+03  0.00000000000E+00 0.  1.
          2   -1    0    0  501    0  0.00000000000E+00 -0.00000000000E+00 -0.94041663304E+03  0.94041663304E+03  0.00000000000E+00 0. -1.
         23    2    1    2    0    0 -0.72975904008E+03  0.25131845252E+03 -0.28716137687E+03  0.82929892448E+03  0.97805054233E+02 0.  0.
    5000000    2    1    2    0    0  0.72975904008E+03 -0.25131845252E+03  0.24294452559E+03  0.10073174903E+04  0.59996438447E+03 0.  0.
         23    2    4    4    0    0 -0.47932627495E+02 -0.15652179500E+03  0.19982197558E+02  0.18725914169E+03  0.88713521160E+02 0.  0.
         23    2    4    4    0    0  0.77769166757E+03 -0.94796657519E+02  0.22296232803E+03  0.82005834863E+03  0.94830160535E+02 0.  0.
          1    1    3    3  502    0 -0.81965005750E+02  0.18303089406E+02 -0.64046889219E+02  0.10561850817E+03  0.00000000000E+00 0. -1.
         -1    1    3    3    0  502 -0.64779403433E+03  0.23301536312E+03 -0.22311448765E+03  0.72368041631E+03  0.00000000000E+00 0.  1.
         11    1    5    5    0    0 -0.35647656113E+02 -0.74918990962E+02 -0.32893392640E+02  0.89250130938E+02  0.00000000000E+00 0.  1.
        -11    1    5    5    0    0 -0.12284971383E+02 -0.81602804041E+02  0.52875590198E+02  0.98009010749E+02  0.00000000000E+00 0. -1.
          5    1    6    6  503    0  0.57584591262E+03 -0.89461051434E+02  0.20294221301E+03  0.61709758274E+03  0.47000000000E+01 0. -1.
         -5    1    6    6    0  503  0.20184575495E+03 -0.53356060847E+01  0.20020115028E+02  0.20296076589E+03  0.47000000000E+01 0.  1.
<mgrwt>
<rscale>  0 0.86132263E+03</rscale>
<asrwt>0</asrwt>
<pdfrwt beam="1">  1        2 0.14467948E+00 0.86132263E+03</pdfrwt>
<pdfrwt beam="2">  1       -2 0.13787689E+00 0.86132263E+03</pdfrwt>
<totfact> 0.10343373E+01</totfact>
</mgrwt>
</event>
<event>
12    1  0.3127365E-008  0.1030934E+04  0.7818608E-02  0.9275253E-01
         -1   -1    0    0    0  501 -0.00000000000E+00  0.00000000000E+00  0.14014059093E+04  0.14014059093E+04  0.00000000000E+00 0.  1.
          1   -1    0    0  501    0  0.00000000000E+00 -0.00000000000E+00 -0.16601205116E+04  0.16601205116E+04  0.00000000000E+00 0. -1.
         23    2    1    2    0    0  0.92076816736E+03  0.26131654565E+03 -0.12374972129E+04  0.15669715596E+04  0.88882853111E+02 0.  0.
    5000000    2    1    2    0    0 -0.92076816736E+03 -0.26131654565E+03  0.97878261068E+03  0.14945548613E+04  0.59964863000E+03 0.  0.
         23    2    4    4    0    0 -0.77396709663E+03 -0.41276881457E+03  0.87607562496E+03  0.12431220209E+04  0.91873266763E+02 0.  0.
         23    2    4    4    0    0 -0.14680107073E+03  0.15145226892E+03  0.10270698572E+03  0.25143284046E+03  0.90451115074E+02 0.  0.
          4    1    3    3  502    0  0.74227553274E+03  0.17407281207E+03 -0.96988839747E+03  0.12336765435E+04  0.00000000000E+00 0. -1.
         -4    1    3    3    0  502  0.17849263461E+03  0.87243733580E+02 -0.26760881544E+03  0.33329501611E+03  0.00000000000E+00 0.  1.
         11    1    5    5    0    0 -0.35379830923E+03 -0.18165400619E+03  0.33374015089E+03  0.51918581442E+03  0.00000000000E+00 0.  1.
        -11    1    5    5    0    0 -0.42016878740E+03 -0.23111480838E+03  0.54233547406E+03  0.72393620643E+03  0.00000000000E+00 0. -1.
          5    1    6    6  503    0  0.64125056122E+01 -0.13930192934E+00 -0.60289916398E+01  0.99788964043E+01  0.47000000000E+01 0. -1.
         -5    1    6    6    0  503 -0.15321357634E+03  0.15159157085E+03  0.10873597736E+03  0.24145394406E+03  0.47000000000E+01 0.  1.
<mgrwt>
<rscale>  0 0.10309337E+04</rscale>
<asrwt>0</asrwt>
<pdfrwt beam="1">  1        1 0.25540315E+00 0.10309337E+04</pdfrwt>
<pdfrwt beam="2">  1       -1 0.21560091E+00 0.10309337E+04</pdfrwt>
<totfact> 0.60065223E-01</totfact>
</mgrwt>
</event>
<event>
12    1  0.3987666E-008  0.7353996E+03  0.7818608E-02  0.9658539E-01
         -1   -1    0    0    0  501 -0.00000000000E+00  0.00000000000E+00  0.63216613681E+03  0.63216613681E+03  0.00000000000E+00 0.  1.
          1   -1    0    0  501    0  0.00000000000E+00 -0.00000000000E+00 -0.12945333503E+04  0.12945333503E+04  0.00000000000E+00 0. -1.
         23    2    1    2    0    0 -0.56685868182E+03  0.35205870412E+03 -0.77001364769E+03  0.10229957891E+04  0.91242920702E+02 0.  0.
    5000000    2    1    2    0    0  0.56685868182E+03 -0.35205870412E+03  0.10764643416E+03  0.90370369805E+03  0.59984874992E+03 0.  0.
         23    2    4    4    0    0  0.24939265118E+03  0.63569536385E+02  0.23224779141E+03  0.35840027121E+03  0.90961186057E+02 0.  0.
         23    2    4    4    0    0  0.31746603064E+03 -0.41562824050E+03 -0.12460135725E+03  0.54530342684E+03  0.91097827506E+02 0.  0.
          3    1    3    3  502    0 -0.24121541804E+03  0.11890688896E+03 -0.36526724617E+03  0.45358999908E+03  0.00000000000E+00 0. -1.
         -3    1    3    3    0  502 -0.32564326379E+03  0.23315181516E+03 -0.40474640152E+03  0.56940579002E+03  0.00000000000E+00 0.  1.
         13    1    5    5    0    0  0.17514237023E+03  0.67074750727E-01  0.15423261276E+03  0.23337213456E+03  0.00000000000E+00 0. -1.
        -13    1    5    5    0    0  0.74250280948E+02  0.63502461635E+02  0.78015178649E+02  0.12502813665E+03  0.00000000000E+00 0.  1.
          5    1    6    6  503    0  0.13403580248E+03 -0.11677074541E+03 -0.17841334186E+02  0.17872158945E+03  0.47000000000E+01 0. -1.
         -5    1    6    6    0  503  0.18343022816E+03 -0.29885749509E+03 -0.10676002307E+03  0.36658183739E+03  0.47000000000E+01 0.  1.
<mgrwt>
<rscale>  0 0.73539959E+03</rscale>
<asrwt>0</asrwt>
<pdfrwt beam="1">  1        1 0.19915898E+00 0.73539959E+03</pdfrwt>
<pdfrwt beam="2">  1       -1 0.97256329E-01 0.73539959E+03</pdfrwt>
<totfact> 0.96226146E+00</totfact>
</mgrwt>
</event>
<event>
12    1  0.3127365E-008  0.4647504E+03  0.7818608E-02  0.1023412E+00
          2   -1    0    0  501    0  0.00000000000E+00  0.00000000000E+00  0.64151881589E+03  0.64151881589E+03  0.00000000000E+00 0. -1.
         -2   -1    0    0    0  501 -0.00000000000E+00 -0.00000000000E+00 -0.37277987563E+03  0.37277987563E+03  0.00000000000E+00 0.  1.
         23    2    1    2    0    0 -0.18868576062E+03  0.20354495381E+03  0.19013246746E+03  0.34853443435E+03  0.91066087345E+02 0.  0.
    5000000    2    1    2    0    0  0.18868576062E+03 -0.20354495381E+03  0.78606472806E+02  0.66576425717E+03  0.60002516954E+03 0.  0.
         23    2    4    4    0    0  0.37843267178E+03 -0.31047399857E+02  0.47836236506E+02  0.39331087760E+03  0.90718866878E+02 0.  0.
         23    2    4    4    0    0 -0.18974691117E+03 -0.17249755396E+03  0.30770236300E+02  0.27245337957E+03  0.86745260269E+02 0.  0.
          3    1    3    3  502    0 -0.26789970051E+02  0.89505019538E+02  0.50259394400E+02  0.10608891433E+03  0.00000000000E+00 0. -1.
         -3    1    3    3    0  502 -0.16189579057E+03  0.11403993427E+03  0.13987307306E+03  0.24244552002E+03  0.00000000000E+00 0.  1.
         13    1    5    5    0    0  0.33674989241E+03 -0.38886573544E+02  0.14383973571E+02  0.33929272662E+03  0.00000000000E+00 0. -1.
        -13    1    5    5    0    0  0.41682779370E+02  0.78391736877E+01  0.33452262935E+02  0.54018150982E+02  0.00000000000E+00 0.  1.
          5    1    6    6  503    0 -0.61769057956E+02 -0.57729649492E+02 -0.30346005260E+02  0.89950536333E+02  0.47000000000E+01 0. -1.
         -5    1    6    6    0  503 -0.12797785321E+03 -0.11476790446E+03  0.61116241560E+02  0.18250284324E+03  0.47000000000E+01 0.  1.
<mgrwt>
<rscale>  0 0.46475037E+03</rscale>
<asrwt>0</asrwt>
<pdfrwt beam="1">  1        2 0.98695202E-01 0.46475037E+03</pdfrwt>
<pdfrwt beam="2">  1       -2 0.57350750E-01 0.46475037E+03</pdfrwt>
<totfact> 0.13412924E+02</totfact>
</mgrwt>
</event>
<event>
12    1  0.3127365E-008  0.3512065E+03  0.7818608E-02  0.1062121E+00
          2   -1    0    0  501    0  0.00000000000E+00  0.00000000000E+00  0.39931500188E+03  0.39931500188E+03  0.00000000000E+00 0. -1.
         -2   -1    0    0    0  501 -0.00000000000E+00 -0.00000000000E+00 -0.63987315031E+03  0.63987315031E+03  0.00000000000E+00 0.  1.
         23    2    1    2    0    0 -0.28501920145E+03  0.12856124376E+03 -0.14324758926E+03  0.35571071413E+03  0.90809149993E+02 0.  0.
    5000000    2    1    2    0    0  0.28501920145E+03 -0.12856124376E+03 -0.97310559166E+02  0.68347743807E+03  0.59992343248E+03 0.  0.
         23    2    4    4    0    0  0.97192844259E+02  0.26889791366E+02 -0.31556324639E+03  0.34398392536E+03  0.92602746076E+02 0.  0.
         23    2    4    4    0    0  0.18782635719E+03 -0.15545103513E+03  0.21825268722E+03  0.33949351271E+03  0.90431437643E+02 0.  0.
          2    1    3    3  502    0 -0.12738518483E+03  0.15226093491E+02 -0.81456577807E+02  0.15196707967E+03  0.00000000000E+00 0. -1.
         -2    1    3    3    0  502 -0.15763401662E+03  0.11333515027E+03 -0.61791011455E+02  0.20374363445E+03  0.00000000000E+00 0.  1.
         11    1    5    5    0    0 -0.14861867592E+02 -0.96817896637E+01 -0.59622198218E+02  0.62204651593E+02  0.00000000000E+00 0. -1.
        -11    1    5    5    0    0  0.11205471185E+03  0.36571581030E+02 -0.25594104817E+03  0.28177927377E+03  0.00000000000E+00 0.  1.
          5    1    6    6  503    0  0.17030071314E+02 -0.15521555331E+02  0.69113453708E+02  0.73004804584E+02  0.47000000000E+01 0. -1.
         -5    1    6    6    0  503  0.17079628588E+03 -0.13992947980E+03  0.14913923352E+03  0.26648870813E+03  0.47000000000E+01 0.  1.
<mgrwt>
<rscale>  0 0.35120652E+03</rscale>
<asrwt>0</asrwt>
<pdfrwt beam="1">  1        2 0.61433077E-01 0.35120652E+03</pdfrwt>
<pdfrwt beam="2">  1       -2 0.98442023E-01 0.35120652E+03</pdfrwt>
<totfact> 0.71206757E+01</totfact>
</mgrwt>
</event>
<event>
12    1  0.3127365E-008  0.7787224E+03  0.7818608E-02  0.9591337E-01
          1   -1    0    0  501    0  0.00000000000E+00  0.00000000000E+00  0.34755737806E+04  0.34755737806E+04  0.00000000000E+00 0. -1.
         -1   -1    0    0    0  501 -0.00000000000E+00 -0.00000000000E+00 -0.19771780818E+03  0.19771780818E+03  0.00000000000E+00 0.  1.
         23    2    1    2    0    0 -0.37472487604E+03 -0.61130215445E+03  0.13966012624E+04  0.15724952863E+04  0.90206888316E+02 0.  0.
    5000000    2    1    2    0    0  0.37472487604E+03  0.61130215445E+03  0.18812547101E+04  0.21007963025E+04  0.60009729512E+03 0.  0.
         23    2    4    4    0    0 -0.11042228327E+02 -0.19765255797E+02  0.68426039718E+03  0.69082416886E+03  0.92266705713E+02 0.  0.
         23    2    4    4    0    0  0.38576710436E+03  0.63106741024E+03  0.11969943129E+04  0.14099721336E+04  0.90353181618E+02 0.  0.
          3    1    3    3  502    0 -0.21010455499E+03 -0.31188146522E+03  0.63974437676E+03  0.74208277165E+03  0.00000000000E+00 0. -1.
         -3    1    3    3    0  502 -0.16462032105E+03 -0.29942068922E+03  0.75685688559E+03  0.83041251466E+03  0.00000000000E+00 0.  1.
         11    1    5    5    0    0  0.22844101784E+02  0.28132856674E+02  0.27613555631E+03  0.27850342201E+03  0.00000000000E+00 0. -1.
        -11    1    5    5    0    0 -0.33886330111E+02 -0.47898112472E+02  0.40812484087E+03  0.41232074685E+03  0.00000000000E+00 0.  1.
          5    1    6    6  503    0  0.11671836243E+03  0.12154894292E+03  0.28916662689E+03  0.33471891156E+03  0.47000000000E+01 0. -1.
         -5    1    6    6    0  503  0.26904874194E+03  0.50951846732E+03  0.90782768599E+03  0.10752532221E+04  0.47000000000E+01 0.  1.
<mgrwt>
<rscale>  0 0.77872239E+03</rscale>
<asrwt>0</asrwt>
<pdfrwt beam="1">  1        1 0.53470361E+00 0.77872239E+03</pdfrwt>
<pdfrwt beam="2">  1       -1 0.30418127E-01 0.77872239E+03</pdfrwt>
<totfact> 0.27997221E+00</totfact>
</mgrwt>
</event>
<event>
12    1  0.3127365E-008  0.8611416E+03  0.7818608E-02  0.9475504E-01
         -1   -1    0    0    0  501 -0.00000000000E+00  0.00000000000E+00  0.41868251102E+03  0.41868251102E+03  0.00000000000E+00 0.  1.
          1   -1    0    0  501    0  0.00000000000E+00 -0.00000000000E+00 -0.23646041386E+04  0.23646041386E+04  0.00000000000E+00 0. -1.
         23    2    1    2    0    0 -0.59974187518E+03 -0.49378024004E+03 -0.24550770982E+03  0.81991191365E+03  0.92044925229E+02 0.  0.
    5000000    2    1    2    0    0  0.59974187518E+03  0.49378024004E+03 -0.17004139178E+04  0.19633747360E+04  0.59993634652E+03 0.  0.
         23    2    4    4    0    0  0.31092629348E+03  0.54676672834E+03 -0.13764778321E+04  0.15160604963E+04  0.90106553831E+02 0.  0.
         23    2    4    4    0    0  0.28881558170E+03 -0.52986488293E+02 -0.32393608567E+03  0.44731423967E+03  0.94516841030E+02 0.  0.
          4    1    3    3  502    0 -0.44235229967E+03 -0.33394627217E+03 -0.21049858497E+03  0.59287884428E+03  0.00000000000E+00 0. -1.
         -4    1    3    3    0  502 -0.15738957551E+03 -0.15983396787E+03 -0.35009124858E+02  0.22703306937E+03  0.00000000000E+00 0.  1.
         13    1    5    5    0    0  0.29602665622E+03  0.45804840162E+03 -0.11893332569E+04  0.13084164915E+04  0.00000000000E+00 0. -1.
        -13    1    5    5    0    0  0.14899637265E+02  0.88718326711E+02 -0.18714457522E+03  0.20764400477E+03  0.00000000000E+00 0.  1.
          5    1    6    6  503    0  0.29523992701E+03 -0.48498159165E+02 -0.31229240200E+03  0.43251279783E+03  0.47000000000E+01 0. -1.
         -5    1    6    6    0  503 -0.64243453099E+01 -0.44883291280E+01 -0.11643683672E+02  0.14801441838E+02  0.47000000000E+01 0.  1.
<mgrwt>
<rscale>  0 0.86114165E+03</rscale>
<asrwt>0</asrwt>
<pdfrwt beam="1">  1        1 0.36378525E+00 0.86114165E+03</pdfrwt>
<pdfrwt beam="2">  1       -1 0.64412694E-01 0.86114165E+03</pdfrwt>
<totfact> 0.42604008E+00</totfact>
</mgrwt>
</event>
<event>
12    1  0.3127365E-008  0.9262169E+03  0.7818608E-02  0.9393390E-01
         -1   -1    0    0    0  501 -0.00000000000E+00  0.00000000000E+00  0.12535938555E+04  0.12535938555E+04  0.00000000000E+00 0.  1.
          1   -1    0    0  501    0  0.00000000000E+00 -0.00000000000E+00 -0.88519161222E+03  0.88519161222E+03  0.00000000000E+00 0. -1.
         23    2    1    2    0    0 -0.77063233054E+03  0.30688819882E+03  0.67182380619E+03  0.10710548072E+04  0.88071663570E+02 0.  0.
    5000000    2    1    2    0    0  0.77063233054E+03 -0.30688819882E+03 -0.30342156288E+03  0.10677306606E+04  0.59994129986E+03 0.  0.
         23    2    4    4    0    0  0.24671575561E+03 -0.40616177224E+03 -0.13984767199E+03  0.50252372178E+03  0.84478815629E+02 0.  0.
         23    2    4    4    0    0  0.52391657493E+03  0.99273573421E+02 -0.16357389089E+03  0.56520693880E+03  0.91425631117E+02 0.  0.
          4    1    3    3  502    0 -0.56981287351E+03  0.18555290896E+03  0.49474516285E+03  0.77710319071E+03  0.00000000000E+00 0.  1.
         -4    1    3    3    0  502 -0.20081945703E+03  0.12133528987E+03  0.17707864334E+03  0.29395161645E+03  0.00000000000E+00 0. -1.
         11    1    5    5    0    0  0.99898913560E+02 -0.10348392402E+03 -0.65260113255E+02  0.15794808591E+03  0.00000000000E+00 0. -1.
        -11    1    5    5    0    0  0.14681684205E+03 -0.30267784822E+03 -0.74587558737E+02  0.34457563587E+03  0.00000000000E+00 0.  1.
          5    1    6    6  503    0  0.21890540246E+03  0.78288965886E+02 -0.98814103942E+02  0.25265600041E+03  0.47000000000E+01 0. -1.
         -5    1    6    6    0  503  0.30501117247E+03  0.20984607536E+02 -0.64759786944E+02  0.31255093839E+03  0.47000000000E+01 0.  1.
<mgrwt>
<rscale>  0 0.92621686E+03</rscale>
<asrwt>0</asrwt>
<pdfrwt beam="1">  1        1 0.13618332E+00 0.92621686E+03</pdfrwt>
<pdfrwt beam="2">  1       -1 0.19286059E+00 0.92621686E+03</pdfrwt>
<totfact> 0.31990127E+00</totfact>
</mgrwt>
</event>
<event>
12    1  0.3127365E-008  0.4611467E+03  0.7818608E-02  0.1024449E+00
          2   -1    0    0  501    0  0.00000000000E+00  0.00000000000E+00  0.19820986556E+04  0.19820986556E+04  0.00000000000E+00 0. -1.
         -2   -1    0    0    0  501 -0.00000000000E+00 -0.00000000000E+00 -0.12740110236E+03  0.12740110236E+03  0.00000000000E+00 0.  1.
         23    2    1    2    0    0  0.68766268943E+02  0.30749282951E+03  0.61688640749E+03  0.69850832936E+03  0.89913327685E+02 0.  0.
    5000000    2    1    2    0    0 -0.68766268943E+02 -0.30749282951E+03  0.12378111457E+04  0.14109914286E+04  0.59953293410E+03 0.  0.
         23    2    4    4    0    0 -0.25443868182E+03 -0.32722687763E+03  0.10405632780E+04  0.11237054211E+04  0.90141363918E+02 0.  0.
         23    2    4    4    0    0  0.18567241288E+03  0.19734048121E+02  0.19724786770E+03  0.28728600751E+03  0.93610102225E+02 0.  0.
          1    1    3    3  502    0  0.18594893965E+02  0.25772653898E+02  0.22847994375E+02  0.39141162700E+02  0.00000000000E+00 0. -1.
         -1    1    3    3    0  502  0.50171374978E+02  0.28172017561E+03  0.59403841312E+03  0.65936716666E+03  0.00000000000E+00 0.  1.
         11    1    5    5    0    0 -0.11098003852E+03 -0.17691885373E+03  0.62722432035E+03  0.66108032628E+03  0.00000000000E+00 0. -1.
        -11    1    5    5    0    0 -0.14345864330E+03 -0.15030802390E+03  0.41333895768E+03  0.46262509478E+03  0.00000000000E+00 0.  1.
          5    1    6    6  503    0  0.16530591419E+03  0.21462239533E+02  0.20558651103E+03  0.26471602995E+03  0.47000000000E+01 0. -1.
         -5    1    6    6    0  503  0.20366498686E+02 -0.17281914120E+01 -0.83386433364E+01  0.22569977558E+02  0.47000000000E+01 0.  1.
<mgrwt>
<rscale>  0 0.46114666E+03</rscale>
<asrwt>0</asrwt>
<pdfrwt beam="1">  1        2 0.30493823E+00 0.46114666E+03</pdfrwt>
<pdfrwt beam="2">  1       -2 0.19600171E-01 0.46114666E+03</pdfrwt>
<totfact> 0.16023648E+02</totfact>
</mgrwt>
</event>
<event>
12    1  0.3127365E-008  0.6156882E+03  0.7818608E-02  0.9873382E-01
         -2   -1    0    0    0  501 -0.00000000000E+00  0.00000000000E+00  0.71573187353E+03  0.71573187353E+03  0.00000000000E+00 0.  1.
          2   -1    0    0  501    0  0.00000000000E+00 -0.00000000000E+00 -0.74916558204E+03  0.74916558204E+03  0.00000000000E+00 0. -1.
         23    2    1    2    0    0  0.60307582310E+03  0.56923776712E+02 -0.86818299928E+01  0.61211413091E+03  0.87564663689E+02 0.  0.
    5000000    2    1    2    0    0 -0.60307582310E+03 -0.56923776712E+02 -0.24751878512E+02  0.85278332466E+03  0.59973825837E+03 0.  0.
         23    2    4    4    0    0 -0.38209938140E+03 -0.45453875273E+02 -0.29245912394E+03  0.49337938744E+03  0.99120576769E+02 0.  0.
         23    2    4    4    0    0 -0.22097644170E+03 -0.11469901439E+02  0.26770724542E+03  0.35940393721E+03  0.92422261411E+02 0.  0.
          3    1    3    3  502    0  0.10414012323E+03  0.15172169253E+02  0.31423814451E+02  0.10983085223E+03  0.00000000000E+00 0. -1.
         -3    1    3    3    0  502  0.49893569987E+03  0.41751607459E+02 -0.40105644444E+02  0.50228327869E+03  0.00000000000E+00 0.  1.
         11    1    5    5    0    0 -0.32763771273E+03 -0.21321455147E+02 -0.28218457290E+03  0.43293095111E+03  0.00000000000E+00 0. -1.
        -11    1    5    5    0    0 -0.54461668673E+02 -0.24132420125E+02 -0.10274551035E+02  0.60448436330E+02  0.00000000000E+00 0.  1.
          5    1    6    6  503    0 -0.36953270337E+02  0.31203388272E+02  0.76110180196E+02  0.90299751703E+02  0.47000000000E+01 0. -1.
         -5    1    6    6    0  503 -0.18402317137E+03 -0.42673289711E+02  0.19159706523E+03  0.26910418551E+03  0.47000000000E+01 0.  1.
<mgrwt>
<rscale>  0 0.61568818E+03</rscale>
<asrwt>0</asrwt>
<pdfrwt beam="1">  1        2 0.11525624E+00 0.61568818E+03</pdfrwt>
<pdfrwt beam="2">  1       -2 0.11011260E+00 0.61568818E+03</pdfrwt>
<totfact> 0.25294103E+01</totfact>
</mgrwt>
</event>
<event>
12    1  0.3127365E-008  0.4711041E+03  0.7818608E-02  0.1021609E+00
         -1   -1    0    0    0  501 -0.00000000000E+00  0.00000000000E+00  0.19495688645E+03  0.19495688645E+03  0.00000000000E+00 0.  1.
          1   -1    0    0  501    0  0.00000000000E+00 -0.00000000000E+00 -0.13346933345E+04  0.13346933345E+04  0.00000000000E+00 0. -1.
         23    2    1    2    0    0 -0.20148930902E+03 -0.21001690842E+03 -0.16039204820E+03  0.34464605806E+03  0.91379717330E+02 0.  0.
    5000000    2    1    2    0    0  0.20148930902E+03  0.21001690842E+03 -0.97934439988E+03  0.11850041629E+04  0.60034520826E+03 0.  0.
         23    2    4    4    0    0 -0.90944943569E+02 -0.13869997293E+03 -0.18488703691E+03  0.26466552035E+03  0.91410918333E+02 0.  0.
         23    2    4    4    0    0  0.29243425259E+03  0.34871688135E+03 -0.79445736297E+03  0.92033864257E+03  0.93485079040E+02 0.  0.
          2    1    3    3  502    0 -0.95124526826E+02 -0.12976596080E+03 -0.41721223334E+02  0.16621835237E+03  0.00000000000E+00 0. -1.
         -2    1    3    3    0  502 -0.10636478219E+03 -0.80250947615E+02 -0.11867082487E+03  0.17842770569E+03  0.00000000000E+00 0.  1.
         13    1    5    5    0    0 -0.87185040963E+02 -0.15031088497E+03 -0.15684685796E+03  0.23408445134E+03  0.00000000000E+00 0.  1.
        -13    1    5    5    0    0 -0.37599026062E+01  0.11610912036E+02 -0.28040178950E+02  0.30581069005E+02  0.00000000000E+00 0. -1.
          5    1    6    6  503    0  0.11947610065E+03  0.20433473680E+03 -0.45467717281E+03  0.51262134638E+03  0.47000000000E+01 0. -1.
         -5    1    6    6    0  503  0.17295815194E+03  0.14438214455E+03 -0.33978019016E+03  0.40771729619E+03  0.47000000000E+01 0.  1.
<mgrwt>
<rscale>  0 0.47110414E+03</rscale>
<asrwt>0</asrwt>
<pdfrwt beam="1">  1        1 0.20533744E+00 0.47110414E+03</pdfrwt>
<pdfrwt beam="2">  1       -1 0.29993367E-01 0.47110414E+03</pdfrwt>
<totfact> 0.92011983E+01</totfact>
</mgrwt>
</event>
<event>
12    1  0.3127365E-008  0.6284162E+03  0.7818608E-02  0.9848144E-01
         -2   -1    0    0    0  501 -0.00000000000E+00  0.00000000000E+00  0.10867741556E+04  0.10867741556E+04  0.00000000000E+00 0.  1.
          2   -1    0    0  501    0  0.00000000000E+00 -0.00000000000E+00 -0.15311991901E+04  0.15311991901E+04  0.00000000000E+00 0. -1.
         23    2    1    2    0    0 -0.11276354497E+03  0.56987598719E+03  0.87633962155E+03  0.10553445282E+04  0.91141005904E+02 0.  0.
    5000000    2    1    2    0    0  0.11276354497E+03 -0.56987598719E+03 -0.13207646560E+04  0.15626288175E+04  0.59992940158E+03 0.  0.
         23    2    4    4    0    0  0.21597629961E+03 -0.28848779342E+03 -0.25225296692E+03  0.44897693423E+03  0.89876355101E+02 0.  0.
         23    2    4    4    0    0 -0.10321275464E+03 -0.28138819377E+03 -0.10685116891E+04  0.11136518833E+04  0.93118736461E+02 0.  0.
          3    1    3    3  502    0 -0.59738714058E+01  0.86482387684E+02  0.19254115413E+03  0.21115630834E+03  0.00000000000E+00 0. -1.
         -3    1    3    3    0  502 -0.10678967357E+03  0.48339359951E+03  0.68379846742E+03  0.84418821981E+03  0.00000000000E+00 0.  1.
         11    1    5    5    0    0  0.34848654644E+02 -0.70321445708E+02 -0.16455119560E+02  0.80189185160E+02  0.00000000000E+00 0.  1.
        -11    1    5    5    0    0  0.18112764497E+03 -0.21816634771E+03 -0.23579784736E+03  0.36878774907E+03  0.00000000000E+00 0. -1.
          5    1    6    6  503    0 -0.13190089108E+02 -0.16619696061E+03 -0.60862667220E+03  0.63106570520E+03  0.47000000000E+01 0. -1.
         -5    1    6    6    0  503 -0.90022665528E+02 -0.11519123316E+03 -0.45988501690E+03  0.48258617808E+03  0.47000000000E+01 0.  1.
<mgrwt>
<rscale>  0 0.62841620E+03</rscale>
<asrwt>0</asrwt>
<pdfrwt beam="1">  1        2 0.23556910E+00 0.62841620E+03</pdfrwt>
<pdfrwt beam="2">  1       -2 0.16719602E+00 0.62841620E+03</pdfrwt>
<totfact> 0.28616291E+00</totfact>
</mgrwt>
</event>
<event>
12    1  0.3127365E-008  0.3765382E+03  0.7818608E-02  0.1052221E+00
          2   -1    0    0  501    0  0.00000000000E+00  0.00000000000E+00  0.76471991894E+03  0.76471991894E+03  0.00000000000E+00 0. -1.
         -2   -1    0    0    0  501 -0.00000000000E+00 -0.00000000000E+00 -0.28155196897E+03  0.28155196897E+03  0.00000000000E+00 0.  1.
         23    2    1    2    0    0  0.10976565541E+03 -0.14485616663E+03  0.34967270785E+03  0.40520104510E+03  0.94260682225E+02 0.  0.
    5000000    2    1    2    0    0 -0.10976565541E+03  0.14485616663E+03  0.13349524212E+03  0.64107084281E+03  0.60009918990E+03 0.  0.
         23    2    4    4    0    0  0.81326072393E+02  0.29530799246E+03  0.19493076337E+03  0.37424669680E+03  0.90784619266E+02 0.  0.
         23    2    4    4    0    0 -0.19109172780E+03 -0.15045182583E+03 -0.61435521251E+02  0.26682414602E+03  0.90934049157E+02 0.  0.
          4    1    3    3  502    0  0.66461703781E+02 -0.19697122000E+02  0.88964290445E+02  0.11278200060E+03  0.00000000000E+00 0.  1.
         -4    1    3    3    0  502  0.43303951630E+02 -0.12515904463E+03  0.26070841740E+03  0.29241904450E+03  0.00000000000E+00 0. -1.
         13    1    5    5    0    0  0.17251015506E+02  0.43092217509E+02 -0.41486783523E+01  0.46602020105E+02  0.00000000000E+00 0.  1.
        -13    1    5    5    0    0  0.64075056887E+02  0.25221577495E+03  0.19907944172E+03  0.32764467669E+03  0.00000000000E+00 0. -1.
          5    1    6    6  503    0 -0.18105378836E+03 -0.13616083135E+03 -0.27343865683E+02  0.22823238873E+03  0.47000000000E+01 0. -1.
         -5    1    6    6    0  503 -0.10037939442E+02 -0.14290994484E+02 -0.34091655567E+02  0.38591757292E+02  0.47000000000E+01 0.  1.
<mgrwt>
<rscale>  0 0.37653816E+03</rscale>
<asrwt>0</asrwt>
<pdfrwt beam="1">  1        2 0.11764922E+00 0.37653816E+03</pdfrwt>
<pdfrwt beam="2">  1       -2 0.43315688E-01 0.37653816E+03</pdfrwt>
<totfact> 0.19150457E+02</totfact>
</mgrwt>
</event>
<event>
12    1  0.3127365E-008  0.1119517E+04  0.7818608E-02  0.9186375E-01
          1   -1    0    0  501    0  0.00000000000E+00  0.00000000000E+00  0.34142270461E+04  0.34142270461E+04  0.00000000000E+00 0. -1.
         -1   -1    0    0    0  501 -0.00000000000E+00 -0.00000000000E+00 -0.56898117845E+03  0.56898117845E+03  0.00000000000E+00 0.  1.
         23    2    1    2    0    0 -0.65299871586E+03 -0.82443097208E+03  0.25158644073E+04  0.27283431067E+04  0.90491109825E+02 0.  0.
    5000000    2    1    2    0    0  0.65299871586E+03  0.82443097208E+03  0.32938146032E+03  0.12548651179E+04  0.60008380005E+03 0.  0.
         23    2    4    4    0    0  0.57771934142E+03  0.31971968888E+03  0.58567828469E+02  0.66921277005E+03  0.91843476388E+02 0.  0.
         23    2    4    4    0    0  0.75279374433E+02  0.50471128320E+03  0.27081363185E+03  0.58565234785E+03  0.96167487959E+02 0.  0.
          2    1    3    3  502    0 -0.27292180293E+03 -0.41294368317E+03  0.12201008192E+04  0.13166832592E+04  0.00000000000E+00 0. -1.
         -2    1    3    3    0  502 -0.38007691292E+03 -0.41148728891E+03  0.12957635881E+04  0.14116598475E+04  0.00000000000E+00 0.  1.
         11    1    5    5    0    0  0.42605176706E+03  0.19352141027E+03  0.60937342115E+02  0.47189406026E+03  0.00000000000E+00 0. -1.
        -11    1    5    5    0    0  0.15166757436E+03  0.12619827861E+03 -0.23695136457E+01  0.19731870979E+03  0.00000000000E+00 0.  1.
          5    1    6    6  503    0 -0.20835773969E+02  0.13159224035E+03  0.57122548899E+02  0.14503697043E+03  0.47000000000E+01 0. -1.
         -5    1    6    6    0  503  0.96115148401E+02  0.37311904285E+03  0.21369108295E+03  0.44061537742E+03  0.47000000000E+01 0.  1.
<mgrwt>
<rscale>  0 0.11195175E+04</rscale>
<asrwt>0</asrwt>
<pdfrwt beam="1">  1        1 0.52526569E+00 0.11195175E+04</pdfrwt>
<pdfrwt beam="2">  1       -1 0.87535568E-01 0.11195175E+04</pdfrwt>
<totfact> 0.38072582E-01</totfact>
</mgrwt>
</event>
<event>
12    1  0.3127365E-008  0.7387142E+03  0.7818608E-02  0.9653224E-01
          2   -1    0    0  501    0  0.00000000000E+00  0.00000000000E+00  0.17360621817E+04  0.17360621817E+04  0.00000000000E+00 0. -1.
         -2   -1    0    0    0  501 -0.00000000000E+00 -0.00000000000E+00 -0.77595943847E+03  0.77595943847E+03  0.00000000000E+00 0.  1.
         23    2    1    2    0    0 -0.58887176713E+03  0.25521055431E+03 -0.49277376951E+03  0.81416661092E+03  0.90215837071E+02 0.  0.
    5000000    2    1    2    0    0  0.58887176713E+03 -0.25521055431E+03  0.14528765127E+04  0.16978550092E+04  0.59996590401E+03 0.  0.
         23    2    4    4    0    0  0.59414391936E+03 -0.37303657896E+03  0.13220079374E+04  0.14993764261E+04  0.90892212661E+02 0.  0.
         23    2    4    4    0    0 -0.52721522292E+01  0.11782602466E+03  0.13086857527E+03  0.19847858311E+03  0.91413326638E+02 0.  0.
          4    1    3    3  502    0 -0.25233325736E+03  0.10952942190E+03 -0.15579279288E+03  0.31613313864E+03  0.00000000000E+00 0. -1.
         -4    1    3    3    0  502 -0.33653850977E+03  0.14568113241E+03 -0.33698097663E+03  0.49803347228E+03  0.00000000000E+00 0.  1.
         13    1    5    5    0    0  0.43192386861E+03 -0.29954024845E+03  0.91745456590E+03  0.10573577773E+04  0.00000000000E+00 0. -1.
        -13    1    5    5    0    0  0.16222005076E+03 -0.73496330519E+02  0.40455337154E+03  0.44201864881E+03  0.00000000000E+00 0.  1.
          5    1    6    6  503    0  0.25853848273E+02  0.68841687357E+02  0.25285187934E+02  0.77903980113E+02  0.47000000000E+01 0. -1.
         -5    1    6    6    0  503 -0.31126000502E+02  0.48984337299E+02  0.10558338733E+03  0.12057460300E+03  0.47000000000E+01 0.  1.
<mgrwt>
<rscale>  0 0.73871422E+03</rscale>
<asrwt>0</asrwt>
<pdfrwt beam="1">  1        2 0.26708649E+00 0.73871422E+03</pdfrwt>
<pdfrwt beam="2">  1       -2 0.11937838E+00 0.73871422E+03</pdfrwt>
<totfact> 0.51975304E+00</totfact>
</mgrwt>
</event>
<event>
12    1  0.3127365E-008  0.1117485E+04  0.7818608E-02  0.9188315E-01
         -2   -1    0    0    0  501 -0.00000000000E+00  0.00000000000E+00  0.10183008541E+04  0.10183008541E+04  0.00000000000E+00 0. -1.
          2   -1    0    0  501    0  0.00000000000E+00 -0.00000000000E+00 -0.15934046740E+04  0.15934046740E+04  0.00000000000E+00 0.  1.
         23    2    1    2    0    0 -0.11035735424E+04 -0.48456782569E+02  0.21295040770E+03  0.11280371885E+04  0.83050582530E+02 0.  0.
    5000000    2    1    2    0    0  0.11035735424E+04  0.48456782569E+02 -0.78805422756E+03  0.14836683396E+04  0.60001637733E+03 0.  0.
         23    2    4    4    0    0  0.93882975019E+03  0.62686221982E+02 -0.86314300640E+03  0.12803344751E+04  0.94390976536E+02 0.  0.
         23    2    4    4    0    0  0.16474379221E+03 -0.14229439414E+02  0.75088778839E+02  0.20333386446E+03  0.91451307863E+02 0.  0.
          2    1    3    3  502    0 -0.23193060267E+03  0.23652121806E+02  0.44403342797E+02  0.23732442810E+03  0.00000000000E+00 0.  1.
         -2    1    3    3    0  502 -0.87164293973E+03 -0.72108904375E+02  0.16854706490E+03  0.89071276041E+03  0.00000000000E+00 0. -1.
         13    1    5    5    0    0  0.93009703910E+03  0.58080494151E+02 -0.83781835858E+03  0.12531534016E+04  0.00000000000E+00 0.  1.
        -13    1    5    5    0    0  0.87327110892E+01  0.46057278313E+01 -0.25324647815E+02  0.27181073540E+02  0.00000000000E+00 0. -1.
          5    1    6    6  503    0  0.61143970264E+02 -0.46348414855E+02  0.50635161372E+02  0.92047651933E+02  0.47000000000E+01 0. -1.
         -5    1    6    6    0  503  0.10359982195E+03  0.32118975441E+02  0.24453617468E+02  0.11128621253E+03  0.47000000000E+01 0.  1.
<mgrwt>
<rscale>  0 0.11174855E+04</rscale>
<asrwt>0</asrwt>
<pdfrwt beam="1">  1        2 0.24513918E+00 0.11174855E+04</pdfrwt>
<pdfrwt beam="2">  1       -2 0.15666167E+00 0.11174855E+04</pdfrwt>
<totfact> 0.29398983E+00</totfact>
</mgrwt>
</event>
<event>
12    1  0.3127365E-008  0.1889741E+04  0.7818608E-02  0.8659980E-01
         -3   -1    0    0    0  501 -0.00000000000E+00  0.00000000000E+00  0.18635331557E+04  0.18635331557E+04  0.00000000000E+00 0.  1.
          3   -1    0    0  501    0  0.00000000000E+00 -0.00000000000E+00 -0.19841240265E+04  0.19841240265E+04  0.00000000000E+00 0. -1.
         23    2    1    2    0    0 -0.17694354810E+04 -0.55086640014E+03 -0.34345402223E+03  0.18870231875E+04  0.92412837623E+02 0.  0.
    5000000    2    1    2    0    0  0.17694354810E+04  0.55086640014E+03  0.22286315135E+03  0.19606339947E+04  0.60005163513E+03 0.  0.
         23    2    4    4    0    0  0.78012493098E+03 -0.67156912630E+01  0.23979025498E+03  0.82150800625E+03  0.93466729376E+02 0.  0.
         23    2    4    4    0    0  0.98931054999E+03  0.55758209141E+03 -0.16927103633E+02  0.11391259885E+04  0.87683166874E+02 0.  0.
          1    1    3    3  502    0 -0.42587763461E+03 -0.16776942790E+03 -0.63046615791E+02  0.46205326139E+03  0.00000000000E+00 0. -1.
         -1    1    3    3    0  502 -0.13435578464E+04 -0.38309697224E+03 -0.28040740644E+03  0.14249699261E+04  0.00000000000E+00 0.  1.
         13    1    5    5    0    0  0.40042696904E+03  0.42892665810E+02  0.12913477861E+03  0.42291527445E+03  0.00000000000E+00 0.  1.
        -13    1    5    5    0    0  0.37969796194E+03 -0.49608357073E+02  0.11065547637E+03  0.39859273180E+03  0.00000000000E+00 0. -1.
          5    1    6    6  503    0  0.80678349659E+02  0.74526213827E+02 -0.20722855608E+01  0.10995243071E+03  0.47000000000E+01 0. -1.
         -5    1    6    6    0  503  0.90863220034E+03  0.48305587758E+03 -0.14854818073E+02  0.10291735577E+04  0.47000000000E+01 0.  1.
<mgrwt>
<rscale>  0 0.18897409E+04</rscale>
<asrwt>0</asrwt>
<pdfrwt beam="1">  1        3 0.30524985E+00 0.18897409E+04</pdfrwt>
<pdfrwt beam="2">  1       -3 0.28669741E+00 0.18897409E+04</pdfrwt>
<totfact> 0.37523602E-03</totfact>
</mgrwt>
</event>
<event>
12    1  0.3127365E-008  0.6700158E+03  0.7818608E-02  0.9769929E-01
          1   -1    0    0  501    0  0.00000000000E+00  0.00000000000E+00  0.27556452299E+04  0.27556452299E+04  0.00000000000E+00 0. -1.
         -1   -1    0    0    0  501 -0.00000000000E+00 -0.00000000000E+00 -0.42830090266E+03  0.42830090266E+03  0.00000000000E+00 0.  1.
         23    2    1    2    0    0  0.47716142276E+03 -0.44754603319E+03  0.21873450166E+04  0.22852215340E+04  0.98887624540E+02 0.  0.
    5000000    2    1    2    0    0 -0.47716142276E+03  0.44754603319E+03  0.13999931055E+03  0.89872459856E+03  0.60010467579E+03 0.  0.
         23    2    4    4    0    0 -0.23763391512E+03  0.29017023696E+03 -0.20864753135E+03  0.43807268537E+03  0.87779503844E+02 0.  0.
         23    2    4    4    0    0 -0.23952750763E+03  0.15737579622E+03  0.34864684191E+03  0.46065191318E+03  0.92222538444E+02 0.  0.
          1    1    3    3  502    0  0.10529860224E+03 -0.13896075633E+03  0.69798402131E+03  0.71943003929E+03  0.00000000000E+00 0. -1.
         -1    1    3    3    0  502  0.37186282051E+03 -0.30858527685E+03  0.14893609953E+04  0.15657914947E+04  0.00000000000E+00 0.  1.
         13    1    5    5    0    0 -0.75395159610E+02  0.16105316166E+03 -0.94140106407E+02  0.20120862459E+03  0.00000000000E+00 0.  1.
        -13    1    5    5    0    0 -0.16223875551E+03  0.12911707530E+03 -0.11450742495E+03  0.23686406079E+03  0.00000000000E+00 0. -1.
          5    1    6    6  503    0 -0.66762244881E+02  0.54125546712E+01  0.11177697466E+03  0.13039430645E+03  0.47000000000E+01 0. -1.
         -5    1    6    6    0  503 -0.17276526275E+03  0.15196324155E+03  0.23686986724E+03  0.33025760673E+03  0.47000000000E+01 0.  1.
<mgrwt>
<rscale>  0 0.67001583E+03</rscale>
<asrwt>0</asrwt>
<pdfrwt beam="1">  1        1 0.42394541E+00 0.67001583E+03</pdfrwt>
<pdfrwt beam="2">  1       -1 0.65892448E-01 0.67001583E+03</pdfrwt>
<totfact> 0.22749874E+00</totfact>
</mgrwt>
</event>
<event>
12    1  0.5438942E-008  0.1948888E+04  0.7818608E-02  0.8630897E-01
          2   -1    0    0  501    0  0.00000000000E+00  0.00000000000E+00  0.20519575184E+04  0.20519575184E+04  0.00000000000E+00 0. -1.
         -2   -1    0    0    0  501 -0.00000000000E+00 -0.00000000000E+00 -0.18747038086E+04  0.18747038086E+04  0.00000000000E+00 0.  1.
         23    2    1    2    0    0 -0.11647583840E+04  0.15182386379E+04  0.31484983243E+02  0.19159378159E+04  0.90087488852E+02 0.  0.
    5000000    2    1    2    0    0  0.11647583840E+04 -0.15182386379E+04  0.14576872656E+03  0.20107235110E+04  0.60004154977E+03 0.  0.
         23    2    4    4    0    0  0.90880607374E+02 -0.46856619015E+03 -0.71068234077E+02  0.49119829573E+03  0.91714298147E+02 0.  0.
         23    2    4    4    0    0  0.10738777766E+04 -0.10496724478E+04  0.21683696063E+03  0.15195252153E+04  0.83143765565E+02 0.  0.
          1    1    3    3  502    0 -0.56106809306E+03  0.80493573104E+03  0.11540714269E+02  0.98125028624E+03  0.00000000000E+00 0. -1.
         -1    1    3    3    0  502 -0.60369029091E+03  0.71330290688E+03  0.19944268973E+02  0.93468752970E+03  0.00000000000E+00 0.  1.
         13    1    5    5    0    0  0.78440379445E+01 -0.17406818878E+03 -0.62444605104E+02  0.18509616955E+03  0.00000000000E+00 0. -1.
        -13    1    5    5    0    0  0.83036569430E+02 -0.29449800137E+03 -0.86236289733E+01  0.30610212618E+03  0.00000000000E+00 0.  1.
          5    1    6    6  503    0  0.86742183289E+03 -0.83518776257E+03  0.14178402446E+03  0.12124702200E+04  0.47000000000E+01 0. -1.
         -5    1    6    6    0  503  0.20645594371E+03 -0.21448468521E+03  0.75052936172E+02  0.30705499525E+03  0.47000000000E+01 0.  1.
<mgrwt>
<rscale>  0 0.19488878E+04</rscale>
<asrwt>0</asrwt>
<pdfrwt beam="1">  1        2 0.31568577E+00 0.19488878E+04</pdfrwt>
<pdfrwt beam="2">  1       -2 0.28841597E+00 0.19488878E+04</pdfrwt>
<totfact> 0.20933759E-01</totfact>
</mgrwt>
</event>
<event>
12    1  0.3127365E-008  0.8151985E+03  0.7818608E-02  0.9538275E-01
         -2   -1    0    0    0  501 -0.00000000000E+00  0.00000000000E+00  0.36767397552E+03  0.36767397552E+03  0.00000000000E+00 0.  1.
          2   -1    0    0  501    0  0.00000000000E+00 -0.00000000000E+00 -0.22730155073E+04  0.22730155073E+04  0.00000000000E+00 0. -1.
         23    2    1    2    0    0  0.74238062764E+03  0.30582582981E+02 -0.13290589499E+04  0.15252898160E+04  0.89705295168E+02 0.  0.
    5000000    2    1    2    0    0 -0.74238062764E+03 -0.30582582981E+02 -0.57628258195E+03  0.11153996668E+04  0.59995875842E+03 0.  0.
         23    2    4    4    0    0 -0.76554559073E+03  0.36389853122E+02 -0.62241600562E+03  0.99123329728E+03  0.88076629557E+02 0.  0.
         23    2    4    4    0    0  0.23164963089E+02 -0.66972436103E+02  0.46133423674E+02  0.12416636955E+03  0.90923439407E+02 0.  0.
          4    1    3    3  502    0  0.40418042623E+03 -0.19194859261E+02 -0.77462832753E+03  0.87394468097E+03  0.00000000000E+00 0. -1.
         -4    1    3    3    0  502  0.33820020141E+03  0.49777442242E+02 -0.55443062234E+03  0.65134513507E+03  0.00000000000E+00 0.  1.
         11    1    5    5    0    0 -0.11214640654E+03 -0.15449355549E+02 -0.63267096418E+02  0.12968509774E+03  0.00000000000E+00 0. -1.
        -11    1    5    5    0    0 -0.65339918419E+03  0.51839208671E+02 -0.55914890920E+03  0.86154819953E+03  0.00000000000E+00 0.  1.
          5    1    6    6  503    0 -0.21636653731E+02 -0.66628008558E+02  0.29186832052E+02  0.76035501408E+02  0.47000000000E+01 0. -1.
         -5    1    6    6    0  503  0.44801616820E+02 -0.34442754497E+00  0.16946591622E+02  0.48130868137E+02  0.47000000000E+01 0.  1.
<mgrwt>
<rscale>  0 0.81519852E+03</rscale>
<asrwt>0</asrwt>
<pdfrwt beam="1">  1        2 0.34969469E+00 0.81519852E+03</pdfrwt>
<pdfrwt beam="2">  1       -2 0.56565228E-01 0.81519852E+03</pdfrwt>
<totfact> 0.14204385E+01</totfact>
</mgrwt>
</event>
<event>
12    1  0.3127365E-008  0.7281936E+03  0.7818608E-02  0.9670196E-01
         -1   -1    0    0    0  501 -0.00000000000E+00  0.00000000000E+00  0.13463439996E+03  0.13463439996E+03  0.00000000000E+00 0.  1.
          1   -1    0    0  501    0  0.00000000000E+00 -0.00000000000E+00 -0.47226742278E+04  0.47226742278E+04  0.00000000000E+00 0. -1.
         23    2    1    2    0    0  0.44817422394E+03  0.51253895763E+03 -0.19883613922E+04  0.21037537378E+04  0.92964754261E+02 0.  0.
    5000000    2    1    2    0    0 -0.44817422394E+03 -0.51253895763E+03 -0.25996784357E+04  0.27535548900E+04  0.60015018518E+03 0.  0.
         23    2    4    4    0    0 -0.35187153401E+03 -0.53076277773E+03 -0.25126097428E+04  0.25936196544E+04  0.90180314631E+02 0.  0.
         23    2    4    4    0    0 -0.96302689934E+02  0.18223820096E+02 -0.87068692882E+02  0.15993523557E+03  0.91607895895E+02 0.  0.
          1    1    3    3  502    0  0.94683999379E+02  0.16366351114E+03 -0.61076059867E+03  0.63935851719E+03  0.00000000000E+00 0. -1.
         -1    1    3    3    0  502  0.35349022456E+03  0.34887544650E+03 -0.13776007935E+04  0.14643952206E+04  0.00000000000E+00 0.  1.
         13    1    5    5    0    0 -0.18861771728E+03 -0.32193144989E+03 -0.16243839813E+04  0.16666852793E+04  0.00000000000E+00 0. -1.
        -13    1    5    5    0    0 -0.16325381673E+03 -0.20883132784E+03 -0.88822576154E+03  0.92693437504E+03  0.00000000000E+00 0.  1.
          5    1    6    6  503    0  0.76980436063E+01  0.26533417854E+02 -0.86351537364E+01  0.29324699801E+02  0.47000000000E+01 0. -1.
         -5    1    6    6    0  503 -0.10400073354E+03 -0.83095977576E+01 -0.78433539146E+02  0.13061053577E+03  0.47000000000E+01 0.  1.
<mgrwt>
<rscale>  0 0.72819363E+03</rscale>
<asrwt>0</asrwt>
<pdfrwt beam="1">  1        1 0.72656533E+00 0.72819363E+03</pdfrwt>
<pdfrwt beam="2">  1       -1 0.20712983E-01 0.72819363E+03</pdfrwt>
<totfact> 0.41096436E-01</totfact>
</mgrwt>
</event>
<event>
12    1  0.3127365E-008  0.5678337E+03  0.7818608E-02  0.9974484E-01
          2   -1    0    0  501    0  0.00000000000E+00  0.00000000000E+00  0.17273347622E+04  0.17273347622E+04  0.00000000000E+00 0. -1.
         -2   -1    0    0    0  501 -0.00000000000E+00 -0.00000000000E+00 -0.23605438593E+03  0.23605438593E+03  0.00000000000E+00 0.  1.
         23    2    1    2    0    0 -0.11287192716E+03 -0.47204920249E+03  0.45652817916E+03  0.67264070412E+03  0.91962040827E+02 0.  0.
    5000000    2    1    2    0    0  0.11287192716E+03  0.47204920249E+03  0.10347521971E+04  0.12907484440E+04  0.59979072584E+03 0.  0.
         23    2    4    4    0    0 -0.68509717476E+02 -0.33017659663E+02  0.54751940778E+03  0.56028083586E+03  0.91396749914E+02 0.  0.
         23    2    4    4    0    0  0.18138164464E+03  0.50506686216E+03  0.48723278934E+03  0.73046760817E+03  0.90527892488E+02 0.  0.
          3    1    3    3  502    0 -0.12843255991E+03 -0.42916035782E+03  0.40616634212E+03  0.60468556510E+03  0.00000000000E+00 0. -1.
         -3    1    3    3    0  502  0.15560632748E+02 -0.42888844678E+02  0.50361837037E+02  0.67955139019E+02  0.00000000000E+00 0.  1.
         13    1    5    5    0    0 -0.26327974191E+02  0.23156847090E+02  0.32622771257E+03  0.32810657147E+03  0.00000000000E+00 0. -1.
        -13    1    5    5    0    0 -0.42181743285E+02 -0.56174506753E+02  0.22129169521E+03  0.23217426439E+03  0.00000000000E+00 0.  1.
          5    1    6    6  503    0  0.13627642642E+03  0.37552390099E+03  0.41222873407E+03  0.57405930339E+03  0.47000000000E+01 0. -1.
         -5    1    6    6    0  503  0.45105218212E+02  0.12954296117E+03  0.75004055269E+02  0.15640830478E+03  0.47000000000E+01 0.  1.
<mgrwt>
<rscale>  0 0.56783372E+03</rscale>
<asrwt>0</asrwt>
<pdfrwt beam="1">  1        2 0.26574380E+00 0.56783372E+03</pdfrwt>
<pdfrwt beam="2">  1       -2 0.36316060E-01 0.56783372E+03</pdfrwt>
<totfact> 0.70696395E+01</totfact>
</mgrwt>
</event>
<event>
12    1  0.3127365E-008  0.1363726E+04  0.7818608E-02  0.8980502E-01
         -1   -1    0    0    0  501 -0.00000000000E+00  0.00000000000E+00  0.17254412848E+04  0.17254412848E+04  0.00000000000E+00 0.  1.
          1   -1    0    0  501    0  0.00000000000E+00 -0.00000000000E+00 -0.11370157267E+04  0.11370157267E+04  0.00000000000E+00 0. -1.
         23    2    1    2    0    0 -0.96209231969E+02 -0.13219087124E+04  0.44158489340E+03  0.14001365419E+04  0.93200093726E+02 0.  0.
    5000000    2    1    2    0    0  0.96209231969E+02  0.13219087124E+04  0.14684066468E+03  0.14623204697E+04  0.60010008742E+03 0.  0.
         23    2    4    4    0    0 -0.12785248490E+03  0.99316475039E+03  0.26323474014E+03  0.10392579994E+04  0.89678211868E+02 0.  0.
         23    2    4    4    0    0  0.22406171687E+03  0.32874396203E+03 -0.11639407546E+03  0.42306247023E+03  0.84605126160E+02 0.  0.
          2    1    3    3  502    0 -0.95715071577E+02 -0.92123163977E+03  0.34155015466E+03  0.98716038068E+03  0.00000000000E+00 0. -1.
         -2    1    3    3    0  502 -0.49416039188E+00 -0.40067707265E+03  0.10003473874E+03  0.41297616117E+03  0.00000000000E+00 0.  1.
         11    1    5    5    0    0 -0.31063290944E+02  0.16061310041E+03  0.76289598830E+02  0.18050373669E+03  0.00000000000E+00 0. -1.
        -11    1    5    5    0    0 -0.96789193959E+02  0.83255164998E+03  0.18694514131E+03  0.85875426276E+03  0.00000000000E+00 0.  1.
          5    1    6    6  503    0  0.14851030206E+03  0.19502420762E+03 -0.11146197990E+03  0.26932436640E+03  0.47000000000E+01 0. -1.
         -5    1    6    6    0  503  0.75551414813E+02  0.13371975442E+03 -0.49320955573E+01  0.15373810383E+03  0.47000000000E+01 0.  1.
<mgrwt>
<rscale>  0 0.13637263E+04</rscale>
<asrwt>0</asrwt>
<pdfrwt beam="1">  1        1 0.17492550E+00 0.13637263E+04</pdfrwt>
<pdfrwt beam="2">  1       -1 0.26545251E+00 0.13637263E+04</pdfrwt>
<totfact> 0.63363436E-01</totfact>
</mgrwt>
</event>
<event>
12    1  0.3127365E-008  0.6932805E+03  0.7818608E-02  0.9728793E-01
         -1   -1    0    0    0  501 -0.00000000000E+00  0.00000000000E+00  0.13253641782E+04  0.13253641782E+04  0.00000000000E+00 0.  1.
          1   -1    0    0  501    0  0.00000000000E+00 -0.00000000000E+00 -0.55567972100E+03  0.55567972100E+03  0.00000000000E+00 0. -1.
         23    2    1    2    0    0  0.42216195671E+03  0.43944138427E+03 -0.13919635321E+03  0.63312181645E+03  0.10068843933E+03 0.  0.
    5000000    2    1    2    0    0 -0.42216195671E+03 -0.43944138427E+03  0.90888081037E+03  0.12479220827E+04  0.59992978685E+03 0.  0.
         23    2    4    4    0    0  0.53437576608E+02 -0.22175307243E+03  0.71366778821E+02  0.25608963263E+03  0.91971099228E+02 0.  0.
         23    2    4    4    0    0 -0.47559953331E+03 -0.21768831184E+03  0.83751403155E+03  0.99183245008E+03  0.93374186966E+02 0.  0.
          4    1    3    3  502    0  0.25010282169E+03  0.32855810282E+03 -0.95361975360E+02  0.42378739326E+03  0.00000000000E+00 0. -1.
         -4    1    3    3    0  502  0.17205913502E+03  0.11088328146E+03 -0.43834377849E+02  0.20933442319E+03  0.00000000000E+00 0.  1.
         11    1    5    5    0    0  0.16902294013E+02 -0.47298947479E+01 -0.11438709349E+02  0.20950024315E+02  0.00000000000E+00 0. -1.
        -11    1    5    5    0    0  0.36535282595E+02 -0.21702317768E+03  0.82805488170E+02  0.23513960831E+03  0.00000000000E+00 0.  1.
          5    1    6    6  503    0 -0.25468038531E+03 -0.65491004265E+02  0.41379195585E+03  0.49030301144E+03  0.47000000000E+01 0. -1.
         -5    1    6    6    0  503 -0.22091914800E+03 -0.15219730758E+03  0.42372207570E+03  0.50152943864E+03  0.47000000000E+01 0.  1.
<mgrwt>
<rscale>  0 0.69328053E+03</rscale>
<asrwt>0</asrwt>
<pdfrwt beam="1">  1        1 0.85489188E-01 0.69328053E+03</pdfrwt>
<pdfrwt beam="2">  1       -1 0.20390218E+00 0.69328053E+03</pdfrwt>
<totfact> 0.56481680E+00</totfact>
</mgrwt>
</event>
<event>
12    1  0.3127365E-008  0.5307064E+03  0.7818608E-02  0.1006061E+00
         -1   -1    0    0    0  501 -0.00000000000E+00  0.00000000000E+00  0.16602528914E+03  0.16602528914E+03  0.00000000000E+00 0.  1.
          1   -1    0    0  501    0  0.00000000000E+00 -0.00000000000E+00 -0.23969572802E+04  0.23969572802E+04  0.00000000000E+00 0. -1.
         23    2    1    2    0    0 -0.19235379592E+03 -0.42904231525E+03 -0.10939246586E+04  0.11942509387E+04  0.92124126364E+02 0.  0.
    5000000    2    1    2    0    0  0.19235379592E+03  0.42904231525E+03 -0.11370073325E+04  0.13687316307E+04  0.59963598271E+03 0.  0.
         23    2    4    4    0    0  0.14108036097E+03  0.46857567039E+03 -0.11598557400E+04  0.12625138391E+04  0.95963686869E+02 0.  0.
         23    2    4    4    0    0  0.51273434946E+02 -0.39533355140E+02  0.22848407524E+02  0.10621779162E+03  0.81045161666E+02 0.  0.
          1    1    3    3  502    0 -0.14795628652E+03 -0.27866728813E+03 -0.63080228473E+03  0.70530705556E+03  0.00000000000E+00 0. -1.
         -1    1    3    3    0  502 -0.44397509395E+02 -0.15037502713E+03 -0.46312237389E+03  0.48894388310E+03  0.00000000000E+00 0.  1.
         13    1    5    5    0    0  0.14059624805E+03  0.36361446147E+03 -0.97302510696E+03  0.10482178401E+04  0.00000000000E+00 0. -1.
        -13    1    5    5    0    0  0.48411292061E+00  0.10496120892E+03 -0.18683063303E+03  0.21429599898E+03  0.00000000000E+00 0.  1.
          5    1    6    6  503    0  0.52933714749E+02  0.13041666984E+01 -0.93515482002E+01  0.53974257397E+02  0.47000000000E+01 0. -1.
         -5    1    6    6    0  503 -0.16602798028E+01 -0.40837521838E+02  0.32199955725E+02  0.52243534218E+02  0.47000000000E+01 0.  1.
<mgrwt>
<rscale>  0 0.53070635E+03</rscale>
<asrwt>0</asrwt>
<pdfrwt beam="1">  1        1 0.36876264E+00 0.53070635E+03</pdfrwt>
<pdfrwt beam="2">  1       -1 0.25542354E-01 0.53070635E+03</pdfrwt>
<totfact> 0.23376082E+01</totfact>
</mgrwt>
</event>
<event>
12    1  0.3127365E-008  0.1162611E+04  0.7818608E-02  0.9146228E-01
         -2   -1    0    0    0  501 -0.00000000000E+00  0.00000000000E+00  0.31923786776E+04  0.31923786776E+04  0.00000000000E+00 0.  1.
          2   -1    0    0  501    0  0.00000000000E+00 -0.00000000000E+00 -0.44012241363E+03  0.44012241363E+03  0.00000000000E+00 0. -1.
         23    2    1    2    0    0 -0.49928222709E+03 -0.97981314379E+03  0.14909499823E+04  0.18547395071E+04  0.88375620833E+02 0.  0.
    5000000    2    1    2    0    0  0.49928222709E+03  0.97981314379E+03  0.12613062817E+04  0.17777615842E+04  0.60018844949E+03 0.  0.
         23    2    4    4    0    0 -0.74679095752E+02  0.37719710206E+03  0.56435807739E+03  0.68854443511E+03  0.87970327166E+02 0.  0.
         23    2    4    4    0    0  0.57396132284E+03  0.60261604173E+03  0.69694820430E+03  0.10892171491E+04  0.89886063798E+02 0.  0.
          3    1    3    3  502    0 -0.25352022819E+03 -0.54116066369E+03  0.74327239072E+03  0.95371967413E+03  0.00000000000E+00 0. -1.
         -3    1    3    3    0  502 -0.24576199890E+03 -0.43865248010E+03  0.74767759160E+03  0.90101983296E+03  0.00000000000E+00 0.  1.
         11    1    5    5    0    0 -0.55346373548E+02  0.97175165751E+02  0.13120787642E+03  0.17239994413E+03  0.00000000000E+00 0.  1.
        -11    1    5    5    0    0 -0.19332722204E+02  0.28002193631E+03  0.43315020098E+03  0.51614449098E+03  0.00000000000E+00 0. -1.
          5    1    6    6  503    0  0.14073597122E+03  0.14534433949E+03  0.22134635554E+03  0.29991313697E+03  0.47000000000E+01 0. -1.
         -5    1    6    6    0  503  0.43322535162E+03  0.45727170225E+03  0.47560184875E+03  0.78930401209E+03  0.47000000000E+01 0.  1.
<mgrwt>
<rscale>  0 0.11626110E+04</rscale>
<asrwt>0</asrwt>
<pdfrwt beam="1">  1        2 0.67711143E-01 0.11626110E+04</pdfrwt>
<pdfrwt beam="2">  1       -2 0.49113517E+00 0.11626110E+04</pdfrwt>
<totfact> 0.13286782E-01</totfact>
</mgrwt>
</event>
<event>
12    1  0.3127365E-008  0.7118960E+03  0.7818608E-02  0.9697102E-01
          1   -1    0    0  501    0  0.00000000000E+00  0.00000000000E+00  0.43578064484E+04  0.43578064484E+04  0.00000000000E+00 0. -1.
         -1   -1    0    0    0  501 -0.00000000000E+00 -0.00000000000E+00 -0.17531120322E+03  0.17531120322E+03  0.00000000000E+00 0.  1.
         23    2    1    2    0    0  0.17193410624E+03  0.66387432342E+03  0.95340388704E+03  0.11779273849E+04  0.90793712177E+02 0.  0.
    5000000    2    1    2    0    0 -0.17193410624E+03 -0.66387432342E+03  0.32290913581E+04  0.33551902667E+04  0.59998356000E+03 0.  0.
         23    2    4    4    0    0  0.15890878976E+02 -0.36591470702E+03  0.65860702485E+03  0.75941625109E+03  0.93828228119E+02 0.  0.
         23    2    4    4    0    0 -0.18782498521E+03 -0.29795961640E+03  0.25704843333E+04  0.25957740156E+04  0.81208831297E+02 0.  0.
          1    1    3    3  502    0  0.14792314113E+01  0.14732593953E+03  0.22159699755E+03  0.26610589980E+03  0.00000000000E+00 0. -1.
         -1    1    3    3    0  502  0.17045487483E+03  0.51654838389E+03  0.73180688949E+03  0.91182148513E+03  0.00000000000E+00 0.  1.
         11    1    5    5    0    0 -0.26049824331E+02 -0.25773873337E+03  0.49717465233E+03  0.56061616365E+03  0.00000000000E+00 0. -1.
        -11    1    5    5    0    0  0.41940703307E+02 -0.10817597365E+03  0.16143237252E+03  0.19880008744E+03  0.00000000000E+00 0.  1.
          5    1    6    6  503    0 -0.16995086428E+03 -0.22405109852E+03  0.18473350040E+04  0.18686227276E+04  0.47000000000E+01 0. -1.
         -5    1    6    6    0  503 -0.17874120939E+02 -0.73908517878E+02  0.72314932932E+03  0.72715128805E+03  0.47000000000E+01 0.  1.
<mgrwt>
<rscale>  0 0.71189599E+03</rscale>
<asrwt>0</asrwt>
<pdfrwt beam="1">  1        1 0.67043168E+00 0.71189599E+03</pdfrwt>
<pdfrwt beam="2">  1       -1 0.26970958E-01 0.71189599E+03</pdfrwt>
<totfact> 0.62212908E-01</totfact>
</mgrwt>
</event>
<event>
12    1  0.3127365E-008  0.4202364E+03  0.7818608E-02  0.1036989E+00
         -1   -1    0    0    0  501 -0.00000000000E+00  0.00000000000E+00  0.35221762045E+03  0.35221762045E+03  0.00000000000E+00 0.  1.
          1   -1    0    0  501    0  0.00000000000E+00 -0.00000000000E+00 -0.63419007586E+03  0.63419007586E+03  0.00000000000E+00 0. -1.
         23    2    1    2    0    0 -0.17221401809E+03 -0.20876758467E+03 -0.66919320543E+02  0.29393042976E+03  0.93141449665E+02 0.  0.
    5000000    2    1    2    0    0  0.17221401809E+03  0.20876758467E+03 -0.21505313487E+03  0.69247726654E+03  0.60002945047E+03 0.  0.
         23    2    4    4    0    0  0.89137965677E+02 -0.15568868965E+03  0.69664869058E+02  0.21441301435E+03  0.94526196023E+02 0.  0.
         23    2    4    4    0    0  0.83076052409E+02  0.36445627431E+03 -0.28471800393E+03  0.47806425219E+03  0.88040224276E+02 0.  0.
          1    1    3    3  502    0 -0.16585570682E+03 -0.14347960582E+03 -0.63193665535E+02  0.22822785136E+03  0.00000000000E+00 0. -1.
         -1    1    3    3    0  502 -0.63583112647E+01 -0.65287978843E+02 -0.37256550084E+01  0.65702578403E+02  0.00000000000E+00 0.  1.
         13    1    5    5    0    0  0.15205626577E+02 -0.40633506578E+02  0.64272750798E+02  0.77545337910E+02  0.00000000000E+00 0.  1.
        -13    1    5    5    0    0  0.73932339101E+02 -0.11505518307E+03  0.53921182600E+01  0.13686767644E+03  0.00000000000E+00 0. -1.
          5    1    6    6  503    0  0.53008648813E+02  0.29243403509E+03 -0.26307569099E+03  0.39693638145E+03  0.47000000000E+01 0. -1.
         -5    1    6    6    0  503  0.30067403596E+02  0.72022239221E+02 -0.21642312939E+02  0.81127870739E+02  0.47000000000E+01 0.  1.
<mgrwt>
<rscale>  0 0.42023644E+03</rscale>
<asrwt>0</asrwt>
<pdfrwt beam="1">  1        1 0.97567703E-01 0.42023644E+03</pdfrwt>
<pdfrwt beam="2">  1       -1 0.54187327E-01 0.42023644E+03</pdfrwt>
<totfact> 0.11381888E+02</totfact>
</mgrwt>
</event>
<event>
12    1  0.3127365E-008  0.4002537E+03  0.7818608E-02  0.1043692E+00
         -1   -1    0    0    0  501 -0.00000000000E+00  0.00000000000E+00  0.53704888504E+03  0.53704888504E+03  0.00000000000E+00 0.  1.
          1   -1    0    0  501    0  0.00000000000E+00 -0.00000000000E+00 -0.32991206303E+04  0.32991206303E+04  0.00000000000E+00 0. -1.
         23    2    1    2    0    0 -0.16407029041E+03 -0.31415619579E+03  0.43249940252E+03  0.56646641618E+03  0.90638247581E+02 0.  0.
    5000000    2    1    2    0    0  0.16407029041E+03  0.31415619579E+03 -0.31945711478E+04  0.32697030992E+04  0.60005030023E+03 0.  0.
         23    2    4    4    0    0  0.17446480410E+03  0.29476190628E+03 -0.81731035648E+03  0.89063591714E+03  0.88958242044E+02 0.  0.
         23    2    4    4    0    0 -0.10394513687E+02  0.19394289509E+02 -0.23772607914E+04  0.23790671821E+04  0.90042224915E+02 0.  0.
          1    1    3    3  502    0 -0.40168286143E+02 -0.13335650073E+03  0.22516765623E+03  0.26476011957E+03  0.00000000000E+00 0. -1.
         -1    1    3    3    0  502 -0.12390200427E+03 -0.18079969506E+03  0.20733174629E+03  0.30170629661E+03  0.00000000000E+00 0.  1.
         11    1    5    5    0    0 -0.66091706258E+01  0.14177271685E+02 -0.15301416809E+02  0.21881716687E+02  0.00000000000E+00 0. -1.
        -11    1    5    5    0    0  0.18107397473E+03  0.28058463460E+03 -0.80200893967E+03  0.86875420045E+03  0.00000000000E+00 0.  1.
          5    1    6    6  503    0 -0.15442577110E+02  0.54424308192E+02 -0.13780532067E+04  0.13792219578E+04  0.47000000000E+01 0. -1.
         -5    1    6    6    0  503  0.50480634235E+01 -0.35030018683E+02 -0.99920758468E+03  0.99984522424E+03  0.47000000000E+01 0.  1.
<mgrwt>
<rscale>  0 0.40025367E+03</rscale>
<asrwt>0</asrwt>
<pdfrwt beam="1">  1        1 0.50755703E+00 0.40025367E+03</pdfrwt>
<pdfrwt beam="2">  1       -1 0.82622904E-01 0.40025367E+03</pdfrwt>
<totfact> 0.63727020E-01</totfact>
</mgrwt>
</event>
<event>
12    1  0.3127365E-008  0.1075840E+04  0.7818608E-02  0.9229065E-01
         -1   -1    0    0    0  501 -0.00000000000E+00  0.00000000000E+00  0.74548753451E+03  0.74548753451E+03  0.00000000000E+00 0.  1.
          1   -1    0    0  501    0  0.00000000000E+00 -0.00000000000E+00 -0.17408917440E+04  0.17408917440E+04  0.00000000000E+00 0. -1.
         23    2    1    2    0    0  0.72312657720E+03 -0.70476924651E+03 -0.11890891998E+03  0.10208235866E+04  0.91267333570E+02 0.  0.
    5000000    2    1    2    0    0 -0.72312657720E+03  0.70476924651E+03 -0.87649528948E+03  0.14655556919E+04  0.59999813011E+03 0.  0.
         23    2    4    4    0    0 -0.53790697977E+03  0.76868731481E+03 -0.80336526308E+03  0.12384595892E+04  0.90345455168E+02 0.  0.
         23    2    4    4    0    0 -0.18521959743E+03 -0.63918068302E+02 -0.73130026401E+02  0.22709610273E+03  0.88503222473E+02 0.  0.
          4    1    3    3  502    0  0.22357687847E+03 -0.23656339640E+03  0.23330293595E+01  0.32550622748E+03  0.00000000000E+00 0. -1.
         -4    1    3    3    0  502  0.49954969872E+03 -0.46820585011E+03 -0.12124194934E+03  0.69531735909E+03  0.00000000000E+00 0.  1.
         13    1    5    5    0    0 -0.23198711391E+03  0.30873566756E+03 -0.27529805020E+03  0.47426232181E+03  0.00000000000E+00 0.  1.
        -13    1    5    5    0    0 -0.30591986586E+03  0.45995164725E+03 -0.52806721288E+03  0.76419726737E+03  0.00000000000E+00 0. -1.
          5    1    6    6  503    0 -0.10768394370E+02  0.79707978887E+01 -0.30438117967E+02  0.33586618789E+02  0.47000000000E+01 0. -1.
         -5    1    6    6    0  503 -0.17445120306E+03 -0.71888866191E+02 -0.42691908434E+02  0.19350948394E+03  0.47000000000E+01 0.  1.
<mgrwt>
<rscale>  0 0.10758403E+04</rscale>
<asrwt>0</asrwt>
<pdfrwt beam="1">  1        1 0.26782950E+00 0.10758403E+04</pdfrwt>
<pdfrwt beam="2">  1       -1 0.11469039E+00 0.10758403E+04</pdfrwt>
<totfact> 0.30818812E+00</totfact>
</mgrwt>
</event>
<event>
12    1  0.3127365E-008  0.4941606E+03  0.7818608E-02  0.1015314E+00
         -1   -1    0    0    0  501 -0.00000000000E+00  0.00000000000E+00  0.37240421905E+03  0.37240421905E+03  0.00000000000E+00 0.  1.
          1   -1    0    0  501    0  0.00000000000E+00 -0.00000000000E+00 -0.12960659436E+04  0.12960659436E+04  0.00000000000E+00 0. -1.
         23    2    1    2    0    0 -0.15824183743E+03  0.40482428006E+03 -0.80331096919E+03  0.91792566306E+03  0.91410244746E+02 0.  0.
    5000000    2    1    2    0    0  0.15824183743E+03 -0.40482428006E+03 -0.12035075539E+03  0.75054449962E+03  0.59992463255E+03 0.  0.
         23    2    4    4    0    0 -0.68758601643E+02 -0.66001066722E+01 -0.24244205872E+03  0.26748291685E+03  0.89429593890E+02 0.  0.
         23    2    4    4    0    0  0.22700043908E+03 -0.39822417339E+03  0.12209130333E+03  0.48306158277E+03  0.91271653801E+02 0.  0.
          3    1    3    3  502    0 -0.15609001608E+03  0.29937188066E+03 -0.58398700754E+03  0.67455795972E+03  0.00000000000E+00 0. -1.
         -3    1    3    3    0  502 -0.21518213534E+01  0.10545239941E+03 -0.21932396165E+03  0.24336770334E+03  0.00000000000E+00 0.  1.
         11    1    5    5    0    0 -0.25409029433E+02  0.16966168593E+02 -0.13706997739E+02  0.33486585978E+02  0.00000000000E+00 0. -1.
        -11    1    5    5    0    0 -0.43349572211E+02 -0.23566275266E+02 -0.22873506098E+03  0.23399633087E+03  0.00000000000E+00 0.  1.
          5    1    6    6  503    0  0.93850367483E+02 -0.92585955979E+02  0.14475399354E+02  0.13270899709E+03  0.47000000000E+01 0. -1.
         -5    1    6    6    0  503  0.13315007159E+03 -0.30563821741E+03  0.10761590397E+03  0.35035258569E+03  0.47000000000E+01 0.  1.
<mgrwt>
<rscale>  0 0.49416064E+03</rscale>
<asrwt>0</asrwt>
<pdfrwt beam="1">  1        1 0.19939476E+00 0.49416064E+03</pdfrwt>
<pdfrwt beam="2">  1       -1 0.57292957E-01 0.49416064E+03</pdfrwt>
<totfact> 0.30031780E+01</totfact>
</mgrwt>
</event>
<event>
12    1  0.3127365E-008  0.7735384E+03  0.7818608E-02  0.9599129E-01
         -2   -1    0    0    0  501 -0.00000000000E+00  0.00000000000E+00  0.91597319328E+03  0.91597319328E+03  0.00000000000E+00 0.  1.
          2   -1    0    0  501    0  0.00000000000E+00 -0.00000000000E+00 -0.22939258322E+04  0.22939258322E+04  0.00000000000E+00 0. -1.
         23    2    1    2    0    0 -0.60738504317E+03 -0.45852119683E+03  0.62212745939E+03  0.98739781221E+03  0.93560596522E+02 0.  0.
    5000000    2    1    2    0    0  0.60738504317E+03  0.45852119683E+03 -0.20000800983E+04  0.22225012133E+04  0.60002746991E+03 0.  0.
         23    2    4    4    0    0  0.23452951780E+03  0.21398674153E+03 -0.15408403232E+04  0.15758046874E+04  0.90427268807E+02 0.  0.
         23    2    4    4    0    0  0.37285552537E+03  0.24453445530E+03 -0.45923977509E+03  0.64669652584E+03  0.92178538070E+02 0.  0.
          3    1    3    3  502    0 -0.25027198616E+03 -0.24000661525E+03  0.31094809310E+03  0.46575525657E+03  0.00000000000E+00 0. -1.
         -3    1    3    3    0  502 -0.35711305701E+03 -0.21851458158E+03  0.31117936629E+03  0.52164255564E+03  0.00000000000E+00 0.  1.
         11    1    5    5    0    0  0.23533007639E+03  0.22023889150E+03 -0.15262393703E+04  0.15599012884E+04  0.00000000000E+00 0.  1.
        -11    1    5    5    0    0 -0.80055859122E+00 -0.62521499666E+01 -0.14600952974E+02  0.15903399039E+02  0.00000000000E+00 0. -1.
          5    1    6    6  503    0  0.67944299408E+02  0.11098642747E+02 -0.48229038702E+02  0.84188703916E+02  0.47000000000E+01 0. -1.
         -5    1    6    6    0  503  0.30491122597E+03  0.23343581255E+03 -0.41101073639E+03  0.56250782192E+03  0.47000000000E+01 0.  1.
<mgrwt>
<rscale>  0 0.77353840E+03</rscale>
<asrwt>0</asrwt>
<pdfrwt beam="1">  1        2 0.35291166E+00 0.77353840E+03</pdfrwt>
<pdfrwt beam="2">  1       -2 0.14091895E+00 0.77353840E+03</pdfrwt>
<totfact> 0.16792968E+00</totfact>
</mgrwt>
</event>
<event>
12    1  0.3127365E-008  0.8674611E+03  0.7818608E-02  0.9467196E-01
          1   -1    0    0  501    0  0.00000000000E+00  0.00000000000E+00  0.10908585430E+04  0.10908585430E+04  0.00000000000E+00 0. -1.
         -1   -1    0    0    0  501 -0.00000000000E+00 -0.00000000000E+00 -0.84848849109E+03  0.84848849109E+03  0.00000000000E+00 0.  1.
         23    2    1    2    0    0  0.77102721377E+03  0.38094566504E+03  0.82167381569E+01  0.86487695666E+03  0.91334940096E+02 0.  0.
    5000000    2    1    2    0    0 -0.77102721377E+03 -0.38094566504E+03  0.23415331378E+03  0.10744700775E+04  0.60004633897E+03 0.  0.
         23    2    4    4    0    0 -0.11262119899E+03 -0.97785984901E+02  0.29978040998E+03  0.34909075610E+03  0.98744257967E+02 0.  0.
         23    2    4    4    0    0 -0.65840601478E+03 -0.28315968014E+03 -0.65627096199E+02  0.72537932136E+03  0.90500604123E+02 0.  0.
          2    1    3    3  502    0  0.12961003216E+03  0.83405203604E+02  0.31975437843E+02  0.15740907550E+03  0.00000000000E+00 0. -1.
         -2    1    3    3    0  502  0.64141718161E+03  0.29754046144E+03 -0.23758699686E+02  0.70746788116E+03  0.00000000000E+00 0.  1.
         11    1    5    5    0    0 -0.28871988956E+02 -0.50874227563E+02  0.20877811268E+03  0.21681807838E+03  0.00000000000E+00 0. -1.
        -11    1    5    5    0    0 -0.83749210038E+02 -0.46911757338E+02  0.91002297298E+02  0.13227267772E+03  0.00000000000E+00 0.  1.
          5    1    6    6  503    0 -0.49854127393E+03 -0.18614836937E+03 -0.78224516056E+02  0.53789941638E+03  0.47000000000E+01 0. -1.
         -5    1    6    6    0  503 -0.15986474085E+03 -0.97011310766E+02  0.12597419857E+02  0.18747990498E+03  0.47000000000E+01 0.  1.
<mgrwt>
<rscale>  0 0.86746110E+03</rscale>
<asrwt>0</asrwt>
<pdfrwt beam="1">  1        1 0.16782439E+00 0.86746110E+03</pdfrwt>
<pdfrwt beam="2">  1       -1 0.13053669E+00 0.86746110E+03</pdfrwt>
<totfact> 0.65864356E+00</totfact>
</mgrwt>
</event>
<event>
12    1  0.3127365E-008  0.4062521E+03  0.7818608E-02  0.1041636E+00
          1   -1    0    0  501    0  0.00000000000E+00  0.00000000000E+00  0.43807615725E+03  0.43807615725E+03  0.00000000000E+00 0. -1.
         -1   -1    0    0    0  501 -0.00000000000E+00 -0.00000000000E+00 -0.69978539327E+03  0.69978539327E+03  0.00000000000E+00 0.  1.
         23    2    1    2    0    0 -0.37825712916E+03  0.63436904192E+02 -0.69096705596E+02  0.40011209466E+03  0.90623600647E+02 0.  0.
    5000000    2    1    2    0    0  0.37825712916E+03 -0.63436904192E+02 -0.19261253043E+03  0.73774945586E+03  0.60005997714E+03 0.  0.
         23    2    4    4    0    0  0.10276817262E+03  0.39819165120E+02 -0.35830541178E+03  0.38770156835E+03  0.98908416104E+02 0.  0.
         23    2    4    4    0    0  0.27548895654E+03 -0.10325606931E+03  0.16569288135E+03  0.35004788751E+03  0.92322324493E+02 0.  0.
          2    1    3    3  502    0 -0.17232709802E+03  0.56475726125E+01  0.83901679393E+01  0.17262363311E+03  0.00000000000E+00 0. -1.
         -2    1    3    3    0  502 -0.20593003114E+03  0.57789331579E+02 -0.77486873536E+02  0.22748846155E+03  0.00000000000E+00 0.  1.
         13    1    5    5    0    0 -0.76854647503E+01  0.58072221547E+01 -0.14312484301E+03  0.14344863500E+03  0.00000000000E+00 0.  1.
        -13    1    5    5    0    0  0.11045363737E+03  0.34011942965E+02 -0.21518056877E+03  0.24425293335E+03  0.00000000000E+00 0. -1.
          5    1    6    6  503    0  0.15599161899E+03 -0.24937280243E+02  0.12475606971E+03  0.20134900066E+03  0.47000000000E+01 0. -1.
         -5    1    6    6    0  503  0.11949733755E+03 -0.78318789068E+02  0.40936811642E+02  0.14869888685E+03  0.47000000000E+01 0.  1.
<mgrwt>
<rscale>  0 0.40625210E+03</rscale>
<asrwt>0</asrwt>
<pdfrwt beam="1">  1        1 0.67396332E-01 0.40625210E+03</pdfrwt>
<pdfrwt beam="2">  1       -1 0.10765929E+00 0.40625210E+03</pdfrwt>
<totfact> 0.45310665E+01</totfact>
</mgrwt>
</event>
<event>
12    1  0.3127365E-008  0.9108664E+03  0.7818608E-02  0.9412099E-01
          2   -1    0    0  501    0  0.00000000000E+00  0.00000000000E+00  0.26961443799E+04  0.26961443799E+04  0.00000000000E+00 0. -1.
         -2   -1    0    0    0  501 -0.00000000000E+00 -0.00000000000E+00 -0.62030638463E+03  0.62030638463E+03  0.00000000000E+00 0.  1.
         23    2    1    2    0    0  0.86235704989E+03 -0.20333453177E+03 -0.95458273211E+02  0.89580939622E+03  0.91419796099E+02 0.  0.
    5000000    2    1    2    0    0 -0.86235704989E+03  0.20333453177E+03  0.21712962685E+04  0.24206413683E+04  0.59997711214E+03 0.  0.
         23    2    4    4    0    0 -0.78528345190E+03  0.11879896936E+03  0.12235105157E+04  0.14615631859E+04  0.91682437005E+02 0.  0.
         23    2    4    4    0    0 -0.77073597991E+02  0.84535562414E+02  0.94778575274E+03  0.95907818241E+03  0.91904983888E+02 0.  0.
          1    1    3    3  502    0  0.37954110371E+03 -0.97262909670E+02  0.27644561521E+01  0.39181521821E+03  0.00000000000E+00 0. -1.
         -1    1    3    3    0  502  0.48281594619E+03 -0.10607162210E+03 -0.98222729363E+02  0.50399417801E+03  0.00000000000E+00 0.  1.
         11    1    5    5    0    0 -0.72512119631E+01  0.23917578101E+01  0.38119991728E+02  0.38877170032E+02  0.00000000000E+00 0. -1.
        -11    1    5    5    0    0 -0.77803223994E+03  0.11640721155E+03  0.11853905240E+04  0.14226860158E+04  0.00000000000E+00 0.  1.
          5    1    6    6  503    0 -0.91743373162E+02  0.52709833232E+02  0.57948789083E+03  0.58908698735E+03  0.47000000000E+01 0. -1.
         -5    1    6    6    0  503  0.14669775172E+02  0.31825729182E+02  0.36829786191E+03  0.36999119507E+03  0.47000000000E+01 0.  1.
<mgrwt>
<rscale>  0 0.91086643E+03</rscale>
<asrwt>0</asrwt>
<pdfrwt beam="1">  1        2 0.41479144E+00 0.91086643E+03</pdfrwt>
<pdfrwt beam="2">  1       -2 0.95431753E-01 0.91086643E+03</pdfrwt>
<totfact> 0.25279462E+00</totfact>
</mgrwt>
</event>
<event>
12    1  0.3127365E-008  0.1066680E+04  0.7818608E-02  0.9238290E-01
          2   -1    0    0  501    0  0.00000000000E+00  0.00000000000E+00  0.22319009608E+04  0.22319009608E+04  0.00000000000E+00 0.  1.
         -2   -1    0    0    0  501 -0.00000000000E+00 -0.00000000000E+00 -0.76879719540E+03  0.76879719540E+03  0.00000000000E+00 0. -1.
         23    2    1    2    0    0  0.48854784928E+03 -0.89072670130E+03 -0.12118404296E+03  0.10253451319E+04  0.67631426400E+02 0.  0.
    5000000    2    1    2    0    0 -0.48854784928E+03  0.89072670130E+03  0.15842878084E+04  0.19753530243E+04  0.59998221091E+03 0.  0.
         23    2    4    4    0    0 -0.17218969242E+03  0.72946884811E+03  0.13305296560E+04  0.15293826059E+04  0.83234002007E+02 0.  0.
         23    2    4    4    0    0 -0.31635815685E+03  0.16125785318E+03  0.25375815235E+03  0.44597041841E+03  0.91705155765E+02 0.  0.
          1    1    3    3  502    0  0.11911581479E+03 -0.16357286685E+03 -0.16138798377E+02  0.20299044538E+03  0.00000000000E+00 0. -1.
         -1    1    3    3    0  502  0.36943203449E+03 -0.72715383445E+03 -0.10504524459E+03  0.82235468653E+03  0.00000000000E+00 0.  1.
         11    1    5    5    0    0 -0.14556276176E+02  0.21385782094E+03  0.40651696949E+03  0.45956838363E+03  0.00000000000E+00 0. -1.
        -11    1    5    5    0    0 -0.15763341625E+03  0.51561102717E+03  0.92401268654E+03  0.10698142223E+04  0.00000000000E+00 0.  1.
          5    1    6    6  503    0 -0.79453048408E+02  0.75999779826E+02  0.45095553020E+02  0.11893045168E+03  0.47000000000E+01 0. -1.
         -5    1    6    6    0  503 -0.23690510844E+03  0.85258073356E+02  0.20866259933E+03  0.32703996673E+03  0.47000000000E+01 0.  1.
<mgrwt>
<rscale>  0 0.10666800E+04</rscale>
<asrwt>0</asrwt>
<pdfrwt beam="1">  1        2 0.34336938E+00 0.10666800E+04</pdfrwt>
<pdfrwt beam="2">  1       -2 0.11827649E+00 0.10666800E+04</pdfrwt>
<totfact> 0.27100336E+00</totfact>
</mgrwt>
</event>
<event>
12    1  0.3127365E-008  0.3158182E+03  0.7818608E-02  0.1077590E+00
         -2   -1    0    0    0  501 -0.00000000000E+00  0.00000000000E+00  0.18421713083E+03  0.18421713083E+03  0.00000000000E+00 0.  1.
          2   -1    0    0  501    0  0.00000000000E+00 -0.00000000000E+00 -0.12691789542E+04  0.12691789542E+04  0.00000000000E+00 0. -1.
         23    2    1    2    0    0  0.26985797496E+03 -0.60739597289E+02 -0.22237345747E+03  0.36666076587E+03  0.92073542970E+02 0.  0.
    5000000    2    1    2    0    0 -0.26985797496E+03  0.60739597289E+02 -0.86258836589E+03  0.10867353192E+04  0.60035184650E+03 0.  0.
         23    2    4    4    0    0 -0.19030248268E+03 -0.52680488244E+02 -0.10149782071E+02  0.21820128595E+03  0.92295798161E+02 0.  0.
         23    2    4    4    0    0 -0.79555492279E+02  0.11342008553E+03 -0.85243858382E+03  0.86853403320E+03  0.92231423543E+02 0.  0.
          4    1    3    3  502    0  0.17174907771E+03 -0.62274939026E+02 -0.95117184016E+02  0.20596891130E+03  0.00000000000E+00 0. -1.
         -4    1    3    3    0  502  0.98108897247E+02  0.15353417370E+01 -0.12725627346E+03  0.16069185458E+03  0.00000000000E+00 0.  1.
         11    1    5    5    0    0 -0.56906246282E+02  0.11181498170E+02 -0.35720014737E+02  0.68112159120E+02  0.00000000000E+00 0.  1.
        -11    1    5    5    0    0 -0.13339623640E+03 -0.63861986414E+02  0.25570232666E+02  0.15008912683E+03  0.00000000000E+00 0. -1.
          5    1    6    6  503    0 -0.44452620894E+02  0.28726267393E+02 -0.54762334193E+03  0.55019510046E+03  0.47000000000E+01 0. -1.
         -5    1    6    6    0  503 -0.35102871385E+02  0.84693818140E+02 -0.30481524189E+03  0.31833893274E+03  0.47000000000E+01 0.  1.
<mgrwt>
<rscale>  0 0.31581825E+03</rscale>
<asrwt>0</asrwt>
<pdfrwt beam="1">  1        2 0.19525830E+00 0.31581825E+03</pdfrwt>
<pdfrwt beam="2">  1       -2 0.28341097E-01 0.31581825E+03</pdfrwt>
<totfact> 0.20753087E+02</totfact>
</mgrwt>
</event>
<event>
12    1  0.3127365E-008  0.4294032E+03  0.7818608E-02  0.1034049E+00
          3   -1    0    0  501    0  0.00000000000E+00  0.00000000000E+00  0.50172372963E+03  0.50172372963E+03  0.00000000000E+00 0. -1.
         -3   -1    0    0    0  501 -0.00000000000E+00 -0.00000000000E+00 -0.46015222345E+03  0.46015222345E+03  0.00000000000E+00 0.  1.
         23    2    1    2    0    0  0.23179107027E+03  0.16438224300E+03  0.30166136843E+02  0.29790421085E+03  0.84192048068E+02 0.  0.
    5000000    2    1    2    0    0 -0.23179107027E+03 -0.16438224300E+03  0.11405369337E+02  0.66397174224E+03  0.59998314140E+03 0.  0.
         23    2    4    4    0    0 -0.33696359068E+03 -0.23793664071E+03 -0.14056299881E+03  0.44599771041E+03  0.94856178634E+02 0.  0.
         23    2    4    4    0    0  0.10517252041E+03  0.73554397702E+02  0.15196836815E+03  0.21797403182E+03  0.89144742754E+02 0.  0.
          1    1    3    3  502    0  0.62657197212E+02  0.89109736298E+02  0.29180636660E+02  0.11277401749E+03  0.00000000000E+00 0. -1.
         -1    1    3    3    0  502  0.16913387306E+03  0.75272506705E+02  0.98550018311E+00  0.18513019336E+03  0.00000000000E+00 0.  1.
         11    1    5    5    0    0 -0.13759015786E+03 -0.68048554459E+02 -0.93882946040E+02  0.17993238969E+03  0.00000000000E+00 0. -1.
        -11    1    5    5    0    0 -0.19937343282E+03 -0.16988808625E+03 -0.46680052774E+02  0.26606532072E+03  0.00000000000E+00 0.  1.
          5    1    6    6  503    0 -0.37431342223E+01  0.32130243492E+02  0.98668922125E+01  0.34143947671E+02  0.47000000000E+01 0. -1.
         -5    1    6    6    0  503  0.10891565463E+03  0.41424154210E+02  0.14210147594E+03  0.18383008415E+03  0.47000000000E+01 0.  1.
<mgrwt>
<rscale>  0 0.42940325E+03</rscale>
<asrwt>0</asrwt>
<pdfrwt beam="1">  1        3 0.77188266E-01 0.42940325E+03</pdfrwt>
<pdfrwt beam="2">  1       -3 0.70792650E-01 0.42940325E+03</pdfrwt>
<totfact> 0.78125047E+00</totfact>
</mgrwt>
</event>
<event>
12    1  0.3127365E-008  0.4041186E+03  0.7818608E-02  0.1042363E+00
          1   -1    0    0  501    0  0.00000000000E+00  0.00000000000E+00  0.29375413093E+03  0.29375413093E+03  0.00000000000E+00 0. -1.
         -1   -1    0    0    0  501 -0.00000000000E+00 -0.00000000000E+00 -0.85644523739E+03  0.85644523739E+03  0.00000000000E+00 0.  1.
         23    2    1    2    0    0  0.31251509059E+03  0.10147123574E+02 -0.19086660825E+03  0.37813540599E+03  0.93742611194E+02 0.  0.
    5000000    2    1    2    0    0 -0.31251509059E+03 -0.10147123574E+02 -0.37182449821E+03  0.77206396232E+03  0.60005054661E+03 0.  0.
         23    2    4    4    0    0 -0.12267079488E+03 -0.17434936778E+03 -0.43797379966E+03  0.49537647720E+03  0.90171941397E+02 0.  0.
         23    2    4    4    0    0 -0.18984429572E+03  0.16420224420E+03  0.66149301454E+02  0.27668748512E+03  0.95796663422E+02 0.  0.
          1    1    3    3  502    0  0.86748872341E+02  0.38910727020E+01 -0.10561159719E+03  0.13672716175E+03  0.00000000000E+00 0. -1.
         -1    1    3    3    0  502  0.22576621825E+03  0.62560508722E+01 -0.85255011060E+02  0.24140824424E+03  0.00000000000E+00 0.  1.
         13    1    5    5    0    0 -0.77095559489E+02 -0.43427912999E+02 -0.12576250343E+03  0.15377228680E+03  0.00000000000E+00 0. -1.
        -13    1    5    5    0    0 -0.45575235387E+02 -0.13092145478E+03 -0.31221129623E+03  0.34160419040E+03  0.00000000000E+00 0.  1.
          5    1    6    6  503    0 -0.10176548080E+03  0.27110579444E+02  0.31563292351E+02  0.11004330068E+03  0.47000000000E+01 0. -1.
         -5    1    6    6    0  503 -0.88078814919E+02  0.13709166476E+03  0.34586009103E+02  0.16664418445E+03  0.47000000000E+01 0.  1.
<mgrwt>
<rscale>  0 0.40411856E+03</rscale>
<asrwt>0</asrwt>
<pdfrwt beam="1">  1        1 0.45192943E-01 0.40411856E+03</pdfrwt>
<pdfrwt beam="2">  1       -1 0.13176081E+00 0.40411856E+03</pdfrwt>
<totfact> 0.46786013E+01</totfact>
</mgrwt>
</event>
<event>
12    1  0.3127365E-008  0.4094591E+03  0.7818608E-02  0.1040553E+00
         -1   -1    0    0    0  501 -0.00000000000E+00  0.00000000000E+00  0.35075833986E+03  0.35075833986E+03  0.00000000000E+00 0.  1.
          1   -1    0    0  501    0  0.00000000000E+00 -0.00000000000E+00 -0.55854166023E+03  0.55854166023E+03  0.00000000000E+00 0. -1.
         23    2    1    2    0    0  0.20853109495E+03  0.19157624534E+02 -0.14500991522E+03  0.27075148866E+03  0.91794667398E+02 0.  0.
    5000000    2    1    2    0    0 -0.20853109495E+03 -0.19157624534E+02 -0.62773405159E+02  0.63854851143E+03  0.59995955606E+03 0.  0.
         23    2    4    4    0    0  0.18014847715E+03 -0.88394973228E+02  0.40382901233E+02  0.22075414683E+03  0.82670850500E+02 0.  0.
         23    2    4    4    0    0 -0.38867957209E+03  0.69237348694E+02 -0.10315630639E+03  0.41779436459E+03  0.89695525655E+02 0.  0.
          3    1    3    3  502    0  0.10396524923E+03 -0.12037113358E+02 -0.11918953650E+03  0.15861844394E+03  0.00000000000E+00 0. -1.
         -3    1    3    3    0  502  0.10456584571E+03  0.31194737891E+02 -0.25820378722E+02  0.11213304473E+03  0.00000000000E+00 0.  1.
         11    1    5    5    0    0  0.11329046409E+02 -0.97465488601E+01  0.30838775718E+02  0.34269120138E+02  0.00000000000E+00 0. -1.
        -11    1    5    5    0    0  0.16881943074E+03 -0.78648424368E+02  0.95441255143E+01  0.18648502670E+03  0.00000000000E+00 0.  1.
          5    1    6    6  503    0  0.20846913797E+01 -0.38010093104E+01  0.17454748575E+01  0.66279930902E+01  0.47000000000E+01 0. -1.
         -5    1    6    6    0  503 -0.39076426347E+03  0.73038358005E+02 -0.10490178125E+03  0.41116637150E+03  0.47000000000E+01 0.  1.
<mgrwt>
<rscale>  0 0.40945908E+03</rscale>
<asrwt>0</asrwt>
<pdfrwt beam="1">  1        1 0.85929486E-01 0.40945908E+03</pdfrwt>
<pdfrwt beam="2">  1       -1 0.53962822E-01 0.40945908E+03</pdfrwt>
<totfact> 0.13741015E+02</totfact>
</mgrwt>
</event>
<event>
12    1  0.3127365E-008  0.4786822E+03  0.7818608E-02  0.1019498E+00
          1   -1    0    0  501    0  0.00000000000E+00  0.00000000000E+00  0.14303438090E+04  0.14303438090E+04  0.00000000000E+00 0. -1.
         -1   -1    0    0    0  501 -0.00000000000E+00 -0.00000000000E+00 -0.27734275304E+03  0.27734275304E+03  0.00000000000E+00 0.  1.
         23    2    1    2    0    0 -0.15118450897E+03  0.29940606934E+03 -0.19845198490E+02  0.34819327841E+03  0.91345372716E+02 0.  0.
    5000000    2    1    2    0    0  0.15118450897E+03 -0.29940606934E+03  0.11728462545E+04  0.13594932837E+04  0.60012740443E+03 0.  0.
         23    2    4    4    0    0  0.32787645607E+03 -0.15106700902E+03  0.39537279128E+03  0.54318260857E+03  0.91670554220E+02 0.  0.
         23    2    4    4    0    0 -0.17669194710E+03 -0.14833906032E+03  0.77747346320E+03  0.81631067509E+03  0.93132224792E+02 0.  0.
          2    1    3    3  502    0 -0.18921913970E+02  0.13642430334E+03 -0.82094078150E+01  0.13797472141E+03  0.00000000000E+00 0. -1.
         -2    1    3    3    0  502 -0.13226259500E+03  0.16298176600E+03 -0.11635790675E+02  0.21021855700E+03  0.00000000000E+00 0.  1.
         13    1    5    5    0    0  0.12912292403E+03 -0.91709136473E+02  0.22279017538E+03  0.27334732021E+03  0.00000000000E+00 0.  1.
        -13    1    5    5    0    0  0.19875353204E+03 -0.59357872547E+02  0.17258261590E+03  0.26983528836E+03  0.00000000000E+00 0. -1.
          5    1    6    6  503    0 -0.11770578751E+03 -0.47503134773E+02  0.48442903300E+03  0.50080413161E+03  0.47000000000E+01 0. -1.
         -5    1    6    6    0  503 -0.58986159590E+02 -0.10083592555E+03  0.29304443020E+03  0.31550654348E+03  0.47000000000E+01 0.  1.
<mgrwt>
<rscale>  0 0.47868217E+03</rscale>
<asrwt>0</asrwt>
<pdfrwt beam="1">  1        1 0.22005289E+00 0.47868217E+03</pdfrwt>
<pdfrwt beam="2">  1       -1 0.42668117E-01 0.47868217E+03</pdfrwt>
<totfact> 0.42288668E+01</totfact>
</mgrwt>
</event>
<event>
12    1  0.3127365E-008  0.1101297E+04  0.7818608E-02  0.9203928E-01
         -2   -1    0    0    0  501 -0.00000000000E+00  0.00000000000E+00  0.15210715914E+04  0.15210715914E+04  0.00000000000E+00 0.  1.
          2   -1    0    0  501    0  0.00000000000E+00 -0.00000000000E+00 -0.12225119057E+04  0.12225119057E+04  0.00000000000E+00 0. -1.
         23    2    1    2    0    0 -0.10620995443E+04 -0.10817266967E+03 -0.59695664182E+03  0.12264821795E+04  0.90247082966E+02 0.  0.
    5000000    2    1    2    0    0  0.10620995443E+04  0.10817266967E+03  0.89551632751E+03  0.15171013175E+04  0.59990844815E+03 0.  0.
         23    2    4    4    0    0  0.40962660763E+02 -0.20036579456E+02 -0.52917848345E+02  0.11442803043E+03  0.90631514288E+02 0.  0.
         23    2    4    4    0    0  0.10211368836E+04  0.12820924912E+03  0.94843417585E+03  0.14026732871E+04  0.93844646903E+02 0.  0.
          2    1    3    3  502    0 -0.14670813224E+03 -0.13764719157E+01 -0.51103125760E+02  0.15535990539E+03  0.00000000000E+00 0. -1.
         -2    1    3    3    0  502 -0.91539141208E+03 -0.10679619775E+03 -0.54585351606E+03  0.10711222741E+04  0.00000000000E+00 0.  1.
         11    1    5    5    0    0  0.69833391211E+02 -0.19067625994E+02 -0.40861637660E+02  0.83126110948E+02  0.00000000000E+00 0.  1.
        -11    1    5    5    0    0 -0.28870730447E+02 -0.96895346245E+00 -0.12056210685E+02  0.31301919485E+02  0.00000000000E+00 0. -1.
          5    1    6    6  503    0  0.41994113211E+03  0.88819728576E+01  0.36608033769E+03  0.55719507134E+03  0.47000000000E+01 0. -1.
         -5    1    6    6    0  503  0.60119575145E+03  0.11932727626E+03  0.58235383816E+03  0.84547821571E+03  0.47000000000E+01 0.  1.
<mgrwt>
<rscale>  0 0.11012972E+04</rscale>
<asrwt>0</asrwt>
<pdfrwt beam="1">  1        2 0.18807876E+00 0.11012972E+04</pdfrwt>
<pdfrwt beam="2">  1       -2 0.23401101E+00 0.11012972E+04</pdfrwt>
<totfact> 0.14563239E+00</totfact>
</mgrwt>
</event>
<event>
12    1  0.3127365E-008  0.4008134E+03  0.7818608E-02  0.1043498E+00
          2   -1    0    0  501    0  0.00000000000E+00  0.00000000000E+00  0.10599098923E+04  0.10599098923E+04  0.00000000000E+00 0. -1.
         -2   -1    0    0    0  501 -0.00000000000E+00 -0.00000000000E+00 -0.27474341203E+03  0.27474341203E+03  0.00000000000E+00 0.  1.
         23    2    1    2    0    0 -0.16650403460E+03  0.28834131495E+03  0.45621079601E+03  0.57221302330E+03  0.91843051974E+02 0.  0.
    5000000    2    1    2    0    0  0.16650403460E+03 -0.28834131495E+03  0.32895568427E+03  0.76244028104E+03  0.60186296820E+03 0.  0.
         23    2    4    4    0    0  0.51822761846E+02  0.37642016356E+02 -0.13644725612E+03  0.17563932168E+03  0.90159844583E+02 0.  0.
         23    2    4    4    0    0  0.11468127275E+03 -0.32598333130E+03  0.46540294039E+03  0.58680095936E+03  0.91206043521E+02 0.  0.
          3    1    3    3  502    0 -0.80948882879E+02  0.18002816830E+03  0.19891199862E+03  0.28022998807E+03  0.00000000000E+00 0. -1.
         -3    1    3    3    0  502 -0.85555151718E+02  0.10831314665E+03  0.25729879739E+03  0.29198303523E+03  0.00000000000E+00 0.  1.
         11    1    5    5    0    0 -0.18887383060E+02  0.34765360765E+02 -0.43224624848E+02  0.58598052367E+02  0.00000000000E+00 0. -1.
        -11    1    5    5    0    0  0.70710144906E+02  0.28766555909E+01 -0.93222631274E+02  0.11704126931E+03  0.00000000000E+00 0.  1.
          5    1    6    6  503    0  0.22665788513E+02 -0.19129113940E+03  0.22484608574E+03  0.29611465728E+03  0.47000000000E+01 0. -1.
         -5    1    6    6    0  503  0.92015484238E+02 -0.13469219190E+03  0.24055685465E+03  0.29068630208E+03  0.47000000000E+01 0.  1.
<mgrwt>
<rscale>  0 0.40081339E+03</rscale>
<asrwt>0</asrwt>
<pdfrwt beam="1">  1        2 0.16306306E+00 0.40081339E+03</pdfrwt>
<pdfrwt beam="2">  1       -2 0.42268218E-01 0.40081339E+03</pdfrwt>
<totfact> 0.12818066E+02</totfact>
</mgrwt>
</event>
<event>
12    1  0.3127365E-008  0.1239818E+04  0.7818608E-02  0.9078700E-01
         -2   -1    0    0    0  501 -0.00000000000E+00  0.00000000000E+00  0.13555148158E+04  0.13555148158E+04  0.00000000000E+00 0.  1.
          2   -1    0    0  501    0  0.00000000000E+00 -0.00000000000E+00 -0.19903443628E+04  0.19903443628E+04  0.00000000000E+00 0. -1.
         23    2    1    2    0    0  0.11678624801E+04 -0.70941950035E+02  0.78403796426E+03  0.14113714505E+04  0.91204764440E+02 0.  0.
    5000000    2    1    2    0    0 -0.11678624801E+04  0.70941950035E+02 -0.14188675113E+04  0.19344877281E+04  0.60010184372E+03 0.  0.
         23    2    4    4    0    0 -0.55724532531E+03 -0.25110801578E+03 -0.66895675555E+03  0.91097188992E+03  0.93749961420E+02 0.  0.
         23    2    4    4    0    0 -0.61061715480E+03  0.32204996581E+03 -0.74991075574E+03  0.10235158382E+04  0.93000210761E+02 0.  0.
          4    1    3    3  502    0  0.84861245047E+03 -0.23423263737E+02  0.53198495216E+03  0.10018481570E+04  0.00000000000E+00 0.  1.
         -4    1    3    3    0  502  0.31925002964E+03 -0.47518686298E+02  0.25205301211E+03  0.40952329346E+03  0.00000000000E+00 0. -1.
         11    1    5    5    0    0 -0.50382742822E+03 -0.23220197664E+03 -0.56058319372E+03  0.78867823126E+03  0.00000000000E+00 0.  1.
        -11    1    5    5    0    0 -0.53417897092E+02 -0.18906039138E+02 -0.10837356183E+03  0.12229365867E+03  0.00000000000E+00 0. -1.
          5    1    6    6  503    0 -0.39135560304E+03  0.15558571437E+03 -0.44641657943E+03  0.61373933795E+03  0.47000000000E+01 0. -1.
         -5    1    6    6    0  503 -0.21926155176E+03  0.16646425144E+03 -0.30349417630E+03  0.40977650023E+03  0.47000000000E+01 0.  1.
<mgrwt>
<rscale>  0 0.12398181E+04</rscale>
<asrwt>0</asrwt>
<pdfrwt beam="1">  1        2 0.30620682E+00 0.12398181E+04</pdfrwt>
<pdfrwt beam="2">  1       -2 0.20854074E+00 0.12398181E+04</pdfrwt>
<totfact> 0.76501784E-01</totfact>
</mgrwt>
</event>
<event>
12    1  0.3127365E-008  0.1076147E+04  0.7818608E-02  0.9228757E-01
         -1   -1    0    0    0  501 -0.00000000000E+00  0.00000000000E+00  0.82583371165E+03  0.82583371165E+03  0.00000000000E+00 0.  1.
          1   -1    0    0  501    0  0.00000000000E+00 -0.00000000000E+00 -0.15333111363E+04  0.15333111363E+04  0.00000000000E+00 0. -1.
         23    2    1    2    0    0 -0.65656729542E+03 -0.79760788096E+03 -0.47995796826E+03  0.11430268017E+04  0.94295668151E+02 0.  0.
    5000000    2    1    2    0    0  0.65656729542E+03  0.79760788096E+03 -0.22751945638E+03  0.12161180462E+04  0.59993254129E+03 0.  0.
         23    2    4    4    0    0  0.20258141854E+02  0.29310363196E+03 -0.25356215341E+03  0.39861589329E+03  0.90998534952E+02 0.  0.
         23    2    4    4    0    0  0.63630915356E+03  0.50450424900E+03  0.26042697032E+02  0.81750215291E+03  0.90651374939E+02 0.  0.
          4    1    3    3  502    0 -0.54325822905E+03 -0.62563046472E+03 -0.41747032909E+03  0.92780626075E+03  0.00000000000E+00 0. -1.
         -4    1    3    3    0  502 -0.11330906637E+03 -0.17197741624E+03 -0.62487639171E+02  0.21522054100E+03  0.00000000000E+00 0.  1.
         11    1    5    5    0    0  0.31441820692E+02  0.63758076909E+02 -0.27009825696E+02  0.76047426937E+02  0.00000000000E+00 0. -1.
        -11    1    5    5    0    0 -0.11183678838E+02  0.22934555505E+03 -0.22655232772E+03  0.32256846636E+03  0.00000000000E+00 0.  1.
          5    1    6    6  503    0  0.33569426958E+03  0.32294480452E+03  0.18227394525E+02  0.46619557839E+03  0.47000000000E+01 0. -1.
         -5    1    6    6    0  503  0.30061488398E+03  0.18155944448E+03  0.78153025069E+01  0.35130657453E+03  0.47000000000E+01 0.  1.
<mgrwt>
<rscale>  0 0.10761472E+04</rscale>
<asrwt>0</asrwt>
<pdfrwt beam="1">  1        1 0.23589402E+00 0.10761472E+04</pdfrwt>
<pdfrwt beam="2">  1       -1 0.12705134E+00 0.10761472E+04</pdfrwt>
<totfact> 0.33203804E+00</totfact>
</mgrwt>
</event>
<event>
12    1  0.3127365E-008  0.9477569E+03  0.7818608E-02  0.9367776E-01
          2   -1    0    0  501    0  0.00000000000E+00  0.00000000000E+00  0.16127728130E+04  0.16127728130E+04  0.00000000000E+00 0. -1.
         -2   -1    0    0    0  501 -0.00000000000E+00 -0.00000000000E+00 -0.64933218995E+03  0.64933218995E+03  0.00000000000E+00 0.  1.
         23    2    1    2    0    0 -0.84945953233E+03  0.19097054666E+03  0.81163218318E+03  0.11938759524E+04  0.92421545662E+02 0.  0.
    5000000    2    1    2    0    0  0.84945953233E+03 -0.19097054666E+03  0.15180843987E+03  0.10682290506E+04  0.60001354597E+03 0.  0.
         23    2    4    4    0    0  0.69637432116E+03  0.73009351004E+02 -0.20037775316E+02  0.70639892481E+03  0.91270849811E+02 0.  0.
         23    2    4    4    0    0  0.15308521117E+03 -0.26397989767E+03  0.17184621519E+03  0.36183012578E+03  0.90936516288E+02 0.  0.
          3    1    3    3  502    0 -0.65602748547E+03  0.13338544072E+03  0.57165648029E+03  0.88031520999E+03  0.00000000000E+00 0. -1.
         -3    1    3    3    0  502 -0.19343204686E+03  0.57585105941E+02  0.23997570289E+03  0.31356074237E+03  0.00000000000E+00 0.  1.
         13    1    5    5    0    0  0.47432688522E+03  0.67726967871E+01 -0.16157518810E+02  0.47465032274E+03  0.00000000000E+00 0.  1.
        -13    1    5    5    0    0  0.22204743594E+03  0.66236654216E+02 -0.38802565059E+01  0.23174860207E+03  0.00000000000E+00 0. -1.
          5    1    6    6  503    0  0.85502358173E+02 -0.22323548010E+03  0.13548056343E+03  0.27481231031E+03  0.47000000000E+01 0. -1.
         -5    1    6    6    0  503  0.67582852993E+02 -0.40744417571E+02  0.36365651756E+02  0.87017815472E+02  0.47000000000E+01 0.  1.
<mgrwt>
<rscale>  0 0.94775694E+03</rscale>
<asrwt>0</asrwt>
<pdfrwt beam="1">  1        2 0.24811889E+00 0.94775694E+03</pdfrwt>
<pdfrwt beam="2">  1       -2 0.99897261E-01 0.94775694E+03</pdfrwt>
<totfact> 0.91010278E+00</totfact>
</mgrwt>
</event>
<event>
12    1  0.3127365E-008  0.2876091E+03  0.7818608E-02  0.1091604E+00
          1   -1    0    0  501    0  0.00000000000E+00  0.00000000000E+00  0.12789557613E+04  0.12789557613E+04  0.00000000000E+00 0. -1.
         -1   -1    0    0    0  501 -0.00000000000E+00 -0.00000000000E+00 -0.14195933314E+03  0.14195933314E+03  0.00000000000E+00 0.  1.
         23    2    1    2    0    0  0.11344758485E+03 -0.11341708398E+03  0.92707005884E+02  0.20587614609E+03  0.89758615977E+02 0.  0.
    5000000    2    1    2    0    0 -0.11344758485E+03  0.11341708398E+03  0.10442894223E+04  0.12150389484E+04  0.60003788136E+03 0.  0.
         23    2    4    4    0    0 -0.56223716478E+02  0.23671657691E+03  0.10156392756E+04  0.10484862278E+04  0.92759838194E+02 0.  0.
         23    2    4    4    0    0 -0.57223868377E+02 -0.12329949293E+03  0.28650146671E+02  0.16655272058E+03  0.91878407461E+02 0.  0.
          4    1    3    3  502    0 -0.92484961296E+01 -0.38738263166E+02  0.25533112534E+02  0.47308852760E+02  0.00000000000E+00 0. -1.
         -4    1    3    3    0  502  0.12269608098E+03 -0.74678820813E+02  0.67173893350E+02  0.15856729333E+03  0.00000000000E+00 0.  1.
         11    1    5    5    0    0 -0.45762979859E+02  0.20005765967E+03  0.66934814212E+03  0.70010303019E+03  0.00000000000E+00 0. -1.
        -11    1    5    5    0    0 -0.10460736618E+02  0.36658917245E+02  0.34629113350E+03  0.34838319760E+03  0.00000000000E+00 0.  1.
          5    1    6    6  503    0 -0.65964221465E+02 -0.79074121003E+02 -0.14348492041E+02  0.10407672338E+03  0.47000000000E+01 0. -1.
         -5    1    6    6    0  503  0.87403530885E+01 -0.44225371930E+02  0.42998638712E+02  0.62475997195E+02  0.47000000000E+01 0.  1.
<mgrwt>
<rscale>  0 0.28760905E+03</rscale>
<asrwt>0</asrwt>
<pdfrwt beam="1">  1        1 0.19676242E+00 0.28760905E+03</pdfrwt>
<pdfrwt beam="2">  1       -1 0.21839898E-01 0.28760905E+03</pdfrwt>
<totfact> 0.17695648E+02</totfact>
</mgrwt>
</event>
<event>
12    1  0.3127365E-008  0.5136852E+03  0.7818608E-02  0.1010267E+00
         -2   -1    0    0    0  501 -0.00000000000E+00  0.00000000000E+00  0.41414417495E+03  0.41414417495E+03  0.00000000000E+00 0.  1.
          2   -1    0    0  501    0  0.00000000000E+00 -0.00000000000E+00 -0.88554011872E+03  0.88554011872E+03  0.00000000000E+00 0. -1.
         23    2    1    2    0    0 -0.33740858775E+03 -0.12309130424E+02  0.14197047348E+03  0.37757112634E+03  0.91696621139E+02 0.  0.
    5000000    2    1    2    0    0  0.33740858775E+03  0.12309130424E+02 -0.61336641725E+03  0.92211316734E+03  0.60006521461E+03 0.  0.
         23    2    4    4    0    0  0.49181195907E+03  0.10610778801E+02 -0.38722395106E+03  0.63275775951E+03  0.91915190478E+02 0.  0.
         23    2    4    4    0    0 -0.15440337132E+03  0.16983516234E+01 -0.22614246619E+03  0.28935540782E+03  0.93503216793E+02 0.  0.
          3    1    3    3  502    0 -0.68954626760E+02 -0.36580472889E+02  0.14463590158E+02  0.79385559068E+02  0.00000000000E+00 0. -1.
         -3    1    3    3    0  502 -0.26845396099E+03  0.24271342465E+02  0.12750688332E+03  0.29818556727E+03  0.00000000000E+00 0.  1.
         11    1    5    5    0    0  0.51892442017E+02  0.30128024863E+02 -0.42737183923E+02  0.73668109181E+02  0.00000000000E+00 0. -1.
        -11    1    5    5    0    0  0.43991951705E+03 -0.19517246062E+02 -0.34448676714E+03  0.55908965033E+03  0.00000000000E+00 0.  1.
          5    1    6    6  503    0  0.26624145846E+01 -0.20058341673E+02 -0.16914363314E+02  0.26788266245E+02  0.47000000000E+01 0. -1.
         -5    1    6    6    0  503 -0.15706578590E+03  0.21756693297E+02 -0.20922810287E+03  0.26256714158E+03  0.47000000000E+01 0.  1.
<mgrwt>
<rscale>  0 0.51368524E+03</rscale>
<asrwt>0</asrwt>
<pdfrwt beam="1">  1        2 0.13623694E+00 0.51368524E+03</pdfrwt>
<pdfrwt beam="2">  1       -2 0.63714489E-01 0.51368524E+03</pdfrwt>
<totfact> 0.70804626E+01</totfact>
</mgrwt>
</event>
<event>
12    1  0.3127365E-008  0.5199214E+03  0.7818608E-02  0.1008706E+00
         -2   -1    0    0    0  501 -0.00000000000E+00  0.00000000000E+00  0.67410960418E+03  0.67410960418E+03  0.00000000000E+00 0.  1.
          2   -1    0    0  501    0  0.00000000000E+00 -0.00000000000E+00 -0.48481502051E+03  0.48481502051E+03  0.00000000000E+00 0. -1.
         23    2    1    2    0    0  0.36642845888E+03 -0.17914740833E+03  0.56267031837E+02  0.42139016842E+03  0.89666525430E+02 0.  0.
    5000000    2    1    2    0    0 -0.36642845888E+03  0.17914740833E+03  0.13302755184E+03  0.73753445627E+03  0.59991427325E+03 0.  0.
         23    2    4    4    0    0 -0.47087721008E+03  0.70348123094E+02  0.22954670698E+03  0.53658083729E+03  0.92482965261E+02 0.  0.
         23    2    4    4    0    0  0.10444875120E+03  0.10879928524E+03 -0.96519155143E+02  0.20095361898E+03  0.91211751307E+02 0.  0.
          4    1    3    3  502    0  0.13343009840E+03 -0.55583674436E+02  0.62744676709E+02  0.15757547550E+03  0.00000000000E+00 0. -1.
         -4    1    3    3    0  502  0.23299836048E+03 -0.12356373390E+03 -0.64776448717E+01  0.26381469292E+03  0.00000000000E+00 0.  1.
         11    1    5    5    0    0 -0.11564557157E+03  0.61565560253E+01  0.15327940334E+02  0.11681929276E+03  0.00000000000E+00 0.  1.
        -11    1    5    5    0    0 -0.35523163850E+03  0.64191567069E+02  0.21421876665E+03  0.41976154452E+03  0.00000000000E+00 0. -1.
          5    1    6    6  503    0  0.97892324738E+02  0.85312886886E+02 -0.34933576592E+02  0.13454977029E+03  0.47000000000E+01 0. -1.
         -5    1    6    6    0  503  0.65564264617E+01  0.23486398351E+02 -0.61585578551E+02  0.66403848691E+02  0.47000000000E+01 0.  1.
<mgrwt>
<rscale>  0 0.51992142E+03</rscale>
<asrwt>0</asrwt>
<pdfrwt beam="1">  1        2 0.74586926E-01 0.51992142E+03</pdfrwt>
<pdfrwt beam="2">  1       -2 0.10370917E+00 0.51992142E+03</pdfrwt>
<totfact> 0.49791468E+01</totfact>
</mgrwt>
</event>
<event>
12    1  0.3127365E-008  0.1711943E+04  0.7818608E-02  0.8754582E-01
          1   -1    0    0  501    0  0.00000000000E+00  0.00000000000E+00  0.34668868239E+04  0.34668868239E+04  0.00000000000E+00 0. -1.
         -1   -1    0    0    0  501 -0.00000000000E+00 -0.00000000000E+00 -0.87044032723E+03  0.87044032723E+03  0.00000000000E+00 0.  1.
         23    2    1    2    0    0  0.15629734887E+04  0.62604381762E+03  0.13021542738E+04  0.21303996415E+04  0.90442754721E+02 0.  0.
    5000000    2    1    2    0    0 -0.15629734887E+04 -0.62604381762E+03  0.12942922229E+04  0.22069275096E+04  0.60043291576E+03 0.  0.
         23    2    4    4    0    0 -0.30143857668E+03  0.46597196989E+02  0.77867408230E+02  0.32775707885E+03  0.91240644429E+02 0.  0.
         23    2    4    4    0    0 -0.12615349120E+04 -0.67264101461E+03  0.12164248147E+04  0.18791704307E+04  0.87612266261E+02 0.  0.
          1    1    3    3  502    0  0.84673569257E+03  0.37290245345E+03  0.67413430535E+03  0.11447596405E+04  0.00000000000E+00 0. -1.
         -1    1    3    3    0  502  0.71623779616E+03  0.25314136418E+03  0.62801996844E+03  0.98564000104E+03  0.00000000000E+00 0.  1.
         13    1    5    5    0    0 -0.11086961184E+02  0.83926433749E+01 -0.15074272745E+02  0.20508312215E+02  0.00000000000E+00 0. -1.
        -13    1    5    5    0    0 -0.29035161550E+03  0.38204553614E+02  0.92941680975E+02  0.30724876664E+03  0.00000000000E+00 0.  1.
          5    1    6    6  503    0 -0.65322835295E+03 -0.39679216255E+03  0.63922982932E+03  0.99638755816E+03  0.47000000000E+01 0. -1.
         -5    1    6    6    0  503 -0.60830655910E+03 -0.27584885206E+03  0.57719498534E+03  0.88278287259E+03  0.47000000000E+01 0.  1.
<mgrwt>
<rscale>  0 0.17119429E+04</rscale>
<asrwt>0</asrwt>
<pdfrwt beam="1">  1        1 0.53336720E+00 0.17119429E+04</pdfrwt>
<pdfrwt beam="2">  1       -1 0.13391390E+00 0.17119429E+04</pdfrwt>
<totfact> 0.11647455E-01</totfact>
</mgrwt>
</event>
<event>
12    1  0.3127365E-008  0.1486063E+04  0.7818608E-02  0.8893774E-01
         -1   -1    0    0    0  501 -0.00000000000E+00  0.00000000000E+00  0.16250649444E+04  0.16250649444E+04  0.00000000000E+00 0. -1.
          1   -1    0    0  501    0  0.00000000000E+00 -0.00000000000E+00 -0.14200657301E+04  0.14200657301E+04  0.00000000000E+00 0.  1.
         23    2    1    2    0    0 -0.14476721519E+04  0.13393591102E+03  0.21359584561E+03  0.14722972621E+04  0.91337587522E+02 0.  0.
    5000000    2    1    2    0    0  0.14476721519E+04 -0.13393591102E+03 -0.85966312954E+01  0.15728334125E+04  0.60003129382E+03 0.  0.
         23    2    4    4    0    0  0.14932192450E+03  0.89811833451E+02 -0.14524599813E+03  0.24521850583E+03  0.93126328515E+02 0.  0.
         23    2    4    4    0    0  0.12983502274E+04 -0.22374774448E+03  0.13664936683E+03  0.13276149067E+04  0.90066223681E+02 0.  0.
          3    1    3    3  502    0 -0.46347342893E+03  0.85486649160E+02  0.74153365224E+02  0.47708941309E+03  0.00000000000E+00 0. -1.
         -3    1    3    3    0  502 -0.98419872301E+03  0.48449261865E+02  0.13944248039E+03  0.99520784899E+03  0.00000000000E+00 0.  1.
         13    1    5    5    0    0  0.15202463307E+03  0.55900137872E+02 -0.10749287129E+03  0.19439915600E+03  0.00000000000E+00 0. -1.
        -13    1    5    5    0    0 -0.27027085719E+01  0.33911695579E+02 -0.37753126843E+02  0.50819349830E+02  0.00000000000E+00 0.  1.
          5    1    6    6  503    0  0.11617922720E+04 -0.22186884484E+03  0.13904688777E+03  0.11909421458E+04  0.47000000000E+01 0. -1.
         -5    1    6    6    0  503  0.13655795543E+03 -0.18788996386E+01 -0.23975209376E+01  0.13667276086E+03  0.47000000000E+01 0.  1.
<mgrwt>
<rscale>  0 0.14860632E+04</rscale>
<asrwt>0</asrwt>
<pdfrwt beam="1">  1        1 0.21847165E+00 0.14860632E+04</pdfrwt>
<pdfrwt beam="2">  1       -1 0.25000999E+00 0.14860632E+04</pdfrwt>
<totfact> 0.49143900E-01</totfact>
</mgrwt>
</event>
<event>
12    1  0.3297275E-008  0.7661949E+03  0.7818608E-02  0.9610280E-01
         -1   -1    0    0    0  501 -0.00000000000E+00  0.00000000000E+00  0.90638570083E+03  0.90638570083E+03  0.00000000000E+00 0.  1.
          1   -1    0    0  501    0  0.00000000000E+00 -0.00000000000E+00 -0.14140117549E+04  0.14140117549E+04  0.00000000000E+00 0. -1.
         23    2    1    2    0    0 -0.61758977543E+03 -0.34328899765E+03  0.56030938936E+03  0.90627879791E+03  0.90167516903E+02 0.  0.
    5000000    2    1    2    0    0  0.61758977543E+03  0.34328899765E+03 -0.10679354434E+04  0.14141186578E+04  0.59998416681E+03 0.  0.
         23    2    4    4    0    0  0.15029045213E+03 -0.88781707876E+02 -0.39089324123E+02  0.20076853497E+03  0.91162589465E+02 0.  0.
         23    2    4    4    0    0  0.46729932330E+03  0.43207070553E+03 -0.10288461193E+04  0.12133501228E+04  0.92953920208E+02 0.  0.
          2    1    3    3  502    0 -0.32092763239E+03 -0.22955810196E+03  0.31402788917E+03  0.50428660758E+03  0.00000000000E+00 0. -1.
         -2    1    3    3    0  502 -0.29666214304E+03 -0.11373089569E+03  0.24628150019E+03  0.40199219033E+03  0.00000000000E+00 0.  1.
         13    1    5    5    0    0  0.48845679637E+02 -0.61426527119E+02 -0.53120278115E+02  0.94767518698E+02  0.00000000000E+00 0.  1.
        -13    1    5    5    0    0  0.10144477249E+03 -0.27355180757E+02  0.14030953992E+02  0.10600101627E+03  0.00000000000E+00 0. -1.
          5    1    6    6  503    0  0.20735401001E+03  0.18692739080E+03 -0.36626600226E+03  0.46055445857E+03  0.47000000000E+01 0. -1.
         -5    1    6    6    0  503  0.25994531329E+03  0.24514331473E+03 -0.66258011700E+03  0.75279566424E+03  0.47000000000E+01 0.  1.
<mgrwt>
<rscale>  0 0.76619489E+03</rscale>
<asrwt>0</asrwt>
<pdfrwt beam="1">  1        1 0.21754027E+00 0.76619489E+03</pdfrwt>
<pdfrwt beam="2">  1       -1 0.13944396E+00 0.76619489E+03</pdfrwt>
<totfact> 0.33087706E+00</totfact>
</mgrwt>
</event>
<event>
12    1  0.3127365E-008  0.1067570E+04  0.7818608E-02  0.9237390E-01
          1   -1    0    0  501    0  0.00000000000E+00  0.00000000000E+00  0.11865570305E+04  0.11865570305E+04  0.00000000000E+00 0. -1.
         -1   -1    0    0    0  501 -0.00000000000E+00 -0.00000000000E+00 -0.10836407989E+04  0.10836407989E+04  0.00000000000E+00 0.  1.
         23    2    1    2    0    0  0.10030512763E+04  0.94596299446E+02  0.35173852954E+03  0.10714789424E+04  0.96368086038E+02 0.  0.
    5000000    2    1    2    0    0 -0.10030512763E+04 -0.94596299446E+02 -0.24882229794E+03  0.11987188869E+04  0.59996175798E+03 0.  0.
         23    2    4    4    0    0 -0.49300014598E+02 -0.13324871642E+03  0.78394090914E+02  0.18549029666E+03  0.89862699712E+02 0.  0.
         23    2    4    4    0    0 -0.95375126175E+03  0.38652416970E+02 -0.32721638886E+03  0.10132285903E+04  0.91793966798E+02 0.  0.
          2    1    3    3  502    0  0.40054476148E+03  0.66988396885E+02  0.10229393379E+03  0.41879302783E+03  0.00000000000E+00 0. -1.
         -2    1    3    3    0  502  0.60250651487E+03  0.27607902561E+02  0.24944459575E+03  0.65268591458E+03  0.00000000000E+00 0.  1.
         11    1    5    5    0    0  0.14712669381E+01  0.12553719002E+02  0.12004490489E+02  0.17431818009E+02  0.00000000000E+00 0.  1.
        -11    1    5    5    0    0 -0.50771281536E+02 -0.14580243542E+03  0.66389600425E+02  0.16805847865E+03  0.00000000000E+00 0. -1.
          5    1    6    6  503    0 -0.36270176011E+03 -0.29246080212E+02 -0.13026400934E+03  0.38652128288E+03  0.47000000000E+01 0. -1.
         -5    1    6    6    0  503 -0.59104950164E+03  0.67898497182E+02 -0.19695237951E+03  0.62670730737E+03  0.47000000000E+01 0.  1.
<mgrwt>
<rscale>  0 0.10675701E+04</rscale>
<asrwt>0</asrwt>
<pdfrwt beam="1">  1        1 0.18254724E+00 0.10675701E+04</pdfrwt>
<pdfrwt beam="2">  1       -1 0.16671397E+00 0.10675701E+04</pdfrwt>
<totfact> 0.28312278E+00</totfact>
</mgrwt>
</event>
<event>
12    1  0.3127365E-008  0.1215201E+04  0.7818608E-02  0.9099655E-01
         -2   -1    0    0    0  501 -0.00000000000E+00  0.00000000000E+00  0.83913736318E+03  0.83913736318E+03  0.00000000000E+00 0.  1.
          2   -1    0    0  501    0  0.00000000000E+00 -0.00000000000E+00 -0.22688226188E+04  0.22688226188E+04  0.00000000000E+00 0. -1.
         23    2    1    2    0    0 -0.11975750385E+04 -0.56967781671E+02 -0.79077081418E+02  0.12049389940E+04  0.90517917269E+02 0.  0.
    5000000    2    1    2    0    0  0.11975750385E+04  0.56967781671E+02 -0.13506081742E+04  0.19030209880E+04  0.59992927884E+03 0.  0.
         23    2    4    4    0    0  0.25384970827E+03  0.11870904371E+03 -0.67687433674E+03  0.73805050462E+03  0.89600045634E+02 0.  0.
         23    2    4    4    0    0  0.94372533023E+03 -0.61741262043E+02 -0.67373383744E+03  0.11649704834E+04  0.93858729365E+02 0.  0.
          4    1    3    3  502    0 -0.73611770502E+03 -0.64576383180E+02 -0.15908235019E+02  0.73911599688E+03  0.00000000000E+00 0. -1.
         -4    1    3    3    0  502 -0.46145733349E+03  0.76086015085E+01 -0.63168846399E+02  0.46582299707E+03  0.00000000000E+00 0.  1.
         11    1    5    5    0    0  0.94330800223E+02  0.55074145673E+02 -0.37670535930E+03  0.39222237203E+03  0.00000000000E+00 0.  1.
        -11    1    5    5    0    0  0.15951890804E+03  0.63634898042E+02 -0.30016897744E+03  0.34582813259E+03  0.00000000000E+00 0. -1.
          5    1    6    6  503    0  0.50464709119E+03  0.57530455245E+01 -0.39009833960E+03  0.63788759883E+03  0.47000000000E+01 0. -1.
         -5    1    6    6    0  503  0.43907823905E+03 -0.67494307568E+02 -0.28363549783E+03  0.52708288455E+03  0.47000000000E+01 0.  1.
<mgrwt>
<rscale>  0 0.12152006E+04</rscale>
<asrwt>0</asrwt>
<pdfrwt beam="1">  1        2 0.34904963E+00 0.12152006E+04</pdfrwt>
<pdfrwt beam="2">  1       -2 0.12909806E+00 0.12152006E+04</pdfrwt>
<totfact> 0.20362739E+00</totfact>
</mgrwt>
</event>
<event>
12    1  0.3591839E-008  0.1109583E+04  0.7818608E-02  0.9195901E-01
          1   -1    0    0  501    0  0.00000000000E+00  0.00000000000E+00  0.15175188034E+04  0.15175188034E+04  0.00000000000E+00 0. -1.
         -1   -1    0    0    0  501 -0.00000000000E+00 -0.00000000000E+00 -0.10332361339E+04  0.10332361339E+04  0.00000000000E+00 0.  1.
         23    2    1    2    0    0  0.10080482457E+04  0.43472120323E+03 -0.20948408678E+03  0.11202197132E+04  0.76582197651E+02 0.  0.
    5000000    2    1    2    0    0 -0.10080482457E+04 -0.43472120323E+03  0.69376675627E+03  0.14305352241E+04  0.59997910372E+03 0.  0.
         23    2    4    4    0    0 -0.73356143509E+03 -0.22806783862E+03  0.15955177014E+03  0.78988717363E+03  0.91310796983E+02 0.  0.
         23    2    4    4    0    0 -0.27448681064E+03 -0.20665336461E+03  0.53421498613E+03  0.64064805042E+03  0.83640007084E+02 0.  0.
          4    1    3    3  502    0  0.58794769905E+03  0.22338107681E+03 -0.14614010197E+03  0.64570777577E+03  0.00000000000E+00 0.  1.
         -4    1    3    3    0  502  0.42010054669E+03  0.21134012643E+03 -0.63343984812E+02  0.47451193744E+03  0.00000000000E+00 0. -1.
         13    1    5    5    0    0 -0.48309462967E+03 -0.12236137814E+03  0.67684409117E+02  0.50292534965E+03  0.00000000000E+00 0.  1.
        -13    1    5    5    0    0 -0.25046680542E+03 -0.10570646048E+03  0.91867361020E+02  0.28696182398E+03  0.00000000000E+00 0. -1.
          5    1    6    6  503    0 -0.76740744690E+02 -0.96333618147E+02  0.14474542081E+03  0.19011216354E+03  0.47000000000E+01 0. -1.
         -5    1    6    6    0  503 -0.19774606595E+03 -0.11031974647E+03  0.38946956532E+03  0.45053588688E+03  0.47000000000E+01 0.  1.
<mgrwt>
<rscale>  0 0.11095834E+04</rscale>
<asrwt>0</asrwt>
<pdfrwt beam="1">  1        1 0.23346443E+00 0.11095834E+04</pdfrwt>
<pdfrwt beam="2">  1       -1 0.15895940E+00 0.11095834E+04</pdfrwt>
<totfact> 0.18768517E+00</totfact>
</mgrwt>
</event>
<event>
12    1  0.3127365E-008  0.2185282E+04  0.7818608E-02  0.8524579E-01
          2   -1    0    0  501    0  0.00000000000E+00  0.00000000000E+00  0.26786108426E+04  0.26786108426E+04  0.00000000000E+00 0. -1.
         -2   -1    0    0    0  501 -0.00000000000E+00 -0.00000000000E+00 -0.18462085632E+04  0.18462085632E+04  0.00000000000E+00 0.  1.
         23    2    1    2    0    0  0.14619350886E+04  0.16192055093E+04  0.34816213084E+03  0.22110632718E+04  0.92213003508E+02 0.  0.
    5000000    2    1    2    0    0 -0.14619350886E+04 -0.16192055093E+04  0.48424014853E+03  0.23137561340E+04  0.59991519521E+03 0.  0.
         23    2    4    4    0    0 -0.90152233079E+03 -0.10071302948E+04  0.57875358132E+03  0.14732683375E+04  0.92249350985E+02 0.  0.
         23    2    4    4    0    0 -0.56041275782E+03 -0.61207521451E+03 -0.94513432789E+02  0.84048779649E+03  0.93746571854E+02 0.  0.
          1    1    3    3  502    0  0.94536385694E+03  0.98089135336E+03  0.21181140211E+03  0.13786677407E+04  0.00000000000E+00 0. -1.
         -1    1    3    3    0  502  0.51657123167E+03  0.63831415595E+03  0.13635072873E+03  0.83239553117E+03  0.00000000000E+00 0.  1.
         11    1    5    5    0    0 -0.37657234407E+03 -0.48912408848E+03  0.25804042983E+03  0.66905453267E+03  0.00000000000E+00 0.  1.
        -11    1    5    5    0    0 -0.52494998672E+03 -0.51800620632E+03  0.32071315149E+03  0.80421380483E+03  0.00000000000E+00 0. -1.
          5    1    6    6  503    0 -0.34727685520E+03 -0.42351037583E+03 -0.29265820036E+02  0.54848959043E+03  0.47000000000E+01 0. -1.
         -5    1    6    6    0  503 -0.21313590262E+03 -0.18856483868E+03 -0.65247612753E+02  0.29199820606E+03  0.47000000000E+01 0.  1.
<mgrwt>
<rscale>  0 0.21852823E+04</rscale>
<asrwt>0</asrwt>
<pdfrwt beam="1">  1        2 0.41209398E+00 0.21852823E+04</pdfrwt>
<pdfrwt beam="2">  1       -2 0.28403209E+00 0.21852823E+04</pdfrwt>
<totfact> 0.94801776E-02</totfact>
</mgrwt>
</event>
<event>
12    1  0.3127365E-008  0.9483991E+03  0.7818608E-02  0.9367024E-01
          1   -1    0    0  501    0  0.00000000000E+00  0.00000000000E+00  0.29342284626E+04  0.29342284626E+04  0.00000000000E+00 0. -1.
         -1   -1    0    0    0  501 -0.00000000000E+00 -0.00000000000E+00 -0.41055642811E+03  0.41055642811E+03  0.00000000000E+00 0.  1.
         23    2    1    2    0    0 -0.88648807435E+03 -0.23540653907E+03  0.51428915311E+03  0.10558489833E+04  0.95112553463E+02 0.  0.
    5000000    2    1    2    0    0  0.88648807435E+03  0.23540653907E+03  0.20093828814E+04  0.22889359075E+04  0.60027550330E+03 0.  0.
         23    2    4    4    0    0  0.83135472861E+03  0.12496754527E+03  0.12147191195E+04  0.14797843935E+04  0.86323460224E+02 0.  0.
         23    2    4    4    0    0  0.55133345740E+02  0.11043899380E+03  0.79466376195E+03  0.80915151403E+03  0.89438363870E+02 0.  0.
          1    1    3    3  502    0 -0.50933741483E+03 -0.91492488422E+02  0.31281007313E+03  0.60468638106E+03  0.00000000000E+00 0. -1.
         -1    1    3    3    0  502 -0.37715065952E+03 -0.14391405065E+03  0.20147907998E+03  0.45116260220E+03  0.00000000000E+00 0.  1.
         13    1    5    5    0    0  0.43868383896E+03  0.86587479747E+02  0.71143182180E+03  0.84028336844E+03  0.00000000000E+00 0. -1.
        -13    1    5    5    0    0  0.39267088965E+03  0.38380065528E+02  0.50328729767E+03  0.63950102502E+03  0.00000000000E+00 0.  1.
          5    1    6    6  503    0  0.34531385957E+02  0.18201966962E+02  0.45061490933E+03  0.45232688924E+03  0.47000000000E+01 0. -1.
         -5    1    6    6    0  503  0.20601959783E+02  0.92237026836E+02  0.34404885262E+03  0.35682462479E+03  0.47000000000E+01 0.  1.
<mgrwt>
<rscale>  0 0.94839909E+03</rscale>
<asrwt>0</asrwt>
<pdfrwt beam="1">  1        1 0.45141975E+00 0.94839909E+03</pdfrwt>
<pdfrwt beam="2">  1       -1 0.63162529E-01 0.94839909E+03</pdfrwt>
<totfact> 0.17564982E+00</totfact>
</mgrwt>
</event>
<event>
12    1  0.3127365E-008  0.7045441E+03  0.7818608E-02  0.9709493E-01
         -1   -1    0    0    0  501 -0.00000000000E+00  0.00000000000E+00  0.68390661179E+03  0.68390661179E+03  0.00000000000E+00 0.  1.
          1   -1    0    0  501    0  0.00000000000E+00 -0.00000000000E+00 -0.11120832573E+04  0.11120832573E+04  0.00000000000E+00 0. -1.
         23    2    1    2    0    0 -0.23065760633E+03  0.56829035275E+03 -0.66161154669E+03  0.90676621960E+03  0.91314193345E+02 0.  0.
    5000000    2    1    2    0    0  0.23065760633E+03 -0.56829035275E+03  0.23343490114E+03  0.88922364953E+03  0.60005832169E+03 0.  0.
         23    2    4    4    0    0  0.36198902299E+03 -0.51355033955E+03  0.30662055542E+03  0.70459491149E+03  0.87566090923E+02 0.  0.
         23    2    4    4    0    0 -0.13133141667E+03 -0.54740013203E+02 -0.73185654279E+02  0.18462873804E+03  0.92126113928E+02 0.  0.
          1    1    3    3  502    0 -0.10382675323E+03  0.37216139811E+03 -0.40301732037E+03  0.55830731811E+03  0.00000000000E+00 0. -1.
         -1    1    3    3    0  502 -0.12683085309E+03  0.19612895464E+03 -0.25859422632E+03  0.34845890149E+03  0.00000000000E+00 0.  1.
         11    1    5    5    0    0  0.24514827481E+03 -0.37116807242E+03  0.17403893005E+03  0.47765360231E+03  0.00000000000E+00 0. -1.
        -11    1    5    5    0    0  0.11684074818E+03 -0.14238226712E+03  0.13258162537E+03  0.22694130918E+03  0.00000000000E+00 0.  1.
          5    1    6    6  503    0 -0.11623789394E+03 -0.14899099735E+02 -0.24593897429E+02  0.11983397245E+03  0.47000000000E+01 0.  1.
         -5    1    6    6    0  503 -0.15093522723E+02 -0.39840913468E+02 -0.48591756850E+02  0.64794765590E+02  0.47000000000E+01 0. -1.
<mgrwt>
<rscale>  0 0.70454406E+03</rscale>
<asrwt>0</asrwt>
<pdfrwt beam="1">  1        1 0.17108973E+00 0.70454406E+03</pdfrwt>
<pdfrwt beam="2">  1       -1 0.10521640E+00 0.70454406E+03</pdfrwt>
<totfact> 0.10940755E+01</totfact>
</mgrwt>
</event>
<event>
12    1  0.3127365E-008  0.5183625E+03  0.7818608E-02  0.1009094E+00
          1   -1    0    0  501    0  0.00000000000E+00  0.00000000000E+00  0.64998656253E+03  0.64998656253E+03  0.00000000000E+00 0. -1.
         -1   -1    0    0    0  501 -0.00000000000E+00 -0.00000000000E+00 -0.63446849999E+03  0.63446849999E+03  0.00000000000E+00 0.  1.
         23    2    1    2    0    0  0.34031871514E+02  0.46066070422E+03  0.19005479901E+03  0.50743635612E+03  0.89467179455E+02 0.  0.
    5000000    2    1    2    0    0 -0.34031871514E+02 -0.46066070422E+03 -0.17453673648E+03  0.77701870640E+03  0.59994045124E+03 0.  0.
         23    2    4    4    0    0 -0.14634761189E+03 -0.10916774367E+03  0.16947928224E+03  0.26458319445E+03  0.89139328667E+02 0.  0.
         23    2    4    4    0    0  0.11231574037E+03 -0.35149296055E+03 -0.34401601872E+03  0.51243551195E+03  0.89894415418E+02 0.  0.
          3    1    3    3  502    0 -0.68072362356E+01  0.12483376624E+03  0.13248811353E+02  0.12571928516E+03  0.00000000000E+00 0. -1.
         -3    1    3    3    0  502  0.40839107750E+02  0.33582693798E+03  0.17680598766E+03  0.38171707096E+03  0.00000000000E+00 0.  1.
         13    1    5    5    0    0 -0.90378893451E+02 -0.15080274047E+02  0.58594482043E+02  0.10876153903E+03  0.00000000000E+00 0. -1.
        -13    1    5    5    0    0 -0.55968718435E+02 -0.94087469620E+02  0.11088480020E+03  0.15582165542E+03  0.00000000000E+00 0.  1.
          5    1    6    6  503    0 -0.27864426438E+01 -0.36436186904E+02 -0.70727636861E+02  0.79748658889E+02  0.47000000000E+01 0. -1.
         -5    1    6    6    0  503  0.11510218302E+03 -0.31505677365E+03 -0.27328838185E+03  0.43268685306E+03  0.47000000000E+01 0.  1.
<mgrwt>
<rscale>  0 0.51836247E+03</rscale>
<asrwt>0</asrwt>
<pdfrwt beam="1">  1        1 0.99997933E-01 0.51836247E+03</pdfrwt>
<pdfrwt beam="2">  1       -1 0.97610538E-01 0.51836247E+03</pdfrwt>
<totfact> 0.32309216E+01</totfact>
</mgrwt>
</event>
<event>
12    1  0.3127365E-008  0.6889262E+03  0.7818608E-02  0.9736359E-01
          2   -1    0    0  501    0  0.00000000000E+00  0.00000000000E+00  0.84608876421E+03  0.84608876421E+03  0.00000000000E+00 0. -1.
         -2   -1    0    0    0  501 -0.00000000000E+00 -0.00000000000E+00 -0.69265412884E+03  0.69265412884E+03  0.00000000000E+00 0.  1.
         23    2    1    2    0    0  0.37188505464E+03  0.51460664235E+03  0.17713990243E+03  0.66498180401E+03  0.87771091021E+02 0.  0.
    5000000    2    1    2    0    0 -0.37188505464E+03 -0.51460664235E+03 -0.23705267058E+02  0.87376108904E+03  0.59981498049E+03 0.  0.
         23    2    4    4    0    0 -0.39547351448E+03 -0.28675881055E+03  0.20493856762E+03  0.53753859273E+03  0.91203103544E+02 0.  0.
         23    2    4    4    0    0  0.23588459835E+02 -0.22784783180E+03 -0.22864383467E+03  0.33622249631E+03  0.91085201853E+02 0.  0.
          4    1    3    3  502    0  0.27017961586E+03  0.38858357237E+03  0.16998212810E+03  0.50287984789E+03  0.00000000000E+00 0. -1.
         -4    1    3    3    0  502  0.10170543879E+03  0.12602306998E+03  0.71577743304E+01  0.16210195612E+03  0.00000000000E+00 0.  1.
         11    1    5    5    0    0 -0.19249811615E+03 -0.84638195886E+02  0.94459692871E+02  0.23052501491E+03  0.00000000000E+00 0.  1.
        -11    1    5    5    0    0 -0.20297539833E+03 -0.20212061466E+03  0.11047887475E+03  0.30701357782E+03  0.00000000000E+00 0. -1.
          5    1    6    6  503    0 -0.26240341414E+02 -0.15644971187E+03 -0.13606717702E+03  0.20904888071E+03  0.47000000000E+01 0. -1.
         -5    1    6    6    0  503  0.49828801249E+02 -0.71398119928E+02 -0.92576657654E+02  0.12717361560E+03  0.47000000000E+01 0.  1.
<mgrwt>
<rscale>  0 0.68892622E+03</rscale>
<asrwt>0</asrwt>
<pdfrwt beam="1">  1        2 0.13016750E+00 0.68892622E+03</pdfrwt>
<pdfrwt beam="2">  1       -2 0.10656217E+00 0.68892622E+03</pdfrwt>
<totfact> 0.23135938E+01</totfact>
</mgrwt>
</event>
<event>
12    1  0.3127365E-008  0.2820587E+04  0.7818608E-02  0.8296905E-01
         -2   -1    0    0    0  501 -0.00000000000E+00  0.00000000000E+00  0.24195927789E+04  0.24195927789E+04  0.00000000000E+00 0.  1.
          2   -1    0    0  501    0  0.00000000000E+00 -0.00000000000E+00 -0.33016930074E+04  0.33016930074E+04  0.00000000000E+00 0. -1.
         23    2    1    2    0    0  0.11077988953E+04 -0.25647962241E+04 -0.42861454087E+03  0.28279933950E+04  0.91859423185E+02 0.  0.
    5000000    2    1    2    0    0 -0.11077988953E+04  0.25647962241E+04 -0.45348568764E+03  0.28932923912E+04  0.60007793535E+03 0.  0.
         23    2    4    4    0    0 -0.25229035983E+03  0.17443840026E+03 -0.42144633927E+02  0.31974613269E+03  0.79888910702E+02 0.  0.
         23    2    4    4    0    0 -0.85550853552E+03  0.23903578239E+04 -0.41134105372E+03  0.25735462585E+04  0.90738646590E+02 0.  0.
          3    1    3    3  502    0  0.40491916999E+03 -0.10062118701E+04 -0.13047037061E+03  0.10924487994E+04  0.00000000000E+00 0. -1.
         -3    1    3    3    0  502  0.70287972535E+03 -0.15585843540E+04 -0.29814417026E+03  0.17355445956E+04  0.00000000000E+00 0.  1.
         11    1    5    5    0    0 -0.36684769261E+02  0.29530152246E+02  0.22282302152E+02  0.52098974813E+02  0.00000000000E+00 0.  1.
        -11    1    5    5    0    0 -0.21560559057E+03  0.14490824801E+03 -0.64426936079E+02  0.26764715787E+03  0.00000000000E+00 0. -1.
          5    1    6    6  503    0 -0.25569103595E+03  0.61822143295E+03 -0.13158734921E+03  0.68184526580E+03  0.47000000000E+01 0. -1.
         -5    1    6    6    0  503 -0.59981749957E+03  0.17721363909E+04 -0.27975370451E+03  0.18917009928E+04  0.47000000000E+01 0.  1.
<mgrwt>
<rscale>  0 0.28205866E+04</rscale>
<asrwt>0</asrwt>
<pdfrwt beam="1">  1        2 0.50795277E+00 0.28205866E+04</pdfrwt>
<pdfrwt beam="2">  1       -2 0.37224504E+00 0.28205866E+04</pdfrwt>
<totfact> 0.10121279E-02</totfact>
</mgrwt>
</event>
<event>
12    1  0.3127365E-008  0.2949401E+03  0.7818608E-02  0.1087798E+00
         -2   -1    0    0    0  501 -0.00000000000E+00  0.00000000000E+00  0.37298335719E+03  0.37298335719E+03  0.00000000000E+00 0.  1.
          2   -1    0    0  501    0  0.00000000000E+00 -0.00000000000E+00 -0.63912755258E+03  0.63912755258E+03  0.00000000000E+00 0. -1.
         23    2    1    2    0    0 -0.97010907023E+02 -0.16002844044E+02 -0.37131001505E+03  0.39506102977E+03  0.92384429804E+02 0.  0.
    5000000    2    1    2    0    0  0.97010907023E+02  0.16002844044E+02  0.10516581966E+03  0.61704987999E+03  0.60001958108E+03 0.  0.
         23    2    4    4    0    0  0.26651952953E+03 -0.30224247143E+02 -0.12972291611E+03  0.31024002019E+03  0.86456176318E+02 0.  0.
         23    2    4    4    0    0 -0.16950862251E+03  0.46227091187E+02  0.23488873577E+03  0.30680985981E+03  0.89941396569E+02 0.  0.
          3    1    3    3  502    0 -0.40808425339E+02 -0.45064852939E+02 -0.10493407824E+03  0.12127377839E+03  0.00000000000E+00 0. -1.
         -3    1    3    3    0  502 -0.56202481684E+02  0.29062008895E+02 -0.26637593681E+03  0.27378725138E+03  0.00000000000E+00 0.  1.
         11    1    5    5    0    0  0.19721794579E+03 -0.34177100053E+02 -0.53578095687E+02  0.20720425827E+03  0.00000000000E+00 0. -1.
        -11    1    5    5    0    0  0.69301583741E+02  0.39528529096E+01 -0.76144820424E+02  0.10303576191E+03  0.00000000000E+00 0.  1.
          5    1    6    6  503    0 -0.11766590533E+03 -0.11724997462E+02  0.12524728737E+03  0.17231283712E+03  0.47000000000E+01 0. -1.
         -5    1    6    6    0  503 -0.51842717175E+02  0.57952088650E+02  0.10964144841E+03  0.13449702269E+03  0.47000000000E+01 0.  1.
<mgrwt>
<rscale>  0 0.29494011E+03</rscale>
<asrwt>0</asrwt>
<pdfrwt beam="1">  1        2 0.98327316E-01 0.29494011E+03</pdfrwt>
<pdfrwt beam="2">  1       -2 0.57382055E-01 0.29494011E+03</pdfrwt>
<totfact> 0.13692209E+02</totfact>
</mgrwt>
</event>
<event>
12    1  0.3127365E-008  0.8255984E+03  0.7818608E-02  0.9523686E-01
          3   -1    0    0  501    0  0.00000000000E+00  0.00000000000E+00  0.26893402934E+04  0.26893402934E+04  0.00000000000E+00 0. -1.
         -3   -1    0    0    0  501 -0.00000000000E+00 -0.00000000000E+00 -0.29249735976E+03  0.29249735976E+03  0.00000000000E+00 0.  1.
         23    2    1    2    0    0 -0.20333679204E+03 -0.74157100832E+03  0.13064291906E+04  0.15189372798E+04  0.95602398498E+02 0.  0.
    5000000    2    1    2    0    0  0.20333679204E+03  0.74157100832E+03  0.10904137430E+04  0.14629003734E+04  0.59983494392E+03 0.  0.
         23    2    4    4    0    0  0.23038055371E+03  0.74285745255E+03  0.11115829226E+04  0.13589565120E+04  0.78954503100E+02 0.  0.
         23    2    4    4    0    0 -0.27043761671E+02 -0.12864442278E+01 -0.21169179517E+02  0.10394386131E+03  0.98097768363E+02 0.  0.
          1    1    3    3  502    0 -0.11447258894E+03 -0.37240319613E+03  0.57075525202E+03  0.69104968839E+03  0.00000000000E+00 0. -1.
         -1    1    3    3    0  502 -0.88864203102E+02 -0.36916781219E+03  0.73567393858E+03  0.82788759144E+03  0.00000000000E+00 0.  1.
         13    1    5    5    0    0  0.20549670351E+03  0.57902053053E+03  0.91011340950E+03  0.10980892897E+04  0.00000000000E+00 0. -1.
        -13    1    5    5    0    0  0.24883850207E+02  0.16383692202E+03  0.20146951306E+03  0.26086722238E+03  0.00000000000E+00 0.  1.
          5    1    6    6  503    0 -0.22047062750E+02 -0.48801030009E+02 -0.10841416804E+02  0.54838306175E+02  0.47000000000E+01 0. -1.
         -5    1    6    6    0  503 -0.49966989209E+01  0.47514585782E+02 -0.10327762713E+02  0.49105555131E+02  0.47000000000E+01 0.  1.
<mgrwt>
<rscale>  0 0.82559839E+03</rscale>
<asrwt>0</asrwt>
<pdfrwt beam="1">  1        3 0.41374464E+00 0.82559839E+03</pdfrwt>
<pdfrwt beam="2">  1       -3 0.44999596E-01 0.82559839E+03</pdfrwt>
<totfact> 0.12385851E-01</totfact>
</mgrwt>
</event>
<event>
12    1  0.3127365E-008  0.8281195E+03  0.7818608E-02  0.9520184E-01
          1   -1    0    0  501    0  0.00000000000E+00  0.00000000000E+00  0.68887146053E+03  0.68887146053E+03  0.00000000000E+00 0. -1.
         -1   -1    0    0    0  501 -0.00000000000E+00 -0.00000000000E+00 -0.14934834719E+04  0.14934834719E+04  0.00000000000E+00 0.  1.
         23    2    1    2    0    0  0.53347040120E+03 -0.55725533831E+03  0.17763909368E+03  0.79678978934E+03  0.90521487831E+02 0.  0.
    5000000    2    1    2    0    0 -0.53347040120E+03  0.55725533831E+03 -0.98225110503E+03  0.13855651431E+04  0.59987444629E+03 0.  0.
         23    2    4    4    0    0  0.45667395308E+02  0.91749516055E+02 -0.43904235817E+03  0.46077393614E+03  0.95136445572E+02 0.  0.
         23    2    4    4    0    0 -0.57913779651E+03  0.46550582225E+03 -0.54320874686E+03  0.92479120692E+03  0.89815231613E+02 0.  0.
          1    1    3    3  502    0  0.24223354051E+03 -0.30537037861E+03  0.11723755077E+03  0.40702923677E+03  0.00000000000E+00 0. -1.
         -1    1    3    3    0  502  0.29123686069E+03 -0.25188495970E+03  0.60401542912E+02  0.38976055257E+03  0.00000000000E+00 0.  1.
         13    1    5    5    0    0 -0.31472919773E+00  0.88824202457E+02 -0.34203564261E+03  0.35338112401E+03  0.00000000000E+00 0. -1.
        -13    1    5    5    0    0  0.45982124505E+02  0.29253135983E+01 -0.97006715560E+02  0.10739281213E+03  0.00000000000E+00 0.  1.
          5    1    6    6  503    0 -0.53236260529E+03  0.40013318585E+03 -0.50420579617E+03  0.83532154577E+03  0.47000000000E+01 0. -1.
         -5    1    6    6    0  503 -0.46775191217E+02  0.65372636404E+02 -0.39002950688E+02  0.89469661150E+02  0.47000000000E+01 0.  1.
<mgrwt>
<rscale>  0 0.82811951E+03</rscale>
<asrwt>0</asrwt>
<pdfrwt beam="1">  1        1 0.10598022E+00 0.82811951E+03</pdfrwt>
<pdfrwt beam="2">  1       -1 0.22976669E+00 0.82811951E+03</pdfrwt>
<totfact> 0.27226286E+00</totfact>
</mgrwt>
</event>
<event>
12    1  0.3127365E-008  0.4587307E+03  0.7818608E-02  0.1025150E+00
         -2   -1    0    0    0  501 -0.00000000000E+00  0.00000000000E+00  0.22692615624E+03  0.22692615624E+03  0.00000000000E+00 0. -1.
          2   -1    0    0  501    0  0.00000000000E+00 -0.00000000000E+00 -0.16470367305E+04  0.16470367305E+04  0.00000000000E+00 0.  1.
         23    2    1    2    0    0 -0.19008486862E+03 -0.38965217076E+03 -0.77248849124E+03  0.89044474948E+03  0.90511387759E+02 0.  0.
    5000000    2    1    2    0    0  0.19008486862E+03  0.38965217076E+03 -0.64762208301E+03  0.98351813724E+03  0.59994374105E+03 0.  0.
         23    2    4    4    0    0  0.11797231111E+03  0.31605755475E+03 -0.73915030782E+03  0.81790490716E+03  0.93890444130E+02 0.  0.
         23    2    4    4    0    0  0.72112557514E+02  0.73594616010E+02  0.91528224815E+02  0.16561323008E+03  0.91836471973E+02 0.  0.
          3    1    3    3  502    0 -0.10559708735E+03 -0.25491158057E+03 -0.56727789089E+03  0.63082078616E+03  0.00000000000E+00 0. -1.
         -3    1    3    3    0  502 -0.84487781274E+02 -0.13474059020E+03 -0.20521060036E+03  0.25962396332E+03  0.00000000000E+00 0.  1.
         13    1    5    5    0    0  0.50404556765E+02  0.24444874694E+03 -0.48745266515E+03  0.54763665873E+03  0.00000000000E+00 0.  1.
        -13    1    5    5    0    0  0.67567754341E+02  0.71608807817E+02 -0.25169764267E+03  0.27026824843E+03  0.00000000000E+00 0. -1.
          5    1    6    6  503    0  0.41207361989E+02 -0.12131013195E+02  0.12722927088E+02  0.45046321014E+02  0.47000000000E+01 0. -1.
         -5    1    6    6    0  503  0.30905195525E+02  0.85725629205E+02  0.78805297727E+02  0.12056690907E+03  0.47000000000E+01 0.  1.
<mgrwt>
<rscale>  0 0.45873072E+03</rscale>
<asrwt>0</asrwt>
<pdfrwt beam="1">  1        2 0.25339026E+00 0.45873072E+03</pdfrwt>
<pdfrwt beam="2">  1       -2 0.34911717E-01 0.45873072E+03</pdfrwt>
<totfact> 0.85591757E+01</totfact>
</mgrwt>
</event>
<event>
12    1  0.3127365E-008  0.8314256E+03  0.7818608E-02  0.9515612E-01
         -2   -1    0    0    0  501 -0.00000000000E+00  0.00000000000E+00  0.81551069737E+03  0.81551069737E+03  0.00000000000E+00 0.  1.
          2   -1    0    0  501    0  0.00000000000E+00 -0.00000000000E+00 -0.15881619628E+04  0.15881619628E+04  0.00000000000E+00 0. -1.
         23    2    1    2    0    0  0.73673333012E+03 -0.67953556720E+02  0.43692649773E+03  0.86410566596E+03  0.91543169875E+02 0.  0.
    5000000    2    1    2    0    0 -0.73673333012E+03  0.67953556720E+02 -0.12095777631E+04  0.15395669942E+04  0.59982870803E+03 0.  0.
         23    2    4    4    0    0 -0.92119017861E+02 -0.19079261195E+03 -0.17564558268E+03  0.29060909273E+03  0.93351699696E+02 0.  0.
         23    2    4    4    0    0 -0.64461431225E+03  0.25874616867E+03 -0.10339321805E+04  0.12489579015E+04  0.91667303304E+02 0.  0.
          4    1    3    3  502    0  0.42378024329E+03 -0.12834771622E+02  0.20654410168E+03  0.47160883357E+03  0.00000000000E+00 0. -1.
         -4    1    3    3    0  502  0.31295308683E+03 -0.55118785098E+02  0.23038239604E+03  0.39249683239E+03  0.00000000000E+00 0.  1.
         13    1    5    5    0    0 -0.42031230948E-01 -0.89351390134E+02 -0.10004067908E+03  0.13413355343E+03  0.00000000000E+00 0. -1.
        -13    1    5    5    0    0 -0.92076986630E+02 -0.10144122182E+03 -0.75604903602E+02  0.15647553930E+03  0.00000000000E+00 0.  1.
          5    1    6    6  503    0 -0.23227942771E+03  0.98788740047E+02 -0.30040613202E+03  0.39240142947E+03  0.47000000000E+01 0. -1.
         -5    1    6    6    0  503 -0.41233488455E+03  0.15995742862E+03 -0.73352604844E+03  0.85655647200E+03  0.47000000000E+01 0.  1.
<mgrwt>
<rscale>  0 0.83142557E+03</rscale>
<asrwt>0</asrwt>
<pdfrwt beam="1">  1        2 0.24433261E+00 0.83142557E+03</pdfrwt>
<pdfrwt beam="2">  1       -2 0.12546318E+00 0.83142557E+03</pdfrwt>
<totfact> 0.54607714E+00</totfact>
</mgrwt>
</event>
<event>
12    1  0.3730206E-008  0.1379874E+04  0.7818608E-02  0.8968517E-01
         -1   -1    0    0    0  501 -0.00000000000E+00  0.00000000000E+00  0.12010058366E+04  0.12010058366E+04  0.00000000000E+00 0.  1.
          1   -1    0    0  501    0  0.00000000000E+00 -0.00000000000E+00 -0.15934005901E+04  0.15934005901E+04  0.00000000000E+00 0. -1.
         23    2    1    2    0    0 -0.11200722671E+04  0.69259144042E+03 -0.20175543230E+03  0.13348403105E+04  0.82756347076E+02 0.  0.
    5000000    2    1    2    0    0  0.11200722671E+04 -0.69259144042E+03 -0.19063932119E+03  0.14595661163E+04  0.59978755422E+03 0.  0.
         23    2    4    4    0    0  0.11187692214E+04 -0.73927367530E+03 -0.18821587567E+03  0.13570477561E+04  0.89349083738E+02 0.  0.
         23    2    4    4    0    0  0.13030457528E+01  0.46682234884E+02 -0.24234455187E+01  0.10251836023E+03  0.91231639870E+02 0.  0.
          1    1    3    3  502    0 -0.59772219715E+03  0.41792199414E+03 -0.10955087330E+03  0.73751746555E+03  0.00000000000E+00 0. -1.
         -1    1    3    3    0  502 -0.52235007000E+03  0.27466944628E+03 -0.92204558997E+02  0.59732284490E+03  0.00000000000E+00 0.  1.
         13    1    5    5    0    0  0.23161295840E+03 -0.17277861121E+03 -0.75468368132E+01  0.28905702852E+03  0.00000000000E+00 0. -1.
        -13    1    5    5    0    0  0.88715626299E+03 -0.56649506410E+03 -0.18066903886E+03  0.10679907276E+04  0.00000000000E+00 0.  1.
          5    1    6    6  503    0 -0.28933508279E+02 -0.12656885591E+02  0.12184759799E+02  0.34174596202E+02  0.47000000000E+01 0. -1.
         -5    1    6    6    0  503  0.30236554031E+02  0.59339120476E+02 -0.14608205318E+02  0.68343764025E+02  0.47000000000E+01 0.  1.
<mgrwt>
<rscale>  0 0.13798744E+04</rscale>
<asrwt>0</asrwt>
<pdfrwt beam="1">  1        1 0.24513855E+00 0.13798744E+04</pdfrwt>
<pdfrwt beam="2">  1       -1 0.18477013E+00 0.13798744E+04</pdfrwt>
<totfact> 0.10414788E+00</totfact>
</mgrwt>
</event>
<event>
12    1  0.3127365E-008  0.1066374E+04  0.7818608E-02  0.9238600E-01
         -2   -1    0    0    0  501 -0.00000000000E+00  0.00000000000E+00  0.17940844754E+04  0.17940844754E+04  0.00000000000E+00 0.  1.
          2   -1    0    0  501    0  0.00000000000E+00 -0.00000000000E+00 -0.83431771775E+03  0.83431771775E+03  0.00000000000E+00 0. -1.
         23    2    1    2    0    0  0.43017096242E+03  0.95089122417E+03  0.96524256970E+03  0.14244490708E+04  0.90115258660E+02 0.  0.
    5000000    2    1    2    0    0 -0.43017096242E+03 -0.95089122417E+03 -0.54758120969E+01  0.12039531223E+04  0.60019326811E+03 0.  0.
         23    2    4    4    0    0  0.29678709936E+01 -0.20461398986E+03 -0.21597223283E+03  0.31128183746E+03  0.91524225608E+02 0.  0.
         23    2    4    4    0    0 -0.43313883342E+03 -0.74627723431E+03  0.21049642074E+03  0.89267128485E+03  0.89522735623E+02 0.  0.
          3    1    3    3  502    0  0.28630036339E+03  0.66583969893E+03  0.61543410661E+03  0.95082571606E+03  0.00000000000E+00 0. -1.
         -3    1    3    3    0  502  0.14387059904E+03  0.28505152523E+03  0.34980846309E+03  0.47362335474E+03  0.00000000000E+00 0.  1.
         13    1    5    5    0    0 -0.39667572694E+02 -0.13767277517E+03 -0.15596794893E+03  0.21178600152E+03  0.00000000000E+00 0. -1.
        -13    1    5    5    0    0  0.42635443688E+02 -0.66941214689E+02 -0.60004283900E+02  0.99495835938E+02  0.00000000000E+00 0.  1.
          5    1    6    6  503    0 -0.18261326084E+03 -0.24493786876E+03  0.99224211486E+02  0.32126266003E+03  0.47000000000E+01 0. -1.
         -5    1    6    6    0  503 -0.25052557258E+03 -0.50133936555E+03  0.11127220925E+03  0.57140862482E+03  0.47000000000E+01 0.  1.
<mgrwt>
<rscale>  0 0.10663743E+04</rscale>
<asrwt>0</asrwt>
<pdfrwt beam="1">  1        2 0.12835657E+00 0.10663743E+04</pdfrwt>
<pdfrwt beam="2">  1       -2 0.27601299E+00 0.10663743E+04</pdfrwt>
<totfact> 0.14392902E+00</totfact>
</mgrwt>
</event>
<event>
12    1  0.3127365E-008  0.4890490E+03  0.7818608E-02  0.1016677E+00
         -3   -1    0    0    0  501 -0.00000000000E+00  0.00000000000E+00  0.43586527668E+03  0.43586527668E+03  0.00000000000E+00 0.  1.
          3   -1    0    0  501    0  0.00000000000E+00 -0.00000000000E+00 -0.83320817701E+03  0.83320817701E+03  0.00000000000E+00 0. -1.
         23    2    1    2    0    0  0.11552869600E+03  0.30289548573E+03 -0.47515912092E+03  0.58261178853E+03  0.92562147070E+02 0.  0.
    5000000    2    1    2    0    0 -0.11552869600E+03 -0.30289548573E+03  0.77816220582E+02  0.68646166516E+03  0.60006807836E+03 0.  0.
         23    2    4    4    0    0 -0.41590871831E+02 -0.46544582280E+03  0.96497682815E+02  0.48585917989E+03  0.91529914843E+02 0.  0.
         23    2    4    4    0    0 -0.73937824172E+02  0.16255033707E+03 -0.18681462233E+02  0.20060248527E+03  0.89459186994E+02 0.  0.
          3    1    3    3  502    0  0.90386092815E+02  0.13679568964E+03 -0.18389666793E+03  0.24637510214E+03  0.00000000000E+00 0. -1.
         -3    1    3    3    0  502  0.25142603189E+02  0.16609979609E+03 -0.29126245299E+03  0.33623668639E+03  0.00000000000E+00 0.  1.
         11    1    5    5    0    0 -0.94622603650E+01 -0.12235045678E+03 -0.15103367652E+02  0.12364174198E+03  0.00000000000E+00 0.  1.
        -11    1    5    5    0    0 -0.32128611466E+02 -0.34309536602E+03  0.11160105047E+03  0.36221743791E+03  0.00000000000E+00 0. -1.
          5    1    6    6  503    0 -0.29658938064E+02  0.64676249273E+02  0.36100247412E+02  0.79924887803E+02  0.47000000000E+01 0. -1.
         -5    1    6    6    0  503 -0.44278886108E+02  0.97874087801E+02 -0.54781709645E+02  0.12067759746E+03  0.47000000000E+01 0.  1.
<mgrwt>
<rscale>  0 0.48904904E+03</rscale>
<asrwt>0</asrwt>
<pdfrwt beam="1">  1        3 0.12818587E+00 0.48904904E+03</pdfrwt>
<pdfrwt beam="2">  1       -3 0.67056197E-01 0.48904904E+03</pdfrwt>
<totfact> 0.27023435E+00</totfact>
</mgrwt>
</event>
<event>
12    1  0.3127365E-008  0.4511241E+03  0.7818608E-02  0.1027387E+00
         -1   -1    0    0    0  501 -0.00000000000E+00  0.00000000000E+00  0.36661785572E+03  0.36661785572E+03  0.00000000000E+00 0.  1.
          1   -1    0    0  501    0  0.00000000000E+00 -0.00000000000E+00 -0.11323825054E+04  0.11323825054E+04  0.00000000000E+00 0. -1.
         23    2    1    2    0    0 -0.34656500447E+03  0.20745763421E+03  0.40376001242E+02  0.41595433542E+03  0.90784444510E+02 0.  0.
    5000000    2    1    2    0    0  0.34656500447E+03 -0.20745763421E+03 -0.80614065092E+03  0.10830460257E+04  0.59998331010E+03 0.  0.
         23    2    4    4    0    0  0.33291471658E+03 -0.21707160787E+03 -0.87628146166E+03  0.96652029456E+03  0.91323536371E+02 0.  0.
         23    2    4    4    0    0  0.13650287881E+02  0.96139736657E+01  0.70140810732E+02  0.11652573113E+03  0.91540995392E+02 0.  0.
          3    1    3    3  502    0 -0.17518538497E+03  0.12518386608E+03  0.63410211723E+02  0.22445884786E+03  0.00000000000E+00 0. -1.
         -3    1    3    3    0  502 -0.17137961950E+03  0.82273768126E+02 -0.23034210482E+02  0.19149548756E+03  0.00000000000E+00 0.  1.
         13    1    5    5    0    0  0.30450228609E+03 -0.16099566501E+03 -0.75732766151E+03  0.83197742353E+03  0.00000000000E+00 0. -1.
        -13    1    5    5    0    0  0.28412430493E+02 -0.56075942864E+02 -0.11895380015E+03  0.13454287103E+03  0.00000000000E+00 0.  1.
          5    1    6    6  503    0  0.40076502553E+02 -0.23655511914E+02  0.52412022712E+02  0.70248269911E+02  0.47000000000E+01 0. -1.
         -5    1    6    6    0  503 -0.26426214672E+02  0.33269485579E+02  0.17728788020E+02  0.46277461224E+02  0.47000000000E+01 0.  1.
<mgrwt>
<rscale>  0 0.45112414E+03</rscale>
<asrwt>0</asrwt>
<pdfrwt beam="1">  1        1 0.17421269E+00 0.45112414E+03</pdfrwt>
<pdfrwt beam="2">  1       -1 0.56402748E-01 0.45112414E+03</pdfrwt>
<totfact> 0.40799289E+01</totfact>
</mgrwt>
</event>
<event>
12    1  0.3127365E-008  0.3670388E+03  0.7818608E-02  0.1055831E+00
          2   -1    0    0  501    0  0.00000000000E+00  0.00000000000E+00  0.25287771929E+04  0.25287771929E+04  0.00000000000E+00 0. -1.
         -2   -1    0    0    0  501 -0.00000000000E+00 -0.00000000000E+00 -0.97100687453E+02  0.97100687453E+02  0.00000000000E+00 0.  1.
         23    2    1    2    0    0 -0.23295077541E+03  0.18673262688E+03  0.94286650405E+03  0.99313281829E+03  0.90445633418E+02 0.  0.
    5000000    2    1    2    0    0  0.23295077541E+03 -0.18673262688E+03  0.14888100014E+04  0.16327450621E+04  0.60013838381E+03 0.  0.
         23    2    4    4    0    0 -0.30099369880E+02 -0.54438006488E+01 -0.10241949561E+02  0.97581046825E+02  0.92095364356E+02 0.  0.
         23    2    4    4    0    0  0.26305014529E+03 -0.18128882623E+03  0.14990519510E+04  0.15351640153E+04  0.86664782639E+02 0.  0.
          3    1    3    3  502    0 -0.23769047112E+03  0.16856656260E+03  0.90684941500E+03  0.95251630305E+03  0.00000000000E+00 0. -1.
         -3    1    3    3    0  502  0.47396957108E+01  0.18166064280E+02  0.36017089046E+02  0.40616515239E+02  0.00000000000E+00 0.  1.
         11    1    5    5    0    0 -0.39109104129E+02 -0.41210774665E+02  0.62899746656E+01  0.57161295958E+02  0.00000000000E+00 0. -1.
        -11    1    5    5    0    0  0.90097342490E+01  0.35766974016E+02 -0.16531924226E+02  0.40419750867E+02  0.00000000000E+00 0.  1.
          5    1    6    6  503    0  0.20863805282E+03 -0.17997706649E+03  0.12087153242E+04  0.12397323931E+04  0.47000000000E+01 0. -1.
         -5    1    6    6    0  503  0.54412092472E+02 -0.13117597467E+01  0.29033662676E+03  0.29543162214E+03  0.47000000000E+01 0.  1.
<mgrwt>
<rscale>  0 0.36703880E+03</rscale>
<asrwt>0</asrwt>
<pdfrwt beam="1">  1        2 0.38904259E+00 0.36703880E+03</pdfrwt>
<pdfrwt beam="2">  1       -2 0.14938569E-01 0.36703880E+03</pdfrwt>
<totfact> 0.13048949E+02</totfact>
</mgrwt>
</event>
<event>
12    1  0.3127365E-008  0.1059649E+04  0.7818608E-02  0.9245439E-01
          2   -1    0    0  501    0  0.00000000000E+00  0.00000000000E+00  0.30846279841E+04  0.30846279841E+04  0.00000000000E+00 0. -1.
         -2   -1    0    0    0  501 -0.00000000000E+00 -0.00000000000E+00 -0.44437198318E+03  0.44437198318E+03  0.00000000000E+00 0.  1.
         23    2    1    2    0    0  0.10477762194E+04  0.15513945134E+01  0.77320262027E+03  0.13054485286E+04  0.92283021271E+02 0.  0.
    5000000    2    1    2    0    0 -0.10477762194E+04 -0.15513945134E+01  0.18670533806E+04  0.22235514387E+04  0.60037926484E+03 0.  0.
         23    2    4    4    0    0 -0.36963041670E+03 -0.62857606637E+02  0.12215287205E+04  0.12808359822E+04  0.88491099727E+02 0.  0.
         23    2    4    4    0    0 -0.67814580269E+03  0.61306212124E+02  0.64552466016E+03  0.94271545648E+03  0.91488598560E+02 0.  0.
          2    1    3    3  502    0  0.73486943095E+03  0.18289575347E+02  0.49319980483E+03  0.88521954147E+03  0.00000000000E+00 0.  1.
         -2    1    3    3    0  502  0.31290678844E+03 -0.16738180834E+02  0.28000281543E+03  0.42022898710E+03  0.00000000000E+00 0. -1.
         11    1    5    5    0    0 -0.23155607305E+03 -0.81403407755E+02  0.80941108563E+03  0.84580791868E+03  0.00000000000E+00 0.  1.
        -11    1    5    5    0    0 -0.13807434365E+03  0.18545801118E+02  0.41211763482E+03  0.43502806351E+03  0.00000000000E+00 0. -1.
          5    1    6    6  503    0 -0.42947469337E+03  0.79135284825E+02  0.43446472502E+03  0.61602970126E+03  0.47000000000E+01 0. -1.
         -5    1    6    6    0  503 -0.24867110932E+03 -0.17829072701E+02  0.21105993514E+03  0.32668575522E+03  0.47000000000E+01 0.  1.
<mgrwt>
<rscale>  0 0.10596485E+04</rscale>
<asrwt>0</asrwt>
<pdfrwt beam="1">  1        2 0.47455814E+00 0.10596485E+04</pdfrwt>
<pdfrwt beam="2">  1       -2 0.68364922E-01 0.10596485E+04</pdfrwt>
<totfact> 0.30591002E+00</totfact>
</mgrwt>
</event>
<event>
12    1  0.3199098E-008  0.1203625E+04  0.7818608E-02  0.9109690E-01
         -2   -1    0    0    0  501 -0.00000000000E+00  0.00000000000E+00  0.68780578409E+03  0.68780578409E+03  0.00000000000E+00 0.  1.
          2   -1    0    0  501    0  0.00000000000E+00 -0.00000000000E+00 -0.22994602741E+04  0.22994602741E+04  0.00000000000E+00 0. -1.
         23    2    1    2    0    0  0.11379653613E+04 -0.27176088294E+03 -0.54264184337E+03  0.12924310320E+04  0.84253553398E+02 0.  0.
    5000000    2    1    2    0    0 -0.11379653613E+04  0.27176088294E+03 -0.10690126466E+04  0.16948350262E+04  0.60071506237E+03 0.  0.
         23    2    4    4    0    0 -0.26953821630E+03  0.22974409921E+03 -0.79643283202E+02  0.37454256818E+03  0.92227336817E+02 0.  0.
         23    2    4    4    0    0 -0.86842714504E+03  0.42016783731E+02 -0.98936936343E+03  0.13202924580E+04  0.91593236389E+02 0.  0.
          4    1    3    3  502    0  0.64961395903E+03 -0.16849850434E+03 -0.35462811846E+03  0.75904620685E+03  0.00000000000E+00 0. -1.
         -4    1    3    3    0  502  0.48835140231E+03 -0.10326237859E+03 -0.18801372491E+03  0.53338482517E+03  0.00000000000E+00 0.  1.
         11    1    5    5    0    0 -0.64126453242E+02  0.11235275095E+03 -0.30116883747E+02  0.13282458108E+03  0.00000000000E+00 0.  1.
        -11    1    5    5    0    0 -0.20541176306E+03  0.11739134825E+03 -0.49526399455E+02  0.24171798710E+03  0.00000000000E+00 0. -1.
          5    1    6    6  503    0 -0.38454162041E+03 -0.71332074452E+01 -0.38109734280E+03  0.54146136997E+03  0.47000000000E+01 0. -1.
         -5    1    6    6    0  503 -0.48388552463E+03  0.49149991176E+02 -0.60827202063E+03  0.77883108801E+03  0.47000000000E+01 0.  1.
<mgrwt>
<rscale>  0 0.12036250E+04</rscale>
<asrwt>0</asrwt>
<pdfrwt beam="1">  1        2 0.35376312E+00 0.12036250E+04</pdfrwt>
<pdfrwt beam="2">  1       -2 0.10581627E+00 0.12036250E+04</pdfrwt>
<totfact> 0.32081182E+00</totfact>
</mgrwt>
</event>
<event>
12    1  0.3127365E-008  0.6868899E+03  0.7818608E-02  0.9739919E-01
         -1   -1    0    0    0  501 -0.00000000000E+00  0.00000000000E+00  0.31217543018E+03  0.31217543018E+03  0.00000000000E+00 0.  1.
          1   -1    0    0  501    0  0.00000000000E+00 -0.00000000000E+00 -0.16275415329E+04  0.16275415329E+04  0.00000000000E+00 0. -1.
         23    2    1    2    0    0 -0.17099376998E+03 -0.54065132344E+03 -0.36307786432E+03  0.67932428670E+03  0.90073459122E+02 0.  0.
    5000000    2    1    2    0    0  0.17099376998E+03  0.54065132344E+03 -0.95228823840E+03  0.12603926764E+04  0.60016171720E+03 0.  0.
         23    2    4    4    0    0 -0.16303091062E+03  0.23312872952E+02 -0.33257802799E+03  0.38208012908E+03  0.90854347558E+02 0.  0.
         23    2    4    4    0    0  0.33402468060E+03  0.51733845049E+03 -0.61971021041E+03  0.87831254731E+03  0.90446814601E+02 0.  0.
          2    1    3    3  502    0 -0.16262912589E+03 -0.41958234393E+03 -0.31242398706E+03  0.54781960865E+03  0.00000000000E+00 0. -1.
         -2    1    3    3    0  502 -0.83646440906E+01 -0.12106897950E+03 -0.50653877260E+02  0.13150467806E+03  0.00000000000E+00 0.  1.
         13    1    5    5    0    0 -0.92622889567E+02  0.56648573851E+02 -0.16853300472E+03  0.20047801443E+03  0.00000000000E+00 0.  1.
        -13    1    5    5    0    0 -0.70408021056E+02 -0.33335700899E+02 -0.16404502327E+03  0.18160211465E+03  0.00000000000E+00 0. -1.
          5    1    6    6  503    0  0.22260211018E+03  0.33662563487E+03 -0.34403180609E+03  0.53032866329E+03  0.47000000000E+01 0. -1.
         -5    1    6    6    0  503  0.11142257042E+03  0.18071281562E+03 -0.27567840431E+03  0.34798388401E+03  0.47000000000E+01 0.  1.
<mgrwt>
<rscale>  0 0.68688986E+03</rscale>
<asrwt>0</asrwt>
<pdfrwt beam="1">  1        1 0.25039100E+00 0.68688986E+03</pdfrwt>
<pdfrwt beam="2">  1       -1 0.48026990E-01 0.68688986E+03</pdfrwt>
<totfact> 0.24162335E+01</totfact>
</mgrwt>
</event>
<event>
12    1  0.3127365E-008  0.8995880E+03  0.7818608E-02  0.9426097E-01
         -1   -1    0    0    0  501 -0.00000000000E+00  0.00000000000E+00  0.51473194881E+03  0.51473194881E+03  0.00000000000E+00 0.  1.
          1   -1    0    0  501    0  0.00000000000E+00 -0.00000000000E+00 -0.16508028003E+04  0.16508028003E+04  0.00000000000E+00 0. -1.
         23    2    1    2    0    0  0.80094385988E+03 -0.87890299393E+02 -0.69735145458E+03  0.10693493478E+04  0.89292805568E+02 0.  0.
    5000000    2    1    2    0    0 -0.80094385988E+03  0.87890299393E+02 -0.43871939695E+03  0.10961854013E+04  0.59992662333E+03 0.  0.
         23    2    4    4    0    0 -0.16693751263E+03  0.26686968216E+03 -0.22440546325E+03  0.39743495049E+03  0.92245149213E+02 0.  0.
         23    2    4    4    0    0 -0.63400634724E+03 -0.17897938277E+03 -0.21431393370E+03  0.69875045082E+03  0.91236300551E+02 0.  0.
          4    1    3    3  502    0  0.33382271022E+03 -0.17916711108E+01 -0.25238843378E+03  0.41849818811E+03  0.00000000000E+00 0. -1.
         -4    1    3    3    0  502  0.46712114966E+03 -0.86098628282E+02 -0.44496302080E+03  0.65085115974E+03  0.00000000000E+00 0.  1.
         11    1    5    5    0    0 -0.16330699074E+03  0.19318601989E+03 -0.18796878366E+03  0.31515436715E+03  0.00000000000E+00 0.  1.
        -11    1    5    5    0    0 -0.36305218998E+01  0.73683662276E+02 -0.36436679592E+02  0.82280583343E+02  0.00000000000E+00 0. -1.
          5    1    6    6  503    0 -0.30410746696E+03 -0.44694926713E+02 -0.12230263308E+03  0.33084590369E+03  0.47000000000E+01 0. -1.
         -5    1    6    6    0  503 -0.32989888029E+03 -0.13428445606E+03 -0.92011300626E+02  0.36790454713E+03  0.47000000000E+01 0.  1.
<mgrwt>
<rscale>  0 0.89958795E+03</rscale>
<asrwt>0</asrwt>
<pdfrwt beam="1">  1        1 0.25396967E+00 0.89958795E+03</pdfrwt>
<pdfrwt beam="2">  1       -1 0.79189530E-01 0.89958795E+03</pdfrwt>
<totfact> 0.83705258E+00</totfact>
</mgrwt>
</event>
<event>
12    1  0.3127365E-008  0.4192019E+03  0.7818608E-02  0.1037326E+00
          2   -1    0    0  501    0  0.00000000000E+00  0.00000000000E+00  0.16627005053E+04  0.16627005053E+04  0.00000000000E+00 0. -1.
         -2   -1    0    0    0  501 -0.00000000000E+00 -0.00000000000E+00 -0.12104077504E+03  0.12104077504E+03  0.00000000000E+00 0.  1.
         23    2    1    2    0    0 -0.21259666526E+03  0.43474532259E+02  0.61573214922E+03  0.65913986400E+03  0.90839989542E+02 0.  0.
    5000000    2    1    2    0    0  0.21259666526E+03 -0.43474532259E+02  0.92592758101E+03  0.11246014163E+04  0.60024918428E+03 0.  0.
         23    2    4    4    0    0 -0.14847420420E+03 -0.16498905370E+03  0.42473375497E+03  0.48790567767E+03  0.91581715080E+02 0.  0.
         23    2    4    4    0    0  0.36107086946E+03  0.12151452144E+03  0.50119382604E+03  0.63669573862E+03  0.95122345591E+02 0.  0.
          4    1    3    3  502    0 -0.21130256727E+03  0.33804250851E+02  0.61259008264E+03  0.64888990720E+03  0.00000000000E+00 0. -1.
         -4    1    3    3    0  502 -0.12940979953E+01  0.96702814089E+01  0.31420665751E+01  0.10249956805E+02  0.00000000000E+00 0.  1.
         11    1    5    5    0    0 -0.23954854860E+02  0.20325105933E+01  0.15240448081E+02  0.28464669827E+02  0.00000000000E+00 0. -1.
        -11    1    5    5    0    0 -0.12451934934E+03 -0.16702156430E+03  0.40949330689E+03  0.45944100785E+03  0.00000000000E+00 0.  1.
          5    1    6    6  503    0  0.94213596009E+02  0.45771989020E+02  0.78054988612E+02  0.13071322771E+03  0.47000000000E+01 0. -1.
         -5    1    6    6    0  503  0.26685727345E+03  0.75742532423E+02  0.42313883742E+03  0.50598251091E+03  0.47000000000E+01 0.  1.
<mgrwt>
<rscale>  0 0.41920192E+03</rscale>
<asrwt>0</asrwt>
<pdfrwt beam="1">  1        2 0.25580006E+00 0.41920192E+03</pdfrwt>
<pdfrwt beam="2">  1       -2 0.18621659E-01 0.41920192E+03</pdfrwt>
<totfact> 0.26110543E+02</totfact>
</mgrwt>
</event>
<event>
12    1  0.3127365E-008  0.7587875E+03  0.7818608E-02  0.9621664E-01
          1   -1    0    0  501    0  0.00000000000E+00  0.00000000000E+00  0.17646865707E+04  0.17646865707E+04  0.00000000000E+00 0. -1.
         -1   -1    0    0    0  501 -0.00000000000E+00 -0.00000000000E+00 -0.41230497115E+03  0.41230497115E+03  0.00000000000E+00 0.  1.
         23    2    1    2    0    0 -0.61906667101E+02 -0.63672589764E+03  0.10801317219E+04  0.12587355094E+04  0.92077368317E+02 0.  0.
    5000000    2    1    2    0    0  0.61906667101E+02  0.63672589764E+03  0.27224987766E+03  0.91825603249E+03  0.59985151593E+03 0.  0.
         23    2    4    4    0    0 -0.25632470383E+03  0.32101540801E+03  0.12763299167E+03  0.43862824912E+03  0.85739806327E+02 0.  0.
         23    2    4    4    0    0  0.31823137093E+03  0.31571048963E+03  0.14461688600E+03  0.47962778337E+03  0.90467939965E+02 0.  0.
          3    1    3    3  502    0  0.15312750578E+02 -0.22188254132E+03  0.42017907668E+03  0.47541224106E+03  0.00000000000E+00 0. -1.
         -3    1    3    3    0  502 -0.77219417679E+02 -0.41484335632E+03  0.65995264521E+03  0.78332326830E+03  0.00000000000E+00 0.  1.
         13    1    5    5    0    0 -0.19631276434E+03  0.19697508062E+03  0.11255501359E+03  0.30001085799E+03  0.00000000000E+00 0. -1.
        -13    1    5    5    0    0 -0.60011939491E+02  0.12404032738E+03  0.15077978076E+02  0.13861739112E+03  0.00000000000E+00 0.  1.
          5    1    6    6  503    0  0.17262791007E+03  0.23222732206E+03  0.90808865521E+02  0.30331215686E+03  0.47000000000E+01 0. -1.
         -5    1    6    6    0  503  0.14560346087E+03  0.83483167566E+02  0.53808020475E+02  0.17631562651E+03  0.47000000000E+01 0.  1.
<mgrwt>
<rscale>  0 0.75878747E+03</rscale>
<asrwt>0</asrwt>
<pdfrwt beam="1">  1        1 0.27149024E+00 0.75878747E+03</pdfrwt>
<pdfrwt beam="2">  1       -1 0.63431535E-01 0.75878747E+03</pdfrwt>
<totfact> 0.11290055E+01</totfact>
</mgrwt>
</event>
<event>
12    1  0.3127365E-008  0.7358001E+03  0.7818608E-02  0.9657895E-01
         -2   -1    0    0    0  501 -0.00000000000E+00  0.00000000000E+00  0.47962930250E+03  0.47962930250E+03  0.00000000000E+00 0.  1.
          2   -1    0    0  501    0  0.00000000000E+00 -0.00000000000E+00 -0.11828147841E+04  0.11828147841E+04  0.00000000000E+00 0. -1.
         23    2    1    2    0    0 -0.55237982903E+03  0.29846755661E+03 -0.35258259806E+03  0.72580487009E+03  0.90949783453E+02 0.  0.
    5000000    2    1    2    0    0  0.55237982903E+03 -0.29846755661E+03 -0.35060288353E+03  0.93663921651E+03  0.60013688613E+03 0.  0.
         23    2    4    4    0    0  0.40664989825E+03 -0.46404935483E+03 -0.30394108051E+03  0.69436718066E+03  0.95182234083E+02 0.  0.
         23    2    4    4    0    0  0.14572993078E+03  0.16558179822E+03 -0.46661803024E+02  0.24227203586E+03  0.88678469027E+02 0.  0.
          3    1    3    3  502    0 -0.15258960613E+03  0.41471873811E+02 -0.70493940045E+02  0.17312683154E+03  0.00000000000E+00 0. -1.
         -3    1    3    3    0  502 -0.39979022291E+03  0.25699568280E+03 -0.28208865802E+03  0.55267803855E+03  0.00000000000E+00 0.  1.
         11    1    5    5    0    0  0.13103152498E+03 -0.15994178611E+03 -0.53512979304E+02  0.21357498551E+03  0.00000000000E+00 0.  1.
        -11    1    5    5    0    0  0.27561837327E+03 -0.30410756872E+03 -0.25042810120E+03  0.48079219514E+03  0.00000000000E+00 0. -1.
          5    1    6    6  503    0  0.37201374396E+02  0.48561022911E+02 -0.54983568461E+02  0.82385666252E+02  0.47000000000E+01 0. -1.
         -5    1    6    6    0  503  0.10852855639E+03  0.11702077531E+03  0.83217654373E+01  0.15988636960E+03  0.47000000000E+01 0.  1.
<mgrwt>
<rscale>  0 0.73580007E+03</rscale>
<asrwt>0</asrwt>
<pdfrwt beam="1">  1        2 0.18197150E+00 0.73580007E+03</pdfrwt>
<pdfrwt beam="2">  1       -2 0.73789125E-01 0.73580007E+03</pdfrwt>
<totfact> 0.32744674E+01</totfact>
</mgrwt>
</event>
<event>
12    1  0.3127365E-008  0.8030273E+03  0.7818608E-02  0.9555646E-01
         -1   -1    0    0    0  501 -0.00000000000E+00  0.00000000000E+00  0.15525061598E+04  0.15525061598E+04  0.00000000000E+00 0.  1.
          1   -1    0    0  501    0  0.00000000000E+00 -0.00000000000E+00 -0.60843537424E+03  0.60843537424E+03  0.00000000000E+00 0. -1.
         23    2    1    2    0    0 -0.65785331697E+03  0.33990632454E+03  0.94988618031E+03  0.12078584124E+04  0.91273724162E+02 0.  0.
    5000000    2    1    2    0    0  0.65785331697E+03 -0.33990632454E+03 -0.58153947909E+01  0.95308312160E+03  0.60002193440E+03 0.  0.
         23    2    4    4    0    0 -0.11519420780E+02 -0.16875918034E+03  0.14253575905E+03  0.24000795101E+03  0.93139765585E+02 0.  0.
         23    2    4    4    0    0  0.66937273775E+03 -0.17114714421E+03 -0.14835115384E+03  0.71307517060E+03  0.95482600850E+02 0.  0.
          3    1    3    3  502    0 -0.33376945122E+03  0.18184111333E+03  0.41466144128E+03  0.56250542037E+03  0.00000000000E+00 0. -1.
         -3    1    3    3    0  502 -0.32408386575E+03  0.15806521122E+03  0.53522473902E+03  0.64535299201E+03  0.00000000000E+00 0.  1.
         11    1    5    5    0    0  0.15150210103E+02 -0.83622669104E+02  0.12162480804E+03  0.14837410012E+03  0.00000000000E+00 0. -1.
        -11    1    5    5    0    0 -0.26669630884E+02 -0.85136511234E+02  0.20910951013E+02  0.91633850889E+02  0.00000000000E+00 0.  1.
          5    1    6    6  503    0  0.29612949911E+03 -0.66825112023E+02 -0.11273071254E+03  0.32386506355E+03  0.47000000000E+01 0. -1.
         -5    1    6    6    0  503  0.37324323864E+03 -0.10432203218E+03 -0.35620441308E+02  0.38921010705E+03  0.47000000000E+01 0.  1.
<mgrwt>
<rscale>  0 0.80302727E+03</rscale>
<asrwt>0</asrwt>
<pdfrwt beam="1">  1        1 0.93605443E-01 0.80302727E+03</pdfrwt>
<pdfrwt beam="2">  1       -1 0.23884710E+00 0.80302727E+03</pdfrwt>
<totfact> 0.28628808E+00</totfact>
</mgrwt>
</event>
<event>
12    1  0.3127365E-008  0.1579158E+04  0.7818608E-02  0.8833455E-01
         -2   -1    0    0    0  501 -0.00000000000E+00  0.00000000000E+00  0.69166975395E+03  0.69166975395E+03  0.00000000000E+00 0.  1.
          2   -1    0    0  501    0  0.00000000000E+00 -0.00000000000E+00 -0.37266997765E+04  0.37266997765E+04  0.00000000000E+00 0. -1.
         23    2    1    2    0    0 -0.67623098228E+03 -0.13923154436E+04 -0.14926407977E+04  0.21523054751E+04  0.92799091550E+02 0.  0.
    5000000    2    1    2    0    0  0.67623098228E+03  0.13923154436E+04 -0.15423892248E+04  0.22660640553E+04  0.60020925180E+03 0.  0.
         23    2    4    4    0    0  0.98283158552E+02  0.43698053149E+02 -0.79492390004E+01  0.14097594500E+03  0.90785062443E+02 0.  0.
         23    2    4    4    0    0  0.57794782373E+03  0.13486173904E+04 -0.15344399858E+04  0.21250881103E+04  0.93278366438E+02 0.  0.
          3    1    3    3  502    0 -0.38459324018E+03 -0.88272253065E+03 -0.89763728444E+03  0.13163828170E+04  0.00000000000E+00 0. -1.
         -3    1    3    3    0  502 -0.29163774210E+03 -0.50959291295E+03 -0.59500351326E+03  0.83592265811E+03  0.00000000000E+00 0.  1.
         13    1    5    5    0    0  0.11369035633E+02 -0.26523734853E+02  0.10531221865E+01  0.28876851423E+02  0.00000000000E+00 0.  1.
        -13    1    5    5    0    0  0.86914122919E+02  0.70221788002E+02 -0.90023611868E+01  0.11209909357E+03  0.00000000000E+00 0. -1.
          5    1    6    6  503    0  0.32717804095E+03  0.80828423714E+03 -0.85044387267E+03  0.12180499781E+04  0.47000000000E+01 0. -1.
         -5    1    6    6    0  503  0.25076978278E+03  0.54033315331E+03 -0.68399611314E+03  0.90703813222E+03  0.47000000000E+01 0.  1.
<mgrwt>
<rscale>  0 0.15791579E+04</rscale>
<asrwt>0</asrwt>
<pdfrwt beam="1">  1        2 0.57333842E+00 0.15791579E+04</pdfrwt>
<pdfrwt beam="2">  1       -2 0.10641073E+00 0.15791579E+04</pdfrwt>
<totfact> 0.37905874E-01</totfact>
</mgrwt>
</event>
<event>
12    1  0.3127365E-008  0.5765249E+03  0.7818608E-02  0.9955343E-01
         -2   -1    0    0    0  501 -0.00000000000E+00  0.00000000000E+00  0.32632532581E+03  0.32632532581E+03  0.00000000000E+00 0.  1.
          2   -1    0    0  501    0  0.00000000000E+00 -0.00000000000E+00 -0.17804489143E+04  0.17804489143E+04  0.00000000000E+00 0. -1.
         23    2    1    2    0    0 -0.22811942246E+03  0.38653576130E+03 -0.12478985037E+04  0.13295536327E+04  0.94941145047E+02 0.  0.
    5000000    2    1    2    0    0  0.22811942246E+03 -0.38653576130E+03 -0.20622508477E+03  0.77722060739E+03  0.60007892923E+03 0.  0.
         23    2    4    4    0    0 -0.13529601008E+03  0.94289648425E+01  0.56481162350E+02  0.17209346470E+03  0.89622113163E+02 0.  0.
         23    2    4    4    0    0  0.36341543254E+03 -0.39596472614E+03 -0.26270624712E+03  0.60512714270E+03  0.91134217474E+02 0.  0.
          1    1    3    3  502    0 -0.20260719370E+02  0.10877304225E+03 -0.26237199559E+03  0.28474749435E+03  0.00000000000E+00 0. -1.
         -1    1    3    3    0  502 -0.20785870309E+03  0.27776271905E+03 -0.98552650811E+03  0.10448061383E+04  0.00000000000E+00 0.  1.
         13    1    5    5    0    0 -0.10401371089E+03 -0.24448073856E+02  0.11144728234E+02  0.10742795417E+03  0.00000000000E+00 0. -1.
        -13    1    5    5    0    0 -0.31282299192E+02  0.33877038699E+02  0.45336434116E+02  0.64665510530E+02  0.00000000000E+00 0.  1.
          5    1    6    6  503    0  0.30086155711E+03 -0.28176983546E+03 -0.22425926222E+03  0.46928266899E+03  0.47000000000E+01 0. -1.
         -5    1    6    6    0  503  0.62553875428E+02 -0.11419489068E+03 -0.38446984903E+02  0.13584447370E+03  0.47000000000E+01 0.  1.
<mgrwt>
<rscale>  0 0.57652485E+03</rscale>
<asrwt>0</asrwt>
<pdfrwt beam="1">  1        2 0.27391522E+00 0.57652485E+03</pdfrwt>
<pdfrwt beam="2">  1       -2 0.50203896E-01 0.57652485E+03</pdfrwt>
<totfact> 0.34953851E+01</totfact>
</mgrwt>
</event>
<event>
12    1  0.3127365E-008  0.9126937E+03  0.7818608E-02  0.9409851E-01
          2   -1    0    0  501    0  0.00000000000E+00  0.00000000000E+00  0.18634566416E+04  0.18634566416E+04  0.00000000000E+00 0.  1.
         -2   -1    0    0    0  501 -0.00000000000E+00 -0.00000000000E+00 -0.48260790100E+03  0.48260790100E+03  0.00000000000E+00 0. -1.
         23    2    1    2    0    0 -0.62912813079E+03 -0.52295484433E+03  0.33404996406E+03  0.88836004812E+03  0.91160421569E+02 0.  0.
    5000000    2    1    2    0    0  0.62912813079E+03  0.52295484433E+03  0.10467987765E+04  0.14577044944E+04  0.59985893378E+03 0.  0.
         23    2    4    4    0    0  0.40306009100E+03  0.62083361697E+03  0.70229769925E+03  0.10244469842E+04  0.91530039936E+02 0.  0.
         23    2    4    4    0    0  0.22606803979E+03 -0.97878772640E+02  0.34450107725E+03  0.43325751020E+03  0.91345854691E+02 0.  0.
          1    1    3    3  502    0 -0.23561808540E+03 -0.15685934879E+03  0.81806297510E+02  0.29464047207E+03  0.00000000000E+00 0. -1.
         -1    1    3    3    0  502 -0.39351004539E+03 -0.36609549554E+03  0.25224366655E+03  0.59371957606E+03  0.00000000000E+00 0.  1.
         13    1    5    5    0    0  0.27395079468E+03  0.37223370489E+03  0.48473549541E+03  0.66975776925E+03  0.00000000000E+00 0. -1.
        -13    1    5    5    0    0  0.12910929631E+03  0.24859991208E+03  0.21756220384E+03  0.35468921497E+03  0.00000000000E+00 0.  1.
          5    1    6    6  503    0  0.89399245105E+02  0.76123746072E+01  0.12560480346E+03  0.15443066381E+03  0.47000000000E+01 0. -1.
         -5    1    6    6    0  503  0.13666879469E+03 -0.10549114725E+03  0.21889627380E+03  0.27882684639E+03  0.47000000000E+01 0.  1.
<mgrwt>
<rscale>  0 0.91269367E+03</rscale>
<asrwt>0</asrwt>
<pdfrwt beam="1">  1        2 0.28668563E+00 0.91269367E+03</pdfrwt>
<pdfrwt beam="2">  1       -2 0.74247370E-01 0.91269367E+03</pdfrwt>
<totfact> 0.13130199E+01</totfact>
</mgrwt>
</event>
<event>
12    1  0.3127365E-008  0.9496956E+03  0.7818608E-02  0.9365506E-01
          1   -1    0    0  501    0  0.00000000000E+00  0.00000000000E+00  0.28231640987E+04  0.28231640987E+04  0.00000000000E+00 0. -1.
         -1   -1    0    0    0  501 -0.00000000000E+00 -0.00000000000E+00 -0.44416369664E+03  0.44416369664E+03  0.00000000000E+00 0.  1.
         23    2    1    2    0    0  0.97263365682E+02 -0.88827112273E+03  0.18758507699E+04  0.20792625337E+04  0.77658376307E+02 0.  0.
    5000000    2    1    2    0    0 -0.97263365682E+02  0.88827112273E+03  0.50314963216E+03  0.11880652616E+04  0.59987812405E+03 0.  0.
         23    2    4    4    0    0 -0.26075129049E+03  0.70676927509E+03  0.19365506001E+03  0.78344752105E+03  0.93667989540E+02 0.  0.
         23    2    4    4    0    0  0.16348792481E+03  0.18150184764E+03  0.30949457215E+03  0.40461774056E+03  0.90870256577E+02 0.  0.
          1    1    3    3  502    0  0.97356793336E+02 -0.55792448356E+03  0.11611230162E+04  0.12918841795E+04  0.00000000000E+00 0. -1.
         -1    1    3    3    0  502 -0.93427653935E-01 -0.33034663917E+03  0.71472775365E+03  0.78737835415E+03  0.00000000000E+00 0.  1.
         13    1    5    5    0    0 -0.13433937182E+03  0.24613602425E+03  0.91701697919E+02  0.29502408488E+03  0.00000000000E+00 0. -1.
        -13    1    5    5    0    0 -0.12641191867E+03  0.46063325084E+03  0.10195336209E+03  0.48842343617E+03  0.00000000000E+00 0.  1.
          5    1    6    6  503    0  0.78988403722E+02  0.94240912308E+02  0.22540633394E+03  0.25680853346E+03  0.47000000000E+01 0. -1.
         -5    1    6    6    0  503  0.84499521091E+02  0.87260935336E+02  0.84088238205E+02  0.14780920710E+03  0.47000000000E+01 0.  1.
<mgrwt>
<rscale>  0 0.94969555E+03</rscale>
<asrwt>0</asrwt>
<pdfrwt beam="1">  1        1 0.43433293E+00 0.94969555E+03</pdfrwt>
<pdfrwt beam="2">  1       -1 0.68332878E-01 0.94969555E+03</pdfrwt>
<totfact> 0.17962249E+00</totfact>
</mgrwt>
</event>
<event>
12    1  0.3127365E-008  0.5784641E+03  0.7818608E-02  0.9951122E-01
          1   -1    0    0  501    0  0.00000000000E+00  0.00000000000E+00  0.11792020335E+04  0.11792020335E+04  0.00000000000E+00 0. -1.
         -1   -1    0    0    0  501 -0.00000000000E+00 -0.00000000000E+00 -0.43049794368E+03  0.43049794368E+03  0.00000000000E+00 0.  1.
         23    2    1    2    0    0 -0.54398858292E+03  0.24834434565E+02  0.53938171923E+03  0.77273286739E+03  0.98199377842E+02 0.  0.
    5000000    2    1    2    0    0  0.54398858292E+03 -0.24834434565E+02  0.20932237059E+03  0.83696710979E+03  0.60013145273E+03 0.  0.
         23    2    4    4    0    0  0.23417068145E+03  0.91701903854E+02  0.37045481195E+03  0.45781021006E+03  0.95437275308E+02 0.  0.
         23    2    4    4    0    0  0.30981790147E+03 -0.11653633842E+03 -0.16113244136E+03  0.37915689973E+03  0.90710752998E+02 0.  0.
          1    1    3    3  502    0 -0.18803210331E+03 -0.34228415234E+02  0.16111006411E+03  0.24996821606E+03  0.00000000000E+00 0. -1.
         -1    1    3    3    0  502 -0.35595647961E+03  0.59062849800E+02  0.37827165513E+03  0.52276465133E+03  0.00000000000E+00 0.  1.
         13    1    5    5    0    0  0.22988460648E+03  0.64105769530E+02  0.31006660525E+03  0.39127711622E+03  0.00000000000E+00 0. -1.
        -13    1    5    5    0    0  0.42860749724E+01  0.27596134323E+02  0.60388206702E+02  0.66533093847E+02  0.00000000000E+00 0.  1.
          5    1    6    6  503    0  0.18034886459E+03 -0.10400264684E+03 -0.67825938172E+02  0.21900847335E+03  0.47000000000E+01 0. -1.
         -5    1    6    6    0  503  0.12946903688E+03 -0.12533691578E+02 -0.93306503189E+02  0.16014842638E+03  0.47000000000E+01 0.  1.
<mgrwt>
<rscale>  0 0.57846411E+03</rscale>
<asrwt>0</asrwt>
<pdfrwt beam="1">  1        1 0.18141570E+00 0.57846411E+03</pdfrwt>
<pdfrwt beam="2">  1       -1 0.66230453E-01 0.57846411E+03</pdfrwt>
<totfact> 0.26938833E+01</totfact>
</mgrwt>
</event>
<event>
12    1  0.3127365E-008  0.6829400E+03  0.7818608E-02  0.9746860E-01
          1   -1    0    0  501    0  0.00000000000E+00  0.00000000000E+00  0.27088100045E+04  0.27088100045E+04  0.00000000000E+00 0. -1.
         -1   -1    0    0    0  501 -0.00000000000E+00 -0.00000000000E+00 -0.19738335714E+03  0.19738335714E+03  0.00000000000E+00 0.  1.
         23    2    1    2    0    0  0.28630059597E+03  0.52052505813E+03  0.12761654289E+04  0.14099296831E+04  0.79932109218E+02 0.  0.
    5000000    2    1    2    0    0 -0.28630059597E+03 -0.52052505813E+03  0.12352612185E+04  0.14962636785E+04  0.60001695841E+03 0.  0.
         23    2    4    4    0    0 -0.42063122362E+03 -0.38606546700E+03  0.62910648124E+03  0.85480267669E+03  0.94527669196E+02 0.  0.
         23    2    4    4    0    0  0.13433062765E+03 -0.13445959113E+03  0.60615473723E+03  0.64146100182E+03  0.89019954064E+02 0.  0.
          3    1    3    3  502    0  0.46608926610E+02  0.13474157179E+03  0.36454810326E+03  0.39143709942E+03  0.00000000000E+00 0. -1.
         -3    1    3    3    0  502  0.23969166936E+03  0.38578348633E+03  0.91161732560E+03  0.10184925837E+04  0.00000000000E+00 0.  1.
         11    1    5    5    0    0 -0.24761174865E+03 -0.18092878267E+03  0.28718515817E+03  0.42014535287E+03  0.00000000000E+00 0. -1.
        -11    1    5    5    0    0 -0.17301947497E+03 -0.20513668432E+03  0.34192132308E+03  0.43465732382E+03  0.00000000000E+00 0.  1.
          5    1    6    6  503    0  0.40559010433E+02 -0.67076424145E+02  0.13349678507E+03  0.15487982963E+03  0.47000000000E+01 0. -1.
         -5    1    6    6    0  503  0.93771617216E+02 -0.67383166985E+02  0.47265795216E+03  0.48658117219E+03  0.47000000000E+01 0.  1.
<mgrwt>
<rscale>  0 0.68293996E+03</rscale>
<asrwt>0</asrwt>
<pdfrwt beam="1">  1        1 0.41673997E+00 0.68293996E+03</pdfrwt>
<pdfrwt beam="2">  1       -1 0.30366672E-01 0.68293996E+03</pdfrwt>
<totfact> 0.10328561E+01</totfact>
</mgrwt>
</event>
<event>
12    1  0.3127365E-008  0.7726570E+03  0.7818608E-02  0.9600461E-01
         -2   -1    0    0    0  501 -0.00000000000E+00  0.00000000000E+00  0.97862894294E+03  0.97862894294E+03  0.00000000000E+00 0. -1.
          2   -1    0    0  501    0  0.00000000000E+00 -0.00000000000E+00 -0.84310038090E+03  0.84310038090E+03  0.00000000000E+00 0.  1.
         23    2    1    2    0    0  0.65676461446E+03  0.32689504069E+02 -0.40722546279E+03  0.77912735091E+03  0.93800260663E+02 0.  0.
    5000000    2    1    2    0    0 -0.65676461446E+03 -0.32689504069E+02  0.54275402484E+03  0.10426019729E+04  0.60002381620E+03 0.  0.
         23    2    4    4    0    0 -0.68552263082E+02  0.21459210253E+03  0.10498955570E+03  0.26367072262E+03  0.88035560552E+02 0.  0.
         23    2    4    4    0    0 -0.58821235138E+03 -0.24728160660E+03  0.43776446914E+03  0.77893125031E+03  0.89186316199E+02 0.  0.
          3    1    3    3  502    0  0.40296156578E+03 -0.77938544455E+01 -0.29068928126E+03  0.49692959854E+03  0.00000000000E+00 0. -1.
         -3    1    3    3    0  502  0.25380304868E+03  0.40483358515E+02 -0.11653618153E+03  0.28219775237E+03  0.00000000000E+00 0.  1.
         13    1    5    5    0    0 -0.83765837638E+02  0.12173003098E+03  0.64014817558E+02  0.16103668173E+03  0.00000000000E+00 0. -1.
        -13    1    5    5    0    0  0.15213574556E+02  0.92862071552E+02  0.40974738141E+02  0.10263404089E+03  0.00000000000E+00 0.  1.
          5    1    6    6  503    0 -0.15880005708E+03 -0.10734828343E+03  0.14932282967E+03  0.24302368104E+03  0.47000000000E+01 0. -1.
         -5    1    6    6    0  503 -0.42941229430E+03 -0.13993332317E+03  0.28844163946E+03  0.53590756927E+03  0.47000000000E+01 0.  1.
<mgrwt>
<rscale>  0 0.77265697E+03</rscale>
<asrwt>0</asrwt>
<pdfrwt beam="1">  1        2 0.12970775E+00 0.77265697E+03</pdfrwt>
<pdfrwt beam="2">  1       -2 0.15055830E+00 0.77265697E+03</pdfrwt>
<totfact> 0.96553320E+00</totfact>
</mgrwt>
</event>
<event>
12    1  0.3127365E-008  0.4826437E+03  0.7818608E-02  0.1018411E+00
         -2   -1    0    0    0  501 -0.00000000000E+00  0.00000000000E+00  0.14573057519E+04  0.14573057519E+04  0.00000000000E+00 0.  1.
          2   -1    0    0  501    0  0.00000000000E+00 -0.00000000000E+00 -0.18306855170E+03  0.18306855170E+03  0.00000000000E+00 0. -1.
         23    2    1    2    0    0  0.32975826792E+03  0.49369380534E+02  0.41454950033E+03  0.53984013146E+03  0.91641848042E+02 0.  0.
    5000000    2    1    2    0    0 -0.32975826792E+03 -0.49369380534E+02  0.85968769983E+03  0.11005341721E+04  0.60077838819E+03 0.  0.
         23    2    4    4    0    0  0.14888448126E+03 -0.49998263639E+00  0.11879369490E+03  0.21233165752E+03  0.93840034602E+02 0.  0.
         23    2    4    4    0    0 -0.47864274918E+03 -0.48869397898E+02  0.74089400493E+03  0.88820251457E+03  0.92155742920E+02 0.  0.
          2    1    3    3  502    0  0.12096493904E+03  0.25007893417E+02  0.88705843715E+02  0.15207444861E+03  0.00000000000E+00 0. -1.
         -2    1    3    3    0  502  0.20879332888E+03  0.24361487117E+02  0.32584365662E+03  0.38776568285E+03  0.00000000000E+00 0.  1.
         13    1    5    5    0    0  0.70663225697E+02 -0.53217529724E+01  0.11347185488E+03  0.13378144255E+03  0.00000000000E+00 0.  1.
        -13    1    5    5    0    0  0.78221255566E+02  0.48217703360E+01  0.53218400248E+01  0.78550214976E+02  0.00000000000E+00 0. -1.
          5    1    6    6  503    0 -0.42800724010E+03 -0.34211520740E+02  0.60103311943E+03  0.73866333764E+03  0.47000000000E+01 0. -1.
         -5    1    6    6    0  503 -0.50635509086E+02 -0.14657877158E+02  0.13986088551E+03  0.14953917693E+03  0.47000000000E+01 0.  1.
<mgrwt>
<rscale>  0 0.48264366E+03</rscale>
<asrwt>0</asrwt>
<pdfrwt beam="1">  1        2 0.28164393E-01 0.48264366E+03</pdfrwt>
<pdfrwt beam="2">  1       -2 0.22420088E+00 0.48264366E+03</pdfrwt>
<totfact> 0.18655367E+01</totfact>
</mgrwt>
</event>
<event>
12    1  0.3127365E-008  0.6395166E+03  0.7818608E-02  0.9826652E-01
         -1   -1    0    0    0  501 -0.00000000000E+00  0.00000000000E+00  0.27265476482E+03  0.27265476482E+03  0.00000000000E+00 0.  1.
          1   -1    0    0  501    0  0.00000000000E+00 -0.00000000000E+00 -0.17591283163E+04  0.17591283163E+04  0.00000000000E+00 0. -1.
         23    2    1    2    0    0  0.21791543316E+03  0.45797746499E+03 -0.26470636712E+03  0.57925838543E+03  0.90776218505E+02 0.  0.
    5000000    2    1    2    0    0 -0.21791543316E+03 -0.45797746499E+03 -0.12217671844E+04  0.14525246957E+04  0.59990202901E+03 0.  0.
         23    2    4    4    0    0  0.11650174331E+03  0.59275462147E+02 -0.31635980390E+03  0.35394240446E+03  0.90030347884E+02 0.  0.
         23    2    4    4    0    0 -0.33441717647E+03 -0.51725292713E+03 -0.90540738049E+03  0.10985822913E+04  0.87949346278E+02 0.  0.
          3    1    3    3  502    0  0.13015872791E+03  0.36325447336E+03 -0.20597992654E+03  0.43740466047E+03  0.00000000000E+00 0. -1.
         -3    1    3    3    0  502  0.87756705254E+02  0.94722991629E+02 -0.58726440582E+02  0.14185372495E+03  0.00000000000E+00 0.  1.
         13    1    5    5    0    0  0.78995484588E+01 -0.14150795872E+02 -0.97392128362E+02  0.98731325103E+02  0.00000000000E+00 0. -1.
        -13    1    5    5    0    0  0.10860219485E+03  0.73426258019E+02 -0.21896767554E+03  0.25521107935E+03  0.00000000000E+00 0.  1.
          5    1    6    6  503    0 -0.56587325522E+02 -0.69204614678E+02 -0.18860289649E+03  0.20876912287E+03  0.47000000000E+01 0. -1.
         -5    1    6    6    0  503 -0.27782985095E+03 -0.44804831246E+03 -0.71680448400E+03  0.88981316840E+03  0.47000000000E+01 0.  1.
<mgrwt>
<rscale>  0 0.63951663E+03</rscale>
<asrwt>0</asrwt>
<pdfrwt beam="1">  1        1 0.27063512E+00 0.63951663E+03</pdfrwt>
<pdfrwt beam="2">  1       -1 0.41946888E-01 0.63951663E+03</pdfrwt>
<totfact> 0.25512299E+01</totfact>
</mgrwt>
</event>
<event>
12    1  0.3127365E-008  0.1314639E+04  0.7818608E-02  0.9018036E-01
         -2   -1    0    0    0  501 -0.00000000000E+00  0.00000000000E+00  0.77856434274E+03  0.77856434274E+03  0.00000000000E+00 0.  1.
          2   -1    0    0  501    0  0.00000000000E+00 -0.00000000000E+00 -0.30884561520E+04  0.30884561520E+04  0.00000000000E+00 0. -1.
         23    2    1    2    0    0  0.91958513484E+03 -0.91318459792E+03 -0.20323360738E+04  0.24121104252E+04  0.91344711071E+02 0.  0.
    5000000    2    1    2    0    0 -0.91958513484E+03  0.91318459792E+03 -0.27755573545E+03  0.14549100696E+04  0.60015264239E+03 0.  0.
         23    2    4    4    0    0  0.21728964898E+02  0.41872283108E+02 -0.12306540456E+03  0.15999613674E+03  0.90709613402E+02 0.  0.
         23    2    4    4    0    0 -0.94131409974E+03  0.87131231481E+03 -0.15449033089E+03  0.12949139328E+04  0.87621040933E+02 0.  0.
          1    1    3    3  502    0  0.22983784992E+03 -0.17528902481E+03 -0.46220598673E+03  0.54514773561E+03  0.00000000000E+00 0. -1.
         -1    1    3    3    0  502  0.68974728492E+03 -0.73789557311E+03 -0.15701300871E+04  0.18669626896E+04  0.00000000000E+00 0.  1.
         11    1    5    5    0    0  0.87080061875E+01  0.12560393363E+02  0.13084336834E+02  0.20119461314E+02  0.00000000000E+00 0.  1.
        -11    1    5    5    0    0  0.13020958710E+02  0.29311889745E+02 -0.13614974139E+03  0.13987667542E+03  0.00000000000E+00 0. -1.
          5    1    6    6  503    0 -0.79138169709E+03  0.72638839333E+03 -0.16109494436E+03  0.10862314484E+04  0.47000000000E+01 0. -1.
         -5    1    6    6    0  503 -0.14993240265E+03  0.14492392148E+03  0.66046134671E+01  0.20868248441E+03  0.47000000000E+01 0.  1.
<mgrwt>
<rscale>  0 0.13146389E+04</rscale>
<asrwt>0</asrwt>
<pdfrwt beam="1">  1        2 0.47514709E+00 0.13146389E+04</pdfrwt>
<pdfrwt beam="2">  1       -2 0.11977913E+00 0.13146389E+04</pdfrwt>
<totfact> 0.79570314E-01</totfact>
</mgrwt>
</event>
<event>
12    1  0.3127365E-008  0.1367849E+04  0.7818608E-02  0.8977426E-01
         -1   -1    0    0    0  501 -0.00000000000E+00  0.00000000000E+00  0.99681769092E+03  0.99681769092E+03  0.00000000000E+00 0.  1.
          1   -1    0    0  501    0  0.00000000000E+00 -0.00000000000E+00 -0.24419268668E+04  0.24419268668E+04  0.00000000000E+00 0. -1.
         23    2    1    2    0    0 -0.79687432522E+03 -0.10522093471E+04 -0.14835860873E+04  0.19883738592E+04  0.10222389745E+03 0.  0.
    5000000    2    1    2    0    0  0.79687432522E+03  0.10522093471E+04  0.38476911367E+02  0.14503706985E+04  0.59995123977E+03 0.  0.
         23    2    4    4    0    0 -0.10618984345E+02 -0.14679695522E+01 -0.70588433255E+02  0.11531097040E+03  0.90548192810E+02 0.  0.
         23    2    4    4    0    0  0.80749330957E+03  0.10536773167E+04  0.10906534462E+03  0.13350597281E+04  0.90597437292E+02 0.  0.
          4    1    3    3  502    0 -0.42544691670E+03 -0.59756982526E+03 -0.89271140653E+03  0.11554343038E+04  0.00000000000E+00 0. -1.
         -4    1    3    3    0  502 -0.37142740852E+03 -0.45463952187E+03 -0.59087468075E+03  0.83293955543E+03  0.00000000000E+00 0.  1.
         13    1    5    5    0    0 -0.32210488542E+02  0.31889169195E+02 -0.16586322829E+02  0.48265316626E+02  0.00000000000E+00 0. -1.
        -13    1    5    5    0    0  0.21591504197E+02 -0.33357138748E+02 -0.54002110426E+02  0.67045653770E+02  0.00000000000E+00 0.  1.
          5    1    6    6  503    0  0.28969634309E+03  0.44320050326E+03  0.62792083146E+02  0.53321252142E+03  0.47000000000E+01 0. -1.
         -5    1    6    6    0  503  0.51779696647E+03  0.61047681342E+03  0.46273261476E+02  0.80184720673E+03  0.47000000000E+01 0.  1.
<mgrwt>
<rscale>  0 0.13678487E+04</rscale>
<asrwt>0</asrwt>
<pdfrwt beam="1">  1        1 0.37568105E+00 0.13678487E+04</pdfrwt>
<pdfrwt beam="2">  1       -1 0.15335657E+00 0.13678487E+04</pdfrwt>
<totfact> 0.47095510E-01</totfact>
</mgrwt>
</event>
<event>
12    1  0.3127365E-008  0.4797412E+03  0.7818608E-02  0.1019206E+00
          2   -1    0    0  501    0  0.00000000000E+00  0.00000000000E+00  0.11127849441E+04  0.11127849441E+04  0.00000000000E+00 0. -1.
         -2   -1    0    0    0  501 -0.00000000000E+00 -0.00000000000E+00 -0.23395519558E+03  0.23395519558E+03  0.00000000000E+00 0.  1.
         23    2    1    2    0    0 -0.31505822945E+03  0.82009144660E+02  0.29058018092E+03  0.44567597236E+03  0.90570652221E+02 0.  0.
    5000000    2    1    2    0    0  0.31505822945E+03 -0.82009144660E+02  0.58824956756E+03  0.90106416728E+03  0.59990990329E+03 0.  0.
         23    2    4    4    0    0  0.10870812485E+03  0.22025029259E+03  0.40492125221E+03  0.48249055844E+03  0.92240287872E+02 0.  0.
         23    2    4    4    0    0  0.20635010460E+03 -0.30225943725E+03  0.18332831535E+03  0.41857360883E+03  0.87484065575E+02 0.  0.
          3    1    3    3  502    0 -0.13287346246E+03  0.77353292971E+02  0.15678633323E+03  0.21959244806E+03  0.00000000000E+00 0. -1.
         -3    1    3    3    0  502 -0.18218476699E+03  0.46558516889E+01  0.13379384769E+03  0.22608352430E+03  0.00000000000E+00 0.  1.
         11    1    5    5    0    0  0.35757728411E+02  0.15198699274E+03  0.29621875713E+03  0.33484953812E+03  0.00000000000E+00 0.  1.
        -11    1    5    5    0    0  0.72950396438E+02  0.68263299846E+02  0.10870249507E+03  0.14764102032E+03  0.00000000000E+00 0. -1.
          5    1    6    6  503    0  0.34301421090E+01 -0.10868929575E+02 -0.84845583324E+01  0.14965869006E+02  0.47000000000E+01 0.  1.
         -5    1    6    6    0  503  0.20291996249E+03 -0.29139050767E+03  0.19181287369E+03  0.40360773983E+03  0.47000000000E+01 0. -1.
<mgrwt>
<rscale>  0 0.47974121E+03</rscale>
<asrwt>0</asrwt>
<pdfrwt beam="1">  1        2 0.17119768E+00 0.47974121E+03</pdfrwt>
<pdfrwt beam="2">  1       -2 0.35993108E-01 0.47974121E+03</pdfrwt>
<totfact> 0.16078850E+02</totfact>
</mgrwt>
</event>
<event>
12    1  0.3127365E-008  0.3985449E+03  0.7818608E-02  0.1044285E+00
          1   -1    0    0  501    0  0.00000000000E+00  0.00000000000E+00  0.35664657419E+03  0.35664657419E+03  0.00000000000E+00 0. -1.
         -1   -1    0    0    0  501 -0.00000000000E+00 -0.00000000000E+00 -0.64799238839E+03  0.64799238839E+03  0.00000000000E+00 0.  1.
         23    2    1    2    0    0 -0.16321319680E+03 -0.11423012084E+03 -0.30103146259E+03  0.37236233545E+03  0.91360271902E+02 0.  0.
    5000000    2    1    2    0    0  0.16321319680E+03  0.11423012084E+03  0.96856483893E+01  0.63227662713E+03  0.59999404440E+03 0.  0.
         23    2    4    4    0    0  0.22805280911E+03 -0.16068356839E+03 -0.11289578588E+03  0.31129798502E+03  0.79584446412E+02 0.  0.
         23    2    4    4    0    0 -0.64839612318E+02  0.27491368923E+03  0.12258143426E+03  0.32097864212E+03  0.90660734695E+02 0.  0.
          2    1    3    3  502    0 -0.91442782042E+02 -0.11364543371E+03 -0.18040091849E+03  0.23199473783E+03  0.00000000000E+00 0.  1.
         -2    1    3    3    0  502 -0.71770414754E+02 -0.58468713470E+00 -0.12063054410E+03  0.14036759762E+03  0.00000000000E+00 0. -1.
         11    1    5    5    0    0  0.18227645798E+03 -0.10186458259E+03 -0.52346859795E+02  0.21527028139E+03  0.00000000000E+00 0. -1.
        -11    1    5    5    0    0  0.45776351133E+02 -0.58818985801E+02 -0.60548926080E+02  0.96027703623E+02  0.00000000000E+00 0.  1.
          5    1    6    6  503    0 -0.55400263535E+01  0.20145123432E+03  0.74333495226E+02  0.21485076266E+03  0.47000000000E+01 0. -1.
         -5    1    6    6    0  503 -0.59299585964E+02  0.73462454910E+02  0.48247939038E+02  0.10612787946E+03  0.47000000000E+01 0.  1.
<mgrwt>
<rscale>  0 0.39854487E+03</rscale>
<asrwt>0</asrwt>
<pdfrwt beam="1">  1        1 0.54868704E-01 0.39854487E+03</pdfrwt>
<pdfrwt beam="2">  1       -1 0.99691136E-01 0.39854487E+03</pdfrwt>
<totfact> 0.70685596E+01</totfact>
</mgrwt>
</event>
<event>
12    1  0.3127365E-008  0.9800287E+03  0.7818608E-02  0.9330724E-01
          2   -1    0    0  501    0  0.00000000000E+00  0.00000000000E+00  0.20875342876E+04  0.20875342876E+04  0.00000000000E+00 0. -1.
         -2   -1    0    0    0  501 -0.00000000000E+00 -0.00000000000E+00 -0.49046608033E+03  0.49046608033E+03  0.00000000000E+00 0.  1.
         23    2    1    2    0    0  0.45209899913E+03 -0.79513612233E+03  0.59795626223E+03  0.10965301709E+04  0.90508375840E+02 0.  0.
    5000000    2    1    2    0    0 -0.45209899913E+03  0.79513612233E+03  0.99911194502E+03  0.14814701970E+04  0.59991191679E+03 0.  0.
         23    2    4    4    0    0 -0.38498851576E+03  0.86130872979E+03  0.78601499039E+03  0.12313589317E+04  0.91413172819E+02 0.  0.
         23    2    4    4    0    0 -0.67110483366E+02 -0.66172607455E+02  0.21309695464E+03  0.25011126537E+03  0.90899406115E+02 0.  0.
          4    1    3    3  502    0  0.26277113907E+03 -0.49401426968E+03  0.41418201331E+03  0.69616485858E+03  0.00000000000E+00 0. -1.
         -4    1    3    3    0  502  0.18932786006E+03 -0.30112185266E+03  0.18377424893E+03  0.40036531232E+03  0.00000000000E+00 0.  1.
         11    1    5    5    0    0 -0.16764324992E+03  0.42944642520E+03  0.43561483312E+03  0.63426238593E+03  0.00000000000E+00 0. -1.
        -11    1    5    5    0    0 -0.21734526585E+03  0.43186230459E+03  0.35040015726E+03  0.59709654573E+03  0.00000000000E+00 0.  1.
          5    1    6    6  503    0 -0.36006300850E+01 -0.22111103276E+02 -0.51445872847E+00  0.22895853181E+02  0.47000000000E+01 0. -1.
         -5    1    6    6    0  503 -0.63509853281E+02 -0.44061504179E+02  0.21361141337E+03  0.22721541219E+03  0.47000000000E+01 0.  1.
<mgrwt>
<rscale>  0 0.98002865E+03</rscale>
<asrwt>0</asrwt>
<pdfrwt beam="1">  1        2 0.32115912E+00 0.98002865E+03</pdfrwt>
<pdfrwt beam="2">  1       -2 0.75456321E-01 0.98002865E+03</pdfrwt>
<totfact> 0.94639058E+00</totfact>
</mgrwt>
</event>
<event>
12    1  0.3127365E-008  0.3379787E+03  0.7818608E-02  0.1067660E+00
          2   -1    0    0  501    0  0.00000000000E+00  0.00000000000E+00  0.11789809393E+04  0.11789809393E+04  0.00000000000E+00 0. -1.
         -2   -1    0    0    0  501 -0.00000000000E+00 -0.00000000000E+00 -0.21880465517E+03  0.21880465517E+03  0.00000000000E+00 0.  1.
         23    2    1    2    0    0 -0.25100311068E+03 -0.10185960535E+03  0.55495497052E+03  0.62471583184E+03  0.94429394085E+02 0.  0.
    5000000    2    1    2    0    0  0.25100311068E+03  0.10185960535E+03  0.40522131356E+03  0.77306976258E+03  0.60004550168E+03 0.  0.
         23    2    4    4    0    0 -0.34190642843E+02  0.84179082236E+02  0.45210556763E+03  0.46935773425E+03  0.87419222614E+02 0.  0.
         23    2    4    4    0    0  0.28519375353E+03  0.17680523112E+02 -0.46884254069E+02  0.30371202833E+03  0.91623058917E+02 0.  0.
          1    1    3    3  502    0 -0.10422992942E+03 -0.36690268373E+02  0.33229400015E+03  0.35018474626E+03  0.00000000000E+00 0. -1.
         -1    1    3    3    0  502 -0.14677318126E+03 -0.65169336974E+02  0.22266097037E+03  0.27453108557E+03  0.00000000000E+00 0.  1.
         13    1    5    5    0    0 -0.96921505962E+01  0.91862990748E+02  0.26804881358E+03  0.28351880593E+03  0.00000000000E+00 0. -1.
        -13    1    5    5    0    0 -0.24498492247E+02 -0.76839085123E+01  0.18405675404E+03  0.18583892832E+03  0.00000000000E+00 0.  1.
          5    1    6    6  503    0  0.55712231612E+02  0.12192162058E+02 -0.47102962930E+02  0.74116669404E+02  0.47000000000E+01 0. -1.
         -5    1    6    6    0  503  0.22948152191E+03  0.54883610539E+01  0.21870886092E+00  0.22959535893E+03  0.47000000000E+01 0.  1.
<mgrwt>
<rscale>  0 0.33797867E+03</rscale>
<asrwt>0</asrwt>
<pdfrwt beam="1">  1        2 0.18138168E+00 0.33797867E+03</pdfrwt>
<pdfrwt beam="2">  1       -2 0.33662255E-01 0.33797867E+03</pdfrwt>
<totfact> 0.16969464E+02</totfact>
</mgrwt>
</event>
<event>
12    1  0.3127365E-008  0.4861750E+03  0.7818608E-02  0.1017452E+00
         -2   -1    0    0    0  501 -0.00000000000E+00  0.00000000000E+00  0.19645611428E+03  0.19645611428E+03  0.00000000000E+00 0.  1.
          2   -1    0    0  501    0  0.00000000000E+00 -0.00000000000E+00 -0.20233113071E+04  0.20233113071E+04  0.00000000000E+00 0. -1.
         23    2    1    2    0    0 -0.80730024252E+01 -0.42114859360E+03 -0.11253282969E+04  0.12050938635E+04  0.91957233557E+02 0.  0.
    5000000    2    1    2    0    0  0.80730024252E+01  0.42114859360E+03 -0.70152689586E+03  0.10146735578E+04  0.59999261001E+03 0.  0.
         23    2    4    4    0    0  0.17412915184E+03  0.27679693382E+03 -0.69894098708E+03  0.77705617511E+03  0.91434631091E+02 0.  0.
         23    2    4    4    0    0 -0.16605614941E+03  0.14435165978E+03 -0.25859087794E+01  0.23761738271E+03  0.89684375487E+02 0.  0.
          3    1    3    3  502    0  0.21304520787E+02 -0.13692898378E+03 -0.47412031276E+03  0.49395698211E+03  0.00000000000E+00 0. -1.
         -3    1    3    3    0  502 -0.29377523212E+02 -0.28421960982E+03 -0.65120798418E+03  0.71113688143E+03  0.00000000000E+00 0.  1.
         13    1    5    5    0    0  0.12597811956E+03  0.18024282027E+03 -0.55643751995E+03  0.59831486232E+03  0.00000000000E+00 0.  1.
        -13    1    5    5    0    0  0.48151032278E+02  0.96554113551E+02 -0.14250346713E+03  0.17874131279E+03  0.00000000000E+00 0. -1.
          5    1    6    6  503    0 -0.91740317104E+02  0.78303726946E+02  0.43004997909E+02  0.12813773559E+03  0.47000000000E+01 0. -1.
         -5    1    6    6    0  503 -0.74315832306E+02  0.66047932829E+02 -0.45590906689E+02  0.10947964713E+03  0.47000000000E+01 0.  1.
<mgrwt>
<rscale>  0 0.48617503E+03</rscale>
<asrwt>0</asrwt>
<pdfrwt beam="1">  1        2 0.31127867E+00 0.48617503E+03</pdfrwt>
<pdfrwt beam="2">  1       -2 0.30224017E-01 0.48617503E+03</pdfrwt>
<totfact> 0.69998417E+01</totfact>
</mgrwt>
</event>
<event>
12    1  0.3127365E-008  0.6457759E+03  0.7818608E-02  0.9814738E-01
          4   -1    0    0  501    0  0.00000000000E+00  0.00000000000E+00  0.42249112371E+03  0.42249112371E+03  0.00000000000E+00 0. -1.
         -4   -1    0    0    0  501 -0.00000000000E+00 -0.00000000000E+00 -0.10894342099E+04  0.10894342099E+04  0.00000000000E+00 0.  1.
         23    2    1    2    0    0 -0.53271525851E+03  0.50264415576E+02 -0.35999249854E+03  0.65138321549E+03  0.91615698954E+02 0.  0.
    5000000    2    1    2    0    0  0.53271525851E+03 -0.50264415576E+02 -0.30695058763E+03  0.86054211810E+03  0.60000167971E+03 0.  0.
         23    2    4    4    0    0  0.20738667387E+03 -0.28257451131E+03 -0.26132112965E+03  0.44836067337E+03  0.99403086864E+02 0.  0.
         23    2    4    4    0    0  0.32532858463E+03  0.23231009574E+03 -0.45629457980E+02  0.41218144473E+03  0.89469700941E+02 0.  0.
          4    1    3    3  502    0 -0.36091137830E+03  0.27976381340E+02 -0.29271895787E+03  0.46553634574E+03  0.00000000000E+00 0. -1.
         -4    1    3    3    0  502 -0.17180388020E+03  0.22288034237E+02 -0.67273540666E+02  0.18584686975E+03  0.00000000000E+00 0.  1.
         11    1    5    5    0    0  0.11736804316E+03 -0.20102814208E+03 -0.21936156962E+03  0.31985476343E+03  0.00000000000E+00 0. -1.
        -11    1    5    5    0    0  0.90018630719E+02 -0.81546369235E+02 -0.41959560030E+02  0.12850590994E+03  0.00000000000E+00 0.  1.
          5    1    6    6  503    0  0.14895120912E+03  0.13217099267E+03  0.16844293172E+02  0.19990361231E+03  0.47000000000E+01 0. -1.
         -5    1    6    6    0  503  0.17637737551E+03  0.10013910307E+03 -0.62473751152E+02  0.21227783242E+03  0.47000000000E+01 0.  1.
<mgrwt>
<rscale>  0 0.64577586E+03</rscale>
<asrwt>0</asrwt>
<pdfrwt beam="1">  1        4 0.64998635E-01 0.64577586E+03</pdfrwt>
<pdfrwt beam="2">  1       -4 0.16760526E+00 0.64577586E+03</pdfrwt>
<totfact> 0.95375348E-01</totfact>
</mgrwt>
</event>
<event>
12    1  0.3127365E-008  0.6379779E+03  0.7818608E-02  0.9829603E-01
          1   -1    0    0  501    0  0.00000000000E+00  0.00000000000E+00  0.47669454944E+03  0.47669454944E+03  0.00000000000E+00 0. -1.
         -1   -1    0    0    0  501 -0.00000000000E+00 -0.00000000000E+00 -0.13239957194E+04  0.13239957194E+04  0.00000000000E+00 0.  1.
         23    2    1    2    0    0  0.30418743234E+03  0.49852009297E+03 -0.75427687995E+03  0.95828633367E+03  0.91251348399E+02 0.  0.
    5000000    2    1    2    0    0 -0.30418743234E+03 -0.49852009297E+03 -0.93024290046E+02  0.84240393521E+03  0.59994882651E+03 0.  0.
         23    2    4    4    0    0 -0.36087126572E+03 -0.43565394708E+03 -0.26522153130E+03  0.63108616160E+03  0.88909227151E+02 0.  0.
         23    2    4    4    0    0  0.56683833388E+02 -0.62866145893E+02  0.17219724125E+03  0.21131777360E+03  0.88533057552E+02 0.  0.
          4    1    3    3  502    0  0.17084014032E+03  0.32685206492E+03 -0.53248365246E+03  0.64773255748E+03  0.00000000000E+00 0. -1.
         -4    1    3    3    0  502  0.13334729202E+03  0.17166802805E+03 -0.22179322749E+03  0.31055377619E+03  0.00000000000E+00 0.  1.
         13    1    5    5    0    0 -0.32305353974E+03 -0.34390163553E+03 -0.20092709860E+03  0.51283878891E+03  0.00000000000E+00 0.  1.
        -13    1    5    5    0    0 -0.37817725987E+02 -0.91752311555E+02 -0.64294432696E+02  0.11824737270E+03  0.00000000000E+00 0. -1.
          5    1    6    6  503    0  0.44598879097E+01  0.19782759191E+02  0.13329619569E+02  0.24718756425E+02  0.47000000000E+01 0. -1.
         -5    1    6    6    0  503  0.52223945478E+02 -0.82648905084E+02  0.15886762168E+03  0.18659901718E+03  0.47000000000E+01 0.  1.
<mgrwt>
<rscale>  0 0.63797795E+03</rscale>
<asrwt>0</asrwt>
<pdfrwt beam="1">  1        1 0.73337624E-01 0.63797795E+03</pdfrwt>
<pdfrwt beam="2">  1       -1 0.20369165E+00 0.63797795E+03</pdfrwt>
<totfact> 0.70622522E+00</totfact>
</mgrwt>
</event>
<event>
12    1  0.3127365E-008  0.1232179E+04  0.7818608E-02  0.9085148E-01
          1   -1    0    0  501    0  0.00000000000E+00  0.00000000000E+00  0.16369444977E+04  0.16369444977E+04  0.00000000000E+00 0. -1.
         -1   -1    0    0    0  501 -0.00000000000E+00 -0.00000000000E+00 -0.93807995763E+03  0.93807995763E+03  0.00000000000E+00 0.  1.
         23    2    1    2    0    0 -0.18169267033E+03  0.11467585646E+04  0.42267460982E+03  0.12390481805E+04  0.92299166092E+02 0.  0.
    5000000    2    1    2    0    0  0.18169267033E+03 -0.11467585646E+04  0.27618993025E+03  0.13359762748E+04  0.60040344552E+03 0.  0.
         23    2    4    4    0    0 -0.20674293590E+03 -0.40211119082E+03  0.78440077091E+02  0.46829375973E+03  0.93328175743E+02 0.  0.
         23    2    4    4    0    0  0.38843560623E+03 -0.74464737375E+03  0.19774985316E+03  0.86768251506E+03  0.91575166420E+02 0.  0.
          1    1    3    3  502    0 -0.11903239941E+03  0.57863518453E+03  0.17501631158E+03  0.61613155917E+03  0.00000000000E+00 0. -1.
         -1    1    3    3    0  502 -0.62660270924E+02  0.56812338003E+03  0.24765829824E+03  0.62291662137E+03  0.00000000000E+00 0.  1.
         11    1    5    5    0    0 -0.26964190356E+02 -0.74134588387E+01  0.46586148463E+01  0.28350125675E+02  0.00000000000E+00 0. -1.
        -11    1    5    5    0    0 -0.17977874554E+03 -0.39469773198E+03  0.73781462244E+02  0.43994363406E+03  0.00000000000E+00 0.  1.
          5    1    6    6  503    0  0.17176045262E+03 -0.35852452227E+03  0.49016962945E+02  0.40058237456E+03  0.47000000000E+01 0. -1.
         -5    1    6    6    0  503  0.21667515361E+03 -0.38612285148E+03  0.14873289021E+03  0.46710014050E+03  0.47000000000E+01 0.  1.
<mgrwt>
<rscale>  0 0.12321787E+04</rscale>
<asrwt>0</asrwt>
<pdfrwt beam="1">  1        1 0.25183761E+00 0.12321787E+04</pdfrwt>
<pdfrwt beam="2">  1       -1 0.14431999E+00 0.12321787E+04</pdfrwt>
<totfact> 0.19915279E+00</totfact>
</mgrwt>
</event>
<event>
12    1  0.3127365E-008  0.1002675E+04  0.7818608E-02  0.9305616E-01
         -4   -1    0    0    0  501 -0.00000000000E+00  0.00000000000E+00  0.20408295662E+04  0.20408295662E+04  0.00000000000E+00 0.  1.
          4   -1    0    0  501    0  0.00000000000E+00 -0.00000000000E+00 -0.60518882468E+03  0.60518882468E+03  0.00000000000E+00 0. -1.
         23    2    1    2    0    0 -0.77620446488E+03  0.62161627495E+03  0.35564354009E+03  0.10600357735E+04  0.91067825804E+02 0.  0.
    5000000    2    1    2    0    0  0.77620446488E+03 -0.62161627495E+03  0.10799972015E+04  0.15859826174E+04  0.60003895124E+03 0.  0.
         23    2    4    4    0    0  0.53280522926E+03 -0.38526637079E+03  0.29559049388E+03  0.72655975721E+03  0.90574565602E+02 0.  0.
         23    2    4    4    0    0  0.24339923562E+03 -0.23634990416E+03  0.78440670758E+03  0.85942286021E+03  0.90605213189E+02 0.  0.
          3    1    3    3  502    0 -0.27592223452E+03  0.18422053720E+03  0.84809928525E+02  0.34243686981E+03  0.00000000000E+00 0. -1.
         -3    1    3    3    0  502 -0.50028223036E+03  0.43739573774E+03  0.27083361157E+03  0.71759890368E+03  0.00000000000E+00 0.  1.
         13    1    5    5    0    0  0.15611908977E+03 -0.98521234681E+02  0.12680690059E+03  0.22396337627E+03  0.00000000000E+00 0.  1.
        -13    1    5    5    0    0  0.37668613949E+03 -0.28674513611E+03  0.16878359329E+03  0.50259638094E+03  0.00000000000E+00 0. -1.
          5    1    6    6  503    0  0.15591693508E+03 -0.20584429951E+03  0.58696281751E+03  0.64127170952E+03  0.47000000000E+01 0. -1.
         -5    1    6    6    0  503  0.87482300537E+02 -0.30505604644E+02  0.19744389007E+03  0.21815115069E+03  0.47000000000E+01 0.  1.
<mgrwt>
<rscale>  0 0.10026750E+04</rscale>
<asrwt>0</asrwt>
<pdfrwt beam="1">  1        4 0.93105974E-01 0.10026750E+04</pdfrwt>
<pdfrwt beam="2">  1       -4 0.31397378E+00 0.10026750E+04</pdfrwt>
<totfact> 0.48311356E-02</totfact>
</mgrwt>
</event>
<event>
12    1  0.3127365E-008  0.1028203E+04  0.7818608E-02  0.9278142E-01
          1   -1    0    0  501    0  0.00000000000E+00  0.00000000000E+00  0.15875694769E+04  0.15875694769E+04  0.00000000000E+00 0. -1.
         -1   -1    0    0    0  501 -0.00000000000E+00 -0.00000000000E+00 -0.74833554838E+03  0.74833554838E+03  0.00000000000E+00 0.  1.
         23    2    1    2    0    0  0.70536122486E+02 -0.99105244683E+03  0.54798200665E+03  0.11387886063E+04  0.96927360573E+02 0.  0.
    5000000    2    1    2    0    0 -0.70536122486E+02  0.99105244683E+03  0.29125192186E+03  0.11971164190E+04  0.60091575255E+03 0.  0.
         23    2    4    4    0    0 -0.21542706684E+03  0.69265928792E+03  0.40395933265E+03  0.83520481454E+03  0.90544075031E+02 0.  0.
         23    2    4    4    0    0  0.14489094435E+03  0.29839315891E+03 -0.11270741079E+03  0.36191160445E+03  0.90803006254E+02 0.  0.
          4    1    3    3  502    0  0.62341120151E+02 -0.84530681303E+03  0.42640795909E+03  0.94881703768E+03  0.00000000000E+00 0. -1.
         -4    1    3    3    0  502  0.81950023350E+01 -0.14574563381E+03  0.12157404756E+03  0.18997156860E+03  0.00000000000E+00 0.  1.
         11    1    5    5    0    0 -0.60233117641E+02  0.32740989236E+03  0.15994197392E+03  0.36933277826E+03  0.00000000000E+00 0.  1.
        -11    1    5    5    0    0 -0.15519394920E+03  0.36524939556E+03  0.24401735873E+03  0.46587203628E+03  0.00000000000E+00 0. -1.
          5    1    6    6  503    0  0.95429719611E+02  0.16420536413E+03 -0.19133172668E+02  0.19094083191E+03  0.47000000000E+01 0. -1.
         -5    1    6    6    0  503  0.49461224740E+02  0.13418779479E+03 -0.93574238123E+02  0.17097077254E+03  0.47000000000E+01 0.  1.
<mgrwt>
<rscale>  0 0.10282029E+04</rscale>
<asrwt>0</asrwt>
<pdfrwt beam="1">  1        1 0.24424146E+00 0.10282029E+04</pdfrwt>
<pdfrwt beam="2">  1       -1 0.11512855E+00 0.10282029E+04</pdfrwt>
<totfact> 0.39063867E+00</totfact>
</mgrwt>
</event>
<event>
12    1  0.3127365E-008  0.6946042E+03  0.7818608E-02  0.9726504E-01
          2   -1    0    0  501    0  0.00000000000E+00  0.00000000000E+00  0.21463927665E+04  0.21463927665E+04  0.00000000000E+00 0.  1.
         -2   -1    0    0    0  501 -0.00000000000E+00 -0.00000000000E+00 -0.30993117230E+03  0.30993117230E+03  0.00000000000E+00 0. -1.
         23    2    1    2    0    0  0.44785283915E+03 -0.52134731200E+03  0.56560518471E+03  0.89188140914E+03  0.56285324368E+02 0.  0.
    5000000    2    1    2    0    0 -0.44785283915E+03  0.52134731200E+03  0.12708564095E+04  0.15644425297E+04  0.60002435769E+03 0.  0.
         23    2    4    4    0    0 -0.24765993265E+03  0.25944650482E+03  0.11401786223E+04  0.11988220149E+04  0.92298437126E+02 0.  0.
         23    2    4    4    0    0 -0.20019290650E+03  0.26190080718E+03  0.13067778721E+03  0.36562051481E+03  0.89064269843E+02 0.  0.
          1    1    3    3  502    0  0.25327844622E+03 -0.25687157044E+03  0.31333828828E+03  0.47782199397E+03  0.00000000000E+00 0. -1.
         -1    1    3    3    0  502  0.19457439293E+03 -0.26447574156E+03  0.25226689643E+03  0.41405941517E+03  0.00000000000E+00 0.  1.
         11    1    5    5    0    0 -0.17087431701E+03  0.17494416291E+03  0.90398225224E+03  0.93647605667E+03  0.00000000000E+00 0. -1.
        -11    1    5    5    0    0 -0.76785615635E+02  0.84502341913E+02  0.23619637006E+03  0.26234595820E+03  0.00000000000E+00 0.  1.
          5    1    6    6  503    0 -0.17650352342E+03  0.16542939512E+03  0.95863889297E+02  0.26025440212E+03  0.47000000000E+01 0. -1.
         -5    1    6    6    0  503 -0.23689383078E+02  0.96471412056E+02  0.34813897909E+02  0.10536611268E+03  0.47000000000E+01 0.  1.
<mgrwt>
<rscale>  0 0.69460424E+03</rscale>
<asrwt>0</asrwt>
<pdfrwt beam="1">  1        2 0.33021426E+00 0.69460424E+03</pdfrwt>
<pdfrwt beam="2">  1       -2 0.47681720E-01 0.69460424E+03</pdfrwt>
<totfact> 0.24104665E+01</totfact>
</mgrwt>
</event>
<event>
12    1  0.3127365E-008  0.7730440E+03  0.7818608E-02  0.9599876E-01
         -2   -1    0    0    0  501 -0.00000000000E+00  0.00000000000E+00  0.55633188810E+03  0.55633188810E+03  0.00000000000E+00 0.  1.
          2   -1    0    0  501    0  0.00000000000E+00 -0.00000000000E+00 -0.12826937835E+04  0.12826937835E+04  0.00000000000E+00 0. -1.
         23    2    1    2    0    0  0.63875614455E+03  0.15750130052E+03  0.38816392141E+02  0.66494236687E+03  0.88462235382E+02 0.  0.
    5000000    2    1    2    0    0 -0.63875614455E+03 -0.15750130052E+03 -0.76517828754E+03  0.11740833047E+04  0.60013142132E+03 0.  0.
         23    2    4    4    0    0 -0.21037927726E+02 -0.24457630539E+03 -0.21656728179E+03  0.33954057521E+03  0.90145721522E+02 0.  0.
         23    2    4    4    0    0 -0.61771821683E+03  0.87075004874E+02 -0.54861100575E+03  0.83454272952E+03  0.79559285408E+02 0.  0.
          2    1    3    3  502    0  0.31192904868E+03  0.55550543907E+02  0.57762705672E+02  0.32205919410E+03  0.00000000000E+00 0. -1.
         -2    1    3    3    0  502  0.32682709587E+03  0.10195075661E+03 -0.18946313531E+02  0.34288317276E+03  0.00000000000E+00 0.  1.
         13    1    5    5    0    0  0.31800610276E+02 -0.66703698748E+02 -0.43195752554E+02  0.85595182571E+02  0.00000000000E+00 0. -1.
        -13    1    5    5    0    0 -0.52838538002E+02 -0.17787260664E+03 -0.17337152923E+03  0.25394539263E+03  0.00000000000E+00 0.  1.
          5    1    6    6  503    0 -0.13460489548E+03  0.46973391885E+02 -0.10174834650E+03  0.17521356525E+03  0.47000000000E+01 0. -1.
         -5    1    6    6    0  503 -0.48311332135E+03  0.40101612989E+02 -0.44686265925E+03  0.65932916427E+03  0.47000000000E+01 0.  1.
<mgrwt>
<rscale>  0 0.77304400E+03</rscale>
<asrwt>0</asrwt>
<pdfrwt beam="1">  1        2 0.19733751E+00 0.77304400E+03</pdfrwt>
<pdfrwt beam="2">  1       -2 0.85589521E-01 0.77304400E+03</pdfrwt>
<totfact> 0.20424545E+01</totfact>
</mgrwt>
</event>
<event>
12    1  0.3127365E-008  0.5402299E+03  0.7818608E-02  0.1003781E+00
         -1   -1    0    0    0  501 -0.00000000000E+00  0.00000000000E+00  0.30642005915E+03  0.30642005915E+03  0.00000000000E+00 0.  1.
          1   -1    0    0  501    0  0.00000000000E+00 -0.00000000000E+00 -0.13651676194E+04  0.13651676194E+04  0.00000000000E+00 0. -1.
         23    2    1    2    0    0 -0.28779861239E+03  0.40072482555E+03 -0.29331587271E+03  0.58106484349E+03  0.90519191625E+02 0.  0.
    5000000    2    1    2    0    0  0.28779861239E+03 -0.40072482555E+03 -0.76543168750E+03  0.10905228350E+04  0.59995496363E+03 0.  0.
         23    2    4    4    0    0  0.18032496417E+03 -0.42785047611E+03 -0.21246745212E+03  0.51943618532E+03  0.95385584826E+02 0.  0.
         23    2    4    4    0    0  0.10747364823E+03  0.27125650569E+02 -0.55296423538E+03  0.57108664971E+03  0.89911789483E+02 0.  0.
          2    1    3    3  502    0 -0.13531144098E+03  0.15223189403E+03 -0.75834490380E+02  0.21733523772E+03  0.00000000000E+00 0. -1.
         -2    1    3    3    0  502 -0.15248717141E+03  0.24849293151E+03 -0.21748138233E+03  0.36372960578E+03  0.00000000000E+00 0.  1.
         13    1    5    5    0    0  0.14842172998E+03 -0.23192932790E+03 -0.11724948905E+03  0.29927857550E+03  0.00000000000E+00 0. -1.
        -13    1    5    5    0    0  0.31903234189E+02 -0.19592114821E+03 -0.95217963071E+02  0.22015760982E+03  0.00000000000E+00 0.  1.
          5    1    6    6  503    0  0.45971777439E+02  0.14348813458E+02 -0.76788447338E+02  0.90762593689E+02  0.47000000000E+01 0. -1.
         -5    1    6    6    0  503  0.61501870787E+02  0.12776837111E+02 -0.47617578805E+03  0.48032405603E+03  0.47000000000E+01 0.  1.
<mgrwt>
<rscale>  0 0.54022992E+03</rscale>
<asrwt>0</asrwt>
<pdfrwt beam="1">  1        1 0.21002579E+00 0.54022992E+03</pdfrwt>
<pdfrwt beam="2">  1       -1 0.47141548E-01 0.54022992E+03</pdfrwt>
<totfact> 0.38611563E+01</totfact>
</mgrwt>
</event>
<event>
12    1  0.3127365E-008  0.1360651E+04  0.7818608E-02  0.8982804E-01
          2   -1    0    0  501    0  0.00000000000E+00  0.00000000000E+00  0.19462828700E+04  0.19462828700E+04  0.00000000000E+00 0. -1.
         -2   -1    0    0    0  501 -0.00000000000E+00 -0.00000000000E+00 -0.10311221272E+04  0.10311221272E+04  0.00000000000E+00 0.  1.
         23    2    1    2    0    0 -0.80751787329E+03 -0.10818821370E+04  0.37108948983E+03  0.14030144508E+04  0.90487929946E+02 0.  0.
    5000000    2    1    2    0    0  0.80751787329E+03  0.10818821370E+04  0.54407125304E+03  0.15743905464E+04  0.60011498080E+03 0.  0.
         23    2    4    4    0    0  0.60407310098E+03  0.64604179668E+03  0.68175703524E+02  0.89179790019E+03  0.91549188137E+02 0.  0.
         23    2    4    4    0    0  0.20344477232E+03  0.43584034035E+03  0.47589554951E+03  0.68259264624E+03  0.90053145378E+02 0.  0.
          1    1    3    3  502    0 -0.43016618920E+03 -0.52115671029E+03  0.21762736597E+03  0.70993586853E+03  0.00000000000E+00 0. -1.
         -1    1    3    3    0  502 -0.37735168409E+03 -0.56072542675E+03  0.15346212386E+03  0.69307858223E+03  0.00000000000E+00 0.  1.
         13    1    5    5    0    0  0.21204695862E+03  0.28546846954E+03  0.47488391126E+02  0.35876358100E+03  0.00000000000E+00 0. -1.
        -13    1    5    5    0    0  0.39202614236E+03  0.36057332714E+03  0.20687312397E+02  0.53303431918E+03  0.00000000000E+00 0.  1.
          5    1    6    6  503    0  0.16460256646E+02  0.44789740465E+02  0.91154748547E+02  0.10299679161E+03  0.47000000000E+01 0. -1.
         -5    1    6    6    0  503  0.18698451567E+03  0.39105059989E+03  0.38474080097E+03  0.57959585463E+03  0.47000000000E+01 0.  1.
<mgrwt>
<rscale>  0 0.13606510E+04</rscale>
<asrwt>0</asrwt>
<pdfrwt beam="1">  1        2 0.29942813E+00 0.13606510E+04</pdfrwt>
<pdfrwt beam="2">  1       -2 0.15863417E+00 0.13606510E+04</pdfrwt>
<totfact> 0.17642878E+00</totfact>
</mgrwt>
</event>
<event>
12    1  0.3127365E-008  0.5248413E+03  0.7818608E-02  0.1007491E+00
         -2   -1    0    0    0  501 -0.00000000000E+00  0.00000000000E+00  0.95028245145E+03  0.95028245145E+03  0.00000000000E+00 0.  1.
          2   -1    0    0  501    0  0.00000000000E+00 -0.00000000000E+00 -0.34055355578E+03  0.34055355578E+03  0.00000000000E+00 0. -1.
         23    2    1    2    0    0 -0.35960253677E+03  0.98234620973E+02  0.43820925585E+02  0.38566129726E+03  0.88602130188E+02 0.  0.
    5000000    2    1    2    0    0  0.35960253677E+03 -0.98234620973E+02  0.56590797008E+03  0.90517470997E+03  0.60010449070E+03 0.  0.
         23    2    4    4    0    0  0.37716846398E+03 -0.27994678104E+03  0.28327220162E+03  0.55645582869E+03  0.93668023532E+02 0.  0.
         23    2    4    4    0    0 -0.17565927207E+02  0.18171216007E+03  0.28263576845E+03  0.34871888128E+03  0.91618827961E+02 0.  0.
          2    1    3    3  502    0 -0.23970110996E+03  0.98445086586E+02  0.34720285646E+01  0.25915268120E+03  0.00000000000E+00 0. -1.
         -2    1    3    3    0  502 -0.11990142681E+03 -0.21046561268E+00  0.40348897021E+02  0.12650861606E+03  0.00000000000E+00 0.  1.
         11    1    5    5    0    0  0.27239473883E+03 -0.19556425999E+03  0.24889634694E+03  0.41760467555E+03  0.00000000000E+00 0. -1.
        -11    1    5    5    0    0  0.10477372515E+03 -0.84382521055E+02  0.34375854688E+02  0.13885115314E+03  0.00000000000E+00 0.  1.
          5    1    6    6  503    0  0.29451054081E+02  0.11654708516E+03  0.19975293070E+03  0.23318214119E+03  0.47000000000E+01 0. -1.
         -5    1    6    6    0  503 -0.47016981287E+02  0.65165074913E+02  0.82882837754E+02  0.11553674010E+03  0.47000000000E+01 0.  1.
<mgrwt>
<rscale>  0 0.52484125E+03</rscale>
<asrwt>0</asrwt>
<pdfrwt beam="1">  1        2 0.52392855E-01 0.52484125E+03</pdfrwt>
<pdfrwt beam="2">  1       -2 0.14619730E+00 0.52484125E+03</pdfrwt>
<totfact> 0.31512505E+01</totfact>
</mgrwt>
</event>
<event>
12    1  0.3127365E-008  0.1250799E+04  0.7818608E-02  0.9069519E-01
          2   -1    0    0  501    0  0.00000000000E+00  0.00000000000E+00  0.93198225661E+03  0.93198225661E+03  0.00000000000E+00 0. -1.
         -2   -1    0    0    0  501 -0.00000000000E+00 -0.00000000000E+00 -0.28629668998E+04  0.28629668998E+04  0.00000000000E+00 0.  1.
         23    2    1    2    0    0 -0.53548000397E+03  0.10545805076E+04  0.27799747687E+03  0.12184195989E+04  0.91568773339E+02 0.  0.
    5000000    2    1    2    0    0  0.53548000397E+03 -0.10545805076E+04 -0.22089821201E+04  0.25765295575E+04  0.60001972659E+03 0.  0.
         23    2    4    4    0    0  0.27853315919E+03 -0.10058916555E+04 -0.17211266864E+04  0.20152468231E+04  0.97693112008E+02 0.  0.
         23    2    4    4    0    0  0.25694684478E+03 -0.48688852088E+02 -0.48785543371E+03  0.56128273442E+03  0.92968265496E+02 0.  0.
          3    1    3    3  502    0 -0.25473142701E+03  0.57323485455E+03  0.18030270303E+03  0.65268320270E+03  0.00000000000E+00 0. -1.
         -3    1    3    3    0  502 -0.28074857696E+03  0.48134565303E+03  0.97694773846E+02  0.56573639621E+03  0.00000000000E+00 0.  1.
         13    1    5    5    0    0  0.95433417892E+02 -0.26417815703E+03 -0.53765510502E+03  0.60660584226E+03  0.00000000000E+00 0. -1.
        -13    1    5    5    0    0  0.18309974130E+03 -0.74171349846E+03 -0.11834715813E+04  0.14086409808E+04  0.00000000000E+00 0.  1.
          5    1    6    6  503    0  0.92268797871E+02 -0.54675117282E+02 -0.14074964590E+03  0.17701822598E+03  0.47000000000E+01 0. -1.
         -5    1    6    6    0  503  0.16467804691E+03  0.59862651936E+01 -0.34710578782E+03  0.38426450843E+03  0.47000000000E+01 0.  1.
<mgrwt>
<rscale>  0 0.12507985E+04</rscale>
<asrwt>0</asrwt>
<pdfrwt beam="1">  1        2 0.14338189E+00 0.12507985E+04</pdfrwt>
<pdfrwt beam="2">  1       -2 0.44045644E+00 0.12507985E+04</pdfrwt>
<totfact> 0.10972537E-01</totfact>
</mgrwt>
</event>
<event>
12    1  0.3127365E-008  0.6150289E+03  0.7818608E-02  0.9874707E-01
          2   -1    0    0  501    0  0.00000000000E+00  0.00000000000E+00  0.23470881766E+04  0.23470881766E+04  0.00000000000E+00 0. -1.
         -2   -1    0    0    0  501 -0.00000000000E+00 -0.00000000000E+00 -0.55588260293E+03  0.55588260293E+03  0.00000000000E+00 0.  1.
         23    2    1    2    0    0  0.15589041875E+03  0.56475808842E+03  0.19599418139E+04  0.20475211011E+04  0.87847734466E+02 0.  0.
    5000000    2    1    2    0    0 -0.15589041875E+03 -0.56475808842E+03 -0.16873624025E+03  0.85544967842E+03  0.60005725764E+03 0.  0.
         23    2    4    4    0    0 -0.90264322259E+02 -0.48207629800E+03  0.13647793646E+03  0.51708927728E+03  0.90608435388E+02 0.  0.
         23    2    4    4    0    0 -0.65626096486E+02 -0.82681790411E+02 -0.30521417671E+03  0.33836040114E+03  0.10094059830E+03 0.  0.
          3    1    3    3  502    0  0.52341695570E+02  0.23623603717E+03  0.66891812388E+03  0.71133576798E+03  0.00000000000E+00 0. -1.
         -3    1    3    3    0  502  0.10354872318E+03  0.32852205124E+03  0.12910236900E+04  0.13361853331E+04  0.00000000000E+00 0.  1.
         11    1    5    5    0    0 -0.32771859554E+02 -0.37955900946E+03  0.97392313380E+02  0.39322296366E+03  0.00000000000E+00 0.  1.
        -11    1    5    5    0    0 -0.57492462705E+02 -0.10251728854E+03  0.39085623083E+02  0.12386631362E+03  0.00000000000E+00 0. -1.
          5    1    6    6  503    0 -0.91453666569E+02 -0.54278709363E+02 -0.20612296836E+03  0.23198861934E+03  0.47000000000E+01 0. -1.
         -5    1    6    6    0  503  0.25827570083E+02 -0.28403081047E+02 -0.99091208354E+02  0.10637178180E+03  0.47000000000E+01 0.  1.
<mgrwt>
<rscale>  0 0.61502890E+03</rscale>
<asrwt>0</asrwt>
<pdfrwt beam="1">  1        2 0.36109048E+00 0.61502890E+03</pdfrwt>
<pdfrwt beam="2">  1       -2 0.85520402E-01 0.61502890E+03</pdfrwt>
<totfact> 0.54338227E+00</totfact>
</mgrwt>
</event>
<event>
12    1  0.3127365E-008  0.3555118E+03  0.7818608E-02  0.1060375E+00
         -1   -1    0    0    0  501 -0.00000000000E+00  0.00000000000E+00  0.77841341877E+03  0.77841341877E+03  0.00000000000E+00 0.  1.
          1   -1    0    0  501    0  0.00000000000E+00 -0.00000000000E+00 -0.32652493990E+03  0.32652493990E+03  0.00000000000E+00 0. -1.
         23    2    1    2    0    0 -0.17314375839E+03 -0.26392193364E+03  0.17356540388E+03  0.37206977417E+03  0.93152666641E+02 0.  0.
    5000000    2    1    2    0    0  0.17314375839E+03  0.26392193364E+03  0.27832307499E+03  0.73286858450E+03  0.59999923330E+03 0.  0.
         23    2    4    4    0    0  0.16042904836E+03  0.25792309797E+03 -0.10939770094E+03  0.33495671337E+03  0.89254349110E+02 0.  0.
         23    2    4    4    0    0  0.12714710022E+02  0.59988356710E+01  0.38772077593E+03  0.39791187113E+03  0.88367455657E+02 0.  0.
          4    1    3    3  502    0 -0.65567590934E+02 -0.13154851536E+03  0.32054901605E+02  0.15043815204E+03  0.00000000000E+00 0. -1.
         -4    1    3    3    0  502 -0.10757616745E+03 -0.13237341828E+03  0.14151050228E+03  0.22163162213E+03  0.00000000000E+00 0.  1.
         11    1    5    5    0    0  0.10466921440E+03  0.21140803612E+03 -0.49993951853E+02  0.24113978809E+03  0.00000000000E+00 0. -1.
        -11    1    5    5    0    0  0.55759833961E+02  0.46515061846E+02 -0.59403749092E+02  0.93816925275E+02  0.00000000000E+00 0.  1.
          5    1    6    6  503    0 -0.35723860344E+02  0.38782396965E+01  0.10633522041E+03  0.11234101673E+03  0.47000000000E+01 0. -1.
         -5    1    6    6    0  503  0.48438570366E+02  0.21205959744E+01  0.28138555553E+03  0.28557085440E+03  0.47000000000E+01 0.  1.
<mgrwt>
<rscale>  0 0.35551180E+03</rscale>
<asrwt>0</asrwt>
<pdfrwt beam="1">  1        1 0.50234606E-01 0.35551180E+03</pdfrwt>
<pdfrwt beam="2">  1       -1 0.11975591E+00 0.35551180E+03</pdfrwt>
<totfact> 0.52050560E+01</totfact>
</mgrwt>
</event>
<event>
12    1  0.3127365E-008  0.4707914E+03  0.7818608E-02  0.1021697E+00
         -2   -1    0    0    0  501 -0.00000000000E+00  0.00000000000E+00  0.17999136888E+03  0.17999136888E+03  0.00000000000E+00 0.  1.
          2   -1    0    0  501    0  0.00000000000E+00 -0.00000000000E+00 -0.17517187199E+04  0.17517187199E+04  0.00000000000E+00 0. -1.
         23    2    1    2    0    0 -0.36088256050E+02  0.38570840348E+03 -0.68656219981E+03  0.79437581750E+03  0.97938503555E+02 0.  0.
    5000000    2    1    2    0    0  0.36088256050E+02 -0.38570840348E+03 -0.88516515119E+03  0.11373342713E+04  0.59994880195E+03 0.  0.
         23    2    4    4    0    0 -0.62262052503E+02  0.54439797589E+02 -0.55689187370E+03  0.57137034945E+03  0.97443637537E+02 0.  0.
         23    2    4    4    0    0  0.98350308553E+02 -0.44014820107E+03 -0.32827327750E+03  0.56596392181E+03  0.95648282677E+02 0.  0.
          2    1    3    3  502    0 -0.68768100624E+02  0.23999843290E+03 -0.45032194433E+03  0.51489625460E+03  0.00000000000E+00 0.  1.
         -2    1    3    3    0  502  0.32679844574E+02  0.14570997058E+03 -0.23624025549E+03  0.27947956290E+03  0.00000000000E+00 0. -1.
         11    1    5    5    0    0 -0.45579663567E+02  0.36892328897E+02 -0.53655755266E+03  0.53975231077E+03  0.00000000000E+00 0. -1.
        -11    1    5    5    0    0 -0.16682388937E+02  0.17547468692E+02 -0.20334321042E+02  0.31618038687E+02  0.00000000000E+00 0.  1.
          5    1    6    6  503    0  0.11014088562E+03 -0.31072462849E+03 -0.21596892070E+03  0.39413890209E+03  0.47000000000E+01 0. -1.
         -5    1    6    6    0  503 -0.11790577062E+02 -0.12942357258E+03 -0.11230435679E+03  0.17182501972E+03  0.47000000000E+01 0.  1.
<mgrwt>
<rscale>  0 0.47079142E+03</rscale>
<asrwt>0</asrwt>
<pdfrwt beam="1">  1        2 0.26949518E+00 0.47079142E+03</pdfrwt>
<pdfrwt beam="2">  1       -2 0.27690981E-01 0.47079142E+03</pdfrwt>
<totfact> 0.11525907E+02</totfact>
</mgrwt>
</event>
<event>
12    1  0.3127365E-008  0.9967290E+03  0.7818608E-02  0.9312140E-01
         -2   -1    0    0    0  501 -0.00000000000E+00  0.00000000000E+00  0.10214082783E+04  0.10214082783E+04  0.00000000000E+00 0.  1.
          2   -1    0    0  501    0  0.00000000000E+00 -0.00000000000E+00 -0.10311085300E+04  0.10311085300E+04  0.00000000000E+00 0. -1.
         23    2    1    2    0    0 -0.84142106563E+03  0.40957540975E+03 -0.19503136649E+02  0.94078658706E+03  0.94644619942E+02 0.  0.
    5000000    2    1    2    0    0  0.84142106563E+03 -0.40957540975E+03  0.98028849771E+01  0.11117302213E+04  0.60008879544E+03 0.  0.
         23    2    4    4    0    0  0.62256123283E+03 -0.51716131497E+03 -0.11619469477E+03  0.82231016058E+03  0.87489878119E+02 0.  0.
         23    2    4    4    0    0  0.21885983280E+03  0.10758590522E+03  0.12599757974E+03  0.28942006071E+03  0.91729101316E+02 0.  0.
          2    1    3    3  502    0 -0.55228255328E+03  0.23925284882E+03  0.24272854996E+02  0.60236792396E+03  0.00000000000E+00 0.  1.
         -2    1    3    3    0  502 -0.28913851235E+03  0.17032256094E+03 -0.43775991645E+02  0.33841866310E+03  0.00000000000E+00 0. -1.
         11    1    5    5    0    0  0.28691487116E+03 -0.20763071925E+03 -0.14045098101E+02  0.35444029631E+03  0.00000000000E+00 0. -1.
        -11    1    5    5    0    0  0.33564636167E+03 -0.30953059572E+03 -0.10214959667E+03  0.46786986427E+03  0.00000000000E+00 0.  1.
          5    1    6    6  503    0  0.16959887748E+03  0.93909138041E+02  0.54561655927E+02  0.20144917410E+03  0.47000000000E+01 0. -1.
         -5    1    6    6    0  503  0.49260955323E+02  0.13676767174E+02  0.71435923817E+02  0.87970886611E+02  0.47000000000E+01 0.  1.
<mgrwt>
<rscale>  0 0.99672903E+03</rscale>
<asrwt>0</asrwt>
<pdfrwt beam="1">  1        2 0.15863208E+00 0.99672903E+03</pdfrwt>
<pdfrwt beam="2">  1       -2 0.15713974E+00 0.99672903E+03</pdfrwt>
<totfact> 0.63109093E+00</totfact>
</mgrwt>
</event>
<event>
12    1  0.3127365E-008  0.3253523E+03  0.7818608E-02  0.1073212E+00
          1   -1    0    0  501    0  0.00000000000E+00  0.00000000000E+00  0.10873125923E+04  0.10873125923E+04  0.00000000000E+00 0. -1.
         -1   -1    0    0    0  501 -0.00000000000E+00 -0.00000000000E+00 -0.38676873821E+03  0.38676873821E+03  0.00000000000E+00 0.  1.
         23    2    1    2    0    0 -0.11627914284E+03 -0.27269150590E+03  0.74139222539E+03  0.80368125840E+03  0.91431049292E+02 0.  0.
    5000000    2    1    2    0    0  0.11627914284E+03  0.27269150590E+03 -0.40848371302E+02  0.67040007211E+03  0.59990513483E+03 0.  0.
         23    2    4    4    0    0  0.10865209815E+03  0.25201211071E+03  0.23922023584E+03  0.37522157192E+03  0.90826892616E+02 0.  0.
         23    2    4    4    0    0  0.76270446985E+01  0.20679395193E+02 -0.28006860714E+03  0.29517850019E+03  0.90587598886E+02 0.  0.
          2    1    3    3  502    0 -0.27963337687E+02 -0.11870538322E+03  0.40981999280E+03  0.42758080261E+03  0.00000000000E+00 0. -1.
         -2    1    3    3    0  502 -0.88315805158E+02 -0.15398612268E+03  0.33157223260E+03  0.37610045579E+03  0.00000000000E+00 0.  1.
         11    1    5    5    0    0  0.79941482976E+02  0.18042153743E+03  0.22038032735E+03  0.29582099410E+03  0.00000000000E+00 0.  1.
        -11    1    5    5    0    0  0.28710615169E+02  0.71590573278E+02  0.18839908493E+02  0.79400577818E+02  0.00000000000E+00 0. -1.
          5    1    6    6  503    0  0.91154465932E+01  0.47958480018E+02 -0.84867252230E+02  0.98018608812E+02  0.47000000000E+01 0. -1.
         -5    1    6    6    0  503 -0.14884018947E+01 -0.27279084825E+02 -0.19520135491E+03  0.19715989138E+03  0.47000000000E+01 0.  1.
<mgrwt>
<rscale>  0 0.32535235E+03</rscale>
<asrwt>0</asrwt>
<pdfrwt beam="1">  1        1 0.16727886E+00 0.32535235E+03</pdfrwt>
<pdfrwt beam="2">  1       -1 0.59502883E-01 0.32535235E+03</pdfrwt>
<totfact> 0.40763156E+01</totfact>
</mgrwt>
</event>
<event>
12    1  0.3127365E-008  0.1525534E+04  0.7818608E-02  0.8867649E-01
          2   -1    0    0  501    0  0.00000000000E+00  0.00000000000E+00  0.18781650391E+04  0.18781650391E+04  0.00000000000E+00 0. -1.
         -2   -1    0    0    0  501 -0.00000000000E+00 -0.00000000000E+00 -0.12875890679E+04  0.12875890679E+04  0.00000000000E+00 0.  1.
         23    2    1    2    0    0  0.29355013643E+03 -0.14630081075E+04  0.17885692597E+03  0.15055768343E+04  0.90594695640E+02 0.  0.
    5000000    2    1    2    0    0 -0.29355013643E+03  0.14630081075E+04  0.41171904522E+03  0.16601772726E+04  0.60009299209E+03 0.  0.
         23    2    4    4    0    0 -0.32289540267E+03  0.55334497463E+03 -0.23151927486E+02  0.64745138323E+03  0.90582448006E+02 0.  0.
         23    2    4    4    0    0  0.29345266240E+02  0.90966313289E+03  0.43487097270E+03  0.10127258894E+04  0.90292880158E+02 0.  0.
          3    1    3    3  502    0  0.18963753850E+02 -0.24137262750E+03  0.12245672937E+02  0.24242591811E+03  0.00000000000E+00 0. -1.
         -3    1    3    3    0  502  0.27458638258E+03 -0.12216354800E+04  0.16661125304E+03  0.12631509162E+04  0.00000000000E+00 0.  1.
         13    1    5    5    0    0 -0.25128428346E+03  0.48331010824E+03 -0.38620870267E+02  0.54609891362E+03  0.00000000000E+00 0. -1.
        -13    1    5    5    0    0 -0.71611119206E+02  0.70034866390E+02  0.15468942781E+02  0.10135246960E+03  0.00000000000E+00 0.  1.
          5    1    6    6  503    0  0.98433554728E+01  0.81948737913E+03  0.36638539398E+03  0.89772869127E+03  0.47000000000E+01 0. -1.
         -5    1    6    6    0  503  0.19501910767E+02  0.90175753761E+02  0.68485578723E+02  0.11499719815E+03  0.47000000000E+01 0.  1.
<mgrwt>
<rscale>  0 0.15255338E+04</rscale>
<asrwt>0</asrwt>
<pdfrwt beam="1">  1        2 0.28894847E+00 0.15255338E+04</pdfrwt>
<pdfrwt beam="2">  1       -2 0.19809062E+00 0.15255338E+04</pdfrwt>
<totfact> 0.10023500E+00</totfact>
</mgrwt>
</event>
<event>
12    1  0.3127365E-008  0.7545002E+03  0.7818608E-02  0.9628317E-01
         -1   -1    0    0    0  501 -0.00000000000E+00  0.00000000000E+00  0.13432072000E+04  0.13432072000E+04  0.00000000000E+00 0.  1.
          1   -1    0    0  501    0  0.00000000000E+00 -0.00000000000E+00 -0.45094692588E+03  0.45094692588E+03  0.00000000000E+00 0. -1.
         23    2    1    2    0    0 -0.26240845551E+03 -0.60310711510E+03  0.43204159455E+03  0.79199315917E+03  0.89425024214E+02 0.  0.
    5000000    2    1    2    0    0  0.26240845551E+03  0.60310711510E+03  0.46021867955E+03  0.10021609667E+04  0.59994081403E+03 0.  0.
         23    2    4    4    0    0 -0.65679894339E+02 -0.61444002776E+02  0.13467424178E+03  0.18759179331E+03  0.94680069296E+02 0.  0.
         23    2    4    4    0    0  0.32808834985E+03  0.66455111787E+03  0.32554443777E+03  0.81456917337E+03  0.90959351773E+02 0.  0.
          3    1    3    3  502    0 -0.92932994503E+02 -0.12441190018E+03  0.86313226040E+02  0.17766495254E+03  0.00000000000E+00 0. -1.
         -3    1    3    3    0  502 -0.16947546101E+03 -0.47869521492E+03  0.34572836851E+03  0.61432820663E+03  0.00000000000E+00 0.  1.
         11    1    5    5    0    0 -0.66059582904E+02 -0.35995398413E+02  0.31901413104E+02  0.81714364456E+02  0.00000000000E+00 0. -1.
        -11    1    5    5    0    0  0.37968856489E+00 -0.25448604363E+02  0.10277282868E+03  0.10587742886E+03  0.00000000000E+00 0.  1.
          5    1    6    6  503    0  0.37706709751E+01  0.49668142765E+02  0.35266573363E+02  0.61212446138E+02  0.47000000000E+01 0. -1.
         -5    1    6    6    0  503  0.32431767888E+03  0.61488297511E+03  0.29027786441E+03  0.75335672724E+03  0.47000000000E+01 0.  1.
<mgrwt>
<rscale>  0 0.75450020E+03</rscale>
<asrwt>0</asrwt>
<pdfrwt beam="1">  1        1 0.69376451E-01 0.75450020E+03</pdfrwt>
<pdfrwt beam="2">  1       -1 0.20664726E+00 0.75450020E+03</pdfrwt>
<totfact> 0.71492277E+00</totfact>
</mgrwt>
</event>
<event>
12    1  0.3127365E-008  0.7812081E+03  0.7818608E-02  0.9587623E-01
         -2   -1    0    0    0  501 -0.00000000000E+00  0.00000000000E+00  0.95222026123E+03  0.95222026123E+03  0.00000000000E+00 0.  1.
          2   -1    0    0  501    0  0.00000000000E+00 -0.00000000000E+00 -0.18525451868E+04  0.18525451868E+04  0.00000000000E+00 0. -1.
         23    2    1    2    0    0 -0.34090014559E+03 -0.58099633490E+03  0.69531874503E+03  0.97189894590E+03  0.85730702853E+02 0.  0.
    5000000    2    1    2    0    0  0.34090014559E+03  0.58099633490E+03 -0.15956436706E+04  0.18328665021E+04  0.59962591729E+03 0.  0.
         23    2    4    4    0    0  0.16544003718E+03  0.66114146535E+03 -0.11731891549E+04  0.13597184737E+04  0.89348147241E+02 0.  0.
         23    2    4    4    0    0  0.17546010841E+03 -0.80145130449E+02 -0.42245451570E+03  0.47314802845E+03  0.90508272578E+02 0.  0.
          4    1    3    3  502    0 -0.12580283480E+03 -0.25235589294E+03  0.23736893847E+03  0.36858359011E+03  0.00000000000E+00 0. -1.
         -4    1    3    3    0  502 -0.21509731079E+03 -0.32864044195E+03  0.45794980657E+03  0.60331535579E+03  0.00000000000E+00 0.  1.
         11    1    5    5    0    0  0.13996927791E+03  0.42160586234E+03 -0.81194681796E+03  0.92552716714E+03  0.00000000000E+00 0. -1.
        -11    1    5    5    0    0  0.25470759267E+02  0.23953560301E+03 -0.36124233695E+03  0.43419130656E+03  0.00000000000E+00 0.  1.
          5    1    6    6  503    0  0.17941546167E+03 -0.79735774935E+02 -0.42357606078E+03  0.46689021296E+03  0.47000000000E+01 0. -1.
         -5    1    6    6    0  503 -0.39553532535E+01 -0.40935551369E+00  0.11215450789E+01  0.62578154863E+01  0.47000000000E+01 0.  1.
<mgrwt>
<rscale>  0 0.78120812E+03</rscale>
<asrwt>0</asrwt>
<pdfrwt beam="1">  1        2 0.28500695E+00 0.78120812E+03</pdfrwt>
<pdfrwt beam="2">  1       -2 0.14649543E+00 0.78120812E+03</pdfrwt>
<totfact> 0.26468897E+00</totfact>
</mgrwt>
</event>
<event>
12    1  0.3127365E-008  0.1146074E+04  0.7818608E-02  0.9161413E-01
          2   -1    0    0  501    0  0.00000000000E+00  0.00000000000E+00  0.20336204151E+04  0.20336204151E+04  0.00000000000E+00 0. -1.
         -2   -1    0    0    0  501 -0.00000000000E+00 -0.00000000000E+00 -0.67806857741E+03  0.67806857741E+03  0.00000000000E+00 0.  1.
         23    2    1    2    0    0  0.10828399901E+04 -0.21719626390E+01  0.82629608205E+03  0.13653723139E+04  0.94494331761E+02 0.  0.
    5000000    2    1    2    0    0 -0.10828399901E+04  0.21719626390E+01  0.52925575568E+03  0.13463166787E+04  0.59992481434E+03 0.  0.
         23    2    4    4    0    0 -0.84175200121E+03 -0.22237515816E+03  0.48688961976E+03  0.10017631902E+04  0.92037192930E+02 0.  0.
         23    2    4    4    0    0 -0.24108798886E+03  0.22454712080E+03  0.42366135921E+02  0.34455348849E+03  0.91528078371E+02 0.  0.
          4    1    3    3  502    0  0.41913876861E+03 -0.40062082444E+02  0.29032102857E+03  0.51143775519E+03  0.00000000000E+00 0.  1.
         -4    1    3    3    0  502  0.66370122146E+03  0.37890119805E+02  0.53597505348E+03  0.85393455867E+03  0.00000000000E+00 0. -1.
         13    1    5    5    0    0 -0.63018215077E+02  0.34509961886E+01  0.20391011935E+02  0.66324943829E+02  0.00000000000E+00 0. -1.
        -13    1    5    5    0    0 -0.77873378613E+03 -0.22582615435E+03  0.46649860782E+03  0.93543824636E+03  0.00000000000E+00 0.  1.
          5    1    6    6  503    0 -0.11959677216E+03  0.82265666019E+02 -0.21470006871E+02  0.14681307473E+03  0.47000000000E+01 0. -1.
         -5    1    6    6    0  503 -0.12149121670E+03  0.14228145478E+03  0.63836142793E+02  0.19774041376E+03  0.47000000000E+01 0.  1.
<mgrwt>
<rscale>  0 0.11460740E+04</rscale>
<asrwt>0</asrwt>
<pdfrwt beam="1">  1        2 0.31286468E+00 0.11460740E+04</pdfrwt>
<pdfrwt beam="2">  1       -2 0.10431824E+00 0.11460740E+04</pdfrwt>
<totfact> 0.47019906E+00</totfact>
</mgrwt>
</event>
<event>
12    1  0.3127365E-008  0.7493943E+03  0.7818608E-02  0.9636301E-01
         -1   -1    0    0    0  501 -0.00000000000E+00  0.00000000000E+00  0.16645529796E+04  0.16645529796E+04  0.00000000000E+00 0.  1.
          1   -1    0    0  501    0  0.00000000000E+00 -0.00000000000E+00 -0.77788226094E+03  0.77788226094E+03  0.00000000000E+00 0. -1.
         23    2    1    2    0    0  0.49145910255E+03  0.45514351102E+03  0.12906322363E+04  0.14565451811E+04  0.84288967873E+02 0.  0.
    5000000    2    1    2    0    0 -0.49145910255E+03 -0.45514351102E+03 -0.40396151767E+03  0.98589005941E+03  0.60008885706E+03 0.  0.
         23    2    4    4    0    0 -0.50115432031E+03 -0.18370814028E+03 -0.72218800853E+02  0.54630398901E+03  0.91258751018E+02 0.  0.
         23    2    4    4    0    0  0.96952177604E+01 -0.27143537075E+03 -0.33174271682E+03  0.43958607040E+03  0.97013016572E+02 0.  0.
          3    1    3    3  502    0  0.19187273272E+03  0.23393538140E+03  0.59444829615E+03  0.66701550584E+03  0.00000000000E+00 0. -1.
         -3    1    3    3    0  502  0.29958636983E+03  0.22120812963E+03  0.69618394016E+03  0.78952967527E+03  0.00000000000E+00 0.  1.
         13    1    5    5    0    0 -0.13230495244E+03 -0.28528180446E+02  0.16724900860E+02  0.13637514373E+03  0.00000000000E+00 0. -1.
        -13    1    5    5    0    0 -0.36884936787E+03 -0.15517995983E+03 -0.88943701713E+02  0.40992884527E+03  0.00000000000E+00 0.  1.
          5    1    6    6  503    0  0.15886350049E+02  0.20309333460E+00 -0.21806367217E+02  0.27386584598E+02  0.47000000000E+01 0. -1.
         -5    1    6    6    0  503 -0.61911322883E+01 -0.27163846408E+03 -0.30993634960E+03  0.41219948580E+03  0.47000000000E+01 0.  1.
<mgrwt>
<rscale>  0 0.74939430E+03</rscale>
<asrwt>0</asrwt>
<pdfrwt beam="1">  1        1 0.11967419E+00 0.74939430E+03</pdfrwt>
<pdfrwt beam="2">  1       -1 0.25608507E+00 0.74939430E+03</pdfrwt>
<totfact> 0.15430799E+00</totfact>
</mgrwt>
</event>
<event>
12    1  0.3127365E-008  0.8723513E+03  0.7818608E-02  0.9460819E-01
          2   -1    0    0  501    0  0.00000000000E+00  0.00000000000E+00  0.15414381851E+04  0.15414381851E+04  0.00000000000E+00 0. -1.
         -2   -1    0    0    0  501 -0.00000000000E+00 -0.00000000000E+00 -0.53016917908E+03  0.53016917908E+03  0.00000000000E+00 0.  1.
         23    2    1    2    0    0  0.59846033264E+01  0.78027160019E+03  0.66382667014E+03  0.10280462070E+04  0.85752960556E+02 0.  0.
    5000000    2    1    2    0    0 -0.59846033264E+01 -0.78027160019E+03  0.34744233593E+03  0.10435611572E+04  0.59953659312E+03 0.  0.
         23    2    4    4    0    0  0.14201713487E+03 -0.36018952825E+01  0.14562227575E+03  0.22253625014E+03  0.90192545068E+02 0.  0.
         23    2    4    4    0    0 -0.14800173820E+03 -0.77666970491E+03  0.20182006018E+03  0.82102490707E+03  0.90720539583E+02 0.  0.
          3    1    3    3  502    0 -0.32519554260E+02  0.58795560665E+03  0.49964189652E+03  0.77226377719E+03  0.00000000000E+00 0. -1.
         -3    1    3    3    0  502  0.38504157586E+02  0.19231599354E+03  0.16418477361E+03  0.25578242983E+03  0.00000000000E+00 0.  1.
         11    1    5    5    0    0  0.31806708889E+02 -0.37574802552E+02  0.66233793144E+02  0.82525437724E+02  0.00000000000E+00 0.  1.
        -11    1    5    5    0    0  0.11021042598E+03  0.33972907270E+02  0.79388482604E+02  0.14001081242E+03  0.00000000000E+00 0. -1.
          5    1    6    6  503    0 -0.92295507074E+02 -0.65214655286E+03  0.17981756012E+03  0.68276645492E+03  0.47000000000E+01 0.  1.
         -5    1    6    6    0  503 -0.55706231123E+02 -0.12452315204E+03  0.22002500062E+02  0.13825845215E+03  0.47000000000E+01 0. -1.
<mgrwt>
<rscale>  0 0.87235128E+03</rscale>
<asrwt>0</asrwt>
<pdfrwt beam="1">  1        2 0.23714433E+00 0.87235128E+03</pdfrwt>
<pdfrwt beam="2">  1       -2 0.81564490E-01 0.87235128E+03</pdfrwt>
<totfact> 0.16079947E+01</totfact>
</mgrwt>
</event>
<event>
12    1  0.3127365E-008  0.7183291E+03  0.7818608E-02  0.9686390E-01
         -1   -1    0    0    0  501 -0.00000000000E+00  0.00000000000E+00  0.50387536663E+03  0.50387536663E+03  0.00000000000E+00 0.  1.
          1   -1    0    0  501    0  0.00000000000E+00 -0.00000000000E+00 -0.13202659325E+04  0.13202659325E+04  0.00000000000E+00 0. -1.
         23    2    1    2    0    0 -0.53189051786E+03 -0.45096940446E+03 -0.26564799056E+03  0.75196365836E+03  0.92733822600E+02 0.  0.
    5000000    2    1    2    0    0  0.53189051786E+03  0.45096940446E+03 -0.55074257533E+03  0.10721776408E+04  0.59997215133E+03 0.  0.
         23    2    4    4    0    0  0.28016241562E+03  0.12163573609E+03  0.64090531643E+02  0.32504892343E+03  0.90900907359E+02 0.  0.
         23    2    4    4    0    0  0.25172810224E+03  0.32933366838E+03 -0.61483310697E+03  0.74712871736E+03  0.91399498289E+02 0.  0.
          1    1    3    3  502    0 -0.50094074665E+03 -0.39673477266E+03 -0.25767988666E+03  0.68901308803E+03  0.00000000000E+00 0. -1.
         -1    1    3    3    0  502 -0.30949771210E+02 -0.54234631801E+02 -0.79681039003E+01  0.62950570326E+02  0.00000000000E+00 0.  1.
         13    1    5    5    0    0  0.19330264984E+03  0.11180955424E+03  0.12750603287E+02  0.22367357630E+03  0.00000000000E+00 0.  1.
        -13    1    5    5    0    0  0.86859765785E+02  0.98261818491E+01  0.51339928356E+02  0.10137534713E+03  0.00000000000E+00 0. -1.
          5    1    6    6  503    0  0.14224100991E+03  0.11210314488E+03 -0.26109165461E+03  0.31779012272E+03  0.47000000000E+01 0. -1.
         -5    1    6    6    0  503  0.10948709233E+03  0.21723052350E+03 -0.35374145236E+03  0.42933859464E+03  0.47000000000E+01 0.  1.
<mgrwt>
<rscale>  0 0.71832907E+03</rscale>
<asrwt>0</asrwt>
<pdfrwt beam="1">  1        1 0.20311784E+00 0.71832907E+03</pdfrwt>
<pdfrwt beam="2">  1       -1 0.77519286E-01 0.71832907E+03</pdfrwt>
<totfact> 0.15153561E+01</totfact>
</mgrwt>
</event>
<event>
12    1  0.3127365E-008  0.7135108E+03  0.7818608E-02  0.9694402E-01
         -2   -1    0    0    0  501 -0.00000000000E+00  0.00000000000E+00  0.45584061788E+03  0.45584061788E+03  0.00000000000E+00 0.  1.
          2   -1    0    0  501    0  0.00000000000E+00 -0.00000000000E+00 -0.11600920106E+04  0.11600920106E+04  0.00000000000E+00 0. -1.
         23    2    1    2    0    0 -0.22559209070E+02 -0.59839202198E+03 -0.27221869210E+03  0.66447487139E+03  0.94031422917E+02 0.  0.
    5000000    2    1    2    0    0  0.22559209070E+02  0.59839202198E+03 -0.43203270062E+03  0.95145775709E+03  0.60003139855E+03 0.  0.
         23    2    4    4    0    0  0.20105056729E+02  0.69318138188E+03 -0.42609107671E+03  0.81899476874E+03  0.91072411212E+02 0.  0.
         23    2    4    4    0    0  0.24541523402E+01 -0.94789359898E+02 -0.59416239065E+01  0.13246298835E+03  0.92304359452E+02 0.  0.
          1    1    3    3  502    0 -0.17821942982E+02 -0.41528185301E+03 -0.23522215046E+03  0.47760454264E+03  0.00000000000E+00 0. -1.
         -1    1    3    3    0  502 -0.47372660877E+01 -0.18311016898E+03 -0.36996541641E+02  0.18687032875E+03  0.00000000000E+00 0.  1.
         11    1    5    5    0    0  0.36745954882E+02  0.65235190319E+03 -0.41312806968E+03  0.77303820912E+03  0.00000000000E+00 0.  1.
        -11    1    5    5    0    0 -0.16640898152E+02  0.40829478690E+02 -0.12963007030E+02  0.45956559627E+02  0.00000000000E+00 0. -1.
          5    1    6    6  503    0  0.37542597727E+01  0.17401981085E+02  0.63923738425E+01  0.19490404189E+02  0.47000000000E+01 0. -1.
         -5    1    6    6    0  503 -0.13001074325E+01 -0.11219134098E+03 -0.12333997749E+02  0.11297258416E+03  0.47000000000E+01 0.  1.
<mgrwt>
<rscale>  0 0.71351078E+03</rscale>
<asrwt>0</asrwt>
<pdfrwt beam="1">  1        2 0.17847570E+00 0.71351078E+03</pdfrwt>
<pdfrwt beam="2">  1       -2 0.70129325E-01 0.71351078E+03</pdfrwt>
<totfact> 0.37860652E+01</totfact>
</mgrwt>
</event>
<event>
12    1  0.3127365E-008  0.1703970E+04  0.7818608E-02  0.8759103E-01
         -1   -1    0    0    0  501 -0.00000000000E+00  0.00000000000E+00  0.12596289981E+04  0.12596289981E+04  0.00000000000E+00 0.  1.
          1   -1    0    0  501    0  0.00000000000E+00 -0.00000000000E+00 -0.23777582092E+04  0.23777582092E+04  0.00000000000E+00 0. -1.
         23    2    1    2    0    0  0.34556016166E+03 -0.16412477256E+04 -0.51548370224E+03  0.17568794697E+04  0.88295535064E+02 0.  0.
    5000000    2    1    2    0    0 -0.34556016166E+03  0.16412477256E+04 -0.60264550881E+03  0.18805077376E+04  0.60001818287E+03 0.  0.
         23    2    4    4    0    0 -0.42823152321E+03  0.14301549263E+04 -0.65286484247E+03  0.16314183592E+04  0.81043258152E+02 0.  0.
         23    2    4    4    0    0  0.82671361551E+02  0.21109279932E+03  0.50219333652E+02  0.24908937836E+03  0.90159930103E+02 0.  0.
          2    1    3    3  502    0  0.18763021857E+03 -0.80630131393E+03 -0.29678485910E+03  0.87943627418E+03  0.00000000000E+00 0. -1.
         -2    1    3    3    0  502  0.15792994309E+03 -0.83494641168E+03 -0.21869884315E+03  0.87744319548E+03  0.00000000000E+00 0.  1.
         13    1    5    5    0    0 -0.40995809137E+03  0.13436029856E+04 -0.63283612980E+03  0.15407193731E+04  0.00000000000E+00 0.  1.
        -13    1    5    5    0    0 -0.18273431832E+02  0.86551940732E+02 -0.20028712664E+02  0.90698986137E+02  0.00000000000E+00 0. -1.
          5    1    6    6  503    0  0.75561805404E+01  0.11368925610E+03  0.53477557574E+02  0.12595349134E+03  0.47000000000E+01 0. -1.
         -5    1    6    6    0  503  0.75115181010E+02  0.97403543221E+02 -0.32582239222E+01  0.12313588702E+03  0.47000000000E+01 0.  1.
<mgrwt>
<rscale>  0 0.17039700E+04</rscale>
<asrwt>0</asrwt>
<pdfrwt beam="1">  1        1 0.36580895E+00 0.17039700E+04</pdfrwt>
<pdfrwt beam="2">  1       -1 0.19378908E+00 0.17039700E+04</pdfrwt>
<totfact> 0.25294155E-01</totfact>
</mgrwt>
</event>
<event>
12    1  0.3127365E-008  0.7139559E+03  0.7818608E-02  0.9693659E-01
         -2   -1    0    0    0  501 -0.00000000000E+00  0.00000000000E+00  0.11483035042E+04  0.11483035042E+04  0.00000000000E+00 0.  1.
          2   -1    0    0  501    0  0.00000000000E+00 -0.00000000000E+00 -0.12572843018E+04  0.12572843018E+04  0.00000000000E+00 0. -1.
         23    2    1    2    0    0 -0.60085541234E+03  0.36004856376E+03 -0.93145558371E+03  0.11698241253E+04  0.10107811300E+03 0.  0.
    5000000    2    1    2    0    0  0.60085541234E+03 -0.36004856376E+03  0.82247478616E+03  0.12357636807E+04  0.59998742138E+03 0.  0.
         23    2    4    4    0    0  0.44174263352E+03 -0.18111371005E+03  0.84909206262E+03  0.97852845995E+03  0.92854110826E+02 0.  0.
         23    2    4    4    0    0  0.15911277882E+03 -0.17893485371E+03 -0.26617276455E+02  0.25723522073E+03  0.90149437725E+02 0.  0.
          1    1    3    3  502    0 -0.19665579348E+03  0.14646943056E+03 -0.39587703961E+03  0.46566664653E+03  0.00000000000E+00 0. -1.
         -1    1    3    3    0  502 -0.40419961885E+03  0.21357913320E+03 -0.53557854410E+03  0.70415747878E+03  0.00000000000E+00 0.  1.
         13    1    5    5    0    0  0.27481990768E+03 -0.13056797585E+03  0.61970222772E+03  0.69036572121E+03  0.00000000000E+00 0. -1.
        -13    1    5    5    0    0  0.16692272583E+03 -0.50545734197E+02  0.22938983490E+03  0.28816273874E+03  0.00000000000E+00 0.  1.
          5    1    6    6  503    0  0.64655803706E+02 -0.11721521745E+03  0.19290731078E+02  0.13532923727E+03  0.47000000000E+01 0. -1.
         -5    1    6    6    0  503  0.94456975116E+02 -0.61719636263E+02 -0.45908007534E+02  0.12190598346E+03  0.47000000000E+01 0.  1.
<mgrwt>
<rscale>  0 0.71395592E+03</rscale>
<asrwt>0</asrwt>
<pdfrwt beam="1">  1        2 0.19342836E+00 0.71395592E+03</pdfrwt>
<pdfrwt beam="2">  1       -2 0.17666208E+00 0.71395592E+03</pdfrwt>
<totfact> 0.34523856E+00</totfact>
</mgrwt>
</event>
<event>
12    1  0.3127365E-008  0.5826885E+03  0.7818608E-02  0.9941987E-01
          2   -1    0    0  501    0  0.00000000000E+00  0.00000000000E+00  0.15443793093E+04  0.15443793093E+04  0.00000000000E+00 0. -1.
         -2   -1    0    0    0  501 -0.00000000000E+00 -0.00000000000E+00 -0.32370615097E+03  0.32370615097E+03  0.00000000000E+00 0.  1.
         23    2    1    2    0    0 -0.38378568132E+03 -0.42661043515E+03  0.55835053971E+03  0.80601784888E+03  0.92852221016E+02 0.  0.
    5000000    2    1    2    0    0  0.38378568132E+03  0.42661043515E+03  0.66232261860E+03  0.10620676114E+04  0.60002370573E+03 0.  0.
         23    2    4    4    0    0  0.26067699981E+03  0.32423824893E+03  0.74528226552E+03  0.85847192943E+03  0.91899173122E+02 0.  0.
         23    2    4    4    0    0  0.12310868151E+03  0.10237218622E+03 -0.82959646924E+02  0.20359568194E+03  0.94515007858E+02 0.  0.
          4    1    3    3  502    0 -0.65098145560E+02 -0.11352026750E+03  0.90385083525E+02  0.15904113623E+03  0.00000000000E+00 0. -1.
         -4    1    3    3    0  502 -0.31868753576E+03 -0.31309016765E+03  0.46796545619E+03  0.64697671265E+03  0.00000000000E+00 0.  1.
         13    1    5    5    0    0  0.22838766839E+03  0.22180399885E+03  0.54324788008E+03  0.62966356111E+03  0.00000000000E+00 0. -1.
        -13    1    5    5    0    0  0.32289331424E+02  0.10243425008E+03  0.20203438544E+03  0.22880836833E+03  0.00000000000E+00 0.  1.
          5    1    6    6  503    0  0.95699047024E+02  0.66618915852E+02 -0.92283139144E+01  0.11706254451E+03  0.47000000000E+01 0. -1.
         -5    1    6    6    0  503  0.27409634491E+02  0.35753270366E+02 -0.73731333010E+02  0.86533137422E+02  0.47000000000E+01 0.  1.
<mgrwt>
<rscale>  0 0.58268852E+03</rscale>
<asrwt>0</asrwt>
<pdfrwt beam="1">  1        2 0.23759681E+00 0.58268852E+03</pdfrwt>
<pdfrwt beam="2">  1       -2 0.49800947E-01 0.58268852E+03</pdfrwt>
<totfact> 0.47714036E+01</totfact>
</mgrwt>
</event>
<event>
12    1  0.3127365E-008  0.4112602E+03  0.7818608E-02  0.1039949E+00
         -2   -1    0    0    0  501 -0.00000000000E+00  0.00000000000E+00  0.11449182507E+04  0.11449182507E+04  0.00000000000E+00 0.  1.
          2   -1    0    0  501    0  0.00000000000E+00 -0.00000000000E+00 -0.27081345085E+03  0.27081345085E+03  0.00000000000E+00 0. -1.
         23    2    1    2    0    0 -0.14366121257E+03  0.18635172436E+03  0.70492114447E+03  0.74901396356E+03  0.93501810237E+02 0.  0.
    5000000    2    1    2    0    0  0.14366121257E+03 -0.18635172436E+03  0.16918365533E+03  0.66671773794E+03  0.60043644433E+03 0.  0.
         23    2    4    4    0    0  0.29796075115E+03  0.19913440318E+02  0.22684176636E+03  0.38764024853E+03  0.98135727335E+02 0.  0.
         23    2    4    4    0    0 -0.15429953858E+03 -0.20626516468E+03 -0.57658111037E+02  0.27907748941E+03  0.90587645753E+02 0.  0.
          3    1    3    3  502    0 -0.12928929252E+03  0.17923690030E+03  0.54228528280E+03  0.58558937450E+03  0.00000000000E+00 0. -1.
         -3    1    3    3    0  502 -0.14371920054E+02  0.71148240609E+01  0.16263586167E+03  0.16342458906E+03  0.00000000000E+00 0.  1.
         13    1    5    5    0    0  0.20851184131E+03 -0.31895582599E+02  0.15475344415E+03  0.26161640742E+03  0.00000000000E+00 0.  1.
        -13    1    5    5    0    0  0.89448909835E+02  0.51809022917E+02  0.72088322213E+02  0.12602384110E+03  0.00000000000E+00 0. -1.
          5    1    6    6  503    0 -0.12939412397E+03 -0.10475421219E+03 -0.51245249012E+02  0.17425398083E+03  0.47000000000E+01 0. -1.
         -5    1    6    6    0  503 -0.24905414610E+02 -0.10151095249E+03 -0.64128620249E+01  0.10482350858E+03  0.47000000000E+01 0.  1.
<mgrwt>
<rscale>  0 0.41126019E+03</rscale>
<asrwt>0</asrwt>
<pdfrwt beam="1">  1        2 0.41663608E-01 0.41126019E+03</pdfrwt>
<pdfrwt beam="2">  1       -2 0.17614127E+00 0.41126019E+03</pdfrwt>
<totfact> 0.24896106E+01</totfact>
</mgrwt>
</event>
<event>
12    1  0.3127365E-008  0.7801083E+03  0.7818608E-02  0.9589264E-01
         -2   -1    0    0    0  501 -0.00000000000E+00  0.00000000000E+00  0.65976775942E+03  0.65976775942E+03  0.00000000000E+00 0.  1.
          2   -1    0    0  501    0  0.00000000000E+00 -0.00000000000E+00 -0.11333232737E+04  0.11333232737E+04  0.00000000000E+00 0. -1.
         23    2    1    2    0    0 -0.11483887609E+03 -0.72031579056E+03 -0.42177012963E+03  0.84741880321E+03  0.90475301574E+02 0.  0.
    5000000    2    1    2    0    0  0.11483887609E+03  0.72031579056E+03 -0.51785384640E+02  0.94567222991E+03  0.59964275596E+03 0.  0.
         23    2    4    4    0    0  0.62280265254E+02  0.72939615485E+03 -0.19815384069E+03  0.76395788731E+03  0.92027859159E+02 0.  0.
         23    2    4    4    0    0  0.52558610832E+02 -0.90803642911E+01  0.14636845605E+03  0.18171434260E+03  0.93549541913E+02 0.  0.
          3    1    3    3  502    0 -0.85938370858E+02 -0.36546869740E+03 -0.17488673248E+03  0.41417163298E+03  0.00000000000E+00 0. -1.
         -3    1    3    3    0  502 -0.28900505228E+02 -0.35484709315E+03 -0.24688339715E+03  0.43324717023E+03  0.00000000000E+00 0.  1.
         13    1    5    5    0    0  0.84869636948E+02  0.61074887605E+03 -0.15612400022E+03  0.63607526938E+03  0.00000000000E+00 0.  1.
        -13    1    5    5    0    0 -0.22589371693E+02  0.11864727879E+03 -0.42029840468E+02  0.12788261793E+03  0.00000000000E+00 0. -1.
          5    1    6    6  503    0  0.25431785071E+01  0.28264734278E+02  0.99338102474E+02  0.10341910638E+03  0.47000000000E+01 0. -1.
         -5    1    6    6    0  503  0.50015432325E+02 -0.37345098569E+02  0.47030353575E+02  0.78295236223E+02  0.47000000000E+01 0.  1.
<mgrwt>
<rscale>  0 0.78010826E+03</rscale>
<asrwt>0</asrwt>
<pdfrwt beam="1">  1        2 0.17435743E+00 0.78010826E+03</pdfrwt>
<pdfrwt beam="2">  1       -2 0.10150273E+00 0.78010826E+03</pdfrwt>
<totfact> 0.16815793E+01</totfact>
</mgrwt>
</event>
<event>
12    1  0.3127365E-008  0.5949611E+03  0.7818608E-02  0.9915916E-01
          1   -1    0    0  501    0  0.00000000000E+00  0.00000000000E+00  0.44036786803E+03  0.44036786803E+03  0.00000000000E+00 0. -1.
         -1   -1    0    0    0  501 -0.00000000000E+00 -0.00000000000E+00 -0.12816057751E+04  0.12816057751E+04  0.00000000000E+00 0.  1.
         23    2    1    2    0    0  0.34365217229E+03 -0.35355028042E+03  0.90045870776E+02  0.50938704642E+03  0.90952118807E+02 0.  0.
    5000000    2    1    2    0    0 -0.34365217229E+03  0.35355028042E+03 -0.93128377783E+03  0.12125865967E+04  0.59998513591E+03 0.  0.
         23    2    4    4    0    0 -0.19707797633E+02 -0.11506808252E+03 -0.41609659983E+02  0.15235118706E+03  0.88602818767E+02 0.  0.
         23    2    4    4    0    0 -0.32394437466E+03  0.46861836294E+03 -0.88967411785E+03  0.10602354096E+04  0.89643515665E+02 0.  0.
          1    1    3    3  502    0  0.17636788016E+03 -0.12263350993E+03  0.19832578165E+02  0.21572653538E+03  0.00000000000E+00 0. -1.
         -1    1    3    3    0  502  0.16728429212E+03 -0.23091677049E+03  0.70213292611E+02  0.29366051104E+03  0.00000000000E+00 0.  1.
         13    1    5    5    0    0 -0.20941786280E+02 -0.42196828007E+02  0.25249451874E+02  0.53447783176E+02  0.00000000000E+00 0.  1.
        -13    1    5    5    0    0  0.12339886472E+01 -0.72871254512E+02 -0.66859111857E+02  0.98903403887E+02  0.00000000000E+00 0. -1.
          5    1    6    6  503    0 -0.29927710039E+03  0.43434334479E+03 -0.85824058637E+03  0.10073827069E+04  0.47000000000E+01 0. -1.
         -5    1    6    6    0  503 -0.24667274266E+02  0.34275018144E+02 -0.31433531474E+02  0.52852702764E+02  0.47000000000E+01 0.  1.
<mgrwt>
<rscale>  0 0.59496109E+03</rscale>
<asrwt>0</asrwt>
<pdfrwt beam="1">  1        1 0.67748902E-01 0.59496109E+03</pdfrwt>
<pdfrwt beam="2">  1       -1 0.19717012E+00 0.59496109E+03</pdfrwt>
<totfact> 0.87626378E+00</totfact>
</mgrwt>
</event>
<event>
12    1  0.3127365E-008  0.7065881E+03  0.7818608E-02  0.9706031E-01
         -2   -1    0    0    0  501 -0.00000000000E+00  0.00000000000E+00  0.24769828634E+03  0.24769828634E+03  0.00000000000E+00 0.  1.
          2   -1    0    0  501    0  0.00000000000E+00 -0.00000000000E+00 -0.25964192189E+04  0.25964192189E+04  0.00000000000E+00 0. -1.
         23    2    1    2    0    0 -0.40875471799E+03 -0.49065832738E+03 -0.56527550164E+03  0.85703890842E+03  0.84577089604E+02 0.  0.
    5000000    2    1    2    0    0  0.40875471799E+03  0.49065832738E+03 -0.17834454309E+04  0.19870785968E+04  0.59998144231E+03 0.  0.
         23    2    4    4    0    0  0.27168003588E+03  0.14005316862E+02 -0.11110257491E+04  0.11475610504E+04  0.92260275777E+02 0.  0.
         23    2    4    4    0    0  0.13707468212E+03  0.47665301052E+03 -0.67241968181E+03  0.83951754637E+03  0.81571571473E+02 0.  0.
          2    1    3    3  502    0 -0.15076859228E+03 -0.22048922857E+03 -0.19206929609E+03  0.32899435077E+03  0.00000000000E+00 0. -1.
         -2    1    3    3    0  502 -0.25798612571E+03 -0.27016909881E+03 -0.37320620555E+03  0.52804455766E+03  0.00000000000E+00 0.  1.
         13    1    5    5    0    0  0.19753758523E+03  0.12447449581E+02 -0.94827134832E+03  0.96870768895E+03  0.00000000000E+00 0. -1.
        -13    1    5    5    0    0  0.74142450642E+02  0.15578672813E+01 -0.16275440080E+03  0.17885336149E+03  0.00000000000E+00 0.  1.
          5    1    6    6  503    0  0.29399784764E+01  0.10716741204E+03 -0.17827235207E+03  0.20807839674E+03  0.47000000000E+01 0. -1.
         -5    1    6    6    0  503  0.13413470364E+03  0.36948559849E+03 -0.49414732973E+03  0.63143914964E+03  0.47000000000E+01 0. -1.
<mgrwt>
<rscale>  0 0.70658812E+03</rscale>
<asrwt>0</asrwt>
<pdfrwt beam="1">  1        2 0.39944913E+00 0.70658812E+03</pdfrwt>
<pdfrwt beam="2">  1       -2 0.38107426E-01 0.70658812E+03</pdfrwt>
<totfact> 0.20977446E+01</totfact>
</mgrwt>
</event>
<event>
12    1  0.3127365E-008  0.8727970E+03  0.7818608E-02  0.9460240E-01
         -2   -1    0    0    0  501 -0.00000000000E+00  0.00000000000E+00  0.17918824506E+04  0.17918824506E+04  0.00000000000E+00 0.  1.
          2   -1    0    0  501    0  0.00000000000E+00 -0.00000000000E+00 -0.46068325962E+03  0.46068325962E+03  0.00000000000E+00 0. -1.
         23    2    1    2    0    0  0.65595137871E+03 -0.46930388270E+03  0.59847053942E+03  0.10086143626E+04  0.92831030851E+02 0.  0.
    5000000    2    1    2    0    0 -0.65595137871E+03  0.46930388270E+03  0.73272865156E+03  0.12439513476E+04  0.60000444410E+03 0.  0.
         23    2    4    4    0    0 -0.11965666580E+03 -0.77723072744E+02 -0.13832615174E+02  0.17039300322E+03  0.92107766202E+02 0.  0.
         23    2    4    4    0    0 -0.53629471291E+03  0.54702695545E+03  0.74656126673E+03  0.10735583444E+04  0.91232038372E+02 0.  0.
          1    1    3    3  502    0  0.58081708932E+03 -0.38364873159E+03  0.48960691111E+03  0.85102865281E+03  0.00000000000E+00 0. -1.
         -1    1    3    3    0  502  0.75134289397E+02 -0.85655151110E+02  0.10886362830E+03  0.15758570976E+03  0.00000000000E+00 0.  1.
         13    1    5    5    0    0 -0.11721512422E+03 -0.29183904426E+02 -0.43233779564E+01  0.12087091139E+03  0.00000000000E+00 0.  1.
        -13    1    5    5    0    0 -0.24415415826E+01 -0.48539168318E+02 -0.95092372175E+01  0.49522091826E+02  0.00000000000E+00 0. -1.
          5    1    6    6  503    0 -0.24924490960E+03  0.26086892982E+03  0.28918748759E+03  0.46241444234E+03  0.47000000000E+01 0. -1.
         -5    1    6    6    0  503 -0.28704980331E+03  0.28615802563E+03  0.45737377915E+03  0.61114390209E+03  0.47000000000E+01 0.  1.
<mgrwt>
<rscale>  0 0.87279699E+03</rscale>
<asrwt>0</asrwt>
<pdfrwt beam="1">  1        2 0.70874349E-01 0.87279699E+03</pdfrwt>
<pdfrwt beam="2">  1       -2 0.27567422E+00 0.87279699E+03</pdfrwt>
<totfact> 0.30855409E+00</totfact>
</mgrwt>
</event>
<event>
12    1  0.3127365E-008  0.6409824E+03  0.7818608E-02  0.9823849E-01
          1   -1    0    0  501    0  0.00000000000E+00  0.00000000000E+00  0.23391564953E+04  0.23391564953E+04  0.00000000000E+00 0. -1.
         -1   -1    0    0    0  501 -0.00000000000E+00 -0.00000000000E+00 -0.42937640549E+03  0.42937640549E+03  0.00000000000E+00 0.  1.
         23    2    1    2    0    0  0.26210988320E+03  0.46626090944E+03 -0.14534087277E+03  0.56168004768E+03  0.90882782273E+02 0.  0.
    5000000    2    1    2    0    0 -0.26210988320E+03 -0.46626090944E+03  0.20551209625E+04  0.22068528531E+04  0.60048023939E+03 0.  0.
         23    2    4    4    0    0  0.11994024503E+03 -0.30410907253E+03  0.12640984470E+04  0.13088199287E+04  0.90535803219E+02 0.  0.
         23    2    4    4    0    0 -0.38205012824E+03 -0.16215183692E+03  0.79102251554E+03  0.89803292438E+03  0.92146592347E+02 0.  0.
          2    1    3    3  502    0  0.35125550140E+02  0.87088181605E+02  0.71817239656E+01  0.94179258900E+02  0.00000000000E+00 0.  1.
         -2    1    3    3    0  502  0.22698433306E+03  0.37917272784E+03 -0.15252259673E+03  0.46750078878E+03  0.00000000000E+00 0. -1.
         11    1    5    5    0    0  0.27953194003E+02 -0.11987365473E+03  0.63679164811E+03  0.64857896763E+03  0.00000000000E+00 0.  1.
        -11    1    5    5    0    0  0.91987051029E+02 -0.18423541780E+03  0.62730679890E+03  0.66024096107E+03  0.00000000000E+00 0. -1.
          5    1    6    6  503    0 -0.84302459783E+02 -0.18198961438E+02  0.10143507348E+03  0.13322639023E+03  0.47000000000E+01 0. -1.
         -5    1    6    6    0  503 -0.29774766845E+03 -0.14395287548E+03  0.68958744206E+03  0.76480653415E+03  0.47000000000E+01 0.  1.
<mgrwt>
<rscale>  0 0.64098242E+03</rscale>
<asrwt>0</asrwt>
<pdfrwt beam="1">  1        1 0.35987022E+00 0.64098242E+03</pdfrwt>
<pdfrwt beam="2">  1       -1 0.66057910E-01 0.64098242E+03</pdfrwt>
<totfact> 0.43880230E+00</totfact>
</mgrwt>
</event>
<event>
12    1  0.3127365E-008  0.1106555E+04  0.7818608E-02  0.9198827E-01
         -1   -1    0    0    0  501 -0.00000000000E+00  0.00000000000E+00  0.42687247448E+03  0.42687247448E+03  0.00000000000E+00 0.  1.
          1   -1    0    0  501    0  0.00000000000E+00 -0.00000000000E+00 -0.29591928814E+04  0.29591928814E+04  0.00000000000E+00 0. -1.
         23    2    1    2    0    0  0.92462834058E+03  0.45379901244E+03 -0.14110297454E+04  0.17495599391E+04  0.95309633881E+02 0.  0.
    5000000    2    1    2    0    0 -0.92462834058E+03 -0.45379901244E+03 -0.11212906616E+04  0.16365054168E+04  0.59998843285E+03 0.  0.
         23    2    4    4    0    0 -0.56947098937E+03  0.38953754884E+02 -0.55583690389E+03  0.80224248225E+03  0.93934731765E+02 0.  0.
         23    2    4    4    0    0 -0.35515735120E+03 -0.49275276732E+03 -0.56545375767E+03  0.83426293453E+03  0.85525774233E+02 0.  0.
          3    1    3    3  502    0  0.60125647378E+03  0.27773441838E+03 -0.97800063683E+03  0.11811566365E+04  0.00000000000E+00 0. -1.
         -3    1    3    3    0  502  0.32337186679E+03  0.17606459406E+03 -0.43302910853E+03  0.56840330255E+03  0.00000000000E+00 0.  1.
         13    1    5    5    0    0 -0.25174610544E+03  0.51053295511E+02 -0.29351577422E+03  0.39004365179E+03  0.00000000000E+00 0. -1.
        -13    1    5    5    0    0 -0.31772488394E+03 -0.12099540627E+02 -0.26232112967E+03  0.41219883046E+03  0.00000000000E+00 0.  1.
          5    1    6    6  503    0 -0.21093941047E+03 -0.30860157634E+03 -0.40143001793E+03  0.54854217441E+03  0.47000000000E+01 0. -1.
         -5    1    6    6    0  503 -0.14421794073E+03 -0.18415119098E+03 -0.16402373974E+03  0.28572076012E+03  0.47000000000E+01 0.  1.
<mgrwt>
<rscale>  0 0.11065548E+04</rscale>
<asrwt>0</asrwt>
<pdfrwt beam="1">  1        1 0.45526044E+00 0.11065548E+04</pdfrwt>
<pdfrwt beam="2">  1       -1 0.65672689E-01 0.11065548E+04</pdfrwt>
<totfact> 0.15214092E+00</totfact>
</mgrwt>
</event>
<event>
12    1  0.3127365E-008  0.1369495E+04  0.7818608E-02  0.8976200E-01
         -1   -1    0    0    0  501 -0.00000000000E+00  0.00000000000E+00  0.89748860923E+03  0.89748860923E+03  0.00000000000E+00 0.  1.
          1   -1    0    0  501    0  0.00000000000E+00 -0.00000000000E+00 -0.22194485579E+04  0.22194485579E+04  0.00000000000E+00 0. -1.
         23    2    1    2    0    0  0.83053249508E+03 -0.10379593137E+04 -0.39869665465E+03  0.13908048373E+04  0.90748612305E+02 0.  0.
    5000000    2    1    2    0    0 -0.83053249508E+03  0.10379593137E+04 -0.92326329400E+03  0.17261323298E+04  0.59997828927E+03 0.  0.
         23    2    4    4    0    0 -0.80575032013E+03  0.71539822830E+03 -0.51636320577E+03  0.11985092103E+04  0.93622452116E+02 0.  0.
         23    2    4    4    0    0 -0.24782174952E+02  0.32256108544E+03 -0.40690008823E+03  0.52762311948E+03  0.90325325163E+02 0.  0.
          2    1    3    3  502    0  0.43136889923E+03 -0.47411169848E+03 -0.17083137276E+03  0.66335841578E+03  0.00000000000E+00 0. -1.
         -2    1    3    3    0  502  0.39916359585E+03 -0.56384761526E+03 -0.22786528188E+03  0.72744642151E+03  0.00000000000E+00 0.  1.
         11    1    5    5    0    0 -0.93557521410E+02  0.56082780243E+02 -0.74765505349E+02  0.13224284042E+03  0.00000000000E+00 0.  1.
        -11    1    5    5    0    0 -0.71219279872E+03  0.65931544805E+03 -0.44159770042E+03  0.10662663699E+04  0.00000000000E+00 0. -1.
          5    1    6    6  503    0 -0.41189216515E+01  0.27953733974E+03 -0.29803685017E+03  0.40866385194E+03  0.47000000000E+01 0. -1.
         -5    1    6    6    0  503 -0.20663253301E+02  0.43023745705E+02 -0.10886323806E+03  0.11895926754E+03  0.47000000000E+01 0.  1.
<mgrwt>
<rscale>  0 0.13694953E+04</rscale>
<asrwt>0</asrwt>
<pdfrwt beam="1">  1        1 0.34145362E+00 0.13694953E+04</pdfrwt>
<pdfrwt beam="2">  1       -1 0.13807517E+00 0.13694953E+04</pdfrwt>
<totfact> 0.88588342E-01</totfact>
</mgrwt>
</event>
<event>
12    1  0.3127365E-008  0.1011995E+04  0.7818608E-02  0.9295486E-01
          2   -1    0    0  501    0  0.00000000000E+00  0.00000000000E+00  0.22116190743E+04  0.22116190743E+04  0.00000000000E+00 0. -1.
         -2   -1    0    0    0  501 -0.00000000000E+00 -0.00000000000E+00 -0.67602410725E+03  0.67602410725E+03  0.00000000000E+00 0.  1.
         23    2    1    2    0    0  0.56825840897E+03 -0.83061666595E+03  0.13731226619E+04  0.17047856660E+04  0.89368099904E+02 0.  0.
    5000000    2    1    2    0    0 -0.56825840897E+03  0.83061666595E+03  0.16247230509E+03  0.11828575155E+04  0.59992748470E+03 0.  0.
         23    2    4    4    0    0 -0.32195056836E+03  0.52362723724E+03 -0.18633856450E+03  0.64927730416E+03  0.94875207684E+02 0.  0.
         23    2    4    4    0    0 -0.24630784061E+03  0.30698942871E+03  0.34881086959E+03  0.53358021132E+03  0.90159622271E+02 0.  0.
          2    1    3    3  502    0  0.23393207577E+03 -0.40379730195E+03  0.68201118794E+03  0.82638715964E+03  0.00000000000E+00 0. -1.
         -2    1    3    3    0  502  0.33432633320E+03 -0.42681936399E+03  0.69111147398E+03  0.87839850638E+03  0.00000000000E+00 0.  1.
         13    1    5    5    0    0 -0.75154609203E+02  0.13595005274E+03 -0.90644832285E+02  0.17985304485E+03  0.00000000000E+00 0.  1.
        -13    1    5    5    0    0 -0.24679595916E+03  0.38767718450E+03 -0.95693732215E+02  0.46942425931E+03  0.00000000000E+00 0. -1.
          5    1    6    6  503    0 -0.10079409522E+03  0.18317561860E+03  0.21729984668E+03  0.30158592515E+03  0.47000000000E+01 0. -1.
         -5    1    6    6    0  503 -0.14551374539E+03  0.12381381011E+03  0.13151102290E+03  0.23199428617E+03  0.47000000000E+01 0.  1.
<mgrwt>
<rscale>  0 0.10119951E+04</rscale>
<asrwt>0</asrwt>
<pdfrwt beam="1">  1        2 0.34024908E+00 0.10119951E+04</pdfrwt>
<pdfrwt beam="2">  1       -2 0.10400371E+00 0.10119951E+04</pdfrwt>
<totfact> 0.38321331E+00</totfact>
</mgrwt>
</event>
<event>
12    1  0.3127365E-008  0.1197283E+04  0.7818608E-02  0.9115238E-01
          3   -1    0    0  501    0  0.00000000000E+00  0.00000000000E+00  0.21237789075E+04  0.21237789075E+04  0.00000000000E+00 0. -1.
         -3   -1    0    0    0  501 -0.00000000000E+00 -0.00000000000E+00 -0.11136400204E+04  0.11136400204E+04  0.00000000000E+00 0.  1.
         23    2    1    2    0    0 -0.28739783862E+03  0.11420658571E+04 -0.45356944354E+03  0.12653139325E+04  0.91554181078E+02 0.  0.
    5000000    2    1    2    0    0  0.28739783862E+03 -0.11420658571E+04  0.14637083306E+04  0.19721049954E+04  0.59987006613E+03 0.  0.
         23    2    4    4    0    0  0.23718869562E+02 -0.62304730309E+03  0.11328533342E+04  0.12963245673E+04  0.91379320346E+02 0.  0.
         23    2    4    4    0    0  0.26367896906E+03 -0.51901855399E+03  0.33085499640E+03  0.67578042814E+03  0.91144392603E+02 0.  0.
          4    1    3    3  502    0 -0.23898237314E+03  0.10448830189E+04 -0.39824727877E+03  0.11434570359E+04  0.00000000000E+00 0. -1.
         -4    1    3    3    0  502 -0.48415465476E+02  0.97182838154E+02 -0.55322164768E+02  0.12185689658E+03  0.00000000000E+00 0.  1.
         13    1    5    5    0    0 -0.23899287316E+02 -0.33458124320E+03  0.54912976925E+03  0.64347438776E+03  0.00000000000E+00 0. -1.
        -13    1    5    5    0    0  0.47618156878E+02 -0.28846605990E+03  0.58372356498E+03  0.65285017951E+03  0.00000000000E+00 0.  1.
          5    1    6    6  503    0  0.40756629401E+02 -0.14685235655E+03  0.57281548880E+02  0.16288027292E+03  0.47000000000E+01 0. -1.
         -5    1    6    6    0  503  0.22292233966E+03 -0.37216619744E+03  0.27357344752E+03  0.51290015522E+03  0.47000000000E+01 0.  1.
<mgrwt>
<rscale>  0 0.11972834E+04</rscale>
<asrwt>0</asrwt>
<pdfrwt beam="1">  1        3 0.32673522E+00 0.11972834E+04</pdfrwt>
<pdfrwt beam="2">  1       -3 0.17132923E+00 0.11972834E+04</pdfrwt>
<totfact> 0.15527066E-02</totfact>
</mgrwt>
</event>
<event>
12    1  0.3127365E-008  0.5861507E+03  0.7818608E-02  0.9934563E-01
         -1   -1    0    0    0  501 -0.00000000000E+00  0.00000000000E+00  0.63761585167E+03  0.63761585167E+03  0.00000000000E+00 0.  1.
          1   -1    0    0  501    0  0.00000000000E+00 -0.00000000000E+00 -0.79105585283E+03  0.79105585283E+03  0.00000000000E+00 0. -1.
         23    2    1    2    0    0 -0.31010491479E+01 -0.53518973043E+03 -0.28583873224E+03  0.61385120900E+03  0.93122832254E+02 0.  0.
    5000000    2    1    2    0    0  0.31010491479E+01  0.53518973043E+03  0.13239873108E+03  0.81482049550E+03  0.59997112584E+03 0.  0.
         23    2    4    4    0    0 -0.14167437842E+03  0.39009020884E+03  0.31220387423E+03  0.52687555529E+03  0.88795220288E+02 0.  0.
         23    2    4    4    0    0  0.14477542756E+03  0.14509952158E+03 -0.17980514315E+03  0.28794494021E+03  0.92566751593E+02 0.  0.
          1    1    3    3  502    0 -0.67671930102E+00 -0.48156418208E+03 -0.28615703320E+03  0.56016994481E+03  0.00000000000E+00 0. -1.
         -1    1    3    3    0  502 -0.24243298469E+01 -0.53625548342E+02  0.31830096047E+00  0.53681264196E+02  0.00000000000E+00 0.  1.
         11    1    5    5    0    0 -0.78237839595E+02  0.27537586276E+03  0.25674682784E+03  0.38454123178E+03  0.00000000000E+00 0.  1.
        -11    1    5    5    0    0 -0.63436538821E+02  0.11471434609E+03  0.55457046393E+02  0.14233432351E+03  0.00000000000E+00 0. -1.
          5    1    6    6  503    0  0.89670178079E+02  0.13699485310E+03 -0.15906679369E+03  0.22832578800E+03  0.47000000000E+01 0. -1.
         -5    1    6    6    0  503  0.55105249484E+02  0.81046684868E+01 -0.20738349461E+02  0.59619152211E+02  0.47000000000E+01 0.  1.
<mgrwt>
<rscale>  0 0.58615073E+03</rscale>
<asrwt>0</asrwt>
<pdfrwt beam="1">  1        1 0.12170090E+00 0.58615073E+03</pdfrwt>
<pdfrwt beam="2">  1       -1 0.98094746E-01 0.58615073E+03</pdfrwt>
<totfact> 0.23501734E+01</totfact>
</mgrwt>
</event>
<event>
12    1  0.3127365E-008  0.4375554E+03  0.7818608E-02  0.1031500E+00
          2   -1    0    0  501    0  0.00000000000E+00  0.00000000000E+00  0.27368379797E+04  0.27368379797E+04  0.00000000000E+00 0. -1.
         -2   -1    0    0    0  501 -0.00000000000E+00 -0.00000000000E+00 -0.49761649568E+03  0.49761649568E+03  0.00000000000E+00 0.  1.
         23    2    1    2    0    0 -0.28592282139E+03 -0.16613938213E+03 -0.38873442081E+03  0.51869433588E+03  0.92602430121E+02 0.  0.
    5000000    2    1    2    0    0  0.28592282139E+03  0.16613938213E+03  0.26279559048E+04  0.27157601395E+04  0.59987227262E+03 0.  0.
         23    2    4    4    0    0 -0.96208528718E+02 -0.13896426823E+02  0.14875061958E+03  0.19887333855E+03  0.89300987014E+02 0.  0.
         23    2    4    4    0    0  0.38213135010E+03  0.18003580895E+03  0.24792052852E+04  0.25168868009E+04  0.99111357402E+02 0.  0.
          1    1    3    3  502    0 -0.21625331006E+03 -0.14284800540E+03 -0.24196459419E+03  0.35456721733E+03  0.00000000000E+00 0. -1.
         -1    1    3    3    0  502 -0.69669511324E+02 -0.23291376727E+02 -0.14676982662E+03  0.16412711855E+03  0.00000000000E+00 0.  1.
         13    1    5    5    0    0 -0.76772052751E+02  0.19286708106E+02  0.51867785607E+02  0.94637161712E+02  0.00000000000E+00 0. -1.
        -13    1    5    5    0    0 -0.19436475967E+02 -0.33183134928E+02  0.96882833977E+02  0.10423617684E+03  0.00000000000E+00 0.  1.
          5    1    6    6  503    0  0.28558816595E+03  0.11266833126E+03  0.15391762402E+04  0.15695032149E+04  0.47000000000E+01 0. -1.
         -5    1    6    6    0  503  0.96543184155E+02  0.67367477688E+02  0.94002904503E+03  0.94738358596E+03  0.47000000000E+01 0.  1.
<mgrwt>
<rscale>  0 0.43755537E+03</rscale>
<asrwt>0</asrwt>
<pdfrwt beam="1">  1        2 0.42105199E+00 0.43755537E+03</pdfrwt>
<pdfrwt beam="2">  1       -2 0.76556386E-01 0.43755537E+03</pdfrwt>
<totfact> 0.44036330E+00</totfact>
</mgrwt>
</event>
<event>
12    1  0.3127365E-008  0.6854361E+03  0.7818608E-02  0.9742468E-01
         -2   -1    0    0    0  501 -0.00000000000E+00  0.00000000000E+00  0.62771630294E+03  0.62771630294E+03  0.00000000000E+00 0.  1.
          2   -1    0    0  501    0  0.00000000000E+00 -0.00000000000E+00 -0.10531436165E+04  0.10531436165E+04  0.00000000000E+00 0. -1.
         23    2    1    2    0    0  0.56058995286E+03 -0.29538323577E+03  0.12055357139E+03  0.65145350066E+03  0.91357258713E+02 0.  0.
    5000000    2    1    2    0    0 -0.56058995286E+03  0.29538323577E+03 -0.54598088495E+03  0.10294064188E+04  0.60005841138E+03 0.  0.
         23    2    4    4    0    0 -0.13942609165E+03 -0.84264379242E+02 -0.39250865667E+03  0.43483712888E+03  0.92087797516E+02 0.  0.
         23    2    4    4    0    0 -0.42116386121E+03  0.37964761501E+03 -0.15347222828E+03  0.59456928990E+03  0.91910859329E+02 0.  0.
          1    1    3    3  502    0  0.44808336637E+03 -0.21053973935E+03  0.12446547977E+03  0.51048735608E+03  0.00000000000E+00 0. -1.
         -1    1    3    3    0  502  0.11250658649E+03 -0.84843496427E+02 -0.39119083875E+01  0.14096614458E+03  0.00000000000E+00 0.  1.
         11    1    5    5    0    0 -0.62097581853E+02 -0.38915564887E+02 -0.74772260453E+02  0.10469680891E+03  0.00000000000E+00 0.  1.
        -11    1    5    5    0    0 -0.77328509801E+02 -0.45348814355E+02 -0.31773639622E+03  0.33014031997E+03  0.00000000000E+00 0. -1.
          5    1    6    6  503    0 -0.30648074462E+03  0.22928087912E+03 -0.76559516111E+02  0.39036344330E+03  0.47000000000E+01 0. -1.
         -5    1    6    6    0  503 -0.11468311659E+03  0.15036673589E+03 -0.76912712173E+02  0.20420584660E+03  0.47000000000E+01 0.  1.
<mgrwt>
<rscale>  0 0.68543613E+03</rscale>
<asrwt>0</asrwt>
<pdfrwt beam="1">  1        2 0.16202209E+00 0.68543613E+03</pdfrwt>
<pdfrwt beam="2">  1       -2 0.96571740E-01 0.68543613E+03</pdfrwt>
<totfact> 0.21407329E+01</totfact>
</mgrwt>
</event>
<event>
12    1  0.3127365E-008  0.7125632E+03  0.7818608E-02  0.9695985E-01
         -2   -1    0    0    0  501 -0.00000000000E+00  0.00000000000E+00  0.24546921256E+03  0.24546921256E+03  0.00000000000E+00 0.  1.
          2   -1    0    0  501    0  0.00000000000E+00 -0.00000000000E+00 -0.25984267348E+04  0.25984267348E+04  0.00000000000E+00 0. -1.
         23    2    1    2    0    0  0.64174221627E+03 -0.22143641943E+03 -0.11390018820E+04  0.13291524424E+04  0.91944374329E+02 0.  0.
    5000000    2    1    2    0    0 -0.64174221627E+03  0.22143641943E+03 -0.12139556402E+04  0.15147435049E+04  0.59991035108E+03 0.  0.
         23    2    4    4    0    0 -0.38868327159E+03  0.52523213904E+01 -0.10679970198E+04  0.11400800092E+04  0.89791538973E+02 0.  0.
         23    2    4    4    0    0 -0.25305894468E+03  0.21618409803E+03 -0.14595862040E+03  0.37466349576E+03  0.91073719920E+02 0.  0.
          1    1    3    3  502    0  0.43713768298E+03 -0.10493414895E+03 -0.75623638742E+03  0.87976928973E+03  0.00000000000E+00 0. -1.
         -1    1    3    3    0  502  0.20460453330E+03 -0.11650227048E+03 -0.38276549454E+03  0.44938315265E+03  0.00000000000E+00 0.  1.
         13    1    5    5    0    0 -0.25753387241E+03  0.40049153523E+02 -0.76228283681E+03  0.80560707136E+03  0.00000000000E+00 0.  1.
        -13    1    5    5    0    0 -0.13114939918E+03 -0.34796832133E+02 -0.30571418303E+03  0.33447293783E+03  0.00000000000E+00 0. -1.
          5    1    6    6  503    0 -0.78900170653E+02  0.12306133628E+03 -0.77971747850E+02  0.16574381702E+03  0.47000000000E+01 0. -1.
         -5    1    6    6    0  503 -0.17415877403E+03  0.93122761756E+02 -0.67986872545E+02  0.20891967874E+03  0.47000000000E+01 0.  1.
<mgrwt>
<rscale>  0 0.71256322E+03</rscale>
<asrwt>0</asrwt>
<pdfrwt beam="1">  1        2 0.39975798E+00 0.71256322E+03</pdfrwt>
<pdfrwt beam="2">  1       -2 0.37764493E-01 0.71256322E+03</pdfrwt>
<totfact> 0.21269121E+01</totfact>
</mgrwt>
</event>
<event>
12    1  0.3127365E-008  0.8856572E+03  0.7818608E-02  0.9443690E-01
          2   -1    0    0  501    0  0.00000000000E+00  0.00000000000E+00  0.10627185192E+04  0.10627185192E+04  0.00000000000E+00 0. -1.
         -2   -1    0    0    0  501 -0.00000000000E+00 -0.00000000000E+00 -0.10813805567E+04  0.10813805567E+04  0.00000000000E+00 0.  1.
         23    2    1    2    0    0  0.22606101003E+03 -0.75793899600E+03 -0.59679336994E+03  0.99522865935E+03  0.93502171488E+02 0.  0.
    5000000    2    1    2    0    0 -0.22606101003E+03  0.75793899600E+03  0.57813133245E+03  0.11488704166E+04  0.60007690728E+03 0.  0.
         23    2    4    4    0    0 -0.40952388527E+03  0.51101083506E+03  0.47222638176E+03  0.81341836661E+03  0.99044421074E+02 0.  0.
         23    2    4    4    0    0  0.18346287523E+03  0.24692816094E+03  0.10590495069E+03  0.33545204999E+03  0.81731731948E+02 0.  0.
          3    1    3    3  502    0  0.34309034803E+02 -0.27003351017E+03 -0.20267446201E+03  0.33937021678E+03  0.00000000000E+00 0. -1.
         -3    1    3    3    0  502  0.19175197523E+03 -0.48790548583E+03 -0.39411890792E+03  0.65585844257E+03  0.00000000000E+00 0.  1.
         11    1    5    5    0    0 -0.18910083902E+03  0.16597641014E+03  0.15554755760E+03  0.29580794228E+03  0.00000000000E+00 0. -1.
        -11    1    5    5    0    0 -0.22042304625E+03  0.34503442493E+03  0.31667882417E+03  0.51761042433E+03  0.00000000000E+00 0.  1.
          5    1    6    6  503    0  0.43275734057E+02  0.22047081491E+02  0.38015225409E+02  0.61855560165E+02  0.47000000000E+01 0. -1.
         -5    1    6    6    0  503  0.14018714118E+03  0.22488107945E+03  0.67889725277E+02  0.27359648982E+03  0.47000000000E+01 0.  1.
<mgrwt>
<rscale>  0 0.88565719E+03</rscale>
<asrwt>0</asrwt>
<pdfrwt beam="1">  1        2 0.16349516E+00 0.88565719E+03</pdfrwt>
<pdfrwt beam="2">  1       -2 0.16636624E+00 0.88565719E+03</pdfrwt>
<totfact> 0.52187717E+00</totfact>
</mgrwt>
</event>
<event>
12    1  0.3127365E-008  0.7399010E+03  0.7818608E-02  0.9651329E-01
          2   -1    0    0  501    0  0.00000000000E+00  0.00000000000E+00  0.13314011415E+04  0.13314011415E+04  0.00000000000E+00 0. -1.
         -2   -1    0    0    0  501 -0.00000000000E+00 -0.00000000000E+00 -0.84982979584E+03  0.84982979584E+03  0.00000000000E+00 0.  1.
         23    2    1    2    0    0  0.34657480305E+02  0.69429495732E+03  0.92584053314E+03  0.11611991817E+04  0.89197634311E+02 0.  0.
    5000000    2    1    2    0    0 -0.34657480305E+02 -0.69429495732E+03 -0.44426918746E+03  0.10200317557E+04  0.59986918826E+03 0.  0.
         23    2    4    4    0    0 -0.17965865770E+03 -0.49198546476E+03 -0.52040577957E+03  0.74435078422E+03  0.94387412966E+02 0.  0.
         23    2    4    4    0    0  0.14500117740E+03 -0.20230949256E+03  0.76136592115E+02  0.27568097150E+03  0.90822602684E+02 0.  0.
          1    1    3    3  502    0 -0.27620754694E+02  0.16767682888E+03  0.20394135936E+03  0.26546280924E+03  0.00000000000E+00 0. -1.
         -1    1    3    3    0  502  0.62278234998E+02  0.52661812844E+03  0.72189917379E+03  0.89573637242E+03  0.00000000000E+00 0.  1.
         13    1    5    5    0    0 -0.28746627681E+02 -0.73974102031E+02 -0.36568034287E+02  0.87382821573E+02  0.00000000000E+00 0.  1.
        -13    1    5    5    0    0 -0.15091203002E+03 -0.41801136273E+03 -0.48383774529E+03  0.65696796264E+03  0.00000000000E+00 0. -1.
          5    1    6    6  503    0  0.10632166142E+03 -0.98882914876E+02  0.78515025210E+02  0.16513275183E+03  0.47000000000E+01 0. -1.
         -5    1    6    6    0  503  0.38679515974E+02 -0.10342657769E+03 -0.23784330952E+01  0.11054821967E+03  0.47000000000E+01 0.  1.
<mgrwt>
<rscale>  0 0.73990096E+03</rscale>
<asrwt>0</asrwt>
<pdfrwt beam="1">  1        2 0.20483095E+00 0.73990096E+03</pdfrwt>
<pdfrwt beam="2">  1       -2 0.13074305E+00 0.73990096E+03</pdfrwt>
<totfact> 0.69464903E+00</totfact>
</mgrwt>
</event>
<event>
12    1  0.3127365E-008  0.7695627E+03  0.7818608E-02  0.9605150E-01
         -2   -1    0    0    0  501 -0.00000000000E+00  0.00000000000E+00  0.64732439424E+03  0.64732439424E+03  0.00000000000E+00 0.  1.
          2   -1    0    0  501    0  0.00000000000E+00 -0.00000000000E+00 -0.10051306328E+04  0.10051306328E+04  0.00000000000E+00 0. -1.
         23    2    1    2    0    0 -0.58103430997E+03 -0.33528800837E+03 -0.32965482924E+03  0.75197617155E+03  0.82322161186E+02 0.  0.
    5000000    2    1    2    0    0  0.58103430997E+03  0.33528800837E+03 -0.28151409350E+02  0.90047885551E+03  0.60004228972E+03 0.  0.
         23    2    4    4    0    0  0.27319356330E+03  0.44650628509E+03 -0.12649946406E+03  0.54752415691E+03  0.98883781969E+02 0.  0.
         23    2    4    4    0    0  0.30784074668E+03 -0.11121827672E+03  0.98348054707E+02  0.35295469860E+03  0.88143343531E+02 0.  0.
          3    1    3    3  502    0 -0.11549583725E+03 -0.45021967846E+02 -0.32945814624E+02  0.12826415209E+03  0.00000000000E+00 0. -1.
         -3    1    3    3    0  502 -0.46553847272E+03 -0.29026604052E+03 -0.29670901461E+03  0.62371201946E+03  0.00000000000E+00 0.  1.
         13    1    5    5    0    0  0.14543750044E+03  0.17111797255E+03 -0.18611166692E+02  0.22534374318E+03  0.00000000000E+00 0. -1.
        -13    1    5    5    0    0  0.12775606285E+03  0.27538831254E+03 -0.10788829737E+03  0.32218041373E+03  0.00000000000E+00 0.  1.
          5    1    6    6  503    0  0.27283676304E+03 -0.65508727529E+02  0.89231991843E+02  0.29447534874E+03  0.47000000000E+01 0. -1.
         -5    1    6    6    0  503  0.35003983638E+02 -0.45709549194E+02  0.91160628641E+01  0.58479349861E+02  0.47000000000E+01 0.  1.
<mgrwt>
<rscale>  0 0.76956273E+03</rscale>
<asrwt>0</asrwt>
<pdfrwt beam="1">  1        2 0.15463548E+00 0.76956273E+03</pdfrwt>
<pdfrwt beam="2">  1       -2 0.99588368E-01 0.76956273E+03</pdfrwt>
<totfact> 0.21153414E+01</totfact>
</mgrwt>
</event>
<event>
12    1  0.3127365E-008  0.1039884E+04  0.7818608E-02  0.9265851E-01
         -2   -1    0    0    0  501 -0.00000000000E+00  0.00000000000E+00  0.35293003238E+03  0.35293003238E+03  0.00000000000E+00 0.  1.
          2   -1    0    0  501    0  0.00000000000E+00 -0.00000000000E+00 -0.36306647965E+04  0.36306647965E+04  0.00000000000E+00 0. -1.
         23    2    1    2    0    0  0.96747070368E+03  0.37460963943E+03 -0.12399775283E+04  0.16195315028E+04  0.94900334782E+02 0.  0.
    5000000    2    1    2    0    0 -0.96747070368E+03 -0.37460963943E+03 -0.20377572359E+04  0.23640633261E+04  0.60000742744E+03 0.  0.
         23    2    4    4    0    0 -0.50731633786E+03 -0.19479811544E+03 -0.16185897841E+04  0.17097437487E+04  0.89858915336E+02 0.  0.
         23    2    4    4    0    0 -0.46015436582E+03 -0.17981152399E+03 -0.41916745176E+03  0.65431957735E+03  0.91425008364E+02 0.  0.
          3    1    3    3  502    0  0.38643903438E+03  0.11780081533E+03 -0.42753696382E+03  0.58821765940E+03  0.00000000000E+00 0. -1.
         -3    1    3    3    0  502  0.58103166930E+03  0.25680882409E+03 -0.81244056444E+03  0.10313138434E+04  0.00000000000E+00 0.  1.
         13    1    5    5    0    0 -0.19690349291E+03 -0.10521900720E+03 -0.55685088751E+03  0.59993744333E+03  0.00000000000E+00 0.  1.
        -13    1    5    5    0    0 -0.31041284495E+03 -0.89579108240E+02 -0.10617388966E+04  0.11098063054E+04  0.00000000000E+00 0. -1.
          5    1    6    6  503    0 -0.10662295163E+03 -0.43750359997E+02 -0.51224188080E+02  0.12620838030E+03  0.47000000000E+01 0. -1.
         -5    1    6    6    0  503 -0.35353141419E+03 -0.13606116399E+03 -0.36794326368E+03  0.52811119705E+03  0.47000000000E+01 0.  1.
<mgrwt>
<rscale>  0 0.10398840E+04</rscale>
<asrwt>0</asrwt>
<pdfrwt beam="1">  1        2 0.55856382E+00 0.10398840E+04</pdfrwt>
<pdfrwt beam="2">  1       -2 0.54296928E-01 0.10398840E+04</pdfrwt>
<totfact> 0.21671783E+00</totfact>
</mgrwt>
</event>
<event>
12    1  0.3127365E-008  0.1199864E+04  0.7818608E-02  0.9112975E-01
         -2   -1    0    0    0  501 -0.00000000000E+00  0.00000000000E+00  0.12507500851E+04  0.12507500851E+04  0.00000000000E+00 0.  1.
          2   -1    0    0  501    0  0.00000000000E+00 -0.00000000000E+00 -0.22037375681E+04  0.22037375681E+04  0.00000000000E+00 0. -1.
         23    2    1    2    0    0 -0.11244458074E+04 -0.23407932881E+03  0.70465460378E+03  0.13504254405E+04  0.89102489929E+02 0.  0.
    5000000    2    1    2    0    0  0.11244458074E+04  0.23407932881E+03 -0.16576420869E+04  0.21040622127E+04  0.60010749108E+03 0.  0.
         23    2    4    4    0    0  0.50418833218E+03  0.35443308623E+03 -0.10607520735E+04  0.12300641052E+04  0.89632887600E+02 0.  0.
         23    2    4    4    0    0  0.62025747522E+03 -0.12035375742E+03 -0.59689001331E+03  0.87399810746E+03  0.91600444163E+02 0.  0.
          3    1    3    3  502    0 -0.98829698335E+03 -0.17866390469E+03  0.63000164790E+03  0.11855605402E+04  0.00000000000E+00 0. -1.
         -3    1    3    3    0  502 -0.13614882404E+03 -0.55415424117E+02  0.74652955874E+02  0.16486490027E+03  0.00000000000E+00 0.  1.
         11    1    5    5    0    0  0.45416368537E+03  0.32093920931E+03 -0.10017961965E+04  0.11458020110E+04  0.00000000000E+00 0.  1.
        -11    1    5    5    0    0  0.50024646815E+02  0.33493876921E+02 -0.58955877032E+02  0.84262094187E+02  0.00000000000E+00 0. -1.
          5    1    6    6  503    0  0.16430493637E+03 -0.25091091591E+02 -0.10558163079E+03  0.19696508766E+03  0.47000000000E+01 0. -1.
         -5    1    6    6    0  503  0.45595253884E+03 -0.95262665831E+02 -0.49130838251E+03  0.67703301980E+03  0.47000000000E+01 0.  1.
<mgrwt>
<rscale>  0 0.11998642E+04</rscale>
<asrwt>0</asrwt>
<pdfrwt beam="1">  1        2 0.33903655E+00 0.11998642E+04</pdfrwt>
<pdfrwt beam="2">  1       -2 0.19242309E+00 0.11998642E+04</pdfrwt>
<totfact> 0.74650428E-01</totfact>
</mgrwt>
</event>
<event>
12    1  0.3127365E-008  0.1351614E+04  0.7818608E-02  0.8989608E-01
         -2   -1    0    0    0  501 -0.00000000000E+00  0.00000000000E+00  0.81634546954E+03  0.81634546954E+03  0.00000000000E+00 0.  1.
          2   -1    0    0  501    0  0.00000000000E+00 -0.00000000000E+00 -0.26229149513E+04  0.26229149513E+04  0.00000000000E+00 0. -1.
         23    2    1    2    0    0  0.12765756712E+03 -0.13219706540E+04 -0.13879861420E+04  0.19229546924E+04  0.85710875323E+02 0.  0.
    5000000    2    1    2    0    0 -0.12765756712E+03  0.13219706540E+04 -0.41858333981E+03  0.15163057285E+04  0.60005681860E+03 0.  0.
         23    2    4    4    0    0  0.27087228651E+02  0.10882868403E+04 -0.51321589108E+03  0.12072545609E+04  0.94715675633E+02 0.  0.
         23    2    4    4    0    0 -0.15474479577E+03  0.23368381370E+03  0.94632551267E+02  0.30905116765E+03  0.89460761573E+02 0.  0.
          1    1    3    3  502    0  0.11126250444E+03 -0.72594367642E+03 -0.74904748863E+03  0.10490213089E+04  0.00000000000E+00 0. -1.
         -1    1    3    3    0  502  0.16395062683E+02 -0.59602697755E+03 -0.63893865336E+03  0.87393338351E+03  0.00000000000E+00 0.  1.
         13    1    5    5    0    0  0.48243241139E+02  0.99802298662E+03 -0.45611314186E+03  0.10983699242E+04  0.00000000000E+00 0. -1.
        -13    1    5    5    0    0 -0.21156012488E+02  0.90263853649E+02 -0.57102749225E+02  0.10888463670E+03  0.00000000000E+00 0.  1.
          5    1    6    6  503    0 -0.11438663171E+03  0.16432797733E+03  0.10804236841E+03  0.22755928682E+03  0.47000000000E+01 0. -1.
         -5    1    6    6    0  503 -0.40358164057E+02  0.69355836368E+02 -0.13409817140E+02  0.81491880823E+02  0.47000000000E+01 0.  1.
<mgrwt>
<rscale>  0 0.13516136E+04</rscale>
<asrwt>0</asrwt>
<pdfrwt beam="1">  1        2 0.40352537E+00 0.13516136E+04</pdfrwt>
<pdfrwt beam="2">  1       -2 0.12559161E+00 0.13516136E+04</pdfrwt>
<totfact> 0.13478022E+00</totfact>
</mgrwt>
</event>
<event>
12    1  0.3127365E-008  0.1157052E+04  0.7818608E-02  0.9151302E-01
          1   -1    0    0  501    0  0.00000000000E+00  0.00000000000E+00  0.25925971049E+04  0.25925971049E+04  0.00000000000E+00 0. -1.
         -1   -1    0    0    0  501 -0.00000000000E+00 -0.00000000000E+00 -0.71438837403E+03  0.71438837403E+03  0.00000000000E+00 0.  1.
         23    2    1    2    0    0  0.62470770378E+03 -0.91126776719E+03  0.17106679581E+04  0.20385569891E+04  0.93064902599E+02 0.  0.
    5000000    2    1    2    0    0 -0.62470770378E+03  0.91126776719E+03  0.16754077278E+03  0.12684284899E+04  0.60014353676E+03 0.  0.
         23    2    4    4    0    0 -0.14199317815E+03 -0.18575077889E+02 -0.79657229351E+02  0.18844617824E+03  0.93056927447E+02 0.  0.
         23    2    4    4    0    0 -0.48271452563E+03  0.92984284508E+03  0.24719800213E+03  0.10799823116E+04  0.87372257578E+02 0.  0.
          4    1    3    3  502    0  0.20066049429E+03 -0.36016002509E+03  0.59332462883E+03  0.72250535833E+03  0.00000000000E+00 0. -1.
         -4    1    3    3    0  502  0.42404720950E+03 -0.55110774210E+03  0.11173433293E+04  0.13160516307E+04  0.00000000000E+00 0.  1.
         13    1    5    5    0    0 -0.56306188589E+02 -0.40888250195E+02 -0.71105140425E+02  0.99489581727E+02  0.00000000000E+00 0. -1.
        -13    1    5    5    0    0 -0.85686989560E+02  0.22313172305E+02 -0.85520889266E+01  0.88956596513E+02  0.00000000000E+00 0.  1.
          5    1    6    6  503    0 -0.23722594886E+03  0.49553678549E+03  0.88866550110E+02  0.55655387009E+03  0.47000000000E+01 0. -1.
         -5    1    6    6    0  503 -0.24548857677E+03  0.43430605960E+03  0.15833145202E+03  0.52342844155E+03  0.47000000000E+01 0.  1.
<mgrwt>
<rscale>  0 0.11570524E+04</rscale>
<asrwt>0</asrwt>
<pdfrwt beam="1">  1        1 0.39886109E+00 0.11570524E+04</pdfrwt>
<pdfrwt beam="2">  1       -1 0.10990591E+00 0.11570524E+04</pdfrwt>
<totfact> 0.88959339E-01</totfact>
</mgrwt>
</event>
<event>
12    1  0.3127365E-008  0.1331968E+04  0.7818608E-02  0.9004591E-01
          2   -1    0    0  501    0  0.00000000000E+00  0.00000000000E+00  0.17162240952E+04  0.17162240952E+04  0.00000000000E+00 0.  1.
         -2   -1    0    0    0  501 -0.00000000000E+00 -0.00000000000E+00 -0.11385950865E+04  0.11385950865E+04  0.00000000000E+00 0. -1.
         23    2    1    2    0    0  0.13020294217E+04  0.15252239551E+02  0.56162361872E+03  0.14210829826E+04  0.92425692369E+02 0.  0.
    5000000    2    1    2    0    0 -0.13020294217E+04 -0.15252239551E+02  0.16005389905E+02  0.14337361991E+04  0.59985837523E+03 0.  0.
         23    2    4    4    0    0 -0.15119775399E+03  0.11102092939E+03 -0.15891739231E+03  0.25946995060E+03  0.82966921776E+02 0.  0.
         23    2    4    4    0    0 -0.11508316677E+04 -0.12627316894E+03  0.17492278222E+03  0.11742662485E+04  0.89133619079E+02 0.  0.
          3    1    3    3  502    0  0.53466192012E+03  0.26977122514E+02  0.18690660632E+03  0.56703193336E+03  0.00000000000E+00 0. -1.
         -3    1    3    3    0  502  0.76736750158E+03 -0.11724882963E+02  0.37471701239E+03  0.85405104926E+03  0.00000000000E+00 0.  1.
         13    1    5    5    0    0 -0.44861632745E+02  0.79440824995E+02 -0.50114964963E+02  0.10409092411E+03  0.00000000000E+00 0.  1.
        -13    1    5    5    0    0 -0.10633612125E+03  0.31580104393E+02 -0.10880242735E+03  0.15537902649E+03  0.00000000000E+00 0. -1.
          5    1    6    6  503    0 -0.26926274509E+03 -0.51956906847E+02  0.10933784117E+02  0.27448785710E+03  0.47000000000E+01 0. -1.
         -5    1    6    6    0  503 -0.88156892262E+03 -0.74316262092E+02  0.16398899810E+03  0.89977839140E+03  0.47000000000E+01 0.  1.
<mgrwt>
<rscale>  0 0.13319683E+04</rscale>
<asrwt>0</asrwt>
<pdfrwt beam="1">  1        2 0.26403448E+00 0.13319683E+04</pdfrwt>
<pdfrwt beam="2">  1       -2 0.17516848E+00 0.13319683E+04</pdfrwt>
<totfact> 0.18021059E+00</totfact>
</mgrwt>
</event>
<event>
12    1  0.3127365E-008  0.7758972E+03  0.7818608E-02  0.9595575E-01
         -1   -1    0    0    0  501 -0.00000000000E+00  0.00000000000E+00  0.99096440394E+03  0.99096440394E+03  0.00000000000E+00 0.  1.
          1   -1    0    0  501    0  0.00000000000E+00 -0.00000000000E+00 -0.87276143341E+03  0.87276143341E+03  0.00000000000E+00 0. -1.
         23    2    1    2    0    0 -0.59759030324E+03  0.48800626672E+03  0.36079299633E+03  0.85668085135E+03  0.92011999147E+02 0.  0.
    5000000    2    1    2    0    0  0.59759030324E+03 -0.48800626672E+03 -0.24259002580E+03  0.10070449860E+04  0.60002116324E+03 0.  0.
         23    2    4    4    0    0  0.40848927430E+03 -0.37220273690E+03 -0.42697136732E+03  0.70436656585E+03  0.91811469897E+02 0.  0.
         23    2    4    4    0    0  0.18910102895E+03 -0.11580352982E+03  0.18438134152E+03  0.30267842016E+03  0.91913493358E+02 0.  0.
          4    1    3    3  502    0 -0.46298968239E+03  0.33778805681E+03  0.29459128913E+03  0.64439447930E+03  0.00000000000E+00 0. -1.
         -4    1    3    3    0  502 -0.13460062085E+03  0.15021820991E+03  0.66201707192E+02  0.21228637205E+03  0.00000000000E+00 0.  1.
         13    1    5    5    0    0  0.28348705282E+03 -0.28692903328E+03 -0.35267973545E+03  0.53579490018E+03  0.00000000000E+00 0. -1.
        -13    1    5    5    0    0  0.12500222147E+03 -0.85273703612E+02 -0.74291631872E+02  0.16857166567E+03  0.00000000000E+00 0.  1.
          5    1    6    6  503    0  0.10074991086E+03 -0.69136788506E+02  0.15693938889E+03  0.19895351681E+03  0.47000000000E+01 0. -1.
         -5    1    6    6    0  503  0.88351118082E+02 -0.46666741314E+02  0.27441952630E+02  0.10372490335E+03  0.47000000000E+01 0.  1.
<mgrwt>
<rscale>  0 0.77589718E+03</rscale>
<asrwt>0</asrwt>
<pdfrwt beam="1">  1        1 0.13427099E+00 0.77589718E+03</pdfrwt>
<pdfrwt beam="2">  1       -1 0.15245606E+00 0.77589718E+03</pdfrwt>
<totfact> 0.65926974E+00</totfact>
</mgrwt>
</event>
<event>
12    1  0.3127365E-008  0.4459367E+03  0.7818608E-02  0.1028941E+00
          1   -1    0    0  501    0  0.00000000000E+00  0.00000000000E+00  0.13658164167E+04  0.13658164167E+04  0.00000000000E+00 0. -1.
         -1   -1    0    0    0  501 -0.00000000000E+00 -0.00000000000E+00 -0.23548178890E+03  0.23548178890E+03  0.00000000000E+00 0.  1.
         23    2    1    2    0    0 -0.25058587415E+03 -0.31066834630E+03  0.34425948919E+03  0.53490450822E+03  0.91105078375E+02 0.  0.
    5000000    2    1    2    0    0  0.25058587415E+03  0.31066834630E+03  0.78607513866E+03  0.10663936974E+04  0.59997774339E+03 0.  0.
         23    2    4    4    0    0  0.29524045662E+03  0.19789217051E+03  0.83210392428E+03  0.90932769429E+03  0.90286634881E+02 0.  0.
         23    2    4    4    0    0 -0.44654582473E+02  0.11277617579E+03 -0.46028785614E+02  0.15706600313E+03  0.88535770579E+02 0.  0.
          4    1    3    3  502    0 -0.10455506571E+03 -0.17117657168E+03  0.12277533716E+03  0.23517432656E+03  0.00000000000E+00 0. -1.
         -4    1    3    3    0  502 -0.14603080844E+03 -0.13949177462E+03  0.22148415203E+03  0.29973018167E+03  0.00000000000E+00 0.  1.
         11    1    5    5    0    0  0.13698633850E+03  0.11636402265E+03  0.51782423994E+03  0.54813117607E+03  0.00000000000E+00 0. -1.
        -11    1    5    5    0    0  0.15825411812E+03  0.81528147858E+02  0.31427968433E+03  0.36119651823E+03  0.00000000000E+00 0.  1.
          5    1    6    6  503    0 -0.51466052023E+02  0.11190670609E+03 -0.14096341046E+02  0.12406716813E+03  0.47000000000E+01 0. -1.
         -5    1    6    6    0  503  0.68114695497E+01  0.86946970588E+00 -0.31932444568E+02  0.32998834996E+02  0.47000000000E+01 0.  1.
<mgrwt>
<rscale>  0 0.44593672E+03</rscale>
<asrwt>0</asrwt>
<pdfrwt beam="1">  1        1 0.21012560E+00 0.44593672E+03</pdfrwt>
<pdfrwt beam="2">  1       -1 0.36227968E-01 0.44593672E+03</pdfrwt>
<totfact> 0.63186202E+01</totfact>
</mgrwt>
</event>
<event>
12    1  0.3127365E-008  0.4877018E+03  0.7818608E-02  0.1017040E+00
          1   -1    0    0  501    0  0.00000000000E+00  0.00000000000E+00  0.21591351980E+04  0.21591351980E+04  0.00000000000E+00 0. -1.
         -1   -1    0    0    0  501 -0.00000000000E+00 -0.00000000000E+00 -0.46261213683E+03  0.46261213683E+03  0.00000000000E+00 0.  1.
         23    2    1    2    0    0  0.35079149779E+03  0.10526251251E+02 -0.32335401525E+03  0.48565215476E+03  0.90192679062E+02 0.  0.
    5000000    2    1    2    0    0 -0.35079149779E+03 -0.10526251251E+02  0.20198770764E+04  0.21360951801E+04  0.59986143198E+03 0.  0.
         23    2    4    4    0    0 -0.13945113805E+02 -0.21383822170E+03  0.35806761807E+03  0.42591079587E+03  0.85242804209E+02 0.  0.
         23    2    4    4    0    0 -0.33684638399E+03  0.20331197045E+03  0.16618094584E+04  0.17101843842E+04  0.91206953488E+02 0.  0.
          3    1    3    3  502    0  0.28271500124E+03  0.99849828055E+01 -0.30314431113E+03  0.41463712470E+03  0.00000000000E+00 0. -1.
         -3    1    3    3    0  502  0.68076496554E+02  0.54126844540E+00 -0.20209704126E+02  0.71015030067E+02  0.00000000000E+00 0.  1.
         13    1    5    5    0    0 -0.44762607811E+02 -0.13759380900E+03  0.19018990752E+03  0.23897269353E+03  0.00000000000E+00 0. -1.
        -13    1    5    5    0    0  0.30817494006E+02 -0.76244412700E+02  0.16787771055E+03  0.18693810234E+03  0.00000000000E+00 0.  1.
          5    1    6    6  503    0 -0.29699505936E+03  0.15612940207E+03  0.14962684797E+04  0.15334353292E+04  0.47000000000E+01 0. -1.
         -5    1    6    6    0  503 -0.39851324634E+02  0.47182568379E+02  0.16554097868E+03  0.17674905504E+03  0.47000000000E+01 0.  1.
<mgrwt>
<rscale>  0 0.48770182E+03</rscale>
<asrwt>0</asrwt>
<pdfrwt beam="1">  1        1 0.33217464E+00 0.48770182E+03</pdfrwt>
<pdfrwt beam="2">  1       -1 0.71171099E-01 0.48770182E+03</pdfrwt>
<totfact> 0.51677025E+00</totfact>
</mgrwt>
</event>
<event>
12    1  0.3127365E-008  0.3119175E+03  0.7818608E-02  0.1079430E+00
         -2   -1    0    0    0  501 -0.00000000000E+00  0.00000000000E+00  0.10531479717E+03  0.10531479717E+03  0.00000000000E+00 0.  1.
          2   -1    0    0  501    0  0.00000000000E+00 -0.00000000000E+00 -0.21444999534E+04  0.21444999534E+04  0.00000000000E+00 0. -1.
         23    2    1    2    0    0  0.25597299353E+03 -0.47027168589E+00 -0.37376540765E+03  0.46164431412E+03  0.88839733393E+02 0.  0.
    5000000    2    1    2    0    0 -0.25597299353E+03  0.47027168589E+00 -0.16654197486E+04  0.17881704365E+04  0.59867201057E+03 0.  0.
         23    2    4    4    0    0  0.23903192300E+00 -0.21173017901E+02  0.76012622787E+01  0.93096263302E+02  0.90337042399E+02 0.  0.
         23    2    4    4    0    0 -0.25621202545E+03  0.21643289587E+02 -0.16730210109E+04  0.16950741732E+04  0.90355496237E+02 0.  0.
          1    1    3    3  502    0  0.61602817312E+02  0.36147654513E+02 -0.77200244331E+02  0.10517336998E+03  0.00000000000E+00 0. -1.
         -1    1    3    3    0  502  0.19437017622E+03 -0.36617926199E+02 -0.29656516332E+03  0.35647094414E+03  0.00000000000E+00 0.  1.
         11    1    5    5    0    0 -0.35430367755E+02  0.77243306216E+01  0.24955004484E+02  0.44019637568E+02  0.00000000000E+00 0. -1.
        -11    1    5    5    0    0  0.35669399678E+02 -0.28897348522E+02 -0.17353742205E+02  0.49076625735E+02  0.00000000000E+00 0.  1.
          5    1    6    6  503    0 -0.22630503305E+03  0.49058674514E+02 -0.14065992792E+04  0.14255400183E+04  0.47000000000E+01 0. -1.
         -5    1    6    6    0  503 -0.29906992405E+02 -0.27415384927E+02 -0.26642173164E+03  0.26953415482E+03  0.47000000000E+01 0.  1.
<mgrwt>
<rscale>  0 0.31191751E+03</rscale>
<asrwt>0</asrwt>
<pdfrwt beam="1">  1        2 0.32992310E+00 0.31191751E+03</pdfrwt>
<pdfrwt beam="2">  1       -2 0.16202275E-01 0.31191751E+03</pdfrwt>
<totfact> 0.18659705E+02</totfact>
</mgrwt>
</event>
<event>
12    1  0.3127365E-008  0.8941715E+03  0.7818608E-02  0.9432897E-01
         -3   -1    0    0    0  501 -0.00000000000E+00  0.00000000000E+00  0.15445561278E+04  0.15445561278E+04  0.00000000000E+00 0.  1.
          3   -1    0    0  501    0  0.00000000000E+00 -0.00000000000E+00 -0.59863053501E+03  0.59863053501E+03  0.00000000000E+00 0. -1.
         23    2    1    2    0    0  0.71904971564E+03 -0.44304767738E+03  0.21924351745E+03  0.87771997391E+03  0.94873044969E+02 0.  0.
    5000000    2    1    2    0    0 -0.71904971564E+03  0.44304767738E+03  0.72668207536E+03  0.12654666889E+04  0.60001280329E+03 0.  0.
         23    2    4    4    0    0 -0.37564023112E+03  0.46393629067E+03  0.67486244434E+03  0.90583590171E+03  0.93578293489E+02 0.  0.
         23    2    4    4    0    0 -0.34340948452E+03 -0.20888613286E+02  0.51819631026E+02  0.35963078721E+03  0.91008904655E+02 0.  0.
          1    1    3    3  502    0  0.12140736106E+03 -0.59973765961E+02  0.69567491009E+02  0.15223743209E+03  0.00000000000E+00 0. -1.
         -1    1    3    3    0  502  0.59764235458E+03 -0.38307391142E+03  0.14967602644E+03  0.72548254182E+03  0.00000000000E+00 0.  1.
         11    1    5    5    0    0 -0.42790801978E+02  0.60898441355E+02  0.43633188598E+02  0.86275883308E+02  0.00000000000E+00 0.  1.
        -11    1    5    5    0    0 -0.33284942914E+03  0.40303784931E+03  0.63122925574E+03  0.81956001840E+03  0.00000000000E+00 0. -1.
          5    1    6    6  503    0 -0.22224378895E+03 -0.30032917294E+02  0.73631564560E+02  0.23608891365E+03  0.47000000000E+01 0. -1.
         -5    1    6    6    0  503 -0.12116569557E+03  0.91443040077E+01 -0.21811933534E+02  0.12354187356E+03  0.47000000000E+01 0.  1.
<mgrwt>
<rscale>  0 0.89417147E+03</rscale>
<asrwt>0</asrwt>
<pdfrwt beam="1">  1        3 0.92097006E-01 0.89417147E+03</pdfrwt>
<pdfrwt beam="2">  1       -3 0.23762402E+00 0.89417147E+03</pdfrwt>
<totfact> 0.23595955E-01</totfact>
</mgrwt>
</event>
<event>
12    1  0.3127365E-008  0.7448691E+03  0.7818608E-02  0.9643434E-01
         -2   -1    0    0    0  501 -0.00000000000E+00  0.00000000000E+00  0.35604199167E+03  0.35604199167E+03  0.00000000000E+00 0.  1.
          2   -1    0    0  501    0  0.00000000000E+00 -0.00000000000E+00 -0.22513087692E+04  0.22513087692E+04  0.00000000000E+00 0. -1.
         23    2    1    2    0    0  0.23340352547E+03 -0.58614445467E+03 -0.15421398636E+04  0.16678178883E+04  0.73339090918E+02 0.  0.
    5000000    2    1    2    0    0 -0.23340352547E+03  0.58614445467E+03 -0.35312691390E+03  0.93953287251E+03  0.59998406126E+03 0.  0.
         23    2    4    4    0    0  0.17562074604E+03  0.30446254584E+03 -0.11009311466E+03  0.37911105230E+03  0.89803161528E+02 0.  0.
         23    2    4    4    0    0 -0.40902427151E+03  0.28168190884E+03 -0.24303379924E+03  0.56042182022E+03  0.91441984617E+02 0.  0.
          3    1    3    3  502    0  0.13907634705E+03 -0.25815327218E+03 -0.67558183004E+03  0.73647549269E+03  0.00000000000E+00 0. -1.
         -3    1    3    3    0  502  0.94327178415E+02 -0.32799118249E+03 -0.86655803358E+03  0.93134239565E+03  0.00000000000E+00 0.  1.
         13    1    5    5    0    0  0.61601193307E+02  0.80497360245E+02  0.75033647782E+01  0.10164070300E+03  0.00000000000E+00 0. -1.
        -13    1    5    5    0    0  0.11401955274E+03  0.22396518559E+03 -0.11759647944E+03  0.27747034930E+03  0.00000000000E+00 0.  1.
          5    1    6    6  503    0 -0.29127150860E+03  0.15678756655E+03 -0.13348661791E+03  0.35673827928E+03  0.47000000000E+01 0. -1.
         -5    1    6    6    0  503 -0.11775276291E+03  0.12489434229E+03 -0.10954718133E+03  0.20368354093E+03  0.47000000000E+01 0.  1.
<mgrwt>
<rscale>  0 0.74486914E+03</rscale>
<asrwt>0</asrwt>
<pdfrwt beam="1">  1        2 0.34635519E+00 0.74486914E+03</pdfrwt>
<pdfrwt beam="2">  1       -2 0.54775692E-01 0.74486914E+03</pdfrwt>
<totfact> 0.15774636E+01</totfact>
</mgrwt>
</event>
<event>
12    1  0.3127365E-008  0.5727300E+03  0.7818608E-02  0.9963656E-01
         -2   -1    0    0    0  501 -0.00000000000E+00  0.00000000000E+00  0.17548916570E+03  0.17548916570E+03  0.00000000000E+00 0.  1.
          2   -1    0    0  501    0  0.00000000000E+00 -0.00000000000E+00 -0.38351463614E+04  0.38351463614E+04  0.00000000000E+00 0. -1.
         23    2    1    2    0    0  0.34260801131E+03 -0.25800668787E+03 -0.29658821926E+04  0.29981272218E+04  0.91443740809E+02 0.  0.
    5000000    2    1    2    0    0 -0.34260801131E+03  0.25800668787E+03 -0.69377500311E+03  0.10125083052E+04  0.59991800509E+03 0.  0.
         23    2    4    4    0    0 -0.23176863407E+03  0.43786134719E+03 -0.52068053633E+03  0.72439082231E+03  0.90523938450E+02 0.  0.
         23    2    4    4    0    0 -0.11083937725E+03 -0.17985465933E+03 -0.17309446678E+03  0.28811748293E+03  0.91743792747E+02 0.  0.
          1    1    3    3  502    0  0.11006777959E+03 -0.10576208018E+03 -0.13390498619E+04  0.13477221769E+04  0.00000000000E+00 0.  1.
         -1    1    3    3    0  502  0.23254023172E+03 -0.15224460769E+03 -0.16268323307E+04  0.16504050449E+04  0.00000000000E+00 0. -1.
         13    1    5    5    0    0 -0.99827891106E+02  0.18056503355E+03 -0.28220335990E+03  0.34958271628E+03  0.00000000000E+00 0.  1.
        -13    1    5    5    0    0 -0.13194074296E+03  0.25729631364E+03 -0.23847717643E+03  0.37480810603E+03  0.00000000000E+00 0. -1.
          5    1    6    6  503    0 -0.48447605286E+02 -0.30447098324E+02 -0.10044135014E+02  0.58285254589E+02  0.47000000000E+01 0. -1.
         -5    1    6    6    0  503 -0.62391771961E+02 -0.14940756100E+03 -0.16305033177E+03  0.22983222834E+03  0.47000000000E+01 0.  1.
<mgrwt>
<rscale>  0 0.57273000E+03</rscale>
<asrwt>0</asrwt>
<pdfrwt beam="1">  1        2 0.59002247E+00 0.57273000E+03</pdfrwt>
<pdfrwt beam="2">  1       -2 0.26998335E-01 0.57273000E+03</pdfrwt>
<totfact> 0.65770755E+00</totfact>
</mgrwt>
</event>
<event>
12    1  0.3127365E-008  0.6778468E+03  0.7818608E-02  0.9755886E-01
         -1   -1    0    0    0  501 -0.00000000000E+00  0.00000000000E+00  0.12660045247E+04  0.12660045247E+04  0.00000000000E+00 0.  1.
          1   -1    0    0  501    0  0.00000000000E+00 -0.00000000000E+00 -0.43261212449E+03  0.43261212449E+03  0.00000000000E+00 0. -1.
         23    2    1    2    0    0  0.45827305090E+03  0.40346999784E+03  0.25592976935E+03  0.66612956317E+03  0.73663557808E+02 0.  0.
    5000000    2    1    2    0    0 -0.45827305090E+03 -0.40346999784E+03  0.57746263089E+03  0.10324870860E+04  0.59980352152E+03 0.  0.
         23    2    4    4    0    0 -0.52143747521E+03 -0.35258785412E+03  0.25049849760E+03  0.68362348876E+03  0.91522356076E+02 0.  0.
         23    2    4    4    0    0  0.63164424305E+02 -0.50882143723E+02  0.32696413328E+03  0.34886359728E+03  0.90672642000E+02 0.  0.
          1    1    3    3  502    0  0.45581543705E+03  0.39805982414E+03  0.24342454238E+03  0.65228432763E+03  0.00000000000E+00 0. -1.
         -1    1    3    3    0  502  0.24576138485E+01  0.54101737030E+01  0.12505226973E+02  0.13845235534E+02  0.00000000000E+00 0.  1.
         11    1    5    5    0    0 -0.45016875750E+02 -0.22691359898E+02 -0.42900284983E+01  0.50594676210E+02  0.00000000000E+00 0.  1.
        -11    1    5    5    0    0 -0.47642059946E+03 -0.32989649422E+03  0.25478852610E+03  0.63302881255E+03  0.00000000000E+00 0. -1.
          5    1    6    6  503    0  0.32376496298E+02 -0.70610465784E+02  0.27015312996E+03  0.28113854061E+03  0.47000000000E+01 0. -1.
         -5    1    6    6    0  503  0.30787928007E+02  0.19728322060E+02  0.56811003325E+02  0.67725056670E+02  0.47000000000E+01 0.  1.
<mgrwt>
<rscale>  0 0.67784677E+03</rscale>
<asrwt>0</asrwt>
<pdfrwt beam="1">  1        1 0.66555712E-01 0.67784677E+03</pdfrwt>
<pdfrwt beam="2">  1       -1 0.19476992E+00 0.67784677E+03</pdfrwt>
<totfact> 0.92055860E+00</totfact>
</mgrwt>
</event>
<event>
12    1  0.3127365E-008  0.6481968E+03  0.7818608E-02  0.9810169E-01
          2   -1    0    0  501    0  0.00000000000E+00  0.00000000000E+00  0.15074247297E+04  0.15074247297E+04  0.00000000000E+00 0. -1.
         -2   -1    0    0    0  501 -0.00000000000E+00 -0.00000000000E+00 -0.29095945046E+03  0.29095945046E+03  0.00000000000E+00 0.  1.
         23    2    1    2    0    0 -0.50639106112E+03 -0.91453205491E+02  0.36879320749E+03  0.63939681143E+03  0.89578217273E+02 0.  0.
    5000000    2    1    2    0    0  0.50639106112E+03  0.91453205491E+02  0.84767207174E+03  0.11589873687E+04  0.59992348183E+03 0.  0.
         23    2    4    4    0    0  0.28420151648E+03  0.33002170507E+03  0.40626934910E+03  0.60277577858E+03  0.92730941086E+02 0.  0.
         23    2    4    4    0    0  0.22218954464E+03 -0.23856849958E+03  0.44140272264E+03  0.55621159013E+03  0.90839675832E+02 0.  0.
          1    1    3    3  502    0 -0.35468020453E+03 -0.10524858654E+03  0.26364885629E+03  0.45429729460E+03  0.00000000000E+00 0. -1.
         -1    1    3    3    0  502 -0.15171085659E+03  0.13795381052E+02  0.10514435119E+03  0.18509951684E+03  0.00000000000E+00 0.  1.
         13    1    5    5    0    0  0.78749348792E+02  0.81721229229E+02  0.55166771819E+02  0.12618713070E+03  0.00000000000E+00 0.  1.
        -13    1    5    5    0    0  0.20545216769E+03  0.24830047584E+03  0.35110257728E+03  0.47658864788E+03  0.00000000000E+00 0. -1.
          5    1    6    6  503    0 -0.77352671022E+01 -0.15421476420E+02  0.20304889030E+02  0.27056141828E+02  0.47000000000E+01 0. -1.
         -5    1    6    6    0  503  0.22992481174E+03 -0.22314702316E+03  0.42109783361E+03  0.52915544830E+03  0.47000000000E+01 0.  1.
<mgrwt>
<rscale>  0 0.64819680E+03</rscale>
<asrwt>0</asrwt>
<pdfrwt beam="1">  1        2 0.23191149E+00 0.64819680E+03</pdfrwt>
<pdfrwt beam="2">  1       -2 0.44762993E-01 0.64819680E+03</pdfrwt>
<totfact> 0.61425544E+01</totfact>
</mgrwt>
</event>
<event>
12    1  0.3127365E-008  0.6861997E+03  0.7818608E-02  0.9741128E-01
         -2   -1    0    0    0  501 -0.00000000000E+00  0.00000000000E+00  0.14673214473E+04  0.14673214473E+04  0.00000000000E+00 0.  1.
          2   -1    0    0  501    0  0.00000000000E+00 -0.00000000000E+00 -0.33622170926E+03  0.33622170926E+03  0.00000000000E+00 0. -1.
         23    2    1    2    0    0 -0.10660644757E+03  0.55666193497E+03  0.38759185258E+03  0.69272721191E+03  0.91684793894E+02 0.  0.
    5000000    2    1    2    0    0  0.10660644757E+03 -0.55666193497E+03  0.74350788544E+03  0.11108159446E+04  0.59989219250E+03 0.  0.
         23    2    4    4    0    0 -0.14215865516E+03  0.16466851212E+02  0.27902028271E+03  0.32687427096E+03  0.92272587627E+02 0.  0.
         23    2    4    4    0    0  0.24876510273E+03 -0.57312878618E+03  0.46448760273E+03  0.78394167367E+03  0.91951795755E+02 0.  0.
          3    1    3    3  502    0  0.12850173942E+02  0.13774430474E+03  0.85927561352E+02  0.16285627485E+03  0.00000000000E+00 0. -1.
         -3    1    3    3    0  502 -0.11945662151E+03  0.41891763023E+03  0.30166429123E+03  0.52987093706E+03  0.00000000000E+00 0.  1.
         11    1    5    5    0    0 -0.14656317002E+02  0.36076000933E+02  0.43834106340E+02  0.58632024953E+02  0.00000000000E+00 0. -1.
        -11    1    5    5    0    0 -0.12750233815E+03 -0.19609149722E+02  0.23518617637E+03  0.26824224601E+03  0.00000000000E+00 0.  1.
          5    1    6    6  503    0  0.23325903691E+03 -0.45563447387E+03  0.39406019739E+03  0.64600161087E+03  0.47000000000E+01 0. -1.
         -5    1    6    6    0  503  0.15506065818E+02 -0.11749431231E+03  0.70427405339E+02  0.13794006280E+03  0.47000000000E+01 0.  1.
<mgrwt>
<rscale>  0 0.68619971E+03</rscale>
<asrwt>0</asrwt>
<pdfrwt beam="1">  1        2 0.51726418E-01 0.68619971E+03</pdfrwt>
<pdfrwt beam="2">  1       -2 0.22574176E+00 0.68619971E+03</pdfrwt>
<totfact> 0.90506093E+00</totfact>
</mgrwt>
</event>
<event>
12    1  0.3127365E-008  0.5616904E+03  0.7818608E-02  0.9988237E-01
         -1   -1    0    0    0  501 -0.00000000000E+00  0.00000000000E+00  0.29853313693E+03  0.29853313693E+03  0.00000000000E+00 0.  1.
          1   -1    0    0  501    0  0.00000000000E+00 -0.00000000000E+00 -0.13690149412E+04  0.13690149412E+04  0.00000000000E+00 0. -1.
         23    2    1    2    0    0 -0.22318123921E+03  0.41922847772E+03 -0.24408667184E+03  0.54135892461E+03  0.89043808445E+02 0.  0.
    5000000    2    1    2    0    0  0.22318123921E+03 -0.41922847772E+03 -0.82639513240E+03  0.11261891535E+04  0.59984223969E+03 0.  0.
         23    2    4    4    0    0 -0.11319293994E+03 -0.89001870014E+02 -0.54227870883E+03  0.56799362051E+03  0.88411426701E+02 0.  0.
         23    2    4    4    0    0  0.33637417915E+03 -0.33022660771E+03 -0.28411642357E+03  0.55819553299E+03  0.93074755249E+02 0.  0.
          3    1    3    3  502    0 -0.30798565716E+02  0.82761034960E+02 -0.10752024670E+02  0.88958117068E+02  0.00000000000E+00 0.  1.
         -3    1    3    3    0  502 -0.19238267350E+03  0.33646744276E+03 -0.23333464717E+03  0.45240080755E+03  0.00000000000E+00 0. -1.
         11    1    5    5    0    0 -0.76780958492E+02 -0.10416661846E+03 -0.42442238399E+03  0.44371202375E+03  0.00000000000E+00 0.  1.
        -11    1    5    5    0    0 -0.36411981446E+02  0.15164748447E+02 -0.11785632484E+03  0.12428159676E+03  0.00000000000E+00 0. -1.
          5    1    6    6  503    0  0.20452688507E+02 -0.57668365298E+02 -0.53620039774E+02  0.81493260388E+02  0.47000000000E+01 0. -1.
         -5    1    6    6    0  503  0.31592149064E+03 -0.27255824241E+03 -0.23049638380E+03  0.47670227260E+03  0.47000000000E+01 0.  1.
<mgrwt>
<rscale>  0 0.56169040E+03</rscale>
<asrwt>0</asrwt>
<pdfrwt beam="1">  1        1 0.21061768E+00 0.56169040E+03</pdfrwt>
<pdfrwt beam="2">  1       -1 0.45928176E-01 0.56169040E+03</pdfrwt>
<totfact> 0.40145791E+01</totfact>
</mgrwt>
</event>
<event>
12    1  0.3127365E-008  0.3407999E+03  0.7818608E-02  0.1066456E+00
         -3   -1    0    0    0  501 -0.00000000000E+00  0.00000000000E+00  0.11347750907E+04  0.11347750907E+04  0.00000000000E+00 0.  1.
          3   -1    0    0  501    0  0.00000000000E+00 -0.00000000000E+00 -0.13222402786E+03  0.13222402786E+03  0.00000000000E+00 0. -1.
         23    2    1    2    0    0  0.39291710721E+02 -0.34468532767E+02  0.22840280010E+02  0.11686179220E+03  0.10199549893E+03 0.  0.
    5000000    2    1    2    0    0 -0.39291710721E+02  0.34468532767E+02  0.97971078280E+03  0.11501373263E+04  0.60020890797E+03 0.  0.
         23    2    4    4    0    0  0.25462087831E+03  0.83978646296E+02  0.37687898358E+03  0.47137593034E+03  0.90957653572E+02 0.  0.
         23    2    4    4    0    0 -0.29391258903E+03 -0.49510113529E+02  0.60283179923E+03  0.67876139599E+03  0.92059726250E+02 0.  0.
          3    1    3    3  502    0  0.38263735533E+02  0.21884776650E+02  0.38324523716E+02  0.58410838241E+02  0.00000000000E+00 0. -1.
         -3    1    3    3    0  502  0.10279751882E+01 -0.56353309416E+02 -0.15484243706E+02  0.58450953955E+02  0.00000000000E+00 0.  1.
         11    1    5    5    0    0  0.95946348171E+02  0.19318146394E+02  0.21239714875E+03  0.23386201339E+03  0.00000000000E+00 0. -1.
        -11    1    5    5    0    0  0.15867453013E+03  0.64660499902E+02  0.16448183482E+03  0.23751391696E+03  0.00000000000E+00 0.  1.
          5    1    6    6  503    0 -0.66470837965E+02  0.27044600536E+02  0.13733635596E+03  0.15502627966E+03  0.47000000000E+01 0.  1.
         -5    1    6    6    0  503 -0.22744175106E+03 -0.76554714064E+02  0.46549544327E+03  0.52373511633E+03  0.47000000000E+01 0. -1.
<mgrwt>
<rscale>  0 0.34079990E+03</rscale>
<asrwt>0</asrwt>
<pdfrwt beam="1">  1        3 0.20342159E-01 0.34079990E+03</pdfrwt>
<pdfrwt beam="2">  1       -3 0.17458078E+00 0.34079990E+03</pdfrwt>
<totfact> 0.12525536E+01</totfact>
</mgrwt>
</event>
<event>
12    1  0.3127365E-008  0.3681980E+03  0.7818608E-02  0.1055384E+00
         -2   -1    0    0    0  501 -0.00000000000E+00  0.00000000000E+00  0.11165864356E+04  0.11165864356E+04  0.00000000000E+00 0.  1.
          2   -1    0    0  501    0  0.00000000000E+00 -0.00000000000E+00 -0.44419712456E+03  0.44419712456E+03  0.00000000000E+00 0. -1.
         23    2    1    2    0    0  0.26128988366E+03 -0.23091846964E+03  0.77924038842E+03  0.85848677664E+03  0.90488782788E+02 0.  0.
    5000000    2    1    2    0    0 -0.26128988366E+03  0.23091846964E+03 -0.10685107736E+03  0.70229678355E+03  0.60017320544E+03 0.  0.
         23    2    4    4    0    0 -0.13751782727E+03  0.17207711189E+03  0.22721371966E+03  0.32981869060E+03  0.92911834619E+02 0.  0.
         23    2    4    4    0    0 -0.12377205639E+03  0.58841357747E+02 -0.33406479701E+03  0.37247809295E+03  0.91426548676E+02 0.  0.
          2    1    3    3  502    0  0.86016444130E+02 -0.50507852719E+02  0.31589846272E+03  0.33127286426E+03  0.00000000000E+00 0.  1.
         -2    1    3    3    0  502  0.17527343953E+03 -0.18041061692E+03  0.46334192569E+03  0.52721391238E+03  0.00000000000E+00 0. -1.
         13    1    5    5    0    0 -0.95264669650E+02  0.93953648046E+02  0.74469458712E+02  0.15312852623E+03  0.00000000000E+00 0.  1.
        -13    1    5    5    0    0 -0.42253157620E+02  0.78123463846E+02  0.15274426094E+03  0.17669016436E+03  0.00000000000E+00 0. -1.
          5    1    6    6  503    0 -0.50851084888E+01 -0.19174039818E+02 -0.24638425432E+02  0.31978807655E+02  0.47000000000E+01 0. -1.
         -5    1    6    6    0  503 -0.11868694790E+03  0.78015397565E+02 -0.30942637158E+03  0.34049928530E+03  0.47000000000E+01 0.  1.
<mgrwt>
<rscale>  0 0.36819798E+03</rscale>
<asrwt>0</asrwt>
<pdfrwt beam="1">  1        2 0.68338019E-01 0.36819798E+03</pdfrwt>
<pdfrwt beam="2">  1       -2 0.17178253E+00 0.36819798E+03</pdfrwt>
<totfact> 0.15586795E+01</totfact>
</mgrwt>
</event>
<event>
12    1  0.3127365E-008  0.9690657E+03  0.7818608E-02  0.9343139E-01
          2   -1    0    0  501    0  0.00000000000E+00  0.00000000000E+00  0.24215686208E+04  0.24215686208E+04  0.00000000000E+00 0.  1.
         -2   -1    0    0    0  501 -0.00000000000E+00 -0.00000000000E+00 -0.51671662852E+03  0.51671662852E+03  0.00000000000E+00 0. -1.
         23    2    1    2    0    0  0.94427228109E+03 -0.19669551786E+03  0.38970052156E+03  0.10446213522E+04  0.95015817092E+02 0.  0.
    5000000    2    1    2    0    0 -0.94427228109E+03  0.19669551786E+03  0.15151514708E+04  0.18936638971E+04  0.59994975479E+03 0.  0.
         23    2    4    4    0    0 -0.47695117884E+03  0.12488417011E+03  0.12441419756E+04  0.13415329985E+04  0.93504266463E+02 0.  0.
         23    2    4    4    0    0 -0.46732110224E+03  0.71811347757E+02  0.27100949521E+03  0.55213089859E+03  0.88636902073E+02 0.  0.
          3    1    3    3  502    0  0.33408236707E+03 -0.11450584957E+03  0.12860817071E+03  0.37584927716E+03  0.00000000000E+00 0. -1.
         -3    1    3    3    0  502  0.61018991402E+03 -0.82189668299E+02  0.26109235085E+03  0.66877207509E+03  0.00000000000E+00 0.  1.
         11    1    5    5    0    0 -0.33095633696E+03  0.59231895857E+02  0.74505833813E+03  0.81740592222E+03  0.00000000000E+00 0. -1.
        -11    1    5    5    0    0 -0.14599484188E+03  0.65652274249E+02  0.49908363743E+03  0.52412707631E+03  0.00000000000E+00 0.  1.
          5    1    6    6  503    0 -0.39100353025E+03  0.59735423787E+02  0.26138062105E+03  0.47412445685E+03  0.47000000000E+01 0. -1.
         -5    1    6    6    0  503 -0.76317571992E+02  0.12075923970E+02  0.96288741631E+01  0.78006441735E+02  0.47000000000E+01 0.  1.
<mgrwt>
<rscale>  0 0.96906572E+03</rscale>
<asrwt>0</asrwt>
<pdfrwt beam="1">  1        2 0.37254901E+00 0.96906572E+03</pdfrwt>
<pdfrwt beam="2">  1       -2 0.79494867E-01 0.96906572E+03</pdfrwt>
<totfact> 0.54877643E+00</totfact>
</mgrwt>
</event>
<event>
12    1  0.3127365E-008  0.6949172E+03  0.7818608E-02  0.9725964E-01
          1   -1    0    0  501    0  0.00000000000E+00  0.00000000000E+00  0.57333474238E+03  0.57333474238E+03  0.00000000000E+00 0. -1.
         -1   -1    0    0    0  501 -0.00000000000E+00 -0.00000000000E+00 -0.10262625938E+04  0.10262625938E+04  0.00000000000E+00 0.  1.
         23    2    1    2    0    0  0.53558384026E+03 -0.26247243225E+03 -0.45160778224E+03  0.75358784471E+03  0.90571646077E+02 0.  0.
    5000000    2    1    2    0    0 -0.53558384026E+03  0.26247243225E+03 -0.13200692159E+01  0.84600949151E+03  0.59999040783E+03 0.  0.
         23    2    4    4    0    0 -0.24030453709E+03  0.39898108845E+03 -0.11717542236E+03  0.48923315876E+03  0.93203135902E+02 0.  0.
         23    2    4    4    0    0 -0.29527930317E+03 -0.13650865619E+03  0.11585535314E+03  0.35677633274E+03  0.89679477342E+02 0.  0.
          1    1    3    3  502    0  0.12358669421E+02 -0.85068838840E+01 -0.35261006982E+02  0.38320260916E+02  0.00000000000E+00 0. -1.
         -1    1    3    3    0  502  0.52322517084E+03 -0.25396554837E+03 -0.41634677526E+03  0.71526758379E+03  0.00000000000E+00 0.  1.
         13    1    5    5    0    0 -0.11378583114E+02  0.59876648139E+01 -0.20600886080E+02  0.24284167494E+02  0.00000000000E+00 0.  1.
        -13    1    5    5    0    0 -0.22892595398E+03  0.39299342363E+03 -0.96574536278E+02  0.46494899127E+03  0.00000000000E+00 0. -1.
          5    1    6    6  503    0 -0.20141838674E+03 -0.88985212116E+02  0.32850362927E+02  0.22268581193E+03  0.47000000000E+01 0. -1.
         -5    1    6    6    0  503 -0.93860916435E+02 -0.47523444078E+02  0.83004990214E+02  0.13409052081E+03  0.47000000000E+01 0.  1.
<mgrwt>
<rscale>  0 0.69491724E+03</rscale>
<asrwt>0</asrwt>
<pdfrwt beam="1">  1        1 0.88205346E-01 0.69491724E+03</pdfrwt>
<pdfrwt beam="2">  1       -1 0.15788655E+00 0.69491724E+03</pdfrwt>
<totfact> 0.11498247E+01</totfact>
</mgrwt>
</event>
<event>
12    1  0.3127365E-008  0.1456508E+04  0.7818608E-02  0.8913901E-01
          1   -1    0    0  501    0  0.00000000000E+00  0.00000000000E+00  0.21627828066E+04  0.21627828066E+04  0.00000000000E+00 0. -1.
         -1   -1    0    0    0  501 -0.00000000000E+00 -0.00000000000E+00 -0.12138277929E+04  0.12138277929E+04  0.00000000000E+00 0.  1.
         23    2    1    2    0    0 -0.99477333773E+01  0.13968309344E+04  0.11907825629E+04  0.18374135608E+04  0.83005207042E+02 0.  0.
    5000000    2    1    2    0    0  0.99477333773E+01 -0.13968309344E+04 -0.24182754916E+03  0.15391970387E+04  0.59950925240E+03 0.  0.
         23    2    4    4    0    0  0.22911316521E+03 -0.11531494788E+04 -0.17298894398E+03  0.11919772998E+04  0.92941624218E+02 0.  0.
         23    2    4    4    0    0 -0.21916543184E+03 -0.24368145557E+03 -0.68838605180E+02  0.34721973890E+03  0.91698719806E+02 0.  0.
          3    1    3    3  502    0  0.55485358459E+01  0.75012547145E+03  0.58682043278E+03  0.95240602134E+03  0.00000000000E+00 0. -1.
         -3    1    3    3    0  502 -0.15496269223E+02  0.64670546297E+03  0.60396213013E+03  0.88500753942E+03  0.00000000000E+00 0.  1.
         11    1    5    5    0    0  0.28713006792E+02 -0.16095052712E+03 -0.56887824408E+02  0.17310613365E+03  0.00000000000E+00 0.  1.
        -11    1    5    5    0    0  0.20040015842E+03 -0.99219895172E+03 -0.11610111957E+03  0.10188711662E+04  0.00000000000E+00 0. -1.
          5    1    6    6  503    0 -0.37792146185E+02 -0.21184744959E+01 -0.54378481816E+01  0.38527839808E+02  0.47000000000E+01 0. -1.
         -5    1    6    6    0  503 -0.18137328565E+03 -0.24156298108E+03 -0.63400756999E+02  0.30869189909E+03  0.47000000000E+01 0.  1.
<mgrwt>
<rscale>  0 0.14565082E+04</rscale>
<asrwt>0</asrwt>
<pdfrwt beam="1">  1        1 0.33273582E+00 0.14565082E+04</pdfrwt>
<pdfrwt beam="2">  1       -1 0.18674274E+00 0.14565082E+04</pdfrwt>
<totfact> 0.40915864E-01</totfact>
</mgrwt>
</event>
<event>
12    1  0.3127365E-008  0.4940585E+03  0.7818608E-02  0.1015341E+00
          1   -1    0    0  501    0  0.00000000000E+00  0.00000000000E+00  0.14255151800E+04  0.14255151800E+04  0.00000000000E+00 0. -1.
         -1   -1    0    0    0  501 -0.00000000000E+00 -0.00000000000E+00 -0.22995660620E+03  0.22995660620E+03  0.00000000000E+00 0.  1.
         23    2    1    2    0    0  0.87156038895E+01 -0.39060538889E+03  0.61177132307E+03  0.73170509381E+03  0.92085074754E+02 0.  0.
    5000000    2    1    2    0    0 -0.87156038895E+01  0.39060538889E+03  0.58378725075E+03  0.92376669241E+03  0.59990733974E+03 0.  0.
         23    2    4    4    0    0 -0.12053678672E+03  0.44043203468E+03  0.61513270594E+03  0.77148541949E+03  0.91060487794E+02 0.  0.
         23    2    4    4    0    0  0.11182118283E+03 -0.49826645785E+02 -0.31345455189E+02  0.15228127292E+03  0.84972801301E+02 0.  0.
          2    1    3    3  502    0 -0.17343630221E+02 -0.33931883198E+03  0.55592185521E+03  0.65152680708E+03  0.00000000000E+00 0.  1.
         -2    1    3    3    0  502  0.26059234111E+02 -0.51286556913E+02  0.55849467861E+02  0.80178286729E+02  0.00000000000E+00 0. -1.
         11    1    5    5    0    0 -0.11726077064E+03  0.28294877195E+03  0.37318365010E+03  0.48277959006E+03  0.00000000000E+00 0. -1.
        -11    1    5    5    0    0 -0.32760160835E+01  0.15748326273E+03  0.24194905584E+03  0.28870582942E+03  0.00000000000E+00 0.  1.
          5    1    6    6  503    0  0.83043163659E+02 -0.20489061596E+02 -0.57656470695E+02  0.10325854584E+03  0.47000000000E+01 0. -1.
         -5    1    6    6    0  503  0.28778019175E+02 -0.29337584189E+02  0.26311015506E+02  0.49022727083E+02  0.47000000000E+01 0.  1.
<mgrwt>
<rscale>  0 0.49405850E+03</rscale>
<asrwt>0</asrwt>
<pdfrwt beam="1">  1        1 0.21931002E+00 0.49405850E+03</pdfrwt>
<pdfrwt beam="2">  1       -1 0.35377941E-01 0.49405850E+03</pdfrwt>
<totfact> 0.59496640E+01</totfact>
</mgrwt>
</event>
<event>
12    1  0.3127365E-008  0.9450980E+03  0.7818608E-02  0.9370899E-01
         -2   -1    0    0    0  501 -0.00000000000E+00  0.00000000000E+00  0.21842158818E+04  0.21842158818E+04  0.00000000000E+00 0.  1.
          2   -1    0    0  501    0  0.00000000000E+00 -0.00000000000E+00 -0.60258432894E+03  0.60258432894E+03  0.00000000000E+00 0. -1.
         23    2    1    2    0    0 -0.65673892526E+03 -0.58173953872E+03  0.20529986355E+01  0.88291573750E+03  0.99040788903E+02 0.  0.
    5000000    2    1    2    0    0  0.65673892526E+03  0.58173953872E+03  0.15795785543E+04  0.19038844733E+04  0.59998397617E+03 0.  0.
         23    2    4    4    0    0  0.26796103128E+03  0.54223249764E+03  0.65925692826E+03  0.89961052156E+03  0.94128620792E+02 0.  0.
         23    2    4    4    0    0  0.38877789398E+03  0.39507041076E+02  0.92032162600E+03  0.10042739517E+04  0.94155284974E+02 0.  0.
          4    1    3    3  502    0 -0.39901689286E+03 -0.34027747526E+03 -0.46344170869E+02  0.52645134926E+03  0.00000000000E+00 0. -1.
         -4    1    3    3    0  502 -0.25772203240E+03 -0.24146206345E+03  0.48397169505E+02  0.35646438824E+03  0.00000000000E+00 0.  1.
         13    1    5    5    0    0  0.24423108288E+03  0.40719199757E+03  0.50231639975E+03  0.69121336083E+03  0.00000000000E+00 0.  1.
        -13    1    5    5    0    0  0.23729948404E+02  0.13504050007E+03  0.15694052851E+03  0.20839716073E+03  0.00000000000E+00 0. -1.
          5    1    6    6  503    0  0.24543939898E+03  0.67451137353E+02  0.62231757042E+03  0.67237742597E+03  0.47000000000E+01 0. -1.
         -5    1    6    6    0  503  0.14333849500E+03 -0.27944096278E+02  0.29800405558E+03  0.33189652575E+03  0.47000000000E+01 0.  1.
<mgrwt>
<rscale>  0 0.94509799E+03</rscale>
<asrwt>0</asrwt>
<pdfrwt beam="1">  1        2 0.92705282E-01 0.94509799E+03</pdfrwt>
<pdfrwt beam="2">  1       -2 0.33603321E+00 0.94509799E+03</pdfrwt>
<totfact> 0.95734428E-01</totfact>
</mgrwt>
</event>
<event>
12    1  0.3127365E-008  0.7529137E+03  0.7818608E-02  0.9630790E-01
         -1   -1    0    0    0  501 -0.00000000000E+00  0.00000000000E+00  0.58466384385E+03  0.58466384385E+03  0.00000000000E+00 0.  1.
          1   -1    0    0  501    0  0.00000000000E+00 -0.00000000000E+00 -0.10616202674E+04  0.10616202674E+04  0.00000000000E+00 0. -1.
         23    2    1    2    0    0 -0.17204637396E+03  0.64038045587E+03 -0.10458170085E+03  0.67763644533E+03  0.92556668246E+02 0.  0.
    5000000    2    1    2    0    0  0.17204637396E+03 -0.64038045587E+03 -0.37237472275E+03  0.96864766596E+03  0.59994023334E+03 0.  0.
         23    2    4    4    0    0  0.34960399336E+03 -0.42591116328E+03 -0.37838237873E+03  0.67505600479E+03  0.94361612415E+02 0.  0.
         23    2    4    4    0    0 -0.17755761939E+03 -0.21446929259E+03  0.60076559837E+01  0.29359166117E+03  0.92931081506E+02 0.  0.
          4    1    3    3  502    0 -0.54366231153E+02  0.84176915468E+02 -0.27548271849E+02  0.10392472020E+03  0.00000000000E+00 0. -1.
         -4    1    3    3    0  502 -0.11768014281E+03  0.55620354040E+03 -0.77033428998E+02  0.57371172513E+03  0.00000000000E+00 0.  1.
         11    1    5    5    0    0  0.11497728090E+03 -0.78833016718E+02 -0.80174005690E+02  0.16081757005E+03  0.00000000000E+00 0.  1.
        -11    1    5    5    0    0  0.23462671246E+03 -0.34707814656E+03 -0.29820837304E+03  0.51423843475E+03  0.00000000000E+00 0. -1.
          5    1    6    6  503    0 -0.88620301386E+02 -0.11453329067E+03  0.49067193454E+02  0.15297421993E+03  0.47000000000E+01 0.  1.
         -5    1    6    6    0  503 -0.88937318008E+02 -0.99936001916E+02 -0.43059537471E+02  0.14061744124E+03  0.47000000000E+01 0. -1.
<mgrwt>
<rscale>  0 0.75291365E+03</rscale>
<asrwt>0</asrwt>
<pdfrwt beam="1">  1        1 0.16332620E+00 0.75291365E+03</pdfrwt>
<pdfrwt beam="2">  1       -1 0.89948283E-01 0.75291365E+03</pdfrwt>
<totfact> 0.16893690E+01</totfact>
</mgrwt>
</event>
<event>
12    1  0.3127365E-008  0.8877249E+03  0.7818608E-02  0.9441057E-01
          2   -1    0    0  501    0  0.00000000000E+00  0.00000000000E+00  0.12435427953E+04  0.12435427953E+04  0.00000000000E+00 0. -1.
         -2   -1    0    0    0  501 -0.00000000000E+00 -0.00000000000E+00 -0.70578636616E+03  0.70578636616E+03  0.00000000000E+00 0.  1.
         23    2    1    2    0    0  0.64141879530E+03  0.45754022893E+03 -0.55462866945E+02  0.79493903706E+03  0.89948935359E+02 0.  0.
    5000000    2    1    2    0    0 -0.64141879530E+03 -0.45754022893E+03  0.59321929609E+03  0.11543901244E+04  0.59995524334E+03 0.  0.
         23    2    4    4    0    0 -0.13306884884E+03  0.12929933805E+03  0.15097641238E+03  0.25709138105E+03  0.94214986953E+02 0.  0.
         23    2    4    4    0    0 -0.50834994647E+03 -0.58683956699E+03  0.44224288371E+03  0.89729874335E+03  0.82255219735E+02 0.  0.
          4    1    3    3  502    0  0.23274143373E+03  0.17044225138E+03 -0.63710669174E+02  0.29542881612E+03  0.00000000000E+00 0. -1.
         -4    1    3    3    0  502  0.40867736158E+03  0.28709797756E+03  0.82478022290E+01  0.49951022094E+03  0.00000000000E+00 0.  1.
         11    1    5    5    0    0 -0.10600469373E+03  0.39419073994E+02  0.69115328506E+02  0.13254352916E+03  0.00000000000E+00 0.  1.
        -11    1    5    5    0    0 -0.27064155103E+02  0.89880264057E+02  0.81861083871E+02  0.12454785189E+03  0.00000000000E+00 0. -1.
          5    1    6    6  503    0 -0.26801602879E+03 -0.24845013735E+03  0.21669819242E+03  0.42490029306E+03  0.47000000000E+01 0.  1.
         -5    1    6    6    0  503 -0.24033391767E+03 -0.33838942964E+03  0.22554469129E+03  0.47239845030E+03  0.47000000000E+01 0. -1.
<mgrwt>
<rscale>  0 0.88772486E+03</rscale>
<asrwt>0</asrwt>
<pdfrwt beam="1">  1        2 0.19131428E+00 0.88772486E+03</pdfrwt>
<pdfrwt beam="2">  1       -2 0.10858252E+00 0.88772486E+03</pdfrwt>
<totfact> 0.12152145E+01</totfact>
</mgrwt>
</event>
<event>
12    1  0.3127365E-008  0.8935566E+03  0.7818608E-02  0.9433672E-01
         -2   -1    0    0    0  501 -0.00000000000E+00  0.00000000000E+00  0.11814635544E+04  0.11814635544E+04  0.00000000000E+00 0.  1.
          2   -1    0    0  501    0  0.00000000000E+00 -0.00000000000E+00 -0.79344526894E+03  0.79344526894E+03  0.00000000000E+00 0. -1.
         23    2    1    2    0    0  0.67225383683E+03 -0.47291467390E+03  0.47486125620E+03  0.95364139171E+03  0.91461365694E+02 0.  0.
    5000000    2    1    2    0    0 -0.67225383683E+03  0.47291467390E+03 -0.86842970720E+02  0.10212674317E+04  0.59989328674E+03 0.  0.
         23    2    4    4    0    0 -0.65651406080E+03  0.21771142400E+03 -0.20239315217E+03  0.72637377945E+03  0.90812461978E+02 0.  0.
         23    2    4    4    0    0 -0.15739776027E+02  0.25520324990E+03  0.11555018145E+03  0.29489365221E+03  0.90741293638E+02 0.  0.
          4    1    3    3  502    0  0.57996853588E+03 -0.36745330702E+03  0.38473474507E+03  0.78702367151E+03  0.00000000000E+00 0. -1.
         -4    1    3    3    0  502  0.92285300949E+02 -0.10546136688E+03  0.90126511131E+02  0.16661772020E+03  0.00000000000E+00 0.  1.
         11    1    5    5    0    0 -0.44508471059E+03  0.18194105207E+03 -0.16716821194E+03  0.50906596539E+03  0.00000000000E+00 0. -1.
        -11    1    5    5    0    0 -0.21142935021E+03  0.35770371934E+02 -0.35224940239E+02  0.21730781406E+03  0.00000000000E+00 0.  1.
          5    1    6    6  503    0 -0.15618192098E+02  0.25873600557E+03  0.99307340561E+02  0.27761895900E+03  0.47000000000E+01 0. -1.
         -5    1    6    6    0  503 -0.12158392837E+00 -0.35327556761E+01  0.16242840893E+02  0.17274693213E+02  0.47000000000E+01 0.  1.
<mgrwt>
<rscale>  0 0.89355663E+03</rscale>
<asrwt>0</asrwt>
<pdfrwt beam="1">  1        2 0.12206850E+00 0.89355663E+03</pdfrwt>
<pdfrwt beam="2">  1       -2 0.18176362E+00 0.89355663E+03</pdfrwt>
<totfact> 0.61564223E+00</totfact>
</mgrwt>
</event>
<event>
12    1  0.3127365E-008  0.1127079E+04  0.7818608E-02  0.9179193E-01
          2   -1    0    0  501    0  0.00000000000E+00  0.00000000000E+00  0.13733323268E+04  0.13733323268E+04  0.00000000000E+00 0.  1.
         -2   -1    0    0    0  501 -0.00000000000E+00 -0.00000000000E+00 -0.20302421207E+04  0.20302421207E+04  0.00000000000E+00 0. -1.
         23    2    1    2    0    0  0.39615622623E+03 -0.10127550707E+04 -0.15341192007E+04  0.18825878918E+04  0.89458703237E+02 0.  0.
    5000000    2    1    2    0    0 -0.39615622623E+03  0.10127550707E+04  0.87720940683E+03  0.15209865556E+04  0.60107501191E+03 0.  0.
         23    2    4    4    0    0  0.66449635673E+02  0.32225786116E+03  0.49583192070E+03  0.60194743939E+03  0.90695882173E+02 0.  0.
         23    2    4    4    0    0 -0.46260586190E+03  0.69049720959E+03  0.38137748613E+03  0.91903911620E+03  0.91616211790E+02 0.  0.
          1    1    3    3  502    0  0.11007269567E+03 -0.33366465408E+03 -0.56103544015E+03  0.66197346232E+03  0.00000000000E+00 0. -1.
         -1    1    3    3    0  502  0.28608353056E+03 -0.67909041666E+03 -0.97308376058E+03  0.12206144295E+04  0.00000000000E+00 0.  1.
         11    1    5    5    0    0  0.12752226942E+02  0.13242221043E+03  0.12834503929E+03  0.18485321262E+03  0.00000000000E+00 0. -1.
        -11    1    5    5    0    0  0.53697408731E+02  0.18983565073E+03  0.36748688141E+03  0.41709422676E+03  0.00000000000E+00 0.  1.
          5    1    6    6  503    0 -0.16521312780E+03  0.32289494314E+03  0.18248720739E+03  0.40605442094E+03  0.47000000000E+01 0. -1.
         -5    1    6    6    0  503 -0.29739273410E+03  0.36760226645E+03  0.19889027874E+03  0.51298469526E+03  0.47000000000E+01 0.  1.
<mgrwt>
<rscale>  0 0.11270791E+04</rscale>
<asrwt>0</asrwt>
<pdfrwt beam="1">  1        2 0.21128190E+00 0.11270791E+04</pdfrwt>
<pdfrwt beam="2">  1       -2 0.31234494E+00 0.11270791E+04</pdfrwt>
<totfact> 0.39494350E-01</totfact>
</mgrwt>
</event>
<event>
12    1  0.3127365E-008  0.3588936E+03  0.7818608E-02  0.1059023E+00
          3   -1    0    0  501    0  0.00000000000E+00  0.00000000000E+00  0.13830083676E+04  0.13830083676E+04  0.00000000000E+00 0. -1.
         -3   -1    0    0    0  501 -0.00000000000E+00 -0.00000000000E+00 -0.23958388261E+03  0.23958388261E+03  0.00000000000E+00 0.  1.
         23    2    1    2    0    0  0.31617285244E+03  0.76594424800E+02  0.77885771634E+03  0.84882121098E+03  0.89700208289E+02 0.  0.
    5000000    2    1    2    0    0 -0.31617285244E+03 -0.76594424800E+02  0.36456676863E+03  0.77377103921E+03  0.59998392795E+03 0.  0.
         23    2    4    4    0    0 -0.19529862130E+03 -0.13147779029E+03 -0.10687858493E+03  0.27526003095E+03  0.94430354758E+02 0.  0.
         23    2    4    4    0    0 -0.12087423114E+03  0.54883365492E+02  0.47144535356E+03  0.49851100826E+03  0.92896396061E+02 0.  0.
          3    1    3    3  502    0  0.70026282788E+02  0.49666265242E+02  0.14783836670E+03  0.17095789204E+03  0.00000000000E+00 0. -1.
         -3    1    3    3    0  502  0.24614656965E+03  0.26928159558E+02  0.63101934964E+03  0.67786331893E+03  0.00000000000E+00 0.  1.
         11    1    5    5    0    0 -0.33365259754E+02 -0.66010291424E+02 -0.76062473419E+01  0.74353575105E+02  0.00000000000E+00 0. -1.
        -11    1    5    5    0    0 -0.16193336155E+03 -0.65467498868E+02 -0.99272337585E+02  0.20090645584E+03  0.00000000000E+00 0.  1.
          5    1    6    6  503    0 -0.63009532871E+02  0.14089725878E+02  0.36426327327E+03  0.36997100408E+03  0.47000000000E+01 0. -1.
         -5    1    6    6    0  503 -0.57864698268E+02  0.40793639614E+02  0.10718208029E+03  0.12854000418E+03  0.47000000000E+01 0.  1.
<mgrwt>
<rscale>  0 0.35889364E+03</rscale>
<asrwt>0</asrwt>
<pdfrwt beam="1">  1        3 0.21277051E+00 0.35889364E+03</pdfrwt>
<pdfrwt beam="2">  1       -3 0.36859060E-01 0.35889364E+03</pdfrwt>
<totfact> 0.23942032E+00</totfact>
</mgrwt>
</event>
<event>
12    1  0.3127365E-008  0.1833984E+04  0.7818608E-02  0.8688433E-01
         -1   -1    0    0    0  501 -0.00000000000E+00  0.00000000000E+00  0.13558748708E+04  0.13558748708E+04  0.00000000000E+00 0.  1.
          1   -1    0    0  501    0  0.00000000000E+00 -0.00000000000E+00 -0.26097341810E+04  0.26097341810E+04  0.00000000000E+00 0. -1.
         23    2    1    2    0    0  0.33133119270E+03 -0.17800683027E+04 -0.31786872308E+03  0.18408917094E+04  0.97047613530E+02 0.  0.
    5000000    2    1    2    0    0 -0.33133119270E+03  0.17800683027E+04 -0.93599058709E+03  0.21247173424E+04  0.59993490005E+03 0.  0.
         23    2    4    4    0    0  0.25836288915E+02  0.86939837861E+03 -0.19982789995E+03  0.89699072105E+03  0.90222555423E+02 0.  0.
         23    2    4    4    0    0 -0.35716748162E+03  0.91066992407E+03 -0.73616268713E+03  0.12277266213E+04  0.92134869475E+02 0.  0.
          3    1    3    3  502    0  0.17452446543E+03 -0.11018674870E+04 -0.23263132506E+03  0.11395999655E+04  0.00000000000E+00 0. -1.
         -3    1    3    3    0  502  0.15680672727E+03 -0.67820081571E+03 -0.85237398014E+02  0.70129174398E+03  0.00000000000E+00 0.  1.
         13    1    5    5    0    0  0.48865146559E+02  0.25976488420E+03 -0.55595983376E+02  0.27010462969E+03  0.00000000000E+00 0. -1.
        -13    1    5    5    0    0 -0.23028857644E+02  0.60963349441E+03 -0.14423191658E+03  0.62688609137E+03  0.00000000000E+00 0.  1.
          5    1    6    6  503    0 -0.23238721410E+03  0.47737286870E+03 -0.42033575718E+03  0.67719488467E+03  0.47000000000E+01 0. -1.
         -5    1    6    6    0  503 -0.12478026751E+03  0.43329705537E+03 -0.31582692995E+03  0.55053173663E+03  0.47000000000E+01 0.  1.
<mgrwt>
<rscale>  0 0.18339843E+04</rscale>
<asrwt>0</asrwt>
<pdfrwt beam="1">  1        1 0.40149757E+00 0.18339843E+04</pdfrwt>
<pdfrwt beam="2">  1       -1 0.20859613E+00 0.18339843E+04</pdfrwt>
<totfact> 0.13583474E-01</totfact>
</mgrwt>
</event>
<event>
12    1  0.3127365E-008  0.8259825E+03  0.7818608E-02  0.9523152E-01
         -2   -1    0    0    0  501 -0.00000000000E+00  0.00000000000E+00  0.38560376979E+03  0.38560376979E+03  0.00000000000E+00 0.  1.
          2   -1    0    0  501    0  0.00000000000E+00 -0.00000000000E+00 -0.19358018511E+04  0.19358018511E+04  0.00000000000E+00 0. -1.
         23    2    1    2    0    0 -0.62002183912E+02 -0.74703434202E+03 -0.54336385152E+03  0.93012605975E+03  0.89362368557E+02 0.  0.
    5000000    2    1    2    0    0  0.62002183912E+02  0.74703434202E+03 -0.10068342298E+04  0.13912795611E+04  0.60003255909E+03 0.  0.
         23    2    4    4    0    0 -0.83088217181E+02 -0.27669504227E+02 -0.31038623279E+03  0.33557441942E+03  0.92743324095E+02 0.  0.
         23    2    4    4    0    0  0.14509040109E+03  0.77470384625E+03 -0.69644799698E+03  0.10557051417E+04  0.90863963282E+02 0.  0.
          3    1    3    3  502    0 -0.56350148778E+02 -0.37460683837E+03 -0.31943819486E+03  0.49552636958E+03  0.00000000000E+00 0. -1.
         -3    1    3    3    0  502 -0.56520351339E+01 -0.37242750366E+03 -0.22392565667E+03  0.43459969017E+03  0.00000000000E+00 0.  1.
         11    1    5    5    0    0 -0.72072606211E+02  0.55961285078E+01 -0.28003646035E+03  0.28921652156E+03  0.00000000000E+00 0.  1.
        -11    1    5    5    0    0 -0.11015610970E+02 -0.33265632735E+02 -0.30349772439E+02  0.46357897854E+02  0.00000000000E+00 0. -1.
          5    1    6    6  503    0  0.97098905353E+01  0.28621479222E+03 -0.24564008591E+03  0.37732523248E+03  0.47000000000E+01 0. -1.
         -5    1    6    6    0  503  0.13538051056E+03  0.48848905403E+03 -0.45080791107E+03  0.67837990922E+03  0.47000000000E+01 0.  1.
<mgrwt>
<rscale>  0 0.82598248E+03</rscale>
<asrwt>0</asrwt>
<pdfrwt beam="1">  1        2 0.29781566E+00 0.82598248E+03</pdfrwt>
<pdfrwt beam="2">  1       -2 0.59323658E-01 0.82598248E+03</pdfrwt>
<totfact> 0.19675491E+01</totfact>
</mgrwt>
</event>
<event>
12    1  0.3127365E-008  0.5513585E+03  0.7818608E-02  0.1001180E+00
          2   -1    0    0  501    0  0.00000000000E+00  0.00000000000E+00  0.15258709574E+04  0.15258709574E+04  0.00000000000E+00 0. -1.
         -2   -1    0    0    0  501 -0.00000000000E+00 -0.00000000000E+00 -0.26190007211E+03  0.26190007211E+03  0.00000000000E+00 0.  1.
         23    2    1    2    0    0  0.16743660396E+03 -0.36670401984E+03  0.87308456618E+03  0.96603856680E+03  0.91907553223E+02 0.  0.
    5000000    2    1    2    0    0 -0.16743660396E+03  0.36670401984E+03  0.39088631912E+03  0.82173246272E+03  0.59995439102E+03 0.  0.
         23    2    4    4    0    0 -0.35253438248E+03  0.36133633311E+03  0.24490011476E+03  0.56864080204E+03  0.92368063068E+02 0.  0.
         23    2    4    4    0    0  0.18509777852E+03  0.53676867266E+01  0.14598620435E+03  0.25309166068E+03  0.91942466630E+02 0.  0.
          2    1    3    3  502    0  0.14909119064E+03 -0.28309333389E+03  0.75672011668E+03  0.82158100867E+03  0.00000000000E+00 0. -1.
         -2    1    3    3    0  502  0.18345413326E+02 -0.83610685945E+02  0.11636444949E+03  0.14445755813E+03  0.00000000000E+00 0.  1.
         13    1    5    5    0    0 -0.65685405068E+02  0.27156743400E+02  0.50758496477E+02  0.87341205142E+02  0.00000000000E+00 0. -1.
        -13    1    5    5    0    0 -0.28684897741E+03  0.33417958971E+03  0.19414161828E+03  0.48129959690E+03  0.00000000000E+00 0.  1.
          5    1    6    6  503    0  0.15883728877E+03  0.37103804971E+01  0.72135742822E+02  0.17455287628E+03  0.47000000000E+01 0. -1.
         -5    1    6    6    0  503  0.26260489754E+02  0.16573062295E+01  0.73850461532E+02  0.78538784397E+02  0.47000000000E+01 0.  1.
<mgrwt>
<rscale>  0 0.55135849E+03</rscale>
<asrwt>0</asrwt>
<pdfrwt beam="1">  1        2 0.23474937E+00 0.55135849E+03</pdfrwt>
<pdfrwt beam="2">  1       -2 0.40292320E-01 0.55135849E+03</pdfrwt>
<totfact> 0.74684278E+01</totfact>
</mgrwt>
</event>
<event>
12    1  0.3127365E-008  0.7700286E+03  0.7818608E-02  0.9604442E-01
         -2   -1    0    0    0  501 -0.00000000000E+00  0.00000000000E+00  0.46078199424E+03  0.46078199424E+03  0.00000000000E+00 0.  1.
          2   -1    0    0  501    0  0.00000000000E+00 -0.00000000000E+00 -0.21590838214E+04  0.21590838214E+04  0.00000000000E+00 0. -1.
         23    2    1    2    0    0  0.68762472294E+03 -0.12723072155E+03 -0.20002121566E+02  0.70524481476E+03  0.89189392705E+02 0.  0.
    5000000    2    1    2    0    0 -0.68762472294E+03  0.12723072155E+03 -0.16782997056E+04  0.19146210008E+04  0.60005687988E+03 0.  0.
         23    2    4    4    0    0 -0.23642479321E+03  0.26462389874E+03 -0.37217508568E+03  0.52221759627E+03  0.90963909430E+02 0.  0.
         23    2    4    4    0    0 -0.45119992973E+03 -0.13739317719E+03 -0.13061246199E+04  0.13924034046E+04  0.10182070859E+03 0.  0.
          1    1    3    3  502    0  0.19129322293E+03 -0.28078588560E+02  0.33726843567E+02  0.19626259005E+03  0.00000000000E+00 0. -1.
         -1    1    3    3    0  502  0.49633150001E+03 -0.99152132987E+02 -0.53728965132E+02  0.50898222471E+03  0.00000000000E+00 0.  1.
         13    1    5    5    0    0 -0.11818240100E+03  0.67622686718E+02 -0.12672124895E+03  0.18600586711E+03  0.00000000000E+00 0.  1.
        -13    1    5    5    0    0 -0.11824239221E+03  0.19700121202E+03 -0.24545383673E+03  0.33621172915E+03  0.00000000000E+00 0. -1.
          5    1    6    6  503    0 -0.96512629725E+02 -0.52287664705E+02 -0.41998433904E+03  0.43411706095E+03  0.47000000000E+01 0. -1.
         -5    1    6    6    0  503 -0.35468730001E+03 -0.85105512490E+02 -0.88614028085E+03  0.95828634363E+03  0.47000000000E+01 0.  1.
<mgrwt>
<rscale>  0 0.77002860E+03</rscale>
<asrwt>0</asrwt>
<pdfrwt beam="1">  1        2 0.33216674E+00 0.77002860E+03</pdfrwt>
<pdfrwt beam="2">  1       -2 0.70889538E-01 0.77002860E+03</pdfrwt>
<totfact> 0.10201008E+01</totfact>
</mgrwt>
</event>
<event>
12    1  0.3127365E-008  0.1758734E+04  0.7818608E-02  0.8728557E-01
         -2   -1    0    0    0  501 -0.00000000000E+00  0.00000000000E+00  0.17048667901E+04  0.17048667901E+04  0.00000000000E+00 0.  1.
          2   -1    0    0  501    0  0.00000000000E+00 -0.00000000000E+00 -0.18367728377E+04  0.18367728377E+04  0.00000000000E+00 0. -1.
         23    2    1    2    0    0 -0.16198781870E+04 -0.56803141641E+03 -0.41099016070E+01  0.17187676992E+04  0.86489778234E+02 0.  0.
    5000000    2    1    2    0    0  0.16198781870E+04  0.56803141641E+03 -0.12779614594E+03  0.18228719286E+04  0.59988764153E+03 0.  0.
         23    2    4    4    0    0  0.12648665784E+04  0.19885069281E+03  0.13432326887E+02  0.12838137850E+04  0.92565371191E+02 0.  0.
         23    2    4    4    0    0  0.35501160856E+03  0.36918072360E+03 -0.14122847282E+03  0.53905814358E+03  0.91162227577E+02 0.  0.
          3    1    3    3  502    0 -0.21164241565E+03 -0.86825505739E+02  0.26356291762E+02  0.23027339113E+03  0.00000000000E+00 0. -1.
         -3    1    3    3    0  502 -0.14082357714E+04 -0.48120591067E+03 -0.30466193369E+02  0.14884943081E+04  0.00000000000E+00 0.  1.
         11    1    5    5    0    0  0.31311956618E+03  0.29182429251E+02  0.37899853029E+02  0.31675207302E+03  0.00000000000E+00 0.  1.
        -11    1    5    5    0    0  0.95174701226E+03  0.16966826356E+03 -0.24467526142E+02  0.96706171201E+03  0.00000000000E+00 0. -1.
          5    1    6    6  503    0  0.15344703254E+03  0.10093249064E+03 -0.34615854783E+02  0.18695910480E+03  0.47000000000E+01 0. -1.
         -5    1    6    6    0  503  0.20156457602E+03  0.26824823296E+03 -0.10661261804E+03  0.35209903879E+03  0.47000000000E+01 0.  1.
<mgrwt>
<rscale>  0 0.17587341E+04</rscale>
<asrwt>0</asrwt>
<pdfrwt beam="1">  1        2 0.28258043E+00 0.17587341E+04</pdfrwt>
<pdfrwt beam="2">  1       -2 0.26228720E+00 0.17587341E+04</pdfrwt>
<totfact> 0.40663585E-01</totfact>
</mgrwt>
</event>
<event>
12    1  0.3127365E-008  0.1252851E+04  0.7818608E-02  0.9067814E-01
         -1   -1    0    0    0  501 -0.00000000000E+00  0.00000000000E+00  0.24220666935E+04  0.24220666935E+04  0.00000000000E+00 0.  1.
          1   -1    0    0  501    0  0.00000000000E+00 -0.00000000000E+00 -0.66815802443E+03  0.66815802443E+03  0.00000000000E+00 0. -1.
         23    2    1    2    0    0  0.11412040864E+04 -0.33243391613E+03  0.63163581352E+03  0.13491413446E+04  0.91430254191E+02 0.  0.
    5000000    2    1    2    0    0 -0.11412040864E+04  0.33243391613E+03  0.11222728556E+04  0.17410833734E+04  0.59917933492E+03 0.  0.
         23    2    4    4    0    0 -0.24651194742E+03 -0.15737300039E+03  0.24976563466E+03  0.39568803783E+03  0.93014781331E+02 0.  0.
         23    2    4    4    0    0 -0.89469213894E+03  0.48980691652E+03  0.87250722090E+03  0.13453953355E+04  0.91841817528E+02 0.  0.
          3    1    3    3  502    0  0.12290119943E+03 -0.13532114029E+02  0.86415145948E+02  0.15084893231E+03  0.00000000000E+00 0. -1.
         -3    1    3    3    0  502  0.10183028869E+04 -0.31890180210E+03  0.54522066758E+03  0.11982924123E+04  0.00000000000E+00 0.  1.
         11    1    5    5    0    0 -0.18678466070E+03 -0.12410524226E+03  0.13399621261E+03  0.26123859903E+03  0.00000000000E+00 0.  1.
        -11    1    5    5    0    0 -0.59727286725E+02 -0.33267758129E+02  0.11576942205E+03  0.13444943880E+03  0.00000000000E+00 0. -1.
          5    1    6    6  503    0 -0.87600559823E+02  0.26059365781E+02  0.10187826472E+03  0.13694604576E+03  0.47000000000E+01 0. -1.
         -5    1    6    6    0  503 -0.80709157911E+03  0.46374755074E+03  0.77062895617E+03  0.12084492898E+04  0.47000000000E+01 0.  1.
<mgrwt>
<rscale>  0 0.12528510E+04</rscale>
<asrwt>0</asrwt>
<pdfrwt beam="1">  1        1 0.10279354E+00 0.12528510E+04</pdfrwt>
<pdfrwt beam="2">  1       -1 0.37262564E+00 0.12528510E+04</pdfrwt>
<totfact> 0.31651580E-01</totfact>
</mgrwt>
</event>
<event>
12    1  0.3127365E-008  0.1117809E+04  0.7818608E-02  0.9188006E-01
         -2   -1    0    0    0  501 -0.00000000000E+00  0.00000000000E+00  0.61311407186E+03  0.61311407186E+03  0.00000000000E+00 0.  1.
          2   -1    0    0  501    0  0.00000000000E+00 -0.00000000000E+00 -0.21947424199E+04  0.21947424199E+04  0.00000000000E+00 0. -1.
         23    2    1    2    0    0 -0.96916103903E+03  0.37205255862E+03 -0.37781088253E+03  0.11087766687E+04  0.94596047430E+02 0.  0.
    5000000    2    1    2    0    0  0.96916103903E+03 -0.37205255862E+03 -0.12038174655E+04  0.16990798230E+04  0.59999960737E+03 0.  0.
         23    2    4    4    0    0  0.49315392956E+03 -0.48886745693E+03 -0.67246088315E+03  0.97058172548E+03  0.87367372600E+02 0.  0.
         23    2    4    4    0    0  0.47600710948E+03  0.11681489831E+03 -0.53135658235E+03  0.72849809755E+03  0.90228442239E+02 0.  0.
          1    1    3    3  502    0 -0.57340212569E+03  0.17003059990E+03 -0.21570839156E+03  0.63579124942E+03  0.00000000000E+00 0. -1.
         -1    1    3    3    0  502 -0.39575891334E+03  0.20202195872E+03 -0.16210249097E+03  0.47298541930E+03  0.00000000000E+00 0.  1.
         13    1    5    5    0    0  0.80622268037E+02 -0.13055802966E+03 -0.15019987288E+03  0.21472156627E+03  0.00000000000E+00 0. -1.
        -13    1    5    5    0    0  0.41253166152E+03 -0.35830942727E+03 -0.52226101027E+03  0.75586015921E+03  0.00000000000E+00 0.  1.
          5    1    6    6  503    0  0.57842140211E+02 -0.36369771800E+01 -0.32955609203E+02  0.66836389528E+02  0.47000000000E+01 0. -1.
         -5    1    6    6    0  503  0.41816496927E+03  0.12045187549E+03 -0.49840097315E+03  0.66166170802E+03  0.47000000000E+01 0.  1.
<mgrwt>
<rscale>  0 0.11178093E+04</rscale>
<asrwt>0</asrwt>
<pdfrwt beam="1">  1        2 0.33765268E+00 0.11178093E+04</pdfrwt>
<pdfrwt beam="2">  1       -2 0.94325241E-01 0.11178093E+04</pdfrwt>
<totfact> 0.48770040E+00</totfact>
</mgrwt>
</event>
<event>
12    1  0.3127365E-008  0.3754191E+03  0.7818608E-02  0.1052640E+00
         -2   -1    0    0    0  501 -0.00000000000E+00  0.00000000000E+00  0.42614210921E+03  0.42614210921E+03  0.00000000000E+00 0.  1.
          2   -1    0    0  501    0  0.00000000000E+00 -0.00000000000E+00 -0.43306298332E+03  0.43306298332E+03  0.00000000000E+00 0. -1.
         23    2    1    2    0    0  0.12294430490E+03  0.84401094351E+02 -0.14354666836E+03  0.22612832136E+03  0.91046827985E+02 0.  0.
    5000000    2    1    2    0    0 -0.12294430490E+03 -0.84401094351E+02  0.13662579426E+03  0.63307677118E+03  0.59990061153E+03 0.  0.
         23    2    4    4    0    0  0.82304286444E+02 -0.27832877089E+03 -0.38104216673E+01  0.30432005726E+03  0.91407207965E+02 0.  0.
         23    2    4    4    0    0 -0.20524859135E+03  0.19392767653E+03  0.14043621592E+03  0.32875671392E+03  0.92863977003E+02 0.  0.
          3    1    3    3  502    0  0.65949823830E+02  0.76354968911E+02 -0.13407247390E+03  0.16779418583E+03  0.00000000000E+00 0. -1.
         -3    1    3    3    0  502  0.56994481075E+02  0.80461254400E+01 -0.94741944693E+01  0.58334135534E+02  0.00000000000E+00 0.  1.
         13    1    5    5    0    0  0.29122059601E+02 -0.23024731987E+03 -0.10460151580E+02  0.23231732057E+03  0.00000000000E+00 0. -1.
        -13    1    5    5    0    0  0.53182226843E+02 -0.48081451012E+02  0.66497299123E+01  0.72002736693E+02  0.00000000000E+00 0.  1.
          5    1    6    6  503    0 -0.20734167229E+03  0.18324562825E+03  0.11311912630E+03  0.29897751768E+03  0.47000000000E+01 0. -1.
         -5    1    6    6    0  503  0.20930809378E+01  0.10682048281E+02  0.27317089620E+02  0.29779196239E+02  0.47000000000E+01 0.  1.
<mgrwt>
<rscale>  0 0.37541905E+03</rscale>
<asrwt>0</asrwt>
<pdfrwt beam="1">  1        2 0.66625074E-01 0.37541905E+03</pdfrwt>
<pdfrwt beam="2">  1       -2 0.65560325E-01 0.37541905E+03</pdfrwt>
<totfact> 0.16055524E+02</totfact>
</mgrwt>
</event>
<event>
12    1  0.3127365E-008  0.1169846E+04  0.7818608E-02  0.9139668E-01
         -1   -1    0    0    0  501 -0.00000000000E+00  0.00000000000E+00  0.96539727723E+03  0.96539727723E+03  0.00000000000E+00 0.  1.
          1   -1    0    0  501    0  0.00000000000E+00 -0.00000000000E+00 -0.15469305858E+04  0.15469305858E+04  0.00000000000E+00 0. -1.
         23    2    1    2    0    0 -0.83509772046E+03  0.76691789208E+03 -0.44800088138E+03  0.12226023255E+04  0.92197617924E+02 0.  0.
    5000000    2    1    2    0    0  0.83509772046E+03 -0.76691789208E+03 -0.13353242723E+03  0.12897255375E+04  0.60000816425E+03 0.  0.
         23    2    4    4    0    0 -0.12420444990E+02 -0.58133736922E+02 -0.14457695436E+03  0.18107642920E+03  0.91391348930E+02 0.  0.
         23    2    4    4    0    0  0.84751816545E+03 -0.70878415516E+03  0.11044527134E+02  0.11086491083E+04  0.91207699641E+02 0.  0.
          3    1    3    3  502    0 -0.63560259513E+03  0.53075255901E+03 -0.33969570547E+03  0.89503190454E+03  0.00000000000E+00 0. -1.
         -3    1    3    3    0  502 -0.19949512533E+03  0.23616533307E+03 -0.10830517591E+03  0.32757042098E+03  0.00000000000E+00 0.  1.
         13    1    5    5    0    0  0.29324944598E+02 -0.11878790936E+02 -0.98850501329E+02  0.10379055671E+03  0.00000000000E+00 0.  1.
        -13    1    5    5    0    0 -0.41745389588E+02 -0.46254945986E+02 -0.45726453030E+02  0.77285872491E+02  0.00000000000E+00 0. -1.
          5    1    6    6  503    0  0.27491117350E+03 -0.17652543172E+03 -0.20238955399E+01  0.32674694721E+03  0.47000000000E+01 0. -1.
         -5    1    6    6    0  503  0.57260699195E+03 -0.53225872344E+03  0.13068422674E+02  0.78190216113E+03  0.47000000000E+01 0.  1.
<mgrwt>
<rscale>  0 0.11698458E+04</rscale>
<asrwt>0</asrwt>
<pdfrwt beam="1">  1        1 0.23798932E+00 0.11698458E+04</pdfrwt>
<pdfrwt beam="2">  1       -1 0.14852266E+00 0.11698458E+04</pdfrwt>
<totfact> 0.21416118E+00</totfact>
</mgrwt>
</event>
<event>
12    1  0.3127365E-008  0.1540343E+04  0.7818608E-02  0.8858060E-01
          2   -1    0    0  501    0  0.00000000000E+00  0.00000000000E+00  0.37724698847E+04  0.37724698847E+04  0.00000000000E+00 0. -1.
         -2   -1    0    0    0  501 -0.00000000000E+00 -0.00000000000E+00 -0.65028788557E+03  0.65028788557E+03  0.00000000000E+00 0.  1.
         23    2    1    2    0    0  0.10927710347E+04  0.10379458984E+04  0.14658298409E+04  0.21043582043E+04  0.90477110374E+02 0.  0.
    5000000    2    1    2    0    0 -0.10927710347E+04 -0.10379458984E+04  0.16563521583E+04  0.23183995659E+04  0.59999487728E+03 0.  0.
         23    2    4    4    0    0 -0.48943989398E+03 -0.75448921137E+03  0.12136961807E+04  0.15133042216E+04  0.90696572097E+02 0.  0.
         23    2    4    4    0    0 -0.60333114073E+03 -0.28345668704E+03  0.44265597756E+03  0.80509534431E+03  0.88758324503E+02 0.  0.
          4    1    3    3  502    0  0.51690397168E+03  0.43525506150E+03  0.68392699373E+03  0.96145349199E+03  0.00000000000E+00 0. -1.
         -4    1    3    3    0  502  0.57586706304E+03  0.60269083690E+03  0.78190284713E+03  0.11429047124E+04  0.00000000000E+00 0.  1.
         13    1    5    5    0    0 -0.42350855237E+03 -0.64162764812E+03  0.10859386958E+04  0.13305293622E+04  0.00000000000E+00 0.  1.
        -13    1    5    5    0    0 -0.65931341614E+02 -0.11286156325E+03  0.12775748489E+03  0.18277485935E+03  0.00000000000E+00 0. -1.
          5    1    6    6  503    0 -0.39011427607E+03 -0.22643513970E+03  0.31344966869E+03  0.54930392834E+03  0.47000000000E+01 0. -1.
         -5    1    6    6    0  503 -0.21321686466E+03 -0.57021547332E+02  0.12920630887E+03  0.25579141598E+03  0.47000000000E+01 0.  1.
<mgrwt>
<rscale>  0 0.15403432E+04</rscale>
<asrwt>0</asrwt>
<pdfrwt beam="1">  1        2 0.58037997E+00 0.15403432E+04</pdfrwt>
<pdfrwt beam="2">  1       -2 0.10004429E+00 0.15403432E+04</pdfrwt>
<totfact> 0.40871484E-01</totfact>
</mgrwt>
</event>
<event>
12    1  0.3127365E-008  0.2563911E+03  0.7818608E-02  0.1109331E+00
          1   -1    0    0  501    0  0.00000000000E+00  0.00000000000E+00  0.90414678803E+03  0.90414678803E+03  0.00000000000E+00 0. -1.
         -1   -1    0    0    0  501 -0.00000000000E+00 -0.00000000000E+00 -0.15521524505E+03  0.15521524505E+03  0.00000000000E+00 0.  1.
         23    2    1    2    0    0 -0.65957005505E+02 -0.41496353780E+02  0.67836932662E+02  0.14843247955E+03  0.10657428208E+03 0.  0.
    5000000    2    1    2    0    0  0.65957005505E+02  0.41496353780E+02  0.68109461032E+03  0.91092955353E+03  0.59985874115E+03 0.  0.
         23    2    4    4    0    0 -0.12534625753E+03 -0.12010818066E+03  0.24897040241E+02  0.20273290515E+03  0.10170107609E+03 0.  0.
         23    2    4    4    0    0  0.19130326304E+03  0.16160453444E+03  0.65619757008E+03  0.70819664838E+03  0.90742921481E+02 0.  0.
          2    1    3    3  502    0 -0.21346694645E+02 -0.30137761168E+02  0.90043019517E+02  0.97322717719E+02  0.00000000000E+00 0. -1.
         -2    1    3    3    0  502 -0.44610310860E+02 -0.11358592612E+02 -0.22206086855E+02  0.51109761832E+02  0.00000000000E+00 0.  1.
         11    1    5    5    0    0 -0.91320596219E+02 -0.64784190363E+02  0.61945177074E+02  0.12795955446E+03  0.00000000000E+00 0. -1.
        -11    1    5    5    0    0 -0.34025661312E+02 -0.55323990300E+02 -0.37048136833E+02  0.74773350689E+02  0.00000000000E+00 0.  1.
          5    1    6    6  503    0  0.13333072612E+03  0.91335442555E+02  0.30333564823E+03  0.34373514671E+03  0.47000000000E+01 0. -1.
         -5    1    6    6    0  503  0.57972536915E+02  0.70269091888E+02  0.35286192185E+03  0.36446150167E+03  0.47000000000E+01 0.  1.
<mgrwt>
<rscale>  0 0.25639107E+03</rscale>
<asrwt>0</asrwt>
<pdfrwt beam="1">  1        1 0.13909950E+00 0.25639107E+03</pdfrwt>
<pdfrwt beam="2">  1       -1 0.23879269E-01 0.25639107E+03</pdfrwt>
<totfact> 0.28783294E+02</totfact>
</mgrwt>
</event>
<event>
12    1  0.3127365E-008  0.8724346E+03  0.7818608E-02  0.9460711E-01
          1   -1    0    0  501    0  0.00000000000E+00  0.00000000000E+00  0.17202644546E+04  0.17202644546E+04  0.00000000000E+00 0. -1.
         -1   -1    0    0    0  501 -0.00000000000E+00 -0.00000000000E+00 -0.46186297939E+03  0.46186297939E+03  0.00000000000E+00 0.  1.
         23    2    1    2    0    0 -0.16073697646E+03 -0.75669016177E+03  0.37910987422E+03  0.86585302045E+03  0.86952744444E+02 0.  0.
    5000000    2    1    2    0    0  0.16073697646E+03  0.75669016177E+03  0.87929160095E+03  0.13162744135E+04  0.60083960890E+03 0.  0.
         23    2    4    4    0    0 -0.19209634303E+03  0.42706631271E+03  0.53199224344E+03  0.71454182816E+03  0.90926545350E+02 0.  0.
         23    2    4    4    0    0  0.35283331949E+03  0.32962384906E+03  0.34729935751E+03  0.60173258534E+03  0.91225146341E+02 0.  0.
          2    1    3    3  502    0 -0.67332487660E+02 -0.49716510272E+03  0.26462597127E+03  0.56721575077E+03  0.00000000000E+00 0. -1.
         -2    1    3    3    0  502 -0.93404488799E+02 -0.25952505905E+03  0.11448390295E+03  0.29863726967E+03  0.00000000000E+00 0.  1.
         13    1    5    5    0    0 -0.19051015201E+03  0.33848718480E+03  0.43088148276E+03  0.58010907981E+03  0.00000000000E+00 0.  1.
        -13    1    5    5    0    0 -0.15861910239E+01  0.88579127909E+02  0.10111076068E+03  0.13443274835E+03  0.00000000000E+00 0. -1.
          5    1    6    6  503    0  0.88256921078E+02  0.13698502286E+03  0.13431359401E+03  0.21122597412E+03  0.47000000000E+01 0. -1.
         -5    1    6    6    0  503  0.26457639842E+03  0.19263882620E+03  0.21298576349E+03  0.39050661122E+03  0.47000000000E+01 0.  1.
<mgrwt>
<rscale>  0 0.87243460E+03</rscale>
<asrwt>0</asrwt>
<pdfrwt beam="1">  1        1 0.26465607E+00 0.87243460E+03</pdfrwt>
<pdfrwt beam="2">  1       -1 0.71055844E-01 0.87243460E+03</pdfrwt>
<totfact> 0.94557054E+00</totfact>
</mgrwt>
</event>
<event>
12    1  0.3127365E-008  0.5532658E+03  0.7818608E-02  0.1000741E+00
         -2   -1    0    0    0  501 -0.00000000000E+00  0.00000000000E+00  0.11561382720E+04  0.11561382720E+04  0.00000000000E+00 0.  1.
          2   -1    0    0  501    0  0.00000000000E+00 -0.00000000000E+00 -0.13876103465E+04  0.13876103465E+04  0.00000000000E+00 0. -1.
         23    2    1    2    0    0  0.27815285629E+03 -0.39715630062E+03 -0.12050402237E+04  0.13015522139E+04  0.82547478681E+02 0.  0.
    5000000    2    1    2    0    0 -0.27815285629E+03  0.39715630062E+03  0.97356814920E+03  0.12421964045E+04  0.60009568210E+03 0.  0.
         23    2    4    4    0    0 -0.24409763508E+03  0.36697007548E+02  0.81147535226E+02  0.27533283336E+03  0.91065475550E+02 0.  0.
         23    2    4    4    0    0 -0.34055221209E+02  0.36045929307E+03  0.89242061398E+03  0.96686357116E+03  0.85556723520E+02 0.  0.
          3    1    3    3  502    0  0.17760545554E+03 -0.28708436394E+03 -0.74394122238E+03  0.81695145034E+03  0.00000000000E+00 0. -1.
         -3    1    3    3    0  502  0.10054740075E+03 -0.11007193667E+03 -0.46109900132E+03  0.48460076358E+03  0.00000000000E+00 0.  1.
         13    1    5    5    0    0 -0.11976858868E+02 -0.58277031659E+01  0.31475752781E+02  0.34177921026E+02  0.00000000000E+00 0.  1.
        -13    1    5    5    0    0 -0.23212077621E+03  0.42524710714E+02  0.49671782445E+02  0.24115491233E+03  0.00000000000E+00 0. -1.
          5    1    6    6  503    0  0.25465643700E+02  0.94346510326E+02  0.19936690209E+03  0.22207884786E+03  0.47000000000E+01 0. -1.
         -5    1    6    6    0  503 -0.59520864909E+02  0.26611278275E+03  0.69305371189E+03  0.74478472330E+03  0.47000000000E+01 0.  1.
<mgrwt>
<rscale>  0 0.55326578E+03</rscale>
<asrwt>0</asrwt>
<pdfrwt beam="1">  1        2 0.21347851E+00 0.55326578E+03</pdfrwt>
<pdfrwt beam="2">  1       -2 0.17786743E+00 0.55326578E+03</pdfrwt>
<totfact> 0.29423483E+00</totfact>
</mgrwt>
</event>
<event>
12    1  0.3127365E-008  0.1328302E+04  0.7818608E-02  0.9007418E-01
          2   -1    0    0  501    0  0.00000000000E+00  0.00000000000E+00  0.32303417246E+04  0.32303417246E+04  0.00000000000E+00 0. -1.
         -2   -1    0    0    0  501 -0.00000000000E+00 -0.00000000000E+00 -0.57218104199E+03  0.57218104199E+03  0.00000000000E+00 0.  1.
         23    2    1    2    0    0  0.16073344861E+03  0.12596772091E+04  0.15936109226E+04  0.20400759183E+04  0.98448296216E+02 0.  0.
    5000000    2    1    2    0    0 -0.16073344861E+03 -0.12596772091E+04  0.10645497601E+04  0.17624468483E+04  0.60027559409E+03 0.  0.
         23    2    4    4    0    0 -0.68461226250E+02  0.70098735291E+01  0.21956293514E+02  0.11669072247E+03  0.91643701690E+02 0.  0.
         23    2    4    4    0    0 -0.92272222363E+02 -0.12666870827E+04  0.10425934665E+04  0.16457561259E+04  0.92204994143E+02 0.  0.
          4    1    3    3  502    0  0.15034098488E+03  0.84337966337E+03  0.10427385898E+04  0.13495167413E+04  0.00000000000E+00 0. -1.
         -4    1    3    3    0  502  0.10392463734E+02  0.41629754577E+03  0.55087233280E+03  0.69055917701E+03  0.00000000000E+00 0.  1.
         13    1    5    5    0    0  0.39584898284E+01  0.35315487228E+02 -0.12127309068E+01  0.35557333929E+02  0.00000000000E+00 0. -1.
        -13    1    5    5    0    0 -0.72419716079E+02 -0.28305613699E+02  0.23169024421E+02  0.81133388542E+02  0.00000000000E+00 0.  1.
          5    1    6    6  503    0 -0.26720655415E+02 -0.27018944029E+03  0.27205197188E+03  0.38438352264E+03  0.47000000000E+01 0. -1.
         -5    1    6    6    0  503 -0.65551566948E+02 -0.99649764237E+03  0.77054149466E+03  0.12613726032E+04  0.47000000000E+01 0.  1.
<mgrwt>
<rscale>  0 0.13283021E+04</rscale>
<asrwt>0</asrwt>
<pdfrwt beam="1">  1        2 0.49697564E+00 0.13283021E+04</pdfrwt>
<pdfrwt beam="2">  1       -2 0.88027855E-01 0.13283021E+04</pdfrwt>
<totfact> 0.13505184E+00</totfact>
</mgrwt>
</event>
<event>
12    1  0.3127365E-008  0.3789679E+03  0.7818608E-02  0.1051316E+00
         -1   -1    0    0    0  501 -0.00000000000E+00  0.00000000000E+00  0.17252942919E+03  0.17252942919E+03  0.00000000000E+00 0.  1.
          1   -1    0    0  501    0  0.00000000000E+00 -0.00000000000E+00 -0.13687018705E+04  0.13687018705E+04  0.00000000000E+00 0. -1.
         23    2    1    2    0    0 -0.29071123536E+03  0.68542881379E+01 -0.37637013450E+03  0.48452624839E+03  0.92472718192E+02 0.  0.
    5000000    2    1    2    0    0  0.29071123536E+03 -0.68542881379E+01 -0.81980230681E+03  0.10567050513E+04  0.59999144956E+03 0.  0.
         23    2    4    4    0    0  0.10934454020E+03  0.15945588544E+03 -0.75785171825E+03  0.78748904707E+03  0.91746196260E+02 0.  0.
         23    2    4    4    0    0  0.18136669516E+03 -0.16631017358E+03 -0.61950588560E+02  0.26921600422E+03  0.89924577042E+02 0.  0.
          4    1    3    3  502    0 -0.35836336349E+02  0.31314244992E+02 -0.42710398756E+02  0.63945313388E+02  0.00000000000E+00 0. -1.
         -4    1    3    3    0  502 -0.25487489901E+03 -0.24459956854E+02 -0.33365973574E+03  0.42058093500E+03  0.00000000000E+00 0.  1.
         11    1    5    5    0    0  0.71531321026E+02  0.43093238703E+02 -0.41858984882E+03  0.42683863303E+03  0.00000000000E+00 0.  1.
        -11    1    5    5    0    0  0.37813219173E+02  0.11636264674E+03 -0.33926186944E+03  0.36065041405E+03  0.00000000000E+00 0. -1.
          5    1    6    6  503    0  0.91168352389E+02 -0.10570549737E+03  0.79957351791E+01  0.13989761411E+03  0.47000000000E+01 0. -1.
         -5    1    6    6    0  503  0.90198342769E+02 -0.60604676211E+02 -0.69946323740E+02  0.12931839011E+03  0.47000000000E+01 0.  1.
<mgrwt>
<rscale>  0 0.37896785E+03</rscale>
<asrwt>0</asrwt>
<pdfrwt beam="1">  1        1 0.21056952E+00 0.37896785E+03</pdfrwt>
<pdfrwt beam="2">  1       -1 0.26542989E-01 0.37896785E+03</pdfrwt>
<totfact> 0.10904167E+02</totfact>
</mgrwt>
</event>
<event>
12    1  0.3520234E-008  0.1070133E+04  0.7818608E-02  0.9234801E-01
         -2   -1    0    0    0  501 -0.00000000000E+00  0.00000000000E+00  0.11931914850E+04  0.11931914850E+04  0.00000000000E+00 0. -1.
          2   -1    0    0  501    0  0.00000000000E+00 -0.00000000000E+00 -0.10622202998E+04  0.10622202998E+04  0.00000000000E+00 0.  1.
         23    2    1    2    0    0 -0.10089638219E+04  0.26378082760E+03  0.19484876955E+02  0.10470871063E+04  0.91779239828E+02 0.  0.
    5000000    2    1    2    0    0  0.10089638219E+04 -0.26378082760E+03  0.11148630826E+03  0.12083246786E+04  0.60002584364E+03 0.  0.
         23    2    4    4    0    0  0.69169731927E+03 -0.34457455813E+02  0.30493151874E+03  0.76227321537E+03  0.91895190269E+02 0.  0.
         23    2    4    4    0    0  0.31726650262E+03 -0.22932337179E+03 -0.19344521049E+03  0.44605146321E+03  0.91069291413E+02 0.  0.
          1    1    3    3  502    0 -0.75136572167E+03  0.19090367048E+03 -0.25336496140E+02  0.77565236875E+03  0.00000000000E+00 0. -1.
         -1    1    3    3    0  502 -0.25759810022E+03  0.72877157122E+02  0.44821373095E+02  0.27143473756E+03  0.00000000000E+00 0.  1.
         11    1    5    5    0    0  0.44618867409E+03 -0.57005874739E+02  0.22604062502E+03  0.50341669301E+03  0.00000000000E+00 0. -1.
        -11    1    5    5    0    0  0.24550864518E+03  0.22548418925E+02  0.78890893724E+02  0.25885652236E+03  0.00000000000E+00 0.  1.
          5    1    6    6  503    0  0.16883224389E+03 -0.17397393081E+03 -0.10181792590E+03  0.26298333638E+03  0.47000000000E+01 0. -1.
         -5    1    6    6    0  503  0.14843425873E+03 -0.55349440983E+02 -0.91627284581E+02  0.18306812683E+03  0.47000000000E+01 0.  1.
<mgrwt>
<rscale>  0 0.10701328E+04</rscale>
<asrwt>0</asrwt>
<pdfrwt beam="1">  1        2 0.16341851E+00 0.10701328E+04</pdfrwt>
<pdfrwt beam="2">  1       -2 0.18356792E+00 0.10701328E+04</pdfrwt>
<totfact> 0.38789180E+00</totfact>
</mgrwt>
</event>
<event>
12    1  0.3127365E-008  0.7588085E+03  0.7818608E-02  0.9621632E-01
          2   -1    0    0  501    0  0.00000000000E+00  0.00000000000E+00  0.63035995172E+03  0.63035995172E+03  0.00000000000E+00 0. -1.
         -2   -1    0    0    0  501 -0.00000000000E+00 -0.00000000000E+00 -0.10171353399E+04  0.10171353399E+04  0.00000000000E+00 0.  1.
         23    2    1    2    0    0  0.26698975505E+02  0.67888878706E+03 -0.72919168958E+02  0.68810887045E+03  0.81078923958E+02 0.  0.
    5000000    2    1    2    0    0 -0.26698975505E+02 -0.67888878706E+03 -0.31385621918E+03  0.95938642114E+03  0.60026140827E+03 0.  0.
         23    2    4    4    0    0 -0.12080510139E+03 -0.23210172113E+01 -0.21472087225E+03  0.26275236849E+03  0.91293452800E+02 0.  0.
         23    2    4    4    0    0  0.94106125882E+02 -0.67656776984E+03 -0.99135346935E+02  0.69663405265E+03  0.94187452342E+02 0.  0.
          2    1    3    3  502    0 -0.12081543561E+01  0.55194788616E+03 -0.81118237399E+02  0.55787820993E+03  0.00000000000E+00 0. -1.
         -2    1    3    3    0  502  0.27907129861E+02  0.12694090090E+03  0.81990684412E+01  0.13023066052E+03  0.00000000000E+00 0.  1.
         13    1    5    5    0    0 -0.13521229580E+03 -0.20985640306E+00 -0.18021066165E+03  0.22529600873E+03  0.00000000000E+00 0. -1.
        -13    1    5    5    0    0  0.14407194416E+02 -0.21111608082E+01 -0.34510210598E+02  0.37456359759E+02  0.00000000000E+00 0.  1.
          5    1    6    6  503    0  0.23160848585E+02 -0.38817729602E+03 -0.91474656805E+02  0.39950937522E+03  0.47000000000E+01 0. -1.
         -5    1    6    6    0  503  0.70945277297E+02 -0.28839047383E+03 -0.76606901300E+01  0.29712467743E+03  0.47000000000E+01 0.  1.
<mgrwt>
<rscale>  0 0.75880848E+03</rscale>
<asrwt>0</asrwt>
<pdfrwt beam="1">  1        2 0.96978456E-01 0.75880848E+03</pdfrwt>
<pdfrwt beam="2">  1       -2 0.15648236E+00 0.75880848E+03</pdfrwt>
<totfact> 0.12672613E+01</totfact>
</mgrwt>
</event>
<event>
12    1  0.3127365E-008  0.3070479E+03  0.7818608E-02  0.1081770E+00
          1   -1    0    0  501    0  0.00000000000E+00  0.00000000000E+00  0.53299888231E+03  0.53299888231E+03  0.00000000000E+00 0. -1.
         -1   -1    0    0    0  501 -0.00000000000E+00 -0.00000000000E+00 -0.72199212328E+03  0.72199212328E+03  0.00000000000E+00 0.  1.
         23    2    1    2    0    0  0.91226504447E+02 -0.21209659759E+03 -0.48714984041E+03  0.54649671326E+03  0.89646242386E+02 0.  0.
    5000000    2    1    2    0    0 -0.91226504447E+02  0.21209659759E+03  0.29815659943E+03  0.70849429233E+03  0.59979960208E+03 0.  0.
         23    2    4    4    0    0  0.84897868941E+02  0.11128249710E+03 -0.13537791533E+03  0.21975496055E+03  0.10185097161E+03 0.  0.
         23    2    4    4    0    0 -0.17612437339E+03  0.10081410049E+03  0.43353451476E+03  0.48873933178E+03  0.98644215119E+02 0.  0.
          4    1    3    3  502    0  0.76184245551E+00 -0.89518546692E+02 -0.12633164091E+03  0.15483486074E+03  0.00000000000E+00 0. -1.
         -4    1    3    3    0  502  0.90464661992E+02 -0.12257805090E+03 -0.36081819950E+03  0.39166185252E+03  0.00000000000E+00 0.  1.
         11    1    5    5    0    0 -0.57083705505E+01 -0.28919692029E+01 -0.50869934902E+02  0.51270842173E+02  0.00000000000E+00 0.  1.
        -11    1    5    5    0    0  0.90606239492E+02  0.11417446630E+03 -0.84507980428E+02  0.16848411838E+03  0.00000000000E+00 0. -1.
          5    1    6    6  503    0 -0.93099206518E+02  0.10027582600E+03  0.21472359154E+03  0.25465862305E+03  0.47000000000E+01 0. -1.
         -5    1    6    6    0  503 -0.83025166870E+02  0.53827449436E+00  0.21881092323E+03  0.23408070872E+03  0.47000000000E+01 0.  1.
<mgrwt>
<rscale>  0 0.30704792E+03</rscale>
<asrwt>0</asrwt>
<pdfrwt beam="1">  1        1 0.81999828E-01 0.30704792E+03</pdfrwt>
<pdfrwt beam="2">  1       -1 0.11107571E+00 0.30704792E+03</pdfrwt>
<totfact> 0.33051458E+01</totfact>
</mgrwt>
</event>
<event>
12    1  0.3127365E-008  0.1296301E+04  0.7818608E-02  0.9032503E-01
          2   -1    0    0  501    0  0.00000000000E+00  0.00000000000E+00  0.18044147480E+04  0.18044147480E+04  0.00000000000E+00 0.  1.
         -2   -1    0    0    0  501 -0.00000000000E+00 -0.00000000000E+00 -0.10869225596E+04  0.10869225596E+04  0.00000000000E+00 0. -1.
         23    2    1    2    0    0 -0.32705140234E+03  0.12516376766E+04  0.68112008456E+03  0.14649014761E+04  0.91936237979E+02 0.  0.
    5000000    2    1    2    0    0  0.32705140234E+03 -0.12516376766E+04  0.36372103789E+02  0.14264358315E+04  0.59986394962E+03 0.  0.
         23    2    4    4    0    0  0.15810725741E+03 -0.66383793572E+03  0.30327140749E+03  0.75218606900E+03  0.90175529152E+02 0.  0.
         23    2    4    4    0    0  0.16894414493E+03 -0.58779974090E+03 -0.26689930370E+03  0.67424976246E+03  0.96575588836E+02 0.  0.
          1    1    3    3  502    0 -0.27449202374E+03  0.11342908974E+04  0.59323196303E+03  0.13091546406E+04  0.00000000000E+00 0. -1.
         -1    1    3    3    0  502 -0.52559378600E+02  0.11734677921E+03  0.87888121527E+02  0.15574683552E+03  0.00000000000E+00 0.  1.
         11    1    5    5    0    0  0.10800459201E+03 -0.46747339364E+03  0.25712321331E+03  0.54434245882E+03  0.00000000000E+00 0.  1.
        -11    1    5    5    0    0  0.50102665402E+02 -0.19636454208E+03  0.46148194178E+02  0.20784361018E+03  0.00000000000E+00 0. -1.
          5    1    6    6  503    0  0.91168105795E+02 -0.41609271109E+03 -0.14624934814E+03  0.45039508164E+03  0.47000000000E+01 0. -1.
         -5    1    6    6    0  503  0.77776039133E+02 -0.17170702981E+03 -0.12064995555E+03  0.22385468082E+03  0.47000000000E+01 0.  1.
<mgrwt>
<rscale>  0 0.12963013E+04</rscale>
<asrwt>0</asrwt>
<pdfrwt beam="1">  1        2 0.27760227E+00 0.12963013E+04</pdfrwt>
<pdfrwt beam="2">  1       -2 0.16721886E+00 0.12963013E+04</pdfrwt>
<totfact> 0.18406551E+00</totfact>
</mgrwt>
</event>
<event>
12    1  0.3127365E-008  0.5679266E+03  0.7818608E-02  0.9974277E-01
          2   -1    0    0  501    0  0.00000000000E+00  0.00000000000E+00  0.18242012758E+04  0.18242012758E+04  0.00000000000E+00 0. -1.
         -2   -1    0    0    0  501 -0.00000000000E+00 -0.00000000000E+00 -0.26020597290E+03  0.26020597290E+03  0.00000000000E+00 0.  1.
         23    2    1    2    0    0  0.54749019720E+03 -0.71684052950E+02  0.57954318991E+03  0.80602905499E+03  0.94490259034E+02 0.  0.
    5000000    2    1    2    0    0 -0.54749019720E+03  0.71684052950E+02  0.98445211304E+03  0.12783781937E+04  0.60018390840E+03 0.  0.
         23    2    4    4    0    0 -0.87452952701E+02  0.22597373058E+02 -0.53981334231E+02  0.13738279762E+03  0.88325468755E+02 0.  0.
         23    2    4    4    0    0 -0.46003724450E+03  0.49086679892E+02  0.10384334473E+04  0.11409953961E+04  0.97379161562E+02 0.  0.
          1    1    3    3  502    0  0.64818090148E+02 -0.13116168869E+02  0.31052683580E+02  0.73059481615E+02  0.00000000000E+00 0. -1.
         -1    1    3    3    0  502  0.48267210705E+03 -0.58567884081E+02  0.54849050633E+03  0.73296957338E+03  0.00000000000E+00 0.  1.
         13    1    5    5    0    0 -0.99720181932E+02  0.32230870650E+02 -0.30417980331E+02  0.10912468664E+03  0.00000000000E+00 0. -1.
        -13    1    5    5    0    0  0.12267229231E+02 -0.96334975928E+01 -0.23563353900E+02  0.28258110976E+02  0.00000000000E+00 0.  1.
          5    1    6    6  503    0 -0.22148209926E+03  0.32902005264E+02  0.61763767647E+03  0.65698953693E+03  0.47000000000E+01 0. -1.
         -5    1    6    6    0  503 -0.23855514523E+03  0.16184674628E+02  0.42079577079E+03  0.48400585919E+03  0.47000000000E+01 0.  1.
<mgrwt>
<rscale>  0 0.56792662E+03</rscale>
<asrwt>0</asrwt>
<pdfrwt beam="1">  1        2 0.28064634E+00 0.56792662E+03</pdfrwt>
<pdfrwt beam="2">  1       -2 0.40031689E-01 0.56792662E+03</pdfrwt>
<totfact> 0.51951058E+01</totfact>
</mgrwt>
</event>
<event>
12    1  0.3127365E-008  0.6230051E+03  0.7818608E-02  0.9858795E-01
         -1   -1    0    0    0  501 -0.00000000000E+00  0.00000000000E+00  0.18599147343E+03  0.18599147343E+03  0.00000000000E+00 0. -1.
          1   -1    0    0  501    0  0.00000000000E+00 -0.00000000000E+00 -0.21456212996E+04  0.21456212996E+04  0.00000000000E+00 0.  1.
         23    2    1    2    0    0  0.26634271504E+03  0.40357342039E+03 -0.72602585532E+03  0.87716747342E+03  0.92191574077E+02 0.  0.
    5000000    2    1    2    0    0 -0.26634271504E+03 -0.40357342039E+03 -0.12336039709E+04  0.14544452996E+04  0.59985200273E+03 0.  0.
         23    2    4    4    0    0 -0.37501548736E+03 -0.46937713520E+03 -0.89256420852E+03  0.10797877771E+04  0.91210012654E+02 0.  0.
         23    2    4    4    0    0  0.10867277232E+03  0.65803714810E+02 -0.34103976235E+03  0.37465752255E+03  0.88995726687E+02 0.  0.
          1    1    3    3  502    0  0.18823143900E+03  0.22117269102E+03 -0.48093877883E+03  0.56182785875E+03  0.00000000000E+00 0. -1.
         -1    1    3    3    0  502  0.78111276044E+02  0.18240072937E+03 -0.24508707649E+03  0.31533961467E+03  0.00000000000E+00 0.  1.
         11    1    5    5    0    0 -0.29808119283E+03 -0.41297445322E+03 -0.78780394269E+03  0.93810199267E+03  0.00000000000E+00 0. -1.
        -11    1    5    5    0    0 -0.76934294535E+02 -0.56402681979E+02 -0.10476026583E+03  0.14168578442E+03  0.00000000000E+00 0.  1.
          5    1    6    6  503    0  0.68569840345E+02 -0.71172114444E+01 -0.12071003039E+03  0.13908802659E+03  0.47000000000E+01 0. -1.
         -5    1    6    6    0  503  0.40102931975E+02  0.72920926255E+02 -0.22032973197E+03  0.23556949596E+03  0.47000000000E+01 0.  1.
<mgrwt>
<rscale>  0 0.62300512E+03</rscale>
<asrwt>0</asrwt>
<pdfrwt beam="1">  1        1 0.33009555E+00 0.62300512E+03</pdfrwt>
<pdfrwt beam="2">  1       -1 0.28614076E-01 0.62300512E+03</pdfrwt>
<totfact> 0.27874406E+01</totfact>
</mgrwt>
</event>
<event>
12    1  0.3127365E-008  0.6304542E+03  0.7818608E-02  0.9844163E-01
          1   -1    0    0  501    0  0.00000000000E+00  0.00000000000E+00  0.22576361645E+04  0.22576361645E+04  0.00000000000E+00 0. -1.
         -1   -1    0    0    0  501 -0.00000000000E+00 -0.00000000000E+00 -0.21726162670E+03  0.21726162670E+03  0.00000000000E+00 0.  1.
         23    2    1    2    0    0 -0.28885364579E+03  0.47701851854E+03  0.64526040661E+03  0.85709037772E+03  0.85204621465E+02 0.  0.
    5000000    2    1    2    0    0  0.28885364579E+03 -0.47701851854E+03  0.13951141312E+04  0.16178074135E+04  0.59997857659E+03 0.  0.
         23    2    4    4    0    0  0.35679973814E+03 -0.19948173935E+03  0.40199539224E+03  0.58037198773E+03  0.90179439364E+02 0.  0.
         23    2    4    4    0    0 -0.67946092350E+02 -0.27753677919E+03  0.99311873893E+03  0.10374354257E+04  0.91346032745E+02 0.  0.
          3    1    3    3  502    0 -0.13513064924E+03  0.24010354639E+03  0.25539515604E+03  0.37568163527E+03  0.00000000000E+00 0. -1.
         -3    1    3    3    0  502 -0.15372299655E+03  0.23691497215E+03  0.38986525058E+03  0.48140874245E+03  0.00000000000E+00 0.  1.
         13    1    5    5    0    0  0.83076158127E+02 -0.55091619294E+02  0.15559831678E+03  0.18479061327E+03  0.00000000000E+00 0.  1.
        -13    1    5    5    0    0  0.27372358002E+03 -0.14439012006E+03  0.24639707545E+03  0.39558137446E+03  0.00000000000E+00 0. -1.
          5    1    6    6  503    0 -0.32534836691E+02 -0.23908329572E+03  0.72147758548E+03  0.76077022434E+03  0.47000000000E+01 0. -1.
         -5    1    6    6    0  503 -0.35411255659E+02 -0.38453483464E+02  0.27164115344E+03  0.27666520139E+03  0.47000000000E+01 0.  1.
<mgrwt>
<rscale>  0 0.63045418E+03</rscale>
<asrwt>0</asrwt>
<pdfrwt beam="1">  1        1 0.34732862E+00 0.63045418E+03</pdfrwt>
<pdfrwt beam="2">  1       -1 0.33424867E-01 0.63045418E+03</pdfrwt>
<totfact> 0.17865559E+01</totfact>
</mgrwt>
</event>
<event>
12    1  0.3127365E-008  0.7381927E+03  0.7818608E-02  0.9654058E-01
          1   -1    0    0  501    0  0.00000000000E+00  0.00000000000E+00  0.10212428260E+04  0.10212428260E+04  0.00000000000E+00 0. -1.
         -1   -1    0    0    0  501 -0.00000000000E+00 -0.00000000000E+00 -0.54240821679E+03  0.54240821679E+03  0.00000000000E+00 0.  1.
         23    2    1    2    0    0 -0.42207201754E+03  0.44788256145E+03  0.12627125513E+03  0.63459769604E+03  0.89589224264E+02 0.  0.
    5000000    2    1    2    0    0  0.42207201754E+03 -0.44788256145E+03  0.35256335412E+03  0.92905334678E+03  0.60007968276E+03 0.  0.
         23    2    4    4    0    0  0.43898847909E+03 -0.50974554414E+02  0.16769422042E+03  0.48132185556E+03  0.90774925533E+02 0.  0.
         23    2    4    4    0    0 -0.16916461550E+02 -0.39690800704E+03  0.18486913370E+03  0.44773149122E+03  0.92004124440E+02 0.  0.
          3    1    3    3  502    0 -0.15065596193E+03  0.10155611893E+03  0.44409559998E+02  0.18703762503E+03  0.00000000000E+00 0. -1.
         -3    1    3    3    0  502 -0.27141605561E+03  0.34632644252E+03  0.81861695128E+02  0.44756007101E+03  0.00000000000E+00 0.  1.
         11    1    5    5    0    0  0.13369090385E+03 -0.52605098200E+02  0.76087552085E+02  0.16257265979E+03  0.00000000000E+00 0.  1.
        -11    1    5    5    0    0  0.30529757524E+03  0.16305437863E+01  0.91606668332E+02  0.31874919577E+03  0.00000000000E+00 0. -1.
          5    1    6    6  503    0  0.33175176755E+02 -0.14317229668E+03  0.88906978531E+02  0.17182968231E+03  0.47000000000E+01 0. -1.
         -5    1    6    6    0  503 -0.50091638305E+02 -0.25373571035E+03  0.95962155167E+02  0.27590180891E+03  0.47000000000E+01 0.  1.
<mgrwt>
<rscale>  0 0.73819265E+03</rscale>
<asrwt>0</asrwt>
<pdfrwt beam="1">  1        1 0.15711428E+00 0.73819265E+03</pdfrwt>
<pdfrwt beam="2">  1       -1 0.83447418E-01 0.73819265E+03</pdfrwt>
<totfact> 0.21385183E+01</totfact>
</mgrwt>
</event>
<event>
12    1  0.3127365E-008  0.1202873E+04  0.7818608E-02  0.9110345E-01
          1   -1    0    0  501    0  0.00000000000E+00  0.00000000000E+00  0.32918594679E+04  0.32918594679E+04  0.00000000000E+00 0. -1.
         -1   -1    0    0    0  501 -0.00000000000E+00 -0.00000000000E+00 -0.45669848428E+03  0.45669848428E+03  0.00000000000E+00 0.  1.
         23    2    1    2    0    0 -0.11424262664E+04  0.63443015102E+02  0.11429837432E+04  0.16195494604E+04  0.85824396980E+02 0.  0.
    5000000    2    1    2    0    0  0.11424262664E+04 -0.63443015102E+02  0.16921772405E+04  0.21290084918E+04  0.60004212746E+03 0.  0.
         23    2    4    4    0    0  0.59845671177E+02  0.13779730034E+03  0.34081056135E+03  0.38347891951E+03  0.91294264002E+02 0.  0.
         23    2    4    4    0    0  0.10825805952E+04 -0.20124031544E+03  0.13513666791E+04  0.17455295723E+04  0.90571389734E+02 0.  0.
          2    1    3    3  502    0 -0.78184615862E+03  0.83246587563E+02  0.78665456649E+03  0.11122224674E+04  0.00000000000E+00 0. -1.
         -2    1    3    3    0  502 -0.36058010778E+03 -0.19803572462E+02  0.35632917668E+03  0.50732699294E+03  0.00000000000E+00 0.  1.
         13    1    5    5    0    0  0.52231790306E+01  0.60442745847E+02  0.53233777540E+02  0.80712094484E+02  0.00000000000E+00 0.  1.
        -13    1    5    5    0    0  0.54622492147E+02  0.77354554496E+02  0.28757678381E+03  0.30276682503E+03  0.00000000000E+00 0. -1.
          5    1    6    6  503    0  0.56851700638E+03 -0.13789727894E+03  0.76702495684E+03  0.96466399357E+03  0.47000000000E+01 0. -1.
         -5    1    6    6    0  503  0.51406358884E+03 -0.63343036506E+02  0.58434172226E+03  0.78086557872E+03  0.47000000000E+01 0.  1.
<mgrwt>
<rscale>  0 0.12028733E+04</rscale>
<asrwt>0</asrwt>
<pdfrwt beam="1">  1        1 0.50643990E+00 0.12028733E+04</pdfrwt>
<pdfrwt beam="2">  1       -1 0.70261307E-01 0.12028733E+04</pdfrwt>
<totfact> 0.74389172E-01</totfact>
</mgrwt>
</event>
<event>
12    1  0.3127365E-008  0.6194119E+03  0.7818608E-02  0.9865931E-01
          1   -1    0    0  501    0  0.00000000000E+00  0.00000000000E+00  0.73793995110E+03  0.73793995110E+03  0.00000000000E+00 0. -1.
         -1   -1    0    0    0  501 -0.00000000000E+00 -0.00000000000E+00 -0.55597152520E+03  0.55597152520E+03  0.00000000000E+00 0.  1.
         23    2    1    2    0    0  0.21194834571E+03  0.42994350337E+03 -0.54618385805E+02  0.49039647496E+03  0.87931889858E+02 0.  0.
    5000000    2    1    2    0    0 -0.21194834571E+03 -0.42994350337E+03  0.23658681171E+03  0.80351500134E+03  0.59990792674E+03 0.  0.
         23    2    4    4    0    0  0.12138940986E+03  0.63400502366E+02  0.51407106822E+02  0.17327011009E+03  0.92869951505E+02 0.  0.
         23    2    4    4    0    0 -0.33333775557E+03 -0.49334400573E+03  0.18517970489E+03  0.63024489125E+03  0.91731851429E+02 0.  0.
          2    1    3    3  502    0  0.10164965927E+03  0.16274065998E+03 -0.60728877915E+02  0.20125896813E+03  0.00000000000E+00 0. -1.
         -2    1    3    3    0  502  0.11029868644E+03  0.26720284338E+03  0.61104921103E+01  0.28913750683E+03  0.00000000000E+00 0.  1.
         13    1    5    5    0    0 -0.10737177132E+02  0.19477881859E+02 -0.54068726240E+01  0.22889061275E+02  0.00000000000E+00 0. -1.
        -13    1    5    5    0    0  0.13212658699E+03  0.43922620507E+02  0.56813979446E+02  0.15038104881E+03  0.00000000000E+00 0.  1.
          5    1    6    6  503    0 -0.28707529128E+03 -0.40339764490E+03  0.18617399912E+03  0.52898462239E+03  0.47000000000E+01 0. -1.
         -5    1    6    6    0  503 -0.46262464285E+02 -0.89946360829E+02 -0.99429423675E+00  0.10126026886E+03  0.47000000000E+01 0.  1.
<mgrwt>
<rscale>  0 0.61941193E+03</rscale>
<asrwt>0</asrwt>
<pdfrwt beam="1">  1        1 0.11352922E+00 0.61941193E+03</pdfrwt>
<pdfrwt beam="2">  1       -1 0.85534080E-01 0.61941193E+03</pdfrwt>
<totfact> 0.35256600E+01</totfact>
</mgrwt>
</event>
<event>
12    1  0.3127365E-008  0.6676963E+03  0.7818608E-02  0.9774128E-01
         -2   -1    0    0    0  501 -0.00000000000E+00  0.00000000000E+00  0.33840806686E+03  0.33840806686E+03  0.00000000000E+00 0.  1.
          2   -1    0    0  501    0  0.00000000000E+00 -0.00000000000E+00 -0.18804648549E+04  0.18804648549E+04  0.00000000000E+00 0. -1.
         23    2    1    2    0    0  0.75314681960E+02 -0.60368728342E+03 -0.23923171332E+03  0.66090935185E+03  0.97255957264E+02 0.  0.
    5000000    2    1    2    0    0 -0.75314681960E+02  0.60368728342E+03 -0.13028250747E+04  0.15579635699E+04  0.59982220065E+03 0.  0.
         23    2    4    4    0    0  0.15382436931E+03  0.23197108698E+03 -0.17041621548E+03  0.34067281935E+03  0.97692177542E+02 0.  0.
         23    2    4    4    0    0 -0.22913905127E+03  0.37171619643E+03 -0.11324088593E+04  0.12172907506E+04  0.93644601699E+02 0.  0.
          1    1    3    3  502    0 -0.20294821639E+02 -0.15006827335E+03 -0.42314840805E+02  0.15723521299E+03  0.00000000000E+00 0. -1.
         -1    1    3    3    0  502  0.95609503599E+02 -0.45361901007E+03 -0.19691687252E+03  0.50367413886E+03  0.00000000000E+00 0.  1.
         13    1    5    5    0    0  0.12704722404E+03  0.15896112256E+03 -0.16629249433E+03  0.26279807704E+03  0.00000000000E+00 0.  1.
        -13    1    5    5    0    0  0.26777145271E+02  0.73009964425E+02 -0.41237211475E+01  0.77874742313E+02  0.00000000000E+00 0. -1.
          5    1    6    6  503    0 -0.13102773517E+03  0.16937686099E+03 -0.44192767088E+03  0.49109972990E+03  0.47000000000E+01 0. -1.
         -5    1    6    6    0  503 -0.98111316101E+02  0.20233933545E+03 -0.69048118839E+03  0.72619102069E+03  0.47000000000E+01 0.  1.
<mgrwt>
<rscale>  0 0.66769630E+03</rscale>
<asrwt>0</asrwt>
<pdfrwt beam="1">  1        2 0.28930229E+00 0.66769630E+03</pdfrwt>
<pdfrwt beam="2">  1       -2 0.52062779E-01 0.66769630E+03</pdfrwt>
<totfact> 0.28257800E+01</totfact>
</mgrwt>
</event>
<event>
12    1  0.3127365E-008  0.2680196E+03  0.7818608E-02  0.1102418E+00
         -2   -1    0    0    0  501 -0.00000000000E+00  0.00000000000E+00  0.24591719599E+03  0.24591719599E+03  0.00000000000E+00 0.  1.
          2   -1    0    0  501    0  0.00000000000E+00 -0.00000000000E+00 -0.51844394246E+03  0.51844394246E+03  0.00000000000E+00 0. -1.
         23    2    1    2    0    0 -0.34682493835E+02  0.50760625505E+02 -0.45389758624E+02  0.11987228369E+03  0.92355929578E+02 0.  0.
    5000000    2    1    2    0    0  0.34682493835E+02 -0.50760625505E+02 -0.22713698784E+03  0.64448885476E+03  0.59999596348E+03 0.  0.
         23    2    4    4    0    0 -0.13738588687E+03  0.98933669120E+02 -0.32703091720E+03  0.37856378736E+03  0.87741481050E+02 0.  0.
         23    2    4    4    0    0  0.17206838071E+03 -0.14969429463E+03  0.99893929364E+02  0.26592506740E+03  0.93388622788E+02 0.  0.
          1    1    3    3  502    0  0.22057283665E+01  0.69524009363E+02 -0.28157034833E+02  0.75041799860E+02  0.00000000000E+00 0. -1.
         -1    1    3    3    0  502 -0.36888222201E+02 -0.18763383858E+02 -0.17232723791E+02  0.44830483828E+02  0.00000000000E+00 0.  1.
         13    1    5    5    0    0 -0.91184848143E+02  0.97324618265E+02 -0.29047172250E+03  0.31962568643E+03  0.00000000000E+00 0. -1.
        -13    1    5    5    0    0 -0.46201038730E+02  0.16090508556E+01 -0.36559194701E+02  0.58938100933E+02  0.00000000000E+00 0.  1.
          5    1    6    6  503    0  0.16072982038E+03 -0.89425299262E+02  0.84802957102E+02  0.20259464662E+03  0.47000000000E+01 0. -1.
         -5    1    6    6    0  503  0.11338560333E+02 -0.60268995364E+02  0.15090972261E+02  0.63330420782E+02  0.47000000000E+01 0.  1.
<mgrwt>
<rscale>  0 0.26801961E+03</rscale>
<asrwt>0</asrwt>
<pdfrwt beam="1">  1        2 0.79760605E-01 0.26801961E+03</pdfrwt>
<pdfrwt beam="2">  1       -2 0.37833416E-01 0.26801961E+03</pdfrwt>
<totfact> 0.39862775E+02</totfact>
</mgrwt>
</event>
<event>
12    1  0.3127365E-008  0.1113495E+04  0.7818608E-02  0.9192138E-01
         -2   -1    0    0    0  501 -0.00000000000E+00  0.00000000000E+00  0.56172032874E+03  0.56172032874E+03  0.00000000000E+00 0.  1.
          2   -1    0    0  501    0  0.00000000000E+00 -0.00000000000E+00 -0.29614806385E+04  0.29614806385E+04  0.00000000000E+00 0. -1.
         23    2    1    2    0    0 -0.95507924545E+03  0.53008083791E+03 -0.39765394417E+03  0.11648988775E+04  0.75489573309E+02 0.  0.
    5000000    2    1    2    0    0  0.95507924545E+03 -0.53008083791E+03 -0.20021063656E+04  0.23583020898E+04  0.59999732296E+03 0.  0.
         23    2    4    4    0    0  0.43098619749E+03 -0.10067627683E+03 -0.13091117365E+04  0.13847061348E+04  0.88049564837E+02 0.  0.
         23    2    4    4    0    0  0.52409304796E+03 -0.42940456108E+03 -0.69299462909E+03  0.97359595498E+03  0.92659201436E+02 0.  0.
          2    1    3    3  502    0 -0.65162971170E+03  0.38525499633E+03 -0.30498725077E+03  0.81612493927E+03  0.00000000000E+00 0.  1.
         -2    1    3    3    0  502 -0.30344953375E+03  0.14482584158E+03 -0.92666693402E+02  0.34877393823E+03  0.00000000000E+00 0. -1.
         13    1    5    5    0    0  0.16682916012E+03 -0.83291498402E+02 -0.55289120275E+03  0.58348789572E+03  0.00000000000E+00 0. -1.
        -13    1    5    5    0    0  0.26415703737E+03 -0.17384778428E+02 -0.75622053376E+03  0.80121823905E+03  0.00000000000E+00 0.  1.
          5    1    6    6  503    0  0.40767788623E+03 -0.37514437305E+03 -0.58504989104E+03  0.80575432022E+03  0.47000000000E+01 0. -1.
         -5    1    6    6    0  503  0.11641516173E+03 -0.54260188037E+02 -0.10794473805E+03  0.16784163476E+03  0.47000000000E+01 0.  1.
<mgrwt>
<rscale>  0 0.11134951E+04</rscale>
<asrwt>0</asrwt>
<pdfrwt beam="1">  1        2 0.45561241E+00 0.11134951E+04</pdfrwt>
<pdfrwt beam="2">  1       -2 0.86418512E-01 0.11134951E+04</pdfrwt>
<totfact> 0.21420880E+00</totfact>
</mgrwt>
</event>
<event>
12    1  0.3127365E-008  0.6977828E+03  0.7818608E-02  0.9721031E-01
          1   -1    0    0  501    0  0.00000000000E+00  0.00000000000E+00  0.21801395033E+04  0.21801395033E+04  0.00000000000E+00 0.  1.
         -1   -1    0    0    0  501 -0.00000000000E+00 -0.00000000000E+00 -0.34050683313E+03  0.34050683313E+03  0.00000000000E+00 0. -1.
         23    2    1    2    0    0 -0.47553049438E+03 -0.31883784712E+03  0.92930750863E+02  0.58704766573E+03  0.90564968679E+02 0.  0.
    5000000    2    1    2    0    0  0.47553049438E+03  0.31883784712E+03  0.17467019193E+04  0.19335986707E+04  0.60004116570E+03 0.  0.
         23    2    4    4    0    0  0.59328373990E+03  0.31922913223E+03  0.13636423113E+04  0.15236875918E+04  0.90612853624E+02 0.  0.
         23    2    4    4    0    0 -0.11775324553E+03 -0.39128511136E+00  0.38305960797E+03  0.40991107889E+03  0.86176849556E+02 0.  0.
          2    1    3    3  502    0 -0.26123758685E+03 -0.22357182549E+03  0.74399497647E+02  0.35180210800E+03  0.00000000000E+00 0. -1.
         -2    1    3    3    0  502 -0.21429290752E+03 -0.95266021626E+02  0.18531253217E+02  0.23524555774E+03  0.00000000000E+00 0.  1.
         11    1    5    5    0    0  0.51803580809E+03  0.27104547570E+03  0.12422368109E+04  0.13729453896E+04  0.00000000000E+00 0.  1.
        -11    1    5    5    0    0  0.75247931818E+02  0.48183656534E+02  0.12140550041E+03  0.15074220222E+03  0.00000000000E+00 0. -1.
          5    1    6    6  503    0 -0.28181541027E+02  0.36376661623E+02  0.16322036879E+03  0.16964798718E+03  0.47000000000E+01 0. -1.
         -5    1    6    6    0  503 -0.89571704500E+02 -0.36767946734E+02  0.21983923918E+03  0.24026309171E+03  0.47000000000E+01 0.  1.
<mgrwt>
<rscale>  0 0.69778280E+03</rscale>
<asrwt>0</asrwt>
<pdfrwt beam="1">  1        1 0.33540607E+00 0.69778280E+03</pdfrwt>
<pdfrwt beam="2">  1       -1 0.52385668E-01 0.69778280E+03</pdfrwt>
<totfact> 0.87374059E+00</totfact>
</mgrwt>
</event>
<event>
12    1  0.3127365E-008  0.7026821E+03  0.7818608E-02  0.9712656E-01
          2   -1    0    0  501    0  0.00000000000E+00  0.00000000000E+00  0.59548995821E+03  0.59548995821E+03  0.00000000000E+00 0. -1.
         -2   -1    0    0    0  501 -0.00000000000E+00 -0.00000000000E+00 -0.93263981196E+03  0.93263981196E+03  0.00000000000E+00 0.  1.
         23    2    1    2    0    0 -0.58535187632E+03  0.24025545843E+02 -0.35257601719E+03  0.68932564756E+03  0.87441148927E+02 0.  0.
    5000000    2    1    2    0    0  0.58535187632E+03 -0.24025545843E+02  0.15426163447E+02  0.83880412261E+03  0.60011694162E+03 0.  0.
         23    2    4    4    0    0  0.58392383519E+03 -0.21375367945E+03  0.19604281297E+02  0.62875799220E+03  0.91074717279E+02 0.  0.
         23    2    4    4    0    0  0.14280411254E+01  0.18972813361E+03 -0.41781178501E+01  0.21004613040E+03  0.90017310796E+02 0.  0.
          4    1    3    3  502    0 -0.33258817388E+03  0.36737017336E+01 -0.15049217796E+03  0.36507024682E+03  0.00000000000E+00 0. -1.
         -4    1    3    3    0  502 -0.25276370244E+03  0.20351844109E+02 -0.20208383923E+03  0.32425540074E+03  0.00000000000E+00 0.  1.
         13    1    5    5    0    0  0.13404180449E+03 -0.44069830063E+02  0.42596608637E+02  0.14739004831E+03  0.00000000000E+00 0.  1.
        -13    1    5    5    0    0  0.44988203070E+03 -0.16968384939E+03 -0.22992327340E+02  0.48136794390E+03  0.00000000000E+00 0. -1.
          5    1    6    6  503    0 -0.20753597851E+02  0.35652532332E+02 -0.31262394695E+02  0.51973476000E+02  0.47000000000E+01 0. -1.
         -5    1    6    6    0  503  0.22181638977E+02  0.15407560128E+03  0.27084276845E+02  0.15807265440E+03  0.47000000000E+01 0.  1.
<mgrwt>
<rscale>  0 0.70268210E+03</rscale>
<asrwt>0</asrwt>
<pdfrwt beam="1">  1        2 0.91613840E-01 0.70268210E+03</pdfrwt>
<pdfrwt beam="2">  1       -2 0.14348305E+00 0.70268210E+03</pdfrwt>
<totfact> 0.17173383E+01</totfact>
</mgrwt>
</event>
<event>
12    1  0.3127365E-008  0.5441052E+03  0.7818608E-02  0.1002868E+00
         -1   -1    0    0    0  501 -0.00000000000E+00  0.00000000000E+00  0.22295465241E+03  0.22295465241E+03  0.00000000000E+00 0.  1.
          1   -1    0    0  501    0  0.00000000000E+00 -0.00000000000E+00 -0.20446746702E+04  0.20446746702E+04  0.00000000000E+00 0. -1.
         23    2    1    2    0    0 -0.52093699302E+03  0.68386309199E+02 -0.92521593095E+03  0.10677628137E+04  0.89670895647E+02 0.  0.
    5000000    2    1    2    0    0  0.52093699302E+03 -0.68386309199E+02 -0.89650408679E+03  0.11998665088E+04  0.59992334793E+03 0.  0.
         23    2    4    4    0    0  0.37035544073E+03 -0.40069773082E+02 -0.93917360595E+03  0.10146050322E+04  0.92776990491E+02 0.  0.
         23    2    4    4    0    0  0.15058155229E+03 -0.28316536117E+02  0.42669519158E+02  0.18526147668E+03  0.94997351367E+02 0.  0.
          3    1    3    3  502    0 -0.91307437992E+02  0.21596459460E+02 -0.23948188618E+03  0.25720619958E+03  0.00000000000E+00 0. -1.
         -3    1    3    3    0  502 -0.42962955503E+03  0.46789849740E+02 -0.68573404477E+03  0.81055661416E+03  0.00000000000E+00 0.  1.
         13    1    5    5    0    0  0.13962258408E+03  0.27696439079E+02 -0.38655335232E+03  0.41192845606E+03  0.00000000000E+00 0. -1.
        -13    1    5    5    0    0  0.23073285665E+03 -0.67766212162E+02 -0.55262025363E+03  0.60267657609E+03  0.00000000000E+00 0.  1.
          5    1    6    6  503    0  0.70996496872E+02 -0.60520852234E+02  0.13031828800E+02  0.94314339764E+02  0.47000000000E+01 0. -1.
         -5    1    6    6    0  503  0.79585055421E+02  0.32204316117E+02  0.29637690358E+02  0.90947136914E+02  0.47000000000E+01 0.  1.
<mgrwt>
<rscale>  0 0.54410521E+03</rscale>
<asrwt>0</asrwt>
<pdfrwt beam="1">  1        1 0.31456534E+00 0.54410521E+03</pdfrwt>
<pdfrwt beam="2">  1       -1 0.34300715E-01 0.54410521E+03</pdfrwt>
<totfact> 0.24042686E+01</totfact>
</mgrwt>
</event>
<event>
12    1  0.3127365E-008  0.1348433E+04  0.7818608E-02  0.8992015E-01
          1   -1    0    0  501    0  0.00000000000E+00  0.00000000000E+00  0.12576976122E+04  0.12576976122E+04  0.00000000000E+00 0. -1.
         -1   -1    0    0    0  501 -0.00000000000E+00 -0.00000000000E+00 -0.16347686519E+04  0.16347686519E+04  0.00000000000E+00 0.  1.
         23    2    1    2    0    0 -0.88122477429E+03  0.10058388512E+04 -0.47852150033E+03  0.14232600405E+04  0.91746493516E+02 0.  0.
    5000000    2    1    2    0    0  0.88122477429E+03 -0.10058388512E+04  0.10145046061E+03  0.14692062236E+04  0.60000486176E+03 0.  0.
         23    2    4    4    0    0  0.21959611916E+03 -0.34871047978E+03 -0.22319063295E+03  0.47744664181E+03  0.91212843867E+02 0.  0.
         23    2    4    4    0    0  0.66162865513E+03 -0.65712837142E+03  0.32464109355E+03  0.99175958180E+03  0.92871172331E+02 0.  0.
          1    1    3    3  502    0 -0.24885642202E+03  0.25450083844E+03 -0.16548133301E+03  0.39253568898E+03  0.00000000000E+00 0. -1.
         -1    1    3    3    0  502 -0.63236835227E+03  0.75133801276E+03 -0.31304016732E+03  0.10307243515E+04  0.00000000000E+00 0.  1.
         11    1    5    5    0    0 -0.87490741830E+01 -0.96702924166E+01 -0.41111145475E+01  0.13673409133E+02  0.00000000000E+00 0.  1.
        -11    1    5    5    0    0  0.22834519334E+03 -0.33904018736E+03 -0.21907951840E+03  0.46377323268E+03  0.00000000000E+00 0. -1.
          5    1    6    6  503    0  0.61623730270E+03 -0.63962850781E+03  0.30993990461E+03  0.94072199704E+03  0.47000000000E+01 0. -1.
         -5    1    6    6    0  503  0.45391352431E+02 -0.17499863612E+02  0.14701188940E+02  0.51037584760E+02  0.47000000000E+01 0.  1.
<mgrwt>
<rscale>  0 0.13484333E+04</rscale>
<asrwt>0</asrwt>
<pdfrwt beam="1">  1        1 0.19349194E+00 0.13484333E+04</pdfrwt>
<pdfrwt beam="2">  1       -1 0.25150287E+00 0.13484333E+04</pdfrwt>
<totfact> 0.63728946E-01</totfact>
</mgrwt>
</event>
<event>
12    1  0.3127365E-008  0.1099690E+04  0.7818608E-02  0.9205494E-01
          2   -1    0    0  501    0  0.00000000000E+00  0.00000000000E+00  0.30605315853E+04  0.30605315853E+04  0.00000000000E+00 0. -1.
         -2   -1    0    0    0  501 -0.00000000000E+00 -0.00000000000E+00 -0.13103263622E+04  0.13103263622E+04  0.00000000000E+00 0.  1.
         23    2    1    2    0    0 -0.69217554295E+03 -0.83359042100E+03  0.26339614468E+04  0.28495505909E+04  0.90585289821E+02 0.  0.
    5000000    2    1    2    0    0  0.69217554295E+03  0.83359042100E+03 -0.88375622359E+03  0.15213073566E+04  0.59947563611E+03 0.  0.
         23    2    4    4    0    0  0.50697177536E+03  0.71700391785E+03 -0.92767418262E+03  0.12805640172E+04  0.90276318965E+02 0.  0.
         23    2    4    4    0    0  0.18520376760E+03  0.11658650315E+03  0.43917959037E+02  0.24074333943E+03  0.90198226724E+02 0.  0.
          1    1    3    3  502    0 -0.39978047304E+03 -0.52944063615E+03  0.16922996712E+04  0.18176935911E+04  0.00000000000E+00 0. -1.
         -1    1    3    3    0  502 -0.29239506992E+03 -0.30414978485E+03  0.94166177557E+03  0.10318569998E+04  0.00000000000E+00 0.  1.
         13    1    5    5    0    0  0.46799108362E+03  0.61027173053E+03 -0.81382360456E+03  0.11197125072E+04  0.00000000000E+00 0.  1.
        -13    1    5    5    0    0  0.38980691736E+02  0.10673218732E+03 -0.11385057807E+03  0.16085150998E+03  0.00000000000E+00 0. -1.
          5    1    6    6  503    0  0.65710149915E+02  0.85264560587E+02  0.45872883275E+02  0.11710798655E+03  0.47000000000E+01 0. -1.
         -5    1    6    6    0  503  0.11949361768E+03  0.31321942567E+02 -0.19549242380E+01  0.12363535288E+03  0.47000000000E+01 0.  1.
<mgrwt>
<rscale>  0 0.10996901E+04</rscale>
<asrwt>0</asrwt>
<pdfrwt beam="1">  1        2 0.47085101E+00 0.10996901E+04</pdfrwt>
<pdfrwt beam="2">  1       -2 0.20158867E+00 0.10996901E+04</pdfrwt>
<totfact> 0.20718207E-01</totfact>
</mgrwt>
</event>
<event>
12    1  0.3127365E-008  0.4039950E+03  0.7818608E-02  0.1042405E+00
          1   -1    0    0  501    0  0.00000000000E+00  0.00000000000E+00  0.74823979879E+03  0.74823979879E+03  0.00000000000E+00 0.  1.
         -1   -1    0    0    0  501 -0.00000000000E+00 -0.00000000000E+00 -0.26032690258E+03  0.26032690258E+03  0.00000000000E+00 0. -1.
         23    2    1    2    0    0 -0.19780947870E+03 -0.56168480468E+02  0.13105351055E+02  0.21632572034E+03  0.65890659384E+02 0.  0.
    5000000    2    1    2    0    0  0.19780947870E+03  0.56168480468E+02  0.47480754515E+03  0.79224098103E+03  0.59993339549E+03 0.  0.
         23    2    4    4    0    0  0.11658174646E+03 -0.24606750989E+03  0.32309011019E+03  0.43216465420E+03  0.90766436604E+02 0.  0.
         23    2    4    4    0    0  0.81227732237E+02  0.30223599035E+03  0.15171743496E+03  0.36007632682E+03  0.93232197854E+02 0.  0.
          3    1    3    3  502    0 -0.14114407607E+03 -0.44781706562E+02 -0.20465481499E+02  0.14948540860E+03  0.00000000000E+00 0. -1.
         -3    1    3    3    0  502 -0.56665402633E+02 -0.11386773906E+02  0.33570832554E+02  0.66840311743E+02  0.00000000000E+00 0.  1.
         11    1    5    5    0    0  0.52206347211E+02 -0.18752454251E+03  0.25948733973E+03  0.32438347094E+03  0.00000000000E+00 0.  1.
        -11    1    5    5    0    0  0.64375399253E+02 -0.58542967371E+02  0.63602770452E+02  0.10778118327E+03  0.00000000000E+00 0. -1.
          5    1    6    6  503    0  0.93247939898E+02  0.25856862706E+03  0.15281703339E+03  0.31452829585E+03  0.47000000000E+01 0. -1.
         -5    1    6    6    0  503 -0.12020207661E+02  0.43667363295E+02 -0.10995984205E+01  0.45548030978E+02  0.47000000000E+01 0.  1.
<mgrwt>
<rscale>  0 0.40399502E+03</rscale>
<asrwt>0</asrwt>
<pdfrwt beam="1">  1        1 0.11511381E+00 0.40399502E+03</pdfrwt>
<pdfrwt beam="2">  1       -1 0.40050293E-01 0.40399502E+03</pdfrwt>
<totfact> 0.15615244E+02</totfact>
</mgrwt>
</event>
<event>
12    1  0.3127365E-008  0.8959636E+03  0.7818608E-02  0.9430641E-01
          1   -1    0    0  501    0  0.00000000000E+00  0.00000000000E+00  0.14932165779E+04  0.14932165779E+04  0.00000000000E+00 0. -1.
         -1   -1    0    0    0  501 -0.00000000000E+00 -0.00000000000E+00 -0.72023402838E+03  0.72023402838E+03  0.00000000000E+00 0.  1.
         23    2    1    2    0    0  0.15338618266E+03  0.83430972130E+03 -0.99107657707E+02  0.85692885359E+03  0.70033564947E+02 0.  0.
    5000000    2    1    2    0    0 -0.15338618266E+03 -0.83430972130E+03  0.87209020724E+03  0.13565217527E+04  0.60000825320E+03 0.  0.
         23    2    4    4    0    0 -0.12859210908E+03 -0.83566799888E+03  0.53211192976E+03  0.10031177704E+04  0.90693001655E+02 0.  0.
         23    2    4    4    0    0 -0.24794073578E+02  0.13582775853E+01  0.33997827748E+03  0.35340398234E+03  0.93233870315E+02 0.  0.
          1    1    3    3  502    0  0.12651881338E+03  0.71060892721E+03 -0.10895657975E+03  0.72996136462E+03  0.00000000000E+00 0. -1.
         -1    1    3    3    0  502  0.26867369281E+02  0.12370079409E+03  0.98489220429E+01  0.12696748897E+03  0.00000000000E+00 0.  1.
         13    1    5    5    0    0 -0.45852438073E+02 -0.54595231086E+03  0.31780909802E+03  0.63337902917E+03  0.00000000000E+00 0.  1.
        -13    1    5    5    0    0 -0.82739671009E+02 -0.28971568802E+03  0.21430283174E+03  0.36973874119E+03  0.00000000000E+00 0. -1.
          5    1    6    6  503    0 -0.51464870703E+02  0.25928202027E+02  0.17086179321E+03  0.18037945270E+03  0.47000000000E+01 0. -1.
         -5    1    6    6    0  503  0.26670797125E+02 -0.24569924441E+02  0.16911648427E+03  0.17302452964E+03  0.47000000000E+01 0.  1.
<mgrwt>
<rscale>  0 0.89596362E+03</rscale>
<asrwt>0</asrwt>
<pdfrwt beam="1">  1        1 0.22972563E+00 0.89596362E+03</pdfrwt>
<pdfrwt beam="2">  1       -1 0.11080524E+00 0.89596362E+03</pdfrwt>
<totfact> 0.50549212E+00</totfact>
</mgrwt>
</event>
<event>
12    1  0.3127365E-008  0.8047196E+03  0.7818608E-02  0.9553211E-01
          2   -1    0    0  501    0  0.00000000000E+00  0.00000000000E+00  0.24266432734E+04  0.24266432734E+04  0.00000000000E+00 0. -1.
         -2   -1    0    0    0  501 -0.00000000000E+00 -0.00000000000E+00 -0.31371925076E+03  0.31371925076E+03  0.00000000000E+00 0.  1.
         23    2    1    2    0    0  0.68337834196E+03 -0.33109401329E+03  0.77418251816E+03  0.10884516955E+04  0.93484320229E+02 0.  0.
    5000000    2    1    2    0    0 -0.68337834196E+03  0.33109401329E+03  0.13387415045E+04  0.16519108286E+04  0.59995947036E+03 0.  0.
         23    2    4    4    0    0 -0.28178921916E+03  0.32278005690E+03  0.28946925457E+03  0.52471374641E+03  0.89106325033E+02 0.  0.
         23    2    4    4    0    0 -0.40158912279E+03  0.83139563985E+01  0.10492722499E+04  0.11271970822E+04  0.90873881601E+02 0.  0.
          3    1    3    3  502    0  0.76927556180E+02 -0.62829828590E+02  0.13331830087E+03  0.16625043040E+03  0.00000000000E+00 0. -1.
         -3    1    3    3    0  502  0.60645078577E+03 -0.26826418470E+03  0.64086421729E+03  0.92220126511E+03  0.00000000000E+00 0.  1.
         11    1    5    5    0    0  0.60485472676E+01  0.14554039152E+01  0.48543152630E+01  0.78909759395E+01  0.00000000000E+00 0. -1.
        -11    1    5    5    0    0 -0.28783776643E+03  0.32132465298E+03  0.28461493931E+03  0.51682277047E+03  0.00000000000E+00 0.  1.
          5    1    6    6  503    0 -0.33345016737E+03 -0.22901604287E+02  0.90064706917E+03  0.96067722508E+03  0.47000000000E+01 0. -1.
         -5    1    6    6    0  503 -0.68138955423E+02  0.31215560685E+02  0.14862518073E+03  0.16651985714E+03  0.47000000000E+01 0.  1.
<mgrwt>
<rscale>  0 0.80471963E+03</rscale>
<asrwt>0</asrwt>
<pdfrwt beam="1">  1        2 0.37332972E+00 0.80471963E+03</pdfrwt>
<pdfrwt beam="2">  1       -2 0.48264501E-01 0.80471963E+03</pdfrwt>
<totfact> 0.16174823E+01</totfact>
</mgrwt>
</event>
<event>
12    1  0.3127365E-008  0.5835603E+03  0.7818608E-02  0.9940113E-01
          1   -1    0    0  501    0  0.00000000000E+00  0.00000000000E+00  0.62242825886E+03  0.62242825886E+03  0.00000000000E+00 0. -1.
         -1   -1    0    0    0  501 -0.00000000000E+00 -0.00000000000E+00 -0.67058537672E+03  0.67058537672E+03  0.00000000000E+00 0.  1.
         23    2    1    2    0    0  0.24679630767E+03 -0.40860135828E+03 -0.17368130042E+03  0.51594024234E+03  0.90363997682E+02 0.  0.
    5000000    2    1    2    0    0 -0.24679630767E+03  0.40860135828E+03  0.12552418256E+03  0.77707339325E+03  0.60018601335E+03 0.  0.
         23    2    4    4    0    0 -0.32441923344E+03  0.44749675070E+03  0.23551980232E+03  0.60823604153E+03  0.94764571523E+02 0.  0.
         23    2    4    4    0    0  0.77622925763E+02 -0.38895392418E+02 -0.10999561977E+03  0.16883735172E+03  0.94174544402E+02 0.  0.
          1    1    3    3  502    0  0.76304281288E+02 -0.18205085327E+03 -0.10755512000E+03  0.22479537441E+03  0.00000000000E+00 0. -1.
         -1    1    3    3    0  502  0.17049202639E+03 -0.22655050501E+03 -0.66126180420E+02  0.29114486792E+03  0.00000000000E+00 0.  1.
         11    1    5    5    0    0 -0.13444881331E+03  0.26398276523E+03  0.13603381499E+03  0.32598862336E+03  0.00000000000E+00 0. -1.
        -11    1    5    5    0    0 -0.18997042013E+03  0.18351398547E+03  0.99485987332E+02  0.28224741817E+03  0.00000000000E+00 0.  1.
          5    1    6    6  503    0  0.81681193134E+02  0.45291059312E+01 -0.86201997890E+02  0.11893361406E+03  0.47000000000E+01 0. -1.
         -5    1    6    6    0  503 -0.40582673708E+01 -0.43424498349E+02 -0.23793621875E+02  0.49903737665E+02  0.47000000000E+01 0.  1.
<mgrwt>
<rscale>  0 0.58356032E+03</rscale>
<asrwt>0</asrwt>
<pdfrwt beam="1">  1        1 0.95758194E-01 0.58356032E+03</pdfrwt>
<pdfrwt beam="2">  1       -1 0.10316698E+00 0.58356032E+03</pdfrwt>
<totfact> 0.30069597E+01</totfact>
</mgrwt>
</event>
<event>
12    1  0.3127365E-008  0.7459837E+03  0.7818608E-02  0.9641672E-01
         -2   -1    0    0    0  501 -0.00000000000E+00  0.00000000000E+00  0.23590274015E+03  0.23590274015E+03  0.00000000000E+00 0.  1.
          2   -1    0    0  501    0  0.00000000000E+00 -0.00000000000E+00 -0.41838973553E+04  0.41838973553E+04  0.00000000000E+00 0. -1.
         23    2    1    2    0    0  0.92813262454E+02 -0.69179829850E+03 -0.30639866861E+04  0.31438015956E+04  0.90966325984E+02 0.  0.
    5000000    2    1    2    0    0 -0.92813262454E+02  0.69179829850E+03 -0.88400792903E+03  0.12759984998E+04  0.59958566150E+03 0.  0.
         23    2    4    4    0    0 -0.22136408544E+03  0.47991036626E+03 -0.25426855111E+03  0.59312306070E+03  0.88467231760E+02 0.  0.
         23    2    4    4    0    0  0.12855082298E+03  0.21188793224E+03 -0.62973937793E+03  0.68287543912E+03  0.91243472778E+02 0.  0.
          3    1    3    3  502    0  0.98086617127E+02 -0.59859931676E+03 -0.27567944391E+04  0.28227393975E+04  0.00000000000E+00 0.  1.
         -3    1    3    3    0  502 -0.52733546735E+01 -0.93198981743E+02 -0.30719224696E+03  0.32106219811E+03  0.00000000000E+00 0. -1.
         11    1    5    5    0    0 -0.10396792451E+03  0.30393848717E+03 -0.12187596892E+03  0.34357195041E+03  0.00000000000E+00 0.  1.
        -11    1    5    5    0    0 -0.11739616093E+03  0.17597187909E+03 -0.13239258219E+03  0.24955111029E+03  0.00000000000E+00 0. -1.
          5    1    6    6  503    0  0.13619761292E+03  0.17778997923E+03 -0.58124158536E+03  0.62291487141E+03  0.47000000000E+01 0.  1.
         -5    1    6    6    0  503 -0.76467899343E+01  0.34097953011E+02 -0.48497792573E+02  0.59960567711E+02  0.47000000000E+01 0.  1.
<mgrwt>
<rscale>  0 0.74598367E+03</rscale>
<asrwt>0</asrwt>
<pdfrwt beam="1">  1        2 0.64367647E+00 0.74598367E+03</pdfrwt>
<pdfrwt beam="2">  1       -2 0.36292732E-01 0.74598367E+03</pdfrwt>
<totfact> 0.19207231E+00</totfact>
</mgrwt>
</event>
<event>
12    1  0.3127365E-008  0.1385937E+04  0.7818608E-02  0.8964061E-01
         -1   -1    0    0    0  501 -0.00000000000E+00  0.00000000000E+00  0.14792961737E+04  0.14792961737E+04  0.00000000000E+00 0.  1.
          1   -1    0    0  501    0  0.00000000000E+00 -0.00000000000E+00 -0.13340518994E+04  0.13340518994E+04  0.00000000000E+00 0. -1.
         23    2    1    2    0    0  0.77108054932E+03 -0.10844494650E+04 -0.80919351354E+02  0.13362566162E+04  0.91858299278E+02 0.  0.
    5000000    2    1    2    0    0 -0.77108054932E+03  0.10844494650E+04  0.22616362571E+03  0.14770914569E+04  0.60004444066E+03 0.  0.
         23    2    4    4    0    0 -0.18351102049E+03  0.72375896571E+03  0.21178776021E+03  0.78152806508E+03  0.91808093519E+02 0.  0.
         23    2    4    4    0    0 -0.58756952883E+03  0.36069049932E+03  0.14375865493E+02  0.69556339184E+03  0.90918529749E+02 0.  0.
          1    1    3    3  502    0  0.44941341319E+03 -0.56248268355E+03 -0.21968758966E+02  0.72030674828E+03  0.00000000000E+00 0. -1.
         -1    1    3    3    0  502  0.32166713613E+03 -0.52196678149E+03 -0.58950592388E+02  0.61594986792E+03  0.00000000000E+00 0.  1.
         13    1    5    5    0    0 -0.92975753981E+02  0.43188362660E+03  0.16878417911E+03  0.47292288682E+03  0.00000000000E+00 0. -1.
        -13    1    5    5    0    0 -0.90535266504E+02  0.29187533911E+03  0.43003581104E+02  0.30860517826E+03  0.00000000000E+00 0.  1.
          5    1    6    6  503    0 -0.27025702670E+02  0.60755858737E+01  0.15831567214E+02  0.32249494089E+02  0.47000000000E+01 0. -1.
         -5    1    6    6    0  503 -0.56054382616E+03  0.35461491344E+03 -0.14557017208E+01  0.66331389775E+03  0.47000000000E+01 0.  1.
<mgrwt>
<rscale>  0 0.13859374E+04</rscale>
<asrwt>0</asrwt>
<pdfrwt beam="1">  1        1 0.20523875E+00 0.13859374E+04</pdfrwt>
<pdfrwt beam="2">  1       -1 0.22758403E+00 0.13859374E+04</pdfrwt>
<totfact> 0.80362327E-01</totfact>
</mgrwt>
</event>
<event>
12    1  0.3127365E-008  0.4834858E+03  0.7818608E-02  0.1018182E+00
         -2   -1    0    0    0  501 -0.00000000000E+00  0.00000000000E+00  0.20005673550E+03  0.20005673550E+03  0.00000000000E+00 0.  1.
          2   -1    0    0  501    0  0.00000000000E+00 -0.00000000000E+00 -0.17382546809E+04  0.17382546809E+04  0.00000000000E+00 0. -1.
         23    2    1    2    0    0 -0.39796783957E+03 -0.16254558501E+03 -0.64046883306E+03  0.77611682275E+03  0.85776033367E+02 0.  0.
    5000000    2    1    2    0    0  0.39796783957E+03  0.16254558501E+03 -0.89772911234E+03  0.11621945936E+04  0.59998270460E+03 0.  0.
         23    2    4    4    0    0  0.19730481983E+02 -0.75685504299E+02  0.34416796139E+02  0.12448618057E+03  0.90524614419E+02 0.  0.
         23    2    4    4    0    0  0.37823735759E+03  0.23823108931E+03 -0.93214590848E+03  0.10377084131E+04  0.90139920613E+02 0.  0.
          1    1    3    3  502    0 -0.26618151682E+03 -0.65215560484E+02 -0.38325349524E+03  0.47115699171E+03  0.00000000000E+00 0. -1.
         -1    1    3    3    0  502 -0.13178632275E+03 -0.97330024524E+02 -0.25721533782E+03  0.30495983104E+03  0.00000000000E+00 0.  1.
         13    1    5    5    0    0  0.16496148206E+02 -0.73673438477E+02 -0.13263571868E+02  0.76653902584E+02  0.00000000000E+00 0. -1.
        -13    1    5    5    0    0  0.32343337776E+01 -0.20120658218E+01  0.47680368007E+02  0.47832277984E+02  0.00000000000E+00 0.  1.
          5    1    6    6  503    0  0.73207922536E+02  0.24690772636E+02 -0.10353207896E+03  0.12926722535E+03  0.47000000000E+01 0. -1.
         -5    1    6    6    0  503  0.30502943505E+03  0.21354031667E+03 -0.82861382951E+03  0.90844118772E+03  0.47000000000E+01 0.  1.
<mgrwt>
<rscale>  0 0.48348582E+03</rscale>
<asrwt>0</asrwt>
<pdfrwt beam="1">  1        2 0.26742381E+00 0.48348582E+03</pdfrwt>
<pdfrwt beam="2">  1       -2 0.30777958E-01 0.48348582E+03</pdfrwt>
<totfact> 0.96354070E+01</totfact>
</mgrwt>
</event>
<event>
12    1  0.3127365E-008  0.5271327E+03  0.7818608E-02  0.1006930E+00
         -2   -1    0    0    0  501 -0.00000000000E+00  0.00000000000E+00  0.10526035813E+04  0.10526035813E+04  0.00000000000E+00 0.  1.
          2   -1    0    0  501    0  0.00000000000E+00 -0.00000000000E+00 -0.37867909061E+03  0.37867909061E+03  0.00000000000E+00 0. -1.
         23    2    1    2    0    0 -0.33219204224E+03 -0.28848354561E+03  0.35247068363E+02  0.45079260973E+03  0.91636849279E+02 0.  0.
    5000000    2    1    2    0    0  0.33219204224E+03  0.28848354561E+03  0.63867742231E+03  0.98049006216E+03  0.59989799401E+03 0.  0.
         23    2    4    4    0    0 -0.62898384842E+02  0.13029919430E+03  0.49112500220E+03  0.52047195825E+03  0.93558562856E+02 0.  0.
         23    2    4    4    0    0  0.39509042708E+03  0.15818435131E+03  0.14755242011E+03  0.46001810391E+03  0.93414156751E+02 0.  0.
          3    1    3    3  502    0 -0.20961603867E+03 -0.12180317810E+03  0.14827556948E+02  0.24288835770E+03  0.00000000000E+00 0. -1.
         -3    1    3    3    0  502 -0.12257600356E+03 -0.16668036751E+03  0.20419511414E+02  0.20790425202E+03  0.00000000000E+00 0.  1.
         11    1    5    5    0    0 -0.67190187856E+02  0.32929814648E+02  0.21612491040E+03  0.22871132663E+03  0.00000000000E+00 0. -1.
        -11    1    5    5    0    0  0.42918030137E+01  0.97369379649E+02  0.27500009181E+03  0.29176063161E+03  0.00000000000E+00 0.  1.
          5    1    6    6  503    0  0.18794255618E+03  0.33927365368E+02  0.38200026788E+02  0.19481992349E+03  0.47000000000E+01 0. -1.
         -5    1    6    6    0  503  0.20714787090E+03  0.12425698594E+03  0.10935239332E+03  0.26519818042E+03  0.47000000000E+01 0.  1.
<mgrwt>
<rscale>  0 0.52713272E+03</rscale>
<asrwt>0</asrwt>
<pdfrwt beam="1">  1        2 0.58258322E-01 0.52713272E+03</pdfrwt>
<pdfrwt beam="2">  1       -2 0.16193901E+00 0.52713272E+03</pdfrwt>
<totfact> 0.21355045E+01</totfact>
</mgrwt>
</event>
<event>
12    1  0.3127365E-008  0.2817146E+03  0.7818608E-02  0.1094756E+00
          1   -1    0    0  501    0  0.00000000000E+00  0.00000000000E+00  0.65235985363E+03  0.65235985363E+03  0.00000000000E+00 0. -1.
         -1   -1    0    0    0  501 -0.00000000000E+00 -0.00000000000E+00 -0.20794856657E+03  0.20794856657E+03  0.00000000000E+00 0.  1.
         23    2    1    2    0    0 -0.59961682827E+02  0.55167698758E+02  0.13336914519E+03  0.17974450251E+03  0.88779946501E+02 0.  0.
    5000000    2    1    2    0    0  0.59961682827E+02 -0.55167698758E+02  0.31104214187E+03  0.68056391769E+03  0.59981760032E+03 0.  0.
         23    2    4    4    0    0 -0.14185590422E+03 -0.14989401214E+03 -0.63101633017E+02  0.23570784614E+03  0.94789557458E+02 0.  0.
         23    2    4    4    0    0  0.20181758705E+03  0.94726313385E+02  0.37414377489E+03  0.44485607155E+03  0.90608759078E+02 0.  0.
          1    1    3    3  502    0 -0.37706192060E+01  0.53891293081E+02  0.10188520483E+03  0.11532165452E+03  0.00000000000E+00 0. -1.
         -1    1    3    3    0  502 -0.56191063621E+02  0.12764056769E+01  0.31483940364E+02  0.64422847990E+02  0.00000000000E+00 0.  1.
         13    1    5    5    0    0 -0.10151420937E+03 -0.52627306267E+02 -0.62697849658E+02  0.13040624379E+03  0.00000000000E+00 0. -1.
        -13    1    5    5    0    0 -0.40341694855E+02 -0.97266705876E+02 -0.40378335888E+00  0.10530160235E+03  0.00000000000E+00 0.  1.
          5    1    6    6  503    0  0.11631079805E+03  0.91146208205E+02  0.18214584901E+03  0.23459546741E+03  0.47000000000E+01 0. -1.
         -5    1    6    6    0  503  0.85506788994E+02  0.35801051802E+01  0.19199792587E+03  0.21026060415E+03  0.47000000000E+01 0.  1.
<mgrwt>
<rscale>  0 0.28171465E+03</rscale>
<asrwt>0</asrwt>
<pdfrwt beam="1">  1        1 0.10036305E+00 0.28171465E+03</pdfrwt>
<pdfrwt beam="2">  1       -1 0.31992088E-01 0.28171465E+03</pdfrwt>
<totfact> 0.28775506E+02</totfact>
</mgrwt>
</event>
<event>
12    1  0.3127365E-008  0.6371595E+03  0.7818608E-02  0.9831176E-01
         -2   -1    0    0    0  501 -0.00000000000E+00  0.00000000000E+00  0.27430875052E+03  0.27430875052E+03  0.00000000000E+00 0.  1.
          2   -1    0    0  501    0  0.00000000000E+00 -0.00000000000E+00 -0.17662562166E+04  0.17662562166E+04  0.00000000000E+00 0. -1.
         23    2    1    2    0    0  0.20488284359E+03  0.51363137690E+03 -0.46029747932E+03  0.72520798897E+03  0.90877317720E+02 0.  0.
    5000000    2    1    2    0    0 -0.20488284359E+03 -0.51363137690E+03 -0.10316499867E+04  0.13153569781E+04  0.60005675883E+03 0.  0.
         23    2    4    4    0    0  0.94115186077E+02  0.10062171395E+02 -0.18026981895E+02  0.13238890242E+03  0.90790604487E+02 0.  0.
         23    2    4    4    0    0 -0.29899802966E+03 -0.52369354829E+03 -0.10136230048E+04  0.11829680757E+04  0.91253043368E+02 0.  0.
          2    1    3    3  502    0  0.17328060380E+03  0.43900078217E+03 -0.34649898135E+03  0.58549927283E+03  0.00000000000E+00 0.  1.
         -2    1    3    3    0  502  0.31602239785E+02  0.74630594725E+02 -0.11379849797E+03  0.13970871615E+03  0.00000000000E+00 0. -1.
         11    1    5    5    0    0  0.10304914743E+03  0.93187294085E+01  0.90517077479E+01  0.10386481077E+03  0.00000000000E+00 0. -1.
        -11    1    5    5    0    0 -0.89339613501E+01  0.74344198641E+00 -0.27078689643E+02  0.28524091645E+02  0.00000000000E+00 0.  1.
          5    1    6    6  503    0 -0.12712518683E+03 -0.30660188673E+03 -0.58660813762E+03  0.67401537609E+03  0.47000000000E+01 0. -1.
         -5    1    6    6    0  503 -0.17187284283E+03 -0.21709166156E+03 -0.42701486720E+03  0.50895269960E+03  0.47000000000E+01 0.  1.
<mgrwt>
<rscale>  0 0.63715945E+03</rscale>
<asrwt>0</asrwt>
<pdfrwt beam="1">  1        2 0.27173172E+00 0.63715945E+03</pdfrwt>
<pdfrwt beam="2">  1       -2 0.42201347E-01 0.63715945E+03</pdfrwt>
<totfact> 0.49877156E+01</totfact>
</mgrwt>
</event>
<event>
12    1  0.3127365E-008  0.1219704E+04  0.7818608E-02  0.9095783E-01
         -2   -1    0    0    0  501 -0.00000000000E+00  0.00000000000E+00  0.92557965333E+03  0.92557965333E+03  0.00000000000E+00 0.  1.
          2   -1    0    0  501    0  0.00000000000E+00 -0.00000000000E+00 -0.17102128571E+04  0.17102128571E+04  0.00000000000E+00 0. -1.
         23    2    1    2    0    0  0.96660051051E+03 -0.63971029082E+03 -0.11296790497E+03  0.11681831095E+04  0.91346739292E+02 0.  0.
    5000000    2    1    2    0    0 -0.96660051051E+03  0.63971029082E+03 -0.67166529876E+03  0.14676094008E+04  0.59933069068E+03 0.  0.
         23    2    4    4    0    0 -0.10042360284E+04  0.56610714571E+03 -0.68418675149E+03  0.13435336990E+04  0.89465010916E+02 0.  0.
         23    2    4    4    0    0  0.37635517874E+02  0.73603145108E+02  0.12521452730E+02  0.12407570189E+03  0.91674084921E+02 0.  0.
          3    1    3    3  502    0  0.69467823283E+03 -0.49030536503E+03 -0.11421145873E+03  0.85791692806E+03  0.00000000000E+00 0. -1.
         -3    1    3    3    0  502  0.27192227768E+03 -0.14940492579E+03  0.12435537633E+01  0.31026618149E+03  0.00000000000E+00 0.  1.
         11    1    5    5    0    0 -0.56728267585E+03  0.26940359038E+03 -0.38059574061E+03  0.73433033888E+03  0.00000000000E+00 0.  1.
        -11    1    5    5    0    0 -0.43695335253E+03  0.29670355533E+03 -0.30359101089E+03  0.60920336007E+03  0.00000000000E+00 0. -1.
          5    1    6    6  503    0 -0.28048410306E+02  0.39099289841E+02 -0.17260557497E+01  0.48379097296E+02  0.47000000000E+01 0. -1.
         -5    1    6    6    0  503  0.65683928180E+02  0.34503855267E+02  0.14247508480E+02  0.75696604596E+02  0.47000000000E+01 0.  1.
<mgrwt>
<rscale>  0 0.12197036E+04</rscale>
<asrwt>0</asrwt>
<pdfrwt beam="1">  1        2 0.26310967E+00 0.12197036E+04</pdfrwt>
<pdfrwt beam="2">  1       -2 0.14239687E+00 0.12197036E+04</pdfrwt>
<totfact> 0.32290756E+00</totfact>
</mgrwt>
</event>
<event>
12    1  0.3127365E-008  0.6592190E+03  0.7818608E-02  0.9789632E-01
          2   -1    0    0  501    0  0.00000000000E+00  0.00000000000E+00  0.10153431414E+04  0.10153431414E+04  0.00000000000E+00 0. -1.
         -2   -1    0    0    0  501 -0.00000000000E+00 -0.00000000000E+00 -0.60474092646E+03  0.60474092646E+03  0.00000000000E+00 0.  1.
         23    2    1    2    0    0 -0.12102072033E+01 -0.55042533862E+03 -0.21032864689E+03  0.59615855433E+03  0.90539296410E+02 0.  0.
    5000000    2    1    2    0    0  0.12102072033E+01  0.55042533862E+03  0.62093086187E+03  0.10239255136E+04  0.59991566418E+03 0.  0.
         23    2    4    4    0    0  0.11486427727E+02  0.64115997397E+03  0.61876892847E+03  0.89583054856E+03  0.91756932381E+02 0.  0.
         23    2    4    4    0    0 -0.10276220524E+02 -0.90734635352E+02  0.21619334006E+01  0.12809496502E+03  0.89806855785E+02 0.  0.
          1    1    3    3  502    0  0.23561158282E+02 -0.23082382997E+03 -0.48385245197E+02  0.23701455781E+03  0.00000000000E+00 0. -1.
         -1    1    3    3    0  502 -0.24771365485E+02 -0.31960150866E+03 -0.16194340169E+03  0.35914399652E+03  0.00000000000E+00 0.  1.
         11    1    5    5    0    0  0.37221827927E+01  0.51437189538E+03  0.44228771524E+03  0.67838832866E+03  0.00000000000E+00 0. -1.
        -11    1    5    5    0    0  0.77642449346E+01  0.12678807859E+03  0.17648121323E+03  0.21744221990E+03  0.00000000000E+00 0.  1.
          5    1    6    6  503    0 -0.31721663144E+02 -0.10222850829E+01 -0.12777348704E+02  0.34534904362E+02  0.47000000000E+01 0. -1.
         -5    1    6    6    0  503  0.21445442620E+02 -0.89712350269E+02  0.14939282105E+02  0.93560060655E+02  0.47000000000E+01 0.  1.
<mgrwt>
<rscale>  0 0.65921905E+03</rscale>
<asrwt>0</asrwt>
<pdfrwt beam="1">  1        2 0.15620664E+00 0.65921905E+03</pdfrwt>
<pdfrwt beam="2">  1       -2 0.93037066E-01 0.65921905E+03</pdfrwt>
<totfact> 0.24734846E+01</totfact>
</mgrwt>
</event>
<event>
12    1  0.3127365E-008  0.8124708E+03  0.7818608E-02  0.9542140E-01
          1   -1    0    0  501    0  0.00000000000E+00  0.00000000000E+00  0.10287566679E+04  0.10287566679E+04  0.00000000000E+00 0. -1.
         -1   -1    0    0    0  501 -0.00000000000E+00 -0.00000000000E+00 -0.69347756518E+03  0.69347756518E+03  0.00000000000E+00 0.  1.
         23    2    1    2    0    0  0.59779051511E+03 -0.37714885907E+03  0.35138823416E+03  0.79495319299E+03  0.94245032162E+02 0.  0.
    5000000    2    1    2    0    0 -0.59779051511E+03  0.37714885907E+03 -0.16109131424E+02  0.92728104011E+03  0.59999655113E+03 0.  0.
         23    2    4    4    0    0 -0.50543920536E+03  0.52516275734E+03 -0.11960882576E+02  0.73456398953E+03  0.90423890571E+02 0.  0.
         23    2    4    4    0    0 -0.92351309751E+02 -0.14801389826E+03 -0.41482488471E+01  0.19271705058E+03  0.81766589293E+02 0.  0.
          1    1    3    3  502    0  0.38001433408E+03 -0.28627229309E+03  0.25746024889E+03  0.54096996188E+03  0.00000000000E+00 0. -1.
         -1    1    3    3    0  502  0.21777618104E+03 -0.90876565980E+02  0.93927985264E+02  0.25398323111E+03  0.00000000000E+00 0.  1.
         11    1    5    5    0    0 -0.40754622846E+03  0.38902069789E+03 -0.38807647181E+02  0.56474513296E+03  0.00000000000E+00 0. -1.
        -11    1    5    5    0    0 -0.97892976906E+02  0.13614205944E+03  0.26846764604E+02  0.16981885657E+03  0.00000000000E+00 0.  1.
          5    1    6    6  503    0 -0.46049671772E+02 -0.11790388341E+03 -0.32054944929E+02  0.13065797904E+03  0.47000000000E+01 0. -1.
         -5    1    6    6    0  503 -0.46301637978E+02 -0.30110014855E+02  0.27906696082E+02  0.62059071539E+02  0.47000000000E+01 0.  1.
<mgrwt>
<rscale>  0 0.81247077E+03</rscale>
<asrwt>0</asrwt>
<pdfrwt beam="1">  1        1 0.15827026E+00 0.81247077E+03</pdfrwt>
<pdfrwt beam="2">  1       -1 0.10668886E+00 0.81247077E+03</pdfrwt>
<totfact> 0.12065504E+01</totfact>
</mgrwt>
</event>
<event>
12    1  0.3127365E-008  0.7487424E+03  0.7818608E-02  0.9637325E-01
          2   -1    0    0  501    0  0.00000000000E+00  0.00000000000E+00  0.29215754652E+04  0.29215754652E+04  0.00000000000E+00 0. -1.
         -2   -1    0    0    0  501 -0.00000000000E+00 -0.00000000000E+00 -0.24989907484E+03  0.24989907484E+03  0.00000000000E+00 0.  1.
         23    2    1    2    0    0 -0.38282440318E+03 -0.51461006660E+03  0.46794739147E+03  0.79918846229E+03  0.91375011725E+02 0.  0.
    5000000    2    1    2    0    0  0.38282440318E+03  0.51461006660E+03  0.22037289988E+04  0.23722860777E+04  0.59995140624E+03 0.  0.
         23    2    4    4    0    0  0.48284709618E+03  0.52606523912E+03  0.20160392476E+04  0.21407379995E+04  0.91972715727E+02 0.  0.
         23    2    4    4    0    0 -0.10002269300E+03 -0.11455172521E+02  0.18768975125E+03  0.23154807825E+03  0.90836720110E+02 0.  0.
          4    1    3    3  502    0 -0.80442070660E+02 -0.17709125338E+03  0.14966065842E+03  0.24541913421E+03  0.00000000000E+00 0. -1.
         -4    1    3    3    0  502 -0.30238233252E+03 -0.33751881321E+03  0.31828673305E+03  0.55376932809E+03  0.00000000000E+00 0.  1.
         11    1    5    5    0    0  0.27345008864E+03  0.27571968272E+03  0.12228269883E+04  0.12830051199E+04  0.00000000000E+00 0. -1.
        -11    1    5    5    0    0  0.20939700754E+03  0.25034555639E+03  0.79321225931E+03  0.85773287956E+03  0.00000000000E+00 0.  1.
          5    1    6    6  503    0 -0.66196862563E+02 -0.50393260018E+02  0.12504225810E+03  0.15026364025E+03  0.47000000000E+01 0. -1.
         -5    1    6    6    0  503 -0.33825830441E+02  0.38938087497E+02  0.62647493152E+02  0.81284438001E+02  0.47000000000E+01 0.  1.
<mgrwt>
<rscale>  0 0.74874240E+03</rscale>
<asrwt>0</asrwt>
<pdfrwt beam="1">  1        2 0.44947312E+00 0.74874240E+03</pdfrwt>
<pdfrwt beam="2">  1       -2 0.38446014E-01 0.74874240E+03</pdfrwt>
<totfact> 0.13192545E+01</totfact>
</mgrwt>
</event>
<event>
12    1  0.3127365E-008  0.2620832E+03  0.7818608E-02  0.1105898E+00
         -1   -1    0    0    0  501 -0.00000000000E+00  0.00000000000E+00  0.31218217702E+03  0.31218217702E+03  0.00000000000E+00 0.  1.
          1   -1    0    0  501    0  0.00000000000E+00 -0.00000000000E+00 -0.52933395894E+03  0.52933395894E+03  0.00000000000E+00 0. -1.
         23    2    1    2    0    0 -0.15625460153E+03 -0.59794921828E+02 -0.50363739759E+02  0.19722747260E+03  0.91494461520E+02 0.  0.
    5000000    2    1    2    0    0  0.15625460153E+03  0.59794921828E+02 -0.16678804216E+03  0.64428866336E+03  0.59941529639E+03 0.  0.
         23    2    4    4    0    0  0.19414263057E+03  0.10350495148E+03 -0.35484288615E+03  0.42750487601E+03  0.91882039506E+02 0.  0.
         23    2    4    4    0    0 -0.37888029032E+02 -0.43710029652E+02  0.18805484398E+03  0.21678378735E+03  0.91019320345E+02 0.  0.
          4    1    3    3  502    0 -0.65476671704E+02  0.85995085825E+01 -0.51205244162E+02  0.83565083109E+02  0.00000000000E+00 0. -1.
         -4    1    3    3    0  502 -0.90777929830E+02 -0.68394430410E+02  0.84150440221E+00  0.11366238949E+03  0.00000000000E+00 0.  1.
         11    1    5    5    0    0  0.74426054453E+02  0.91686135586E+02 -0.17949295969E+03  0.21485648145E+03  0.00000000000E+00 0.  1.
        -11    1    5    5    0    0  0.11971657611E+03  0.11818815894E+02 -0.17534992645E+03  0.21264839457E+03  0.00000000000E+00 0. -1.
          5    1    6    6  503    0  0.14116357083E+02 -0.51208500993E+02  0.74978609474E+02  0.92007956123E+02  0.47000000000E+01 0. -1.
         -5    1    6    6    0  503 -0.52004386115E+02  0.74984713409E+01  0.11307623451E+03  0.12477583123E+03  0.47000000000E+01 0.  1.
<mgrwt>
<rscale>  0 0.26208316E+03</rscale>
<asrwt>0</asrwt>
<pdfrwt beam="1">  1        1 0.81435993E-01 0.26208316E+03</pdfrwt>
<pdfrwt beam="2">  1       -1 0.48028028E-01 0.26208316E+03</pdfrwt>
<totfact> 0.18721312E+02</totfact>
</mgrwt>
</event>
<event>
12    1  0.3127365E-008  0.1403929E+04  0.7818608E-02  0.8950980E-01
         -1   -1    0    0    0  501 -0.00000000000E+00  0.00000000000E+00  0.10694676381E+04  0.10694676381E+04  0.00000000000E+00 0.  1.
          1   -1    0    0  501    0  0.00000000000E+00 -0.00000000000E+00 -0.19817595059E+04  0.19817595059E+04  0.00000000000E+00 0. -1.
         23    2    1    2    0    0  0.26159269785E+02  0.13786028210E+04 -0.64091437959E+03  0.15233386066E+04  0.92516068446E+02 0.  0.
    5000000    2    1    2    0    0 -0.26159269785E+02 -0.13786028210E+04 -0.27137748826E+03  0.15278885374E+04  0.59963955522E+03 0.  0.
         23    2    4    4    0    0  0.14521247202E+03 -0.31511244393E+03 -0.26358234095E+03  0.44656462124E+03  0.97784437055E+02 0.  0.
         23    2    4    4    0    0 -0.17137174180E+03 -0.10634903771E+04 -0.77951473095E+01  0.10813239162E+04  0.93918003525E+02 0.  0.
          2    1    3    3  502    0 -0.43922593744E+01  0.91045099667E+03 -0.38061518895E+03  0.98681722286E+03  0.00000000000E+00 0. -1.
         -2    1    3    3    0  502  0.30551529159E+02  0.46815182433E+03 -0.26029919063E+03  0.53652138374E+03  0.00000000000E+00 0.  1.
         11    1    5    5    0    0  0.21704207834E+02 -0.17652966578E+02  0.34432663534E+01  0.28187868842E+02  0.00000000000E+00 0. -1.
        -11    1    5    5    0    0  0.12350826419E+03 -0.29745947735E+03 -0.26702560730E+03  0.41837675239E+03  0.00000000000E+00 0.  1.
          5    1    6    6  503    0 -0.33845735709E+02 -0.34134848083E+03  0.35672871441E+02  0.34490428085E+03  0.47000000000E+01 0. -1.
         -5    1    6    6    0  503 -0.13752600609E+03 -0.72214189624E+03 -0.43468018751E+02  0.73641963534E+03  0.47000000000E+01 0.  1.
<mgrwt>
<rscale>  0 0.14039288E+04</rscale>
<asrwt>0</asrwt>
<pdfrwt beam="1">  1        1 0.30488608E+00 0.14039288E+04</pdfrwt>
<pdfrwt beam="2">  1       -1 0.16453348E+00 0.14039288E+04</pdfrwt>
<totfact> 0.79374481E-01</totfact>
</mgrwt>
</event>
<event>
12    1  0.3127365E-008  0.7069674E+03  0.7818608E-02  0.9705391E-01
         -2   -1    0    0    0  501 -0.00000000000E+00  0.00000000000E+00  0.24592228328E+03  0.24592228328E+03  0.00000000000E+00 0.  1.
          2   -1    0    0  501    0  0.00000000000E+00 -0.00000000000E+00 -0.24536285984E+04  0.24536285984E+04  0.00000000000E+00 0. -1.
         23    2    1    2    0    0  0.59690659048E+03  0.22060914168E+03 -0.12296049301E+04  0.13874286118E+04  0.89799764402E+02 0.  0.
    5000000    2    1    2    0    0 -0.59690659048E+03 -0.22060914168E+03 -0.97810138503E+03  0.13121222698E+04  0.60001388357E+03 0.  0.
         23    2    4    4    0    0 -0.26442517788E+03 -0.32989182807E+03 -0.79891368975E+03  0.90844766323E+03  0.90910836768E+02 0.  0.
         23    2    4    4    0    0 -0.33248141260E+03  0.10928268640E+03 -0.17918769528E+03  0.40367460661E+03  0.91424081128E+02 0.  0.
          2    1    3    3  502    0  0.40625149726E+03  0.18030072631E+03 -0.91742109460E+03  0.10194165467E+04  0.00000000000E+00 0. -1.
         -2    1    3    3    0  502  0.19065509321E+03  0.40308415364E+02 -0.31218383548E+03  0.36801206509E+03  0.00000000000E+00 0.  1.
         13    1    5    5    0    0 -0.97783565699E+02 -0.99399294970E+02 -0.18329991200E+03  0.23030567362E+03  0.00000000000E+00 0. -1.
        -13    1    5    5    0    0 -0.16664161218E+03 -0.23049253310E+03 -0.61561377775E+03  0.67814198962E+03  0.00000000000E+00 0.  1.
          5    1    6    6  503    0 -0.28708892781E+03  0.87407258462E+02 -0.11379170365E+03  0.32098399201E+03  0.47000000000E+01 0. -1.
         -5    1    6    6    0  503 -0.45392484790E+02  0.21875427933E+02 -0.65395991626E+02  0.82690614603E+02  0.47000000000E+01 0.  1.
<mgrwt>
<rscale>  0 0.70696743E+03</rscale>
<asrwt>0</asrwt>
<pdfrwt beam="1">  1        2 0.37748132E+00 0.70696743E+03</pdfrwt>
<pdfrwt beam="2">  1       -2 0.37834197E-01 0.70696743E+03</pdfrwt>
<totfact> 0.25634380E+01</totfact>
</mgrwt>
</event>
<event>
12    1  0.3127365E-008  0.9917259E+03  0.7818608E-02  0.9317667E-01
          1   -1    0    0  501    0  0.00000000000E+00  0.00000000000E+00  0.19677558366E+04  0.19677558366E+04  0.00000000000E+00 0. -1.
         -1   -1    0    0    0  501 -0.00000000000E+00 -0.00000000000E+00 -0.53394860457E+03  0.53394860457E+03  0.00000000000E+00 0.  1.
         23    2    1    2    0    0  0.89533458234E+03 -0.24735139826E+03  0.78523571007E+03  0.12196752019E+04  0.90585590619E+02 0.  0.
    5000000    2    1    2    0    0 -0.89533458234E+03  0.24735139826E+03  0.64857152192E+03  0.12820292392E+04  0.60012267297E+03 0.  0.
         23    2    4    4    0    0 -0.38814146807E+03 -0.12964367480E+03  0.44610478165E+03  0.61255651270E+03  0.93566678826E+02 0.  0.
         23    2    4    4    0    0 -0.50719311427E+03  0.37699507306E+03  0.20246674027E+03  0.66947272652E+03  0.88491866094E+02 0.  0.
          3    1    3    3  502    0  0.68183265143E+03 -0.21862320115E+03  0.57058984843E+03  0.91556793509E+03  0.00000000000E+00 0. -1.
         -3    1    3    3    0  502  0.21350193091E+03 -0.28728197110E+02  0.21464586165E+03  0.30410726682E+03  0.00000000000E+00 0.  1.
         11    1    5    5    0    0 -0.26842427324E+03 -0.12418993672E+03  0.35473568887E+03  0.46185727212E+03  0.00000000000E+00 0. -1.
        -11    1    5    5    0    0 -0.11971719482E+03 -0.54537380716E+01  0.91369092783E+02  0.15069924058E+03  0.00000000000E+00 0.  1.
          5    1    6    6  503    0 -0.54854086532E+00 -0.21223753190E+00 -0.25421570674E+01  0.53757329180E+01  0.47000000000E+01 0. -1.
         -5    1    6    6    0  503 -0.50664457341E+03  0.37720731059E+03  0.20500889734E+03  0.66409699360E+03  0.47000000000E+01 0.  1.
<mgrwt>
<rscale>  0 0.99172591E+03</rscale>
<asrwt>0</asrwt>
<pdfrwt beam="1">  1        1 0.30273166E+00 0.99172591E+03</pdfrwt>
<pdfrwt beam="2">  1       -1 0.82145940E-01 0.99172591E+03</pdfrwt>
<totfact> 0.46749055E+00</totfact>
</mgrwt>
</event>
<event>
12    1  0.3127365E-008  0.6642700E+03  0.7818608E-02  0.9780365E-01
          1   -1    0    0  501    0  0.00000000000E+00  0.00000000000E+00  0.14690636611E+04  0.14690636611E+04  0.00000000000E+00 0. -1.
         -1   -1    0    0    0  501 -0.00000000000E+00 -0.00000000000E+00 -0.53026503681E+03  0.53026503681E+03  0.00000000000E+00 0.  1.
         23    2    1    2    0    0 -0.32015424882E+03 -0.48242715590E+03  0.10042939609E+04  0.11629857287E+04  0.93245597852E+02 0.  0.
    5000000    2    1    2    0    0  0.32015424882E+03  0.48242715590E+03 -0.65495336644E+02  0.83634296915E+03  0.59995434755E+03 0.  0.
         23    2    4    4    0    0  0.33523265561E+03  0.85802558844E+02  0.13464776129E+03  0.38245086300E+03  0.91627673201E+02 0.  0.
         23    2    4    4    0    0 -0.15078406793E+02  0.39662459705E+03 -0.20014309793E+03  0.45389210615E+03  0.91773389597E+02 0.  0.
          1    1    3    3  502    0 -0.18238034849E+03 -0.29927855163E+03  0.51840857648E+03  0.62576169198E+03  0.00000000000E+00 0. -1.
         -1    1    3    3    0  502 -0.13777390033E+03 -0.18314860427E+03  0.48588538442E+03  0.53722403674E+03  0.00000000000E+00 0.  1.
         13    1    5    5    0    0  0.78101215661E+02  0.42277298086E+02 -0.31062002771E+00  0.88810282659E+02  0.00000000000E+00 0. -1.
        -13    1    5    5    0    0  0.25713143995E+03  0.43525260758E+02  0.13495838131E+03  0.29364058034E+03  0.00000000000E+00 0.  1.
          5    1    6    6  503    0  0.14055697968E+02  0.18820523969E+03 -0.49886777324E+02  0.19526790685E+03  0.47000000000E+01 0. -1.
         -5    1    6    6    0  503 -0.29134104761E+02  0.20841935736E+03 -0.15025632061E+03  0.25862419930E+03  0.47000000000E+01 0.  1.
<mgrwt>
<rscale>  0 0.66427002E+03</rscale>
<asrwt>0</asrwt>
<pdfrwt beam="1">  1        1 0.22600979E+00 0.66427002E+03</pdfrwt>
<pdfrwt beam="2">  1       -1 0.81579237E-01 0.66427002E+03</pdfrwt>
<totfact> 0.10815291E+01</totfact>
</mgrwt>
</event>
<event>
12    1  0.3127365E-008  0.5914925E+03  0.7818608E-02  0.9923215E-01
         -2   -1    0    0    0  501 -0.00000000000E+00  0.00000000000E+00  0.61950696136E+03  0.61950696136E+03  0.00000000000E+00 0.  1.
          2   -1    0    0  501    0  0.00000000000E+00 -0.00000000000E+00 -0.80788990358E+03  0.80788990358E+03  0.00000000000E+00 0. -1.
         23    2    1    2    0    0 -0.15298874153E+03 -0.43178359109E+03 -0.42979221583E+03  0.63481279664E+03  0.91778610860E+02 0.  0.
    5000000    2    1    2    0    0  0.15298874153E+03  0.43178359109E+03  0.24140927362E+03  0.79258406830E+03  0.60005703343E+03 0.  0.
         23    2    4    4    0    0  0.35875039256E+03  0.33071940201E+03  0.23229534804E+03  0.54738549193E+03  0.87135417748E+02 0.  0.
         23    2    4    4    0    0 -0.20576165103E+03  0.10106418908E+03  0.91139255793E+01  0.24519857638E+03  0.86530057601E+02 0.  0.
          2    1    3    3  502    0 -0.69183530606E+02 -0.30919679204E+03 -0.31836148093E+03  0.44915815662E+03  0.00000000000E+00 0.  1.
         -2    1    3    3    0  502 -0.83805210925E+02 -0.12258679905E+03 -0.11143073490E+03  0.18565464002E+03  0.00000000000E+00 0. -1.
         13    1    5    5    0    0  0.47754364874E+02  0.45258052627E+02  0.51463491852E+00  0.65795406688E+02  0.00000000000E+00 0. -1.
        -13    1    5    5    0    0  0.31099602768E+03  0.28546134938E+03  0.23178071312E+03  0.48159008524E+03  0.00000000000E+00 0.  1.
          5    1    6    6  503    0 -0.17491132102E+03  0.83156332218E+02  0.39958791929E+02  0.19780733268E+03  0.47000000000E+01 0. -1.
         -5    1    6    6    0  503 -0.30850330011E+02  0.17907856867E+02 -0.30844866350E+02  0.47391243700E+02  0.47000000000E+01 0.  1.
<mgrwt>
<rscale>  0 0.59149252E+03</rscale>
<asrwt>0</asrwt>
<pdfrwt beam="1">  1        2 0.12429075E+00 0.59149252E+03</pdfrwt>
<pdfrwt beam="2">  1       -2 0.95308763E-01 0.59149252E+03</pdfrwt>
<totfact> 0.32396305E+01</totfact>
</mgrwt>
</event>
<event>
12    1  0.3127365E-008  0.7751567E+03  0.7818608E-02  0.9596690E-01
         -2   -1    0    0    0  501 -0.00000000000E+00  0.00000000000E+00  0.41069973904E+03  0.41069973904E+03  0.00000000000E+00 0.  1.
          2   -1    0    0  501    0  0.00000000000E+00 -0.00000000000E+00 -0.17374910664E+04  0.17374910664E+04  0.00000000000E+00 0. -1.
         23    2    1    2    0    0  0.36465747839E+03  0.55189920696E+03 -0.17418436571E+03  0.69007592217E+03  0.91086628570E+02 0.  0.
    5000000    2    1    2    0    0 -0.36465747839E+03 -0.55189920696E+03 -0.11526069617E+04  0.14581148833E+04  0.60002366088E+03 0.  0.
         23    2    4    4    0    0 -0.39143985507E+02  0.10818175356E+03 -0.24266163069E+03  0.28417278269E+03  0.92919104662E+02 0.  0.
         23    2    4    4    0    0 -0.32551349289E+03 -0.66008096052E+03 -0.90994533099E+03  0.11739421006E+04  0.92052385655E+02 0.  0.
          4    1    3    3  502    0  0.22577772035E+03  0.34489244677E+03 -0.62538196175E+02  0.41693813069E+03  0.00000000000E+00 0. -1.
         -4    1    3    3    0  502  0.13887975805E+03  0.20700676019E+03 -0.11164616954E+03  0.27313779148E+03  0.00000000000E+00 0.  1.
         13    1    5    5    0    0 -0.25261404939E+02  0.12371857050E+03 -0.21757868838E+03  0.25156491986E+03  0.00000000000E+00 0.  1.
        -13    1    5    5    0    0 -0.13882580568E+02 -0.15536816940E+02 -0.25082942303E+02  0.32607862832E+02  0.00000000000E+00 0. -1.
          5    1    6    6  503    0 -0.15781935806E+03 -0.22047400266E+03 -0.33038240030E+03  0.42742292411E+03  0.47000000000E+01 0. -1.
         -5    1    6    6    0  503 -0.16769413483E+03 -0.43960695786E+03 -0.57956293069E+03  0.74651917650E+03  0.47000000000E+01 0.  1.
<mgrwt>
<rscale>  0 0.77515675E+03</rscale>
<asrwt>0</asrwt>
<pdfrwt beam="1">  1        2 0.26730631E+00 0.77515675E+03</pdfrwt>
<pdfrwt beam="2">  1       -2 0.63184577E-01 0.77515675E+03</pdfrwt>
<totfact> 0.22227718E+01</totfact>
</mgrwt>
</event>
<event>
12    1  0.3127365E-008  0.1567097E+04  0.7818608E-02  0.8841021E-01
         -2   -1    0    0    0  501 -0.00000000000E+00  0.00000000000E+00  0.10041972111E+04  0.10041972111E+04  0.00000000000E+00 0.  1.
          2   -1    0    0  501    0  0.00000000000E+00 -0.00000000000E+00 -0.27918774133E+04  0.27918774133E+04  0.00000000000E+00 0. -1.
         23    2    1    2    0    0  0.13617694676E+04  0.72212784195E+03 -0.30417882040E+03  0.15739810877E+04  0.94905252196E+02 0.  0.
    5000000    2    1    2    0    0 -0.13617694676E+04 -0.72212784195E+03 -0.14835013818E+04  0.22220935367E+04  0.60086490423E+03 0.  0.
         23    2    4    4    0    0 -0.21511119946E+03 -0.29141917484E+03 -0.13275717232E+03  0.39644496104E+03  0.91357412049E+02 0.  0.
         23    2    4    4    0    0 -0.11466582681E+04 -0.43070866711E+03 -0.13507442095E+04  0.18256485756E+04  0.90264403999E+02 0.  0.
          2    1    3    3  502    0  0.82865743991E+03  0.49145682970E+03 -0.18987699249E+03  0.98196549861E+03  0.00000000000E+00 0. -1.
         -2    1    3    3    0  502  0.53311202765E+03  0.23067101226E+03 -0.11430182791E+03  0.59201558913E+03  0.00000000000E+00 0.  1.
         13    1    5    5    0    0 -0.18615005383E+01 -0.20679276417E+01  0.94815346464E+01  0.98813464789E+01  0.00000000000E+00 0. -1.
        -13    1    5    5    0    0 -0.21324969892E+03 -0.28935124720E+03 -0.14223870696E+03  0.38656361456E+03  0.00000000000E+00 0.  1.
          5    1    6    6  503    0 -0.73422309087E+03 -0.23347698261E+03 -0.82127372537E+03  0.11261028686E+04  0.47000000000E+01 0. -1.
         -5    1    6    6    0  503 -0.41243517722E+03 -0.19723168450E+03 -0.52947048409E+03  0.69954570709E+03  0.47000000000E+01 0.  1.
<mgrwt>
<rscale>  0 0.15670968E+04</rscale>
<asrwt>0</asrwt>
<pdfrwt beam="1">  1        2 0.42951959E+00 0.15670968E+04</pdfrwt>
<pdfrwt beam="2">  1       -2 0.15449188E+00 0.15670968E+04</pdfrwt>
<totfact> 0.60813352E-01</totfact>
</mgrwt>
</event>
<event>
12    1  0.3127365E-008  0.5857457E+03  0.7818608E-02  0.9935429E-01
         -1   -1    0    0    0  501 -0.00000000000E+00  0.00000000000E+00  0.36955126236E+03  0.36955126236E+03  0.00000000000E+00 0.  1.
          1   -1    0    0  501    0  0.00000000000E+00 -0.00000000000E+00 -0.11858079707E+04  0.11858079707E+04  0.00000000000E+00 0. -1.
         23    2    1    2    0    0 -0.33862981320E+03  0.27820378094E+03  0.57224022141E+01  0.44729817671E+03  0.89305200789E+02 0.  0.
    5000000    2    1    2    0    0  0.33862981320E+03 -0.27820378094E+03 -0.82197911056E+03  0.11080610564E+04  0.60006845636E+03 0.  0.
         23    2    4    4    0    0  0.26531116795E+03 -0.45054627589E+03 -0.53579637913E+03  0.75393892604E+03  0.89242264333E+02 0.  0.
         23    2    4    4    0    0  0.73318645242E+02  0.17234249495E+03 -0.28618273143E+03  0.35412213033E+03  0.91784356578E+02 0.  0.
          4    1    3    3  502    0 -0.13118701230E+03  0.13553085603E+03 -0.36190262232E+02  0.19206347964E+03  0.00000000000E+00 0. -1.
         -4    1    3    3    0  502 -0.20744280090E+03  0.14267292491E+03  0.41912664446E+02  0.25523469707E+03  0.00000000000E+00 0.  1.
         11    1    5    5    0    0  0.13656274234E+03 -0.14671719604E+03 -0.20188191420E+03  0.28448484229E+03  0.00000000000E+00 0. -1.
        -11    1    5    5    0    0  0.12874842562E+03 -0.30382907985E+03 -0.33391446493E+03  0.46945408375E+03  0.00000000000E+00 0.  1.
          5    1    6    6  503    0  0.84682459190E+02  0.16693532337E+03 -0.23115380193E+03  0.29747721128E+03  0.47000000000E+01 0. -1.
         -5    1    6    6    0  503 -0.11363813948E+02  0.54071715791E+01 -0.55028929504E+02  0.56644919051E+02  0.47000000000E+01 0.  1.
<mgrwt>
<rscale>  0 0.58574571E+03</rscale>
<asrwt>0</asrwt>
<pdfrwt beam="1">  1        1 0.18243200E+00 0.58574571E+03</pdfrwt>
<pdfrwt beam="2">  1       -1 0.56854039E-01 0.58574571E+03</pdfrwt>
<totfact> 0.35964820E+01</totfact>
</mgrwt>
</event>
<event>
12    1  0.3127365E-008  0.9915984E+03  0.7818608E-02  0.9317808E-01
          1   -1    0    0  501    0  0.00000000000E+00  0.00000000000E+00  0.15419146468E+04  0.15419146468E+04  0.00000000000E+00 0. -1.
         -1   -1    0    0    0  501 -0.00000000000E+00 -0.00000000000E+00 -0.86504093705E+03  0.86504093705E+03  0.00000000000E+00 0.  1.
         23    2    1    2    0    0 -0.14707399605E+03  0.96990787481E+03 -0.14183710348E+03  0.99535983747E+03  0.90947216421E+02 0.  0.
    5000000    2    1    2    0    0  0.14707399605E+03 -0.96990787481E+03  0.81871081326E+03  0.14115957464E+04  0.59996925723E+03 0.  0.
         23    2    4    4    0    0  0.92713648984E-02 -0.18527253732E+03  0.51225906102E+03  0.55235335588E+03  0.91427408262E+02 0.  0.
         23    2    4    4    0    0  0.14706472468E+03 -0.78463533750E+03  0.30645175223E+03  0.85924239054E+03  0.84286197864E+02 0.  0.
          2    1    3    3  502    0 -0.11153088416E+03  0.89575260415E+03 -0.12316375300E+03  0.91103302685E+03  0.00000000000E+00 0. -1.
         -2    1    3    3    0  502 -0.35543111888E+02  0.74155270668E+02 -0.18673350484E+02  0.84326810617E+02  0.00000000000E+00 0.  1.
         11    1    5    5    0    0  0.36130992044E+02 -0.10341383177E+03  0.20630087861E+03  0.23358065353E+03  0.00000000000E+00 0. -1.
        -11    1    5    5    0    0 -0.36121720679E+02 -0.81858705545E+02  0.30595818242E+03  0.31877270235E+03  0.00000000000E+00 0.  1.
          5    1    6    6  503    0  0.12745738040E+03 -0.59171990802E+03  0.19718852694E+03  0.63661859737E+03  0.47000000000E+01 0. -1.
         -5    1    6    6    0  503  0.19607344285E+02 -0.19291542948E+03  0.10926322529E+03  0.22262379316E+03  0.47000000000E+01 0.  1.
<mgrwt>
<rscale>  0 0.99159835E+03</rscale>
<asrwt>0</asrwt>
<pdfrwt beam="1">  1        1 0.23721764E+00 0.99159835E+03</pdfrwt>
<pdfrwt beam="2">  1       -1 0.13308322E+00 0.99159835E+03</pdfrwt>
<totfact> 0.29439205E+00</totfact>
</mgrwt>
</event>
<event>
12    1  0.3127365E-008  0.9961643E+03  0.7818608E-02  0.9312762E-01
         -1   -1    0    0    0  501 -0.00000000000E+00  0.00000000000E+00  0.11664466352E+04  0.11664466352E+04  0.00000000000E+00 0.  1.
          1   -1    0    0  501    0  0.00000000000E+00 -0.00000000000E+00 -0.94425410015E+03  0.94425410015E+03  0.00000000000E+00 0. -1.
         23    2    1    2    0    0 -0.80874693913E+03  0.51596409716E+03  0.35644396665E+02  0.96389520938E+03  0.86792226241E+02 0.  0.
    5000000    2    1    2    0    0  0.80874693913E+03 -0.51596409716E+03  0.18654813841E+03  0.11468055260E+04  0.60006011815E+03 0.  0.
         23    2    4    4    0    0  0.65711963715E+03 -0.23827816581E+03  0.34125728322E+03  0.78315748053E+03  0.91084598709E+02 0.  0.
         23    2    4    4    0    0  0.15162730198E+03 -0.27768593135E+03 -0.15470914480E+03  0.36364804547E+03  0.90579613119E+02 0.  0.
          4    1    3    3  502    0 -0.72048288793E+03  0.48969097392E+03  0.32215810812E+02  0.87174004164E+03  0.00000000000E+00 0. -1.
         -4    1    3    3    0  502 -0.88264051205E+02  0.26273123243E+02  0.34285858528E+01  0.92155167739E+02  0.00000000000E+00 0.  1.
         11    1    5    5    0    0  0.40493324830E+03 -0.12264644164E+03  0.24824102793E+03  0.49054734040E+03  0.00000000000E+00 0. -1.
        -11    1    5    5    0    0  0.25218638886E+03 -0.11563172417E+03  0.93016255288E+02  0.29261014013E+03  0.00000000000E+00 0.  1.
          5    1    6    6  503    0  0.44705360391E+02 -0.17338902932E+03 -0.94653163856E+02  0.20259229048E+03  0.47000000000E+01 0. -1.
         -5    1    6    6    0  503  0.10692194159E+03 -0.10429690203E+03 -0.60055980949E+02  0.16105575499E+03  0.47000000000E+01 0.  1.
<mgrwt>
<rscale>  0 0.99616428E+03</rscale>
<asrwt>0</asrwt>
<pdfrwt beam="1">  1        1 0.14526986E+00 0.99616428E+03</pdfrwt>
<pdfrwt beam="2">  1       -1 0.17945333E+00 0.99616428E+03</pdfrwt>
<totfact> 0.35308072E+00</totfact>
</mgrwt>
</event>
<event>
12    1  0.3127365E-008  0.5248180E+03  0.7818608E-02  0.1007497E+00
          1   -1    0    0  501    0  0.00000000000E+00  0.00000000000E+00  0.33075490264E+04  0.33075490264E+04  0.00000000000E+00 0. -1.
         -1   -1    0    0    0  501 -0.00000000000E+00 -0.00000000000E+00 -0.13010170415E+03  0.13010170415E+03  0.00000000000E+00 0.  1.
         23    2    1    2    0    0 -0.31097311267E+03 -0.18658008137E+03  0.31339282627E+03  0.48904055374E+03  0.97104047739E+02 0.  0.
    5000000    2    1    2    0    0  0.31097311267E+03  0.18658008137E+03  0.28640544960E+04  0.29486101768E+04  0.59998117907E+03 0.  0.
         23    2    4    4    0    0  0.37345237824E+03 -0.97200800312E+02  0.16738314662E+04  0.17201126642E+04  0.90338950715E+02 0.  0.
         23    2    4    4    0    0 -0.62479265572E+02  0.28378088168E+03  0.11902230298E+04  0.12284975126E+04  0.90222116697E+02 0.  0.
          3    1    3    3  502    0 -0.19359740522E+03 -0.13111451996E+03  0.25715367311E+03  0.34756148268E+03  0.00000000000E+00 0. -1.
         -3    1    3    3    0  502 -0.11737570744E+03 -0.55465561412E+02  0.56239153159E+02  0.14147907106E+03  0.00000000000E+00 0.  1.
         13    1    5    5    0    0  0.19240836932E+03 -0.26910871134E+02  0.66687879840E+03  0.69460240953E+03  0.00000000000E+00 0.  1.
        -13    1    5    5    0    0  0.18104400892E+03 -0.70289929178E+02  0.10069526678E+04  0.10255102547E+04  0.00000000000E+00 0. -1.
          5    1    6    6  503    0 -0.50187748983E+02  0.89023522703E+02  0.29486527988E+03  0.31210834820E+03  0.47000000000E+01 0. -1.
         -5    1    6    6    0  503 -0.12291516589E+02  0.19475735898E+03  0.89535774991E+03  0.91638916438E+03  0.47000000000E+01 0.  1.
<mgrwt>
<rscale>  0 0.52481797E+03</rscale>
<asrwt>0</asrwt>
<pdfrwt beam="1">  1        1 0.50885363E+00 0.52481797E+03</pdfrwt>
<pdfrwt beam="2">  1       -1 0.20015649E-01 0.52481797E+03</pdfrwt>
<totfact> 0.80826108E+00</totfact>
</mgrwt>
</event>
<event>
12    1  0.3127365E-008  0.5466099E+03  0.7818608E-02  0.1002282E+00
          1   -1    0    0  501    0  0.00000000000E+00  0.00000000000E+00  0.14962967563E+04  0.14962967563E+04  0.00000000000E+00 0. -1.
         -1   -1    0    0    0  501 -0.00000000000E+00 -0.00000000000E+00 -0.84950603331E+03  0.84950603331E+03  0.00000000000E+00 0.  1.
         23    2    1    2    0    0  0.77614629258E+02  0.45793737394E+03 -0.67334282301E+03  0.82314986927E+03  0.91948250934E+02 0.  0.
    5000000    2    1    2    0    0 -0.77614629258E+02 -0.45793737394E+03  0.13201335460E+04  0.15226529203E+04  0.59999055610E+03 0.  0.
         23    2    4    4    0    0 -0.45458191236E+02 -0.53082559384E+03  0.66599316927E+03  0.85774552256E+03  0.91313863863E+02 0.  0.
         23    2    4    4    0    0 -0.32156438022E+02  0.72888219904E+02  0.65414037671E+03  0.66490739775E+03  0.88631179866E+02 0.  0.
          4    1    3    3  502    0  0.18219690968E+02  0.10183745491E+03 -0.89967818106E+02  0.13710227079E+03  0.00000000000E+00 0. -1.
         -4    1    3    3    0  502  0.59394938290E+02  0.35609991903E+03 -0.58337500490E+03  0.68604759847E+03  0.00000000000E+00 0.  1.
         11    1    5    5    0    0 -0.63977551528E+02 -0.49351964183E+03  0.62884906945E+03  0.80193884812E+03  0.00000000000E+00 0. -1.
        -11    1    5    5    0    0  0.18519360292E+02 -0.37305952015E+02  0.37144099817E+02  0.55806674444E+02  0.00000000000E+00 0.  1.
          5    1    6    6  503    0 -0.36616933591E+02  0.34541842595E+02  0.56973255063E+03  0.57197133491E+03  0.47000000000E+01 0. -1.
         -5    1    6    6    0  503  0.44604955688E+01  0.38346377310E+02  0.84407826076E+02  0.92936062841E+02  0.47000000000E+01 0.  1.
<mgrwt>
<rscale>  0 0.54660993E+03</rscale>
<asrwt>0</asrwt>
<pdfrwt beam="1">  1        1 0.23019950E+00 0.54660993E+03</pdfrwt>
<pdfrwt beam="2">  1       -1 0.13069324E+00 0.54660993E+03</pdfrwt>
<totfact> 0.35850514E+00</totfact>
</mgrwt>
</event>
<event>
12    1  0.3127365E-008  0.3698234E+03  0.7818608E-02  0.1054761E+00
         -1   -1    0    0    0  501 -0.00000000000E+00  0.00000000000E+00  0.18564732207E+03  0.18564732207E+03  0.00000000000E+00 0.  1.
          1   -1    0    0  501    0  0.00000000000E+00 -0.00000000000E+00 -0.14765204387E+04  0.14765204387E+04  0.00000000000E+00 0. -1.
         23    2    1    2    0    0  0.23046908934E+03  0.25370819561E+03 -0.49651680771E+03  0.60939518583E+03  0.85730406018E+02 0.  0.
    5000000    2    1    2    0    0 -0.23046908934E+03 -0.25370819561E+03 -0.79435630895E+03  0.10527725750E+04  0.59987023545E+03 0.  0.
         23    2    4    4    0    0 -0.11024573736E+03 -0.49726204812E+02  0.58921252505E+02  0.16255235321E+03  0.91239988419E+02 0.  0.
         23    2    4    4    0    0 -0.12022335197E+03 -0.20398199079E+03 -0.85327756145E+03  0.89022022175E+03  0.91362680637E+02 0.  0.
          2    1    3    3  502    0  0.44993120625E+02  0.10944547263E+03 -0.16410282945E+03  0.20231764880E+03  0.00000000000E+00 0. -1.
         -2    1    3    3    0  502  0.18547596871E+03  0.14426272297E+03 -0.33241397826E+03  0.40707753703E+03  0.00000000000E+00 0.  1.
         11    1    5    5    0    0 -0.10275990789E+03 -0.71511657317E+02  0.36499188812E+02  0.13040593002E+03  0.00000000000E+00 0.  1.
        -11    1    5    5    0    0 -0.74858294792E+01  0.21785452505E+02  0.22422063694E+02  0.32146423193E+02  0.00000000000E+00 0. -1.
          5    1    6    6  503    0 -0.37686083250E+02 -0.86350659249E+02 -0.49973821183E+03  0.50856371045E+03  0.47000000000E+01 0. -1.
         -5    1    6    6    0  503 -0.82537268720E+02 -0.11763133154E+03 -0.35353934962E+03  0.38165651130E+03  0.47000000000E+01 0.  1.
<mgrwt>
<rscale>  0 0.36982338E+03</rscale>
<asrwt>0</asrwt>
<pdfrwt beam="1">  1        1 0.22715700E+00 0.36982338E+03</pdfrwt>
<pdfrwt beam="2">  1       -1 0.28561125E-01 0.36982338E+03</pdfrwt>
<totfact> 0.81490020E+01</totfact>
</mgrwt>
</event>
<event>
12    1  0.3127365E-008  0.8000832E+03  0.7818608E-02  0.9559897E-01
          2   -1    0    0  501    0  0.00000000000E+00  0.00000000000E+00  0.10384984927E+04  0.10384984927E+04  0.00000000000E+00 0. -1.
         -2   -1    0    0    0  501 -0.00000000000E+00 -0.00000000000E+00 -0.79435460121E+03  0.79435460121E+03  0.00000000000E+00 0.  1.
         23    2    1    2    0    0 -0.34613726478E+03  0.65841493447E+03  0.42335011604E+03  0.86062699210E+03  0.90179081660E+02 0.  0.
    5000000    2    1    2    0    0  0.34613726478E+03 -0.65841493447E+03 -0.17920622459E+03  0.97222610178E+03  0.59982288223E+03 0.  0.
         23    2    4    4    0    0  0.42211253191E+03 -0.46365069890E+03 -0.31470826214E+03  0.70726002010E+03  0.89579493096E+02 0.  0.
         23    2    4    4    0    0 -0.75975267130E+02 -0.19476423558E+03  0.13550203755E+03  0.26496608168E+03  0.90226789741E+02 0.  0.
          2    1    3    3  502    0 -0.10348462881E+03  0.25964693507E+03  0.12173985317E+03  0.30487077777E+03  0.00000000000E+00 0. -1.
         -2    1    3    3    0  502 -0.24265263597E+03  0.39876799941E+03  0.30161026287E+03  0.55575621432E+03  0.00000000000E+00 0.  1.
         13    1    5    5    0    0  0.76090402931E+02 -0.11939640009E+03 -0.39811785228E+02  0.14707218641E+03  0.00000000000E+00 0.  1.
        -13    1    5    5    0    0  0.34602212898E+03 -0.34425429881E+03 -0.27489647691E+03  0.56018783369E+03  0.00000000000E+00 0. -1.
          5    1    6    6  503    0 -0.80025561984E+02 -0.95336300211E+02  0.98110409720E+02  0.15855864279E+03  0.47000000000E+01 0. -1.
         -5    1    6    6    0  503  0.40502948543E+01 -0.99427935365E+02  0.37391627832E+02  0.10640743889E+03  0.47000000000E+01 0.  1.
<mgrwt>
<rscale>  0 0.80008321E+03</rscale>
<asrwt>0</asrwt>
<pdfrwt beam="1">  1        2 0.15976900E+00 0.80008321E+03</pdfrwt>
<pdfrwt beam="2">  1       -2 0.12220840E+00 0.80008321E+03</pdfrwt>
<totfact> 0.12220374E+01</totfact>
</mgrwt>
</event>
<event>
12    1  0.3127365E-008  0.3043409E+03  0.7818608E-02  0.1083091E+00
          1   -1    0    0  501    0  0.00000000000E+00  0.00000000000E+00  0.76467420406E+03  0.76467420406E+03  0.00000000000E+00 0. -1.
         -1   -1    0    0    0  501 -0.00000000000E+00 -0.00000000000E+00 -0.21624569549E+03  0.21624569549E+03  0.00000000000E+00 0.  1.
         23    2    1    2    0    0 -0.43296585859E+02 -0.15494841986E+03  0.18159164277E+03  0.25950636830E+03  0.92110929319E+02 0.  0.
    5000000    2    1    2    0    0  0.43296585859E+02  0.15494841986E+03  0.36683686581E+03  0.72141353125E+03  0.59998715803E+03 0.  0.
         23    2    4    4    0    0 -0.14856831013E+03 -0.68143867869E+01  0.41480410661E+03  0.45000284879E+03  0.91220274141E+02 0.  0.
         23    2    4    4    0    0  0.19186489599E+03  0.16176280665E+03 -0.47967240807E+02  0.27141068246E+03  0.91561773879E+02 0.  0.
          4    1    3    3  502    0  0.97439755817E+01 -0.11153510398E+03  0.14026487586E+03  0.17946938425E+03  0.00000000000E+00 0. -1.
         -4    1    3    3    0  502 -0.53040561441E+02 -0.43413315878E+02  0.41326766904E+02  0.80036984052E+02  0.00000000000E+00 0.  1.
         11    1    5    5    0    0 -0.16129283809E+03 -0.51113365446E+01  0.37728022812E+03  0.41034360713E+03  0.00000000000E+00 0. -1.
        -11    1    5    5    0    0  0.12724527963E+02 -0.17030502423E+01  0.37523878498E+02  0.39659241666E+02  0.00000000000E+00 0.  1.
          5    1    6    6  503    0  0.40033127361E+02  0.55467110893E+02 -0.51857527985E+02  0.85968278370E+02  0.47000000000E+01 0. -1.
         -5    1    6    6    0  503  0.15183176863E+03  0.10629569575E+03  0.38902871786E+01  0.18544240409E+03  0.47000000000E+01 0.  1.
<mgrwt>
<rscale>  0 0.30434086E+03</rscale>
<asrwt>0</asrwt>
<pdfrwt beam="1">  1        1 0.11764218E+00 0.30434086E+03</pdfrwt>
<pdfrwt beam="2">  1       -1 0.33268569E-01 0.30434086E+03</pdfrwt>
<totfact> 0.21219065E+02</totfact>
</mgrwt>
</event>
<event>
12    1  0.3127365E-008  0.6441536E+03  0.7818608E-02  0.9817812E-01
          2   -1    0    0  501    0  0.00000000000E+00  0.00000000000E+00  0.17680923481E+04  0.17680923481E+04  0.00000000000E+00 0. -1.
         -2   -1    0    0    0  501 -0.00000000000E+00 -0.00000000000E+00 -0.33148127018E+03  0.33148127018E+03  0.00000000000E+00 0.  1.
         23    2    1    2    0    0  0.44330172979E+03 -0.38859742698E+03  0.25445504326E+03  0.64865360019E+03  0.92085504345E+02 0.  0.
    5000000    2    1    2    0    0 -0.44330172979E+03  0.38859742698E+03  0.11821560347E+04  0.14509200181E+04  0.60012634064E+03 0.  0.
         23    2    4    4    0    0 -0.48292410009E+03  0.29798948642E+03  0.11846325921E+04  0.13167255262E+04  0.91642307663E+02 0.  0.
         23    2    4    4    0    0  0.39622370300E+02  0.90607940555E+02 -0.24765574417E+01  0.13419449192E+03  0.90676883516E+02 0.  0.
          2    1    3    3  502    0  0.26063789736E+03 -0.21092131460E+03  0.19167288982E+03  0.38621031988E+03  0.00000000000E+00 0. -1.
         -2    1    3    3    0  502  0.18266383243E+03 -0.17767611238E+03  0.62782153446E+02  0.26244328031E+03  0.00000000000E+00 0.  1.
         13    1    5    5    0    0 -0.40653804092E+03  0.27780737231E+03  0.96596589766E+03  0.10842233304E+04  0.00000000000E+00 0. -1.
        -13    1    5    5    0    0 -0.76386059168E+02  0.20182114108E+02  0.21866669443E+03  0.23250219573E+03  0.00000000000E+00 0.  1.
          5    1    6    6  503    0 -0.23253469954E+02  0.37410686603E+02 -0.21940681887E+02  0.49434470349E+02  0.47000000000E+01 0. -1.
         -5    1    6    6    0  503  0.62875840254E+02  0.53197253952E+02  0.19464124446E+02  0.84760021567E+02  0.47000000000E+01 0.  1.
<mgrwt>
<rscale>  0 0.64415355E+03</rscale>
<asrwt>0</asrwt>
<pdfrwt beam="1">  1        2 0.27201420E+00 0.64415355E+03</pdfrwt>
<pdfrwt beam="2">  1       -2 0.50997120E-01 0.64415355E+03</pdfrwt>
<totfact> 0.34036752E+01</totfact>
</mgrwt>
</event>
<event>
12    1  0.3127365E-008  0.7764409E+03  0.7818608E-02  0.9594758E-01
         -2   -1    0    0    0  501 -0.00000000000E+00  0.00000000000E+00  0.42864926935E+03  0.42864926935E+03  0.00000000000E+00 0.  1.
          2   -1    0    0  501    0  0.00000000000E+00 -0.00000000000E+00 -0.18064719242E+04  0.18064719242E+04  0.00000000000E+00 0. -1.
         23    2    1    2    0    0  0.50655578666E+03  0.48871983657E+03 -0.10220306825E+04  0.12443109006E+04  0.91197905122E+02 0.  0.
    5000000    2    1    2    0    0 -0.50655578666E+03 -0.48871983657E+03 -0.35579197238E+03  0.99081029290E+03  0.59972599181E+03 0.  0.
         23    2    4    4    0    0 -0.22870876223E+03  0.32443050200E+02 -0.30179363937E+03  0.39076341254E+03  0.90864703775E+02 0.  0.
         23    2    4    4    0    0 -0.27784702444E+03 -0.52116288677E+03 -0.53998333014E+02  0.60004688036E+03  0.91272751289E+02 0.  0.
          1    1    3    3  502    0  0.97225225008E+02  0.54324258505E+02 -0.13251055183E+03  0.17309799475E+03  0.00000000000E+00 0. -1.
         -1    1    3    3    0  502  0.40933056166E+03  0.43439557806E+03 -0.88952013063E+03  0.10712129059E+04  0.00000000000E+00 0.  1.
         11    1    5    5    0    0  0.10034649929E+01  0.17037999689E+02 -0.30467260393E+02  0.34922118080E+02  0.00000000000E+00 0. -1.
        -11    1    5    5    0    0 -0.22971222722E+03  0.15405050511E+02 -0.27132637898E+03  0.35584129446E+03  0.00000000000E+00 0.  1.
          5    1    6    6  503    0  0.54214040895E+01 -0.24854501297E+02  0.12954655177E+01  0.25901854913E+02  0.47000000000E+01 0. -1.
         -5    1    6    6    0  503 -0.28326842852E+03 -0.49630838547E+03 -0.55293798532E+02  0.57414502544E+03  0.47000000000E+01 0.  1.
<mgrwt>
<rscale>  0 0.77644088E+03</rscale>
<asrwt>0</asrwt>
<pdfrwt beam="1">  1        2 0.27791875E+00 0.77644088E+03</pdfrwt>
<pdfrwt beam="2">  1       -2 0.65946042E-01 0.77644088E+03</pdfrwt>
<totfact> 0.18589416E+01</totfact>
</mgrwt>
</event>
<event>
12    1  0.3127365E-008  0.7679709E+03  0.7818608E-02  0.9607571E-01
          1   -1    0    0  501    0  0.00000000000E+00  0.00000000000E+00  0.21294457298E+04  0.21294457298E+04  0.00000000000E+00 0. -1.
         -1   -1    0    0    0  501 -0.00000000000E+00 -0.00000000000E+00 -0.32882837698E+03  0.32882837698E+03  0.00000000000E+00 0.  1.
         23    2    1    2    0    0  0.58305943427E+03 -0.32747215694E+03  0.37244099607E+03  0.77137231222E+03  0.95428669912E+02 0.  0.
    5000000    2    1    2    0    0 -0.58305943427E+03  0.32747215694E+03  0.14281763567E+04  0.16869017945E+04  0.59896046704E+03 0.  0.
         23    2    4    4    0    0 -0.57485086455E+03  0.56842925279E+02  0.75025735381E+03  0.95127674108E+03  0.91415023637E+02 0.  0.
         23    2    4    4    0    0 -0.82085697150E+01  0.27062923166E+03  0.67791900292E+03  0.73562505347E+03  0.90898201989E+02 0.  0.
          2    1    3    3  502    0  0.11840691471E+03 -0.49774597918E+02  0.11310622775E+03  0.17114533825E+03  0.00000000000E+00 0. -1.
         -2    1    3    3    0  502  0.46465251955E+03 -0.27769755902E+03  0.25933476833E+03  0.60022697397E+03  0.00000000000E+00 0.  1.
         13    1    5    5    0    0 -0.50488742131E+03  0.69710300998E+02  0.69135288491E+03  0.85891771768E+03  0.00000000000E+00 0. -1.
        -13    1    5    5    0    0 -0.69963443242E+02 -0.12867375719E+02  0.58904468895E+02  0.92359023403E+02  0.00000000000E+00 0.  1.
          5    1    6    6  503    0 -0.48838882936E+02  0.16342699904E+03  0.39071776695E+03  0.42635206568E+03  0.47000000000E+01 0. -1.
         -5    1    6    6    0  503  0.40630313220E+02  0.10720223261E+03  0.28720123597E+03  0.30927298778E+03  0.47000000000E+01 0.  1.
<mgrwt>
<rscale>  0 0.76797092E+03</rscale>
<asrwt>0</asrwt>
<pdfrwt beam="1">  1        1 0.32760703E+00 0.76797092E+03</pdfrwt>
<pdfrwt beam="2">  1       -1 0.50588982E-01 0.76797092E+03</pdfrwt>
<totfact> 0.99810884E+00</totfact>
</mgrwt>
</event>
<event>
12    1  0.3127365E-008  0.1147481E+04  0.7818608E-02  0.9160110E-01
         -2   -1    0    0    0  501 -0.00000000000E+00  0.00000000000E+00  0.50493646220E+03  0.50493646220E+03  0.00000000000E+00 0.  1.
          2   -1    0    0  501    0  0.00000000000E+00 -0.00000000000E+00 -0.29729530588E+04  0.29729530588E+04  0.00000000000E+00 0. -1.
         23    2    1    2    0    0 -0.57575241812E+03 -0.97410179165E+03 -0.14524982402E+04  0.18434321707E+04  0.90143676819E+02 0.  0.
    5000000    2    1    2    0    0  0.57575241812E+03  0.97410179165E+03 -0.10155183563E+04  0.16344573503E+04  0.59984010408E+03 0.  0.
         23    2    4    4    0    0  0.31242034634E+03  0.71053567642E+03 -0.32901343347E+03  0.84800942483E+03  0.91666378397E+02 0.  0.
         23    2    4    4    0    0  0.26333207178E+03  0.26356611522E+03 -0.68650492287E+03  0.78644792547E+03  0.91653986480E+02 0.  0.
          2    1    3    3  502    0 -0.25952108747E+03 -0.47601506219E+03 -0.76218475242E+03  0.93534332258E+03  0.00000000000E+00 0.  1.
         -2    1    3    3    0  502 -0.31623133065E+03 -0.49808672945E+03 -0.69031348783E+03  0.90808884809E+03  0.00000000000E+00 0. -1.
         11    1    5    5    0    0  0.18076730242E+03  0.31106670160E+03 -0.12830054877E+03  0.38196903183E+03  0.00000000000E+00 0. -1.
        -11    1    5    5    0    0  0.13165304392E+03  0.39946897483E+03 -0.20071288470E+03  0.46604039300E+03  0.00000000000E+00 0.  1.
          5    1    6    6  503    0  0.19685211924E+03  0.13859857342E+03 -0.40094800252E+03  0.46769831316E+03  0.47000000000E+01 0. -1.
         -5    1    6    6    0  503  0.66479952539E+02  0.12496754181E+03 -0.28555692035E+03  0.31874961232E+03  0.47000000000E+01 0.  1.
<mgrwt>
<rscale>  0 0.11474811E+04</rscale>
<asrwt>0</asrwt>
<pdfrwt beam="1">  1        2 0.45737740E+00 0.11474811E+04</pdfrwt>
<pdfrwt beam="2">  1       -2 0.77682531E-01 0.11474811E+04</pdfrwt>
<totfact> 0.26731839E+00</totfact>
</mgrwt>
</event>
<event>
12    1  0.3127365E-008  0.6355323E+03  0.7818608E-02  0.9834312E-01
         -1   -1    0    0    0  501 -0.00000000000E+00  0.00000000000E+00  0.44913226451E+03  0.44913226451E+03  0.00000000000E+00 0.  1.
          1   -1    0    0  501    0  0.00000000000E+00 -0.00000000000E+00 -0.12695474880E+04  0.12695474880E+04  0.00000000000E+00 0. -1.
         23    2    1    2    0    0  0.60769928045E+03 -0.12559212408E+03 -0.48371022970E+03  0.79206396189E+03  0.91202720969E+02 0.  0.
    5000000    2    1    2    0    0 -0.60769928045E+03  0.12559212408E+03 -0.33670499378E+03  0.92661579062E+03  0.60014562691E+03 0.  0.
         23    2    4    4    0    0 -0.44185989372E+03  0.43586440505E+02 -0.49157033310E+03  0.66796320173E+03  0.85985481381E+02 0.  0.
         23    2    4    4    0    0 -0.16583938673E+03  0.82005683579E+02  0.15486533932E+03  0.25865258889E+03  0.93221532315E+02 0.  0.
          4    1    3    3  502    0  0.72902648492E+02 -0.42675331656E+02 -0.47126819061E+02  0.96731159220E+02  0.00000000000E+00 0. -1.
         -4    1    3    3    0  502  0.53479663196E+03 -0.82916792428E+02 -0.43658341064E+03  0.69533280267E+03  0.00000000000E+00 0.  1.
         11    1    5    5    0    0 -0.19081255782E+03 -0.21919037349E+02 -0.19041977769E+03  0.27046176839E+03  0.00000000000E+00 0.  1.
        -11    1    5    5    0    0 -0.25104733589E+03  0.65505477854E+02 -0.30115055541E+03  0.39750143334E+03  0.00000000000E+00 0. -1.
          5    1    6    6  503    0 -0.58817076744E+02  0.60714269957E+02  0.11408385771E+03  0.14206649036E+03  0.47000000000E+01 0. -1.
         -5    1    6    6    0  503 -0.10702230999E+03  0.21291413622E+02  0.40781481611E+02  0.11658609853E+03  0.47000000000E+01 0.  1.
<mgrwt>
<rscale>  0 0.63553232E+03</rscale>
<asrwt>0</asrwt>
<pdfrwt beam="1">  1        1 0.19531500E+00 0.63553232E+03</pdfrwt>
<pdfrwt beam="2">  1       -1 0.69097272E-01 0.63553232E+03</pdfrwt>
<totfact> 0.21125499E+01</totfact>
</mgrwt>
</event>
<event>
12    1  0.3127365E-008  0.3953791E+03  0.7818608E-02  0.1045392E+00
          2   -1    0    0  501    0  0.00000000000E+00  0.00000000000E+00  0.47007148562E+03  0.47007148562E+03  0.00000000000E+00 0. -1.
         -2   -1    0    0    0  501 -0.00000000000E+00 -0.00000000000E+00 -0.41760242517E+03  0.41760242517E+03  0.00000000000E+00 0.  1.
         23    2    1    2    0    0  0.14329238200E+03  0.16670351064E+03 -0.40885351395E+02  0.24184935607E+03  0.92177718980E+02 0.  0.
    5000000    2    1    2    0    0 -0.14329238200E+03 -0.16670351064E+03  0.93354411847E+02  0.64582455472E+03  0.60004295018E+03 0.  0.
         23    2    4    4    0    0 -0.30799847024E+03  0.61452040713E+01 -0.86747083260E+02  0.33249590211E+03  0.90153465080E+02 0.  0.
         23    2    4    4    0    0  0.16470608823E+03 -0.17284871471E+03  0.18010149511E+03  0.31332865261E+03  0.93453316294E+02 0.  0.
          1    1    3    3  502    0  0.53004870273E+02  0.88322230883E+02 -0.62302827760E+02  0.12038261954E+03  0.00000000000E+00 0. -1.
         -1    1    3    3    0  502  0.90287511729E+02  0.78381279752E+02  0.21417476365E+02  0.12146673653E+03  0.00000000000E+00 0.  1.
         11    1    5    5    0    0 -0.29118700353E+03 -0.16635877773E+02 -0.71328568479E+02  0.30025720330E+03  0.00000000000E+00 0. -1.
        -11    1    5    5    0    0 -0.16811466706E+02  0.22781081844E+02 -0.15418514781E+02  0.32238698808E+02  0.00000000000E+00 0.  1.
          5    1    6    6  503    0 -0.56823175250E+01 -0.10394936466E+02 -0.51265287736E+01  0.13737348137E+02  0.47000000000E+01 0. -1.
         -5    1    6    6    0  503  0.17038840576E+03 -0.16245377824E+03  0.18522802388E+03  0.29959130447E+03  0.47000000000E+01 0.  1.
<mgrwt>
<rscale>  0 0.39537910E+03</rscale>
<asrwt>0</asrwt>
<pdfrwt beam="1">  1        2 0.72318690E-01 0.39537910E+03</pdfrwt>
<pdfrwt beam="2">  1       -2 0.64246527E-01 0.39537910E+03</pdfrwt>
<totfact> 0.15266772E+02</totfact>
</mgrwt>
</event>
<event>
12    1  0.3127365E-008  0.4079002E+03  0.7818608E-02  0.1041078E+00
          1   -1    0    0  501    0  0.00000000000E+00  0.00000000000E+00  0.20104089899E+04  0.20104089899E+04  0.00000000000E+00 0. -1.
         -1   -1    0    0    0  501 -0.00000000000E+00 -0.00000000000E+00 -0.11706143183E+03  0.11706143183E+03  0.00000000000E+00 0.  1.
         23    2    1    2    0    0 -0.65492894224E+00 -0.20867952289E+03  0.10345426619E+04  0.10593069749E+04  0.91132735463E+02 0.  0.
    5000000    2    1    2    0    0  0.65492894224E+00  0.20867952289E+03  0.85880489618E+03  0.10681634469E+04  0.59989976441E+03 0.  0.
         23    2    4    4    0    0 -0.25186530490E+03  0.23591760729E+03  0.55929728038E+03  0.66351079345E+03  0.91322921245E+02 0.  0.
         23    2    4    4    0    0  0.25252023384E+03 -0.27238084393E+02  0.29950761580E+03  0.40465265343E+03  0.97624670369E+02 0.  0.
          4    1    3    3  502    0  0.34970664048E+01 -0.39669923365E+02  0.42159956657E+03  0.42347624116E+03  0.00000000000E+00 0. -1.
         -4    1    3    3    0  502 -0.41519953470E+01 -0.16900959953E+03  0.61294309535E+03  0.63583073371E+03  0.00000000000E+00 0.  1.
         13    1    5    5    0    0 -0.75992803436E+02  0.10996840606E+03  0.27971080715E+03  0.31000982588E+03  0.00000000000E+00 0.  1.
        -13    1    5    5    0    0 -0.17587250146E+03  0.12594920122E+03  0.27958647323E+03  0.35350096757E+03  0.00000000000E+00 0. -1.
          5    1    6    6  503    0  0.14224912548E+03 -0.34051804530E+02  0.23438584371E+03  0.27632074266E+03  0.47000000000E+01 0. -1.
         -5    1    6    6    0  503  0.11027110836E+03  0.68137201368E+01  0.65121772084E+02  0.12833191077E+03  0.47000000000E+01 0.  1.
<mgrwt>
<rscale>  0 0.40790015E+03</rscale>
<asrwt>0</asrwt>
<pdfrwt beam="1">  1        1 0.30929366E+00 0.40790015E+03</pdfrwt>
<pdfrwt beam="2">  1       -1 0.18009453E-01 0.40790015E+03</pdfrwt>
<totfact> 0.77382849E+01</totfact>
</mgrwt>
</event>
<event>
12    1  0.3127365E-008  0.1065987E+04  0.7818608E-02  0.9238992E-01
          2   -1    0    0  501    0  0.00000000000E+00  0.00000000000E+00  0.14947197283E+04  0.14947197283E+04  0.00000000000E+00 0. -1.
         -2   -1    0    0    0  501 -0.00000000000E+00 -0.00000000000E+00 -0.86832448215E+03  0.86832448215E+03  0.00000000000E+00 0.  1.
         23    2    1    2    0    0  0.91160739867E+03  0.51935522310E+03  0.14925706340E+03  0.10636831986E+04  0.91577174875E+02 0.  0.
    5000000    2    1    2    0    0 -0.91160739867E+03 -0.51935522310E+03  0.47713818275E+03  0.12993610118E+04  0.59993357682E+03 0.  0.
         23    2    4    4    0    0 -0.77553405230E+03 -0.50178594421E+03  0.59078606800E+03  0.10997766616E+04  0.85078358965E+02 0.  0.
         23    2    4    4    0    0 -0.13607334637E+03 -0.17569278891E+02 -0.11364788525E+03  0.19958435025E+03  0.89963525328E+02 0.  0.
          1    1    3    3  502    0  0.65704616369E+03  0.36477921945E+03  0.14754472309E+03  0.76586094396E+03  0.00000000000E+00 0. -1.
         -1    1    3    3    0  502  0.25456123498E+03  0.15457600365E+03  0.17123403122E+01  0.29782225466E+03  0.00000000000E+00 0.  1.
         13    1    5    5    0    0 -0.21287146121E+03 -0.11252356104E+03  0.19108252881E+03  0.30738956326E+03  0.00000000000E+00 0. -1.
        -13    1    5    5    0    0 -0.56266259109E+03 -0.38926238316E+03  0.39970353919E+03  0.79238709833E+03  0.00000000000E+00 0.  1.
          5    1    6    6  503    0 -0.11410848056E+03 -0.44530596181E+02 -0.10928420842E+03  0.16422194598E+03  0.47000000000E+01 0. -1.
         -5    1    6    6    0  503 -0.21964865811E+02  0.26961317290E+02 -0.43636768295E+01  0.35362404268E+02  0.47000000000E+01 0.  1.
<mgrwt>
<rscale>  0 0.10659870E+04</rscale>
<asrwt>0</asrwt>
<pdfrwt beam="1">  1        2 0.22995688E+00 0.10659870E+04</pdfrwt>
<pdfrwt beam="2">  1       -2 0.13358838E+00 0.10659870E+04</pdfrwt>
<totfact> 0.51083874E+00</totfact>
</mgrwt>
</event>
<event>
12    1  0.3127365E-008  0.1218655E+04  0.7818608E-02  0.9096683E-01
          2   -1    0    0  501    0  0.00000000000E+00  0.00000000000E+00  0.33870473338E+04  0.33870473338E+04  0.00000000000E+00 0. -1.
         -2   -1    0    0    0  501 -0.00000000000E+00 -0.00000000000E+00 -0.53917523810E+03  0.53917523810E+03  0.00000000000E+00 0.  1.
         23    2    1    2    0    0  0.79332329690E+03  0.84343557765E+03  0.21584747541E+04  0.24510804181E+04  0.89646666932E+02 0.  0.
    5000000    2    1    2    0    0 -0.79332329690E+03 -0.84343557765E+03  0.68939734163E+03  0.14751421538E+04  0.60002520970E+03 0.  0.
         23    2    4    4    0    0 -0.50579961319E+02 -0.40753921304E+03  0.33983938594E+03  0.54047870303E+03  0.89330160278E+02 0.  0.
         23    2    4    4    0    0 -0.74274333558E+03 -0.43589636460E+03  0.34955795569E+03  0.93466345079E+03  0.98649372187E+02 0.  0.
          4    1    3    3  502    0  0.33625966589E+03  0.35441632706E+03  0.81837219241E+03  0.95310783288E+03  0.00000000000E+00 0. -1.
         -4    1    3    3    0  502  0.45706363101E+03  0.48901925059E+03  0.13401025617E+04  0.14979725852E+04  0.00000000000E+00 0.  1.
         13    1    5    5    0    0 -0.53828719930E+02 -0.25009497995E+03  0.16137215060E+03  0.30246652885E+03  0.00000000000E+00 0.  1.
        -13    1    5    5    0    0  0.32487586104E+01 -0.15744423309E+03  0.17846723534E+03  0.23801217418E+03  0.00000000000E+00 0. -1.
          5    1    6    6  503    0 -0.18943988084E+03 -0.66629385770E+02  0.97534744120E+02  0.22329814108E+03  0.47000000000E+01 0. -1.
         -5    1    6    6    0  503 -0.55330345474E+03 -0.36926697883E+03  0.25202321157E+03  0.71136530971E+03  0.47000000000E+01 0.  1.
<mgrwt>
<rscale>  0 0.12186548E+04</rscale>
<asrwt>0</asrwt>
<pdfrwt beam="1">  1        2 0.52108419E+00 0.12186548E+04</pdfrwt>
<pdfrwt beam="2">  1       -2 0.82950039E-01 0.12186548E+04</pdfrwt>
<totfact> 0.12367155E+00</totfact>
</mgrwt>
</event>
<event>
12    1  0.3127365E-008  0.7912859E+03  0.7818608E-02  0.9572717E-01
          1   -1    0    0  501    0  0.00000000000E+00  0.00000000000E+00  0.10223134566E+04  0.10223134566E+04  0.00000000000E+00 0. -1.
         -1   -1    0    0    0  501 -0.00000000000E+00 -0.00000000000E+00 -0.69823524571E+03  0.69823524571E+03  0.00000000000E+00 0.  1.
         23    2    1    2    0    0 -0.70184079803E+03  0.21746093976E+03  0.15785258540E+03  0.75704894585E+03  0.91301158770E+02 0.  0.
    5000000    2    1    2    0    0  0.70184079803E+03 -0.21746093976E+03  0.16622562544E+03  0.96349975642E+03  0.60069214741E+03 0.  0.
         23    2    4    4    0    0  0.28968139335E+03 -0.30481105682E+03 -0.11924112666E+03  0.44649357975E+03  0.91175547500E+02 0.  0.
         23    2    4    4    0    0  0.41215940468E+03  0.87350117060E+02  0.28546675210E+03  0.51700617666E+03  0.91097213653E+02 0.  0.
          1    1    3    3  502    0 -0.30350985028E+03  0.65698077165E+02  0.29786843563E+02  0.31196429701E+03  0.00000000000E+00 0. -1.
         -1    1    3    3    0  502 -0.39833094775E+03  0.15176286260E+03  0.12806574184E+03  0.44508464884E+03  0.00000000000E+00 0.  1.
         13    1    5    5    0    0  0.42071344798E+02 -0.47284185429E+02  0.14665028763E+02  0.64968109973E+02  0.00000000000E+00 0. -1.
        -13    1    5    5    0    0  0.24761004855E+03 -0.25752687139E+03 -0.13390615542E+03  0.38152546978E+03  0.00000000000E+00 0.  1.
          5    1    6    6  503    0  0.26562718015E+03  0.28299785656E+02  0.21935291494E+03  0.34568261165E+03  0.47000000000E+01 0. -1.
         -5    1    6    6    0  503  0.14653222453E+03  0.59050331404E+02  0.66113837152E+02  0.17132356501E+03  0.47000000000E+01 0.  1.
<mgrwt>
<rscale>  0 0.79128593E+03</rscale>
<asrwt>0</asrwt>
<pdfrwt beam="1">  1        1 0.15727899E+00 0.79128593E+03</pdfrwt>
<pdfrwt beam="2">  1       -1 0.10742081E+00 0.79128593E+03</pdfrwt>
<totfact> 0.12042115E+01</totfact>
</mgrwt>
</event>
<event>
12    1  0.3127365E-008  0.3869476E+03  0.7818608E-02  0.1048395E+00
          2   -1    0    0  501    0  0.00000000000E+00  0.00000000000E+00  0.59909746963E+03  0.59909746963E+03  0.00000000000E+00 0. -1.
         -2   -1    0    0    0  501 -0.00000000000E+00 -0.00000000000E+00 -0.61945711825E+03  0.61945711825E+03  0.00000000000E+00 0.  1.
         23    2    1    2    0    0 -0.26500659694E+03 -0.16784249305E+03  0.32082940176E+03  0.46033081916E+03  0.10282684054E+03 0.  0.
    5000000    2    1    2    0    0  0.26500659694E+03  0.16784249305E+03 -0.34118905038E+03  0.75822376872E+03  0.60007809197E+03 0.  0.
         23    2    4    4    0    0  0.27089568377E+03 -0.13816496822E+02 -0.44544338891E+03  0.52956664427E+03  0.91900222705E+02 0.  0.
         23    2    4    4    0    0 -0.58890868366E+01  0.18165898987E+03  0.10425433852E+03  0.22865712445E+03  0.91544762365E+02 0.  0.
          4    1    3    3  502    0 -0.69129326169E+02 -0.54941718419E+02  0.16042932253E+03  0.18312570461E+03  0.00000000000E+00 0. -1.
         -4    1    3    3    0  502 -0.19587727077E+03 -0.11290077463E+03  0.16040007923E+03  0.27720511455E+03  0.00000000000E+00 0.  1.
         13    1    5    5    0    0  0.12277218833E+03 -0.10880453363E+02 -0.12015846883E+03  0.17213207755E+03  0.00000000000E+00 0. -1.
        -13    1    5    5    0    0  0.14812349545E+03 -0.29360434589E+01 -0.32528492008E+03  0.35743456672E+03  0.00000000000E+00 0.  1.
          5    1    6    6  503    0  0.13520448835E+02  0.14991935554E+03  0.11518108133E+03  0.18959796201E+03  0.47000000000E+01 0. -1.
         -5    1    6    6    0  503 -0.19409535671E+02  0.31739634330E+02 -0.10926742803E+02  0.39059162442E+02  0.47000000000E+01 0.  1.
<mgrwt>
<rscale>  0 0.38694756E+03</rscale>
<asrwt>0</asrwt>
<pdfrwt beam="1">  1        2 0.92168842E-01 0.38694756E+03</pdfrwt>
<pdfrwt beam="2">  1       -2 0.95301095E-01 0.38694756E+03</pdfrwt>
<totfact> 0.48216685E+01</totfact>
</mgrwt>
</event>
<event>
12    1  0.3127365E-008  0.4197114E+03  0.7818608E-02  0.1037160E+00
         -2   -1    0    0    0  501 -0.00000000000E+00  0.00000000000E+00  0.46066827868E+03  0.46066827868E+03  0.00000000000E+00 0.  1.
          2   -1    0    0  501    0  0.00000000000E+00 -0.00000000000E+00 -0.57473560200E+03  0.57473560200E+03  0.00000000000E+00 0. -1.
         23    2    1    2    0    0 -0.37372555154E+02  0.20814110614E+03  0.21838147976E+03  0.31777679997E+03  0.92586154228E+02 0.  0.
    5000000    2    1    2    0    0  0.37372555154E+02 -0.20814110614E+03 -0.33244880307E+03  0.71762708071E+03  0.59978912324E+03 0.  0.
         23    2    4    4    0    0 -0.26209127697E+03 -0.95996281726E+02 -0.22617893087E+03  0.37065268047E+03  0.91210620011E+02 0.  0.
         23    2    4    4    0    0  0.29946383212E+03 -0.11214482442E+03 -0.10626987220E+03  0.34697440024E+03  0.82721824761E+02 0.  0.
          2    1    3    3  502    0 -0.67534335594E+02  0.15236317912E+03  0.16953087278E+03  0.23773123829E+03  0.00000000000E+00 0. -1.
         -2    1    3    3    0  502  0.30161780441E+02  0.55777927021E+02  0.48850606982E+02  0.80045561680E+02  0.00000000000E+00 0.  1.
         13    1    5    5    0    0 -0.17427868294E+03 -0.62603540720E+02 -0.91792437628E+02  0.20668360903E+03  0.00000000000E+00 0. -1.
        -13    1    5    5    0    0 -0.87812594030E+02 -0.33392741007E+02 -0.13438649324E+03  0.16396907144E+03  0.00000000000E+00 0.  1.
          5    1    6    6  503    0  0.53837960085E+02  0.11407699014E+02 -0.20576502715E+02  0.58941869727E+02  0.47000000000E+01 0. -1.
         -5    1    6    6    0  503  0.24562587203E+03 -0.12355252343E+03 -0.85693369487E+02  0.28803253051E+03  0.47000000000E+01 0.  1.
<mgrwt>
<rscale>  0 0.41971141E+03</rscale>
<asrwt>0</asrwt>
<pdfrwt beam="1">  1        2 0.88420861E-01 0.41971141E+03</pdfrwt>
<pdfrwt beam="2">  1       -2 0.70872043E-01 0.41971141E+03</pdfrwt>
<totfact> 0.97954853E+01</totfact>
</mgrwt>
</event>
<event>
12    1  0.3127365E-008  0.7455977E+03  0.7818608E-02  0.9642282E-01
         -2   -1    0    0    0  501 -0.00000000000E+00  0.00000000000E+00  0.41214918024E+03  0.41214918024E+03  0.00000000000E+00 0. -1.
          2   -1    0    0  501    0  0.00000000000E+00 -0.00000000000E+00 -0.16009429189E+04  0.16009429189E+04  0.00000000000E+00 0.  1.
         23    2    1    2    0    0 -0.39665230270E+03 -0.56101650032E+03 -0.36194361430E+03  0.78196209293E+03  0.91591331327E+02 0.  0.
    5000000    2    1    2    0    0  0.39665230270E+03  0.56101650032E+03 -0.82685012440E+03  0.12311300063E+04  0.59993949795E+03 0.  0.
         23    2    4    4    0    0  0.42290076645E+03  0.55754101181E+03 -0.43770736008E+03  0.83039266870E+03  0.90924215989E+02 0.  0.
         23    2    4    4    0    0 -0.26248463746E+02  0.34754885037E+01 -0.38914276433E+03  0.40073733755E+03  0.91963372103E+02 0.  0.
          2    1    3    3  502    0 -0.26680706518E+03 -0.30427721253E+03 -0.22953665982E+03  0.46525015883E+03  0.00000000000E+00 0. -1.
         -2    1    3    3    0  502 -0.12984523752E+03 -0.25673928779E+03 -0.13240695448E+03  0.31671193409E+03  0.00000000000E+00 0.  1.
         11    1    5    5    0    0  0.10968710744E+03  0.19783339263E+03 -0.10873471582E+03  0.25098316916E+03  0.00000000000E+00 0. -1.
        -11    1    5    5    0    0  0.31321365901E+03  0.35970761918E+03 -0.32897264426E+03  0.57940949954E+03  0.00000000000E+00 0.  1.
          5    1    6    6  503    0 -0.25317202467E+02 -0.42348013480E+02 -0.19435671167E+03  0.20057650999E+03  0.47000000000E+01 0. -1.
         -5    1    6    6    0  503 -0.93126127919E+00  0.45823501984E+02 -0.19478605266E+03  0.20016082756E+03  0.47000000000E+01 0.  1.
<mgrwt>
<rscale>  0 0.74559771E+03</rscale>
<asrwt>0</asrwt>
<pdfrwt beam="1">  1        2 0.24629891E+00 0.74559771E+03</pdfrwt>
<pdfrwt beam="2">  1       -2 0.63407566E-01 0.74559771E+03</pdfrwt>
<totfact> 0.26309872E+01</totfact>
</mgrwt>
</event>
<event>
12    1  0.3127365E-008  0.5579214E+03  0.7818608E-02  0.9996769E-01
         -2   -1    0    0    0  501 -0.00000000000E+00  0.00000000000E+00  0.45400676314E+03  0.45400676314E+03  0.00000000000E+00 0.  1.
          2   -1    0    0  501    0  0.00000000000E+00 -0.00000000000E+00 -0.11751095318E+04  0.11751095318E+04  0.00000000000E+00 0. -1.
         23    2    1    2    0    0 -0.16918175093E+03 -0.41198698140E+03  0.14963863769E+03  0.48147628312E+03  0.10522334161E+03 0.  0.
    5000000    2    1    2    0    0  0.16918175093E+03  0.41198698140E+03 -0.87074140636E+03  0.11476400118E+04  0.60044255540E+03 0.  0.
         23    2    4    4    0    0  0.32405694652E+03  0.22917730113E+03 -0.77111769177E+03  0.87201799271E+03  0.90872136053E+02 0.  0.
         23    2    4    4    0    0 -0.15487519559E+03  0.18280968027E+03 -0.99623714588E+02  0.27562201913E+03  0.92934963859E+02 0.  0.
          2    1    3    3  502    0 -0.18366178842E+03 -0.39136121916E+03  0.13886729165E+03  0.45406979758E+03  0.00000000000E+00 0. -1.
         -2    1    3    3    0  502  0.14480037488E+02 -0.20625762246E+02  0.10771346039E+02  0.27406485535E+02  0.00000000000E+00 0.  1.
         11    1    5    5    0    0  0.86747874728E+02  0.18549143387E+02 -0.19702201229E+03  0.21607160345E+03  0.00000000000E+00 0. -1.
        -11    1    5    5    0    0  0.23730907179E+03  0.21062815774E+03 -0.57409567949E+03  0.65594638927E+03  0.00000000000E+00 0.  1.
          5    1    6    6  503    0  0.88222194637E+01  0.82083946987E+01  0.56477019680E+01  0.14113675542E+02  0.47000000000E+01 0. -1.
         -5    1    6    6    0  503 -0.16369741505E+03  0.17460128558E+03 -0.10527141656E+03  0.26150834358E+03  0.47000000000E+01 0.  1.
<mgrwt>
<rscale>  0 0.55792135E+03</rscale>
<asrwt>0</asrwt>
<pdfrwt beam="1">  1        2 0.18078608E+00 0.55792135E+03</pdfrwt>
<pdfrwt beam="2">  1       -2 0.69847196E-01 0.55792135E+03</pdfrwt>
<totfact> 0.38106430E+01</totfact>
</mgrwt>
</event>
<event>
12    1  0.3127365E-008  0.7459264E+03  0.7818608E-02  0.9641763E-01
          1   -1    0    0  501    0  0.00000000000E+00  0.00000000000E+00  0.85545663791E+03  0.85545663791E+03  0.00000000000E+00 0. -1.
         -1   -1    0    0    0  501 -0.00000000000E+00 -0.00000000000E+00 -0.71868083112E+03  0.71868083112E+03  0.00000000000E+00 0.  1.
         23    2    1    2    0    0 -0.15326422919E+03  0.64769010615E+03  0.73624804700E+02  0.67574163705E+03  0.90629744691E+02 0.  0.
    5000000    2    1    2    0    0  0.15326422919E+03 -0.64769010615E+03  0.63151002084E+02  0.89839583198E+03  0.60011217642E+03 0.  0.
         23    2    4    4    0    0 -0.10296733717E+03 -0.49515191708E+03  0.20714907199E+03  0.55393959826E+03  0.90336299371E+02 0.  0.
         23    2    4    4    0    0  0.25623156636E+03 -0.15253818908E+03 -0.14399806990E+03  0.34445623372E+03  0.94826884819E+02 0.  0.
          3    1    3    3  502    0 -0.19038991084E+02  0.25968541812E+03  0.12818817619E+02  0.26069775920E+03  0.00000000000E+00 0. -1.
         -3    1    3    3    0  502 -0.13422523811E+03  0.38800468803E+03  0.60805987081E+02  0.41504387785E+03  0.00000000000E+00 0.  1.
         11    1    5    5    0    0 -0.65108613787E+02 -0.44769436989E+03  0.19136625192E+03  0.49121321521E+03  0.00000000000E+00 0. -1.
        -11    1    5    5    0    0 -0.37858723386E+02 -0.47457547186E+02  0.15782820068E+02  0.62726383051E+02  0.00000000000E+00 0.  1.
          5    1    6    6  503    0  0.14246074116E+03 -0.40811331137E+02 -0.38439938583E+02  0.15316770677E+03  0.47000000000E+01 0. -1.
         -5    1    6    6    0  503  0.11377082521E+03 -0.11172685794E+03 -0.10555813132E+03  0.19128852695E+03  0.47000000000E+01 0.  1.
<mgrwt>
<rscale>  0 0.74592636E+03</rscale>
<asrwt>0</asrwt>
<pdfrwt beam="1">  1        1 0.13160871E+00 0.74592636E+03</pdfrwt>
<pdfrwt beam="2">  1       -1 0.11056628E+00 0.74592636E+03</pdfrwt>
<totfact> 0.15385474E+01</totfact>
</mgrwt>
</event>
<event>
12    1  0.3127365E-008  0.9956299E+03  0.7818608E-02  0.9313351E-01
          1   -1    0    0  501    0  0.00000000000E+00  0.00000000000E+00  0.17562413348E+04  0.17562413348E+04  0.00000000000E+00 0. -1.
         -1   -1    0    0    0  501 -0.00000000000E+00 -0.00000000000E+00 -0.59987566597E+03  0.59987566597E+03  0.00000000000E+00 0.  1.
         23    2    1    2    0    0  0.61232962447E+03  0.67951693926E+03  0.30006896857E+03  0.96691597096E+03  0.90522203044E+02 0.  0.
    5000000    2    1    2    0    0 -0.61232962447E+03 -0.67951693926E+03  0.85629670031E+03  0.13892010299E+04  0.59995385043E+03 0.  0.
         23    2    4    4    0    0 -0.52176961408E+03 -0.15595147559E+03  0.38315703333E+03  0.67208313143E+03  0.91225163455E+02 0.  0.
         23    2    4    4    0    0 -0.90560010389E+02 -0.52356546367E+03  0.47313966698E+03  0.71711789843E+03  0.89861145889E+02 0.  0.
          3    1    3    3  502    0  0.32548740043E+03  0.36808095101E+03  0.20830568319E+03  0.53368238867E+03  0.00000000000E+00 0. -1.
         -3    1    3    3    0  502  0.28684222404E+03  0.31143598825E+03  0.91763285382E+02  0.43323358228E+03  0.00000000000E+00 0.  1.
         11    1    5    5    0    0 -0.28042713835E+03 -0.71712318801E+02  0.14957924063E+03  0.32581587717E+03  0.00000000000E+00 0. -1.
        -11    1    5    5    0    0 -0.24134247574E+03 -0.84239156786E+02  0.23357779270E+03  0.34626725426E+03  0.00000000000E+00 0.  1.
          5    1    6    6  503    0 -0.55082247664E+02 -0.32454344482E+03  0.34930552863E+03  0.47999889991E+03  0.47000000000E+01 0. -1.
         -5    1    6    6    0  503 -0.35477762725E+02 -0.19902201886E+03  0.12383413835E+03  0.23711899852E+03  0.47000000000E+01 0.  1.
<mgrwt>
<rscale>  0 0.99562991E+03</rscale>
<asrwt>0</asrwt>
<pdfrwt beam="1">  1        1 0.27019097E+00 0.99562991E+03</pdfrwt>
<pdfrwt beam="2">  1       -1 0.92288565E-01 0.99562991E+03</pdfrwt>
<totfact> 0.50288231E+00</totfact>
</mgrwt>
</event>
<event>
12    1  0.3127365E-008  0.8810958E+03  0.7818608E-02  0.9449526E-01
          3   -1    0    0  501    0  0.00000000000E+00  0.00000000000E+00  0.13897915435E+04  0.13897915435E+04  0.00000000000E+00 0. -1.
         -3   -1    0    0    0  501 -0.00000000000E+00 -0.00000000000E+00 -0.10652532453E+04  0.10652532453E+04  0.00000000000E+00 0.  1.
         23    2    1    2    0    0 -0.78909010566E+03 -0.22672511237E+03 -0.64614772723E+03  0.10491280063E+04  0.95368845657E+02 0.  0.
    5000000    2    1    2    0    0  0.78909010566E+03  0.22672511237E+03  0.97068602541E+03  0.14059167825E+04  0.60025258672E+03 0.  0.
         23    2    4    4    0    0  0.33670170408E+03  0.32733820573E+03  0.23717806225E+03  0.53382074128E+03  0.90514154447E+02 0.  0.
         23    2    4    4    0    0  0.45238840159E+03 -0.10061309335E+03  0.73350796316E+03  0.87209604119E+03  0.87973362957E+02 0.  0.
          4    1    3    3  502    0 -0.29530890404E+03 -0.11705511629E+03 -0.29372036403E+03  0.43264408156E+03  0.00000000000E+00 0. -1.
         -4    1    3    3    0  502 -0.49378120162E+03 -0.10966999608E+03 -0.35242736319E+03  0.61648392472E+03  0.00000000000E+00 0.  1.
         11    1    5    5    0    0  0.20658599634E+03  0.20482867195E+03  0.19491433167E+03  0.35017731998E+03  0.00000000000E+00 0.  1.
        -11    1    5    5    0    0  0.13011570774E+03  0.12250953378E+03  0.42263730578E+02  0.18364342131E+03  0.00000000000E+00 0. -1.
          5    1    6    6  503    0  0.37015468938E+03 -0.11000509219E+03  0.63647046195E+03  0.74446783228E+03  0.47000000000E+01 0. -1.
         -5    1    6    6    0  503  0.82233712212E+02  0.93919988353E+01  0.97037501217E+02  0.12762820891E+03  0.47000000000E+01 0.  1.
<mgrwt>
<rscale>  0 0.88109582E+03</rscale>
<asrwt>0</asrwt>
<pdfrwt beam="1">  1        3 0.21381408E+00 0.88109582E+03</pdfrwt>
<pdfrwt beam="2">  1       -3 0.16388512E+00 0.88109582E+03</pdfrwt>
<totfact> 0.78979850E-02</totfact>
</mgrwt>
</event>
<event>
12    1  0.3127365E-008  0.1229803E+04  0.7818608E-02  0.9087163E-01
          2   -1    0    0  501    0  0.00000000000E+00  0.00000000000E+00  0.19845060536E+04  0.19845060536E+04  0.00000000000E+00 0. -1.
         -2   -1    0    0    0  501 -0.00000000000E+00 -0.00000000000E+00 -0.83077504212E+03  0.83077504212E+03  0.00000000000E+00 0.  1.
         23    2    1    2    0    0  0.80186721083E+03  0.84680617711E+03  0.90922692563E+03  0.14813328660E+04  0.87073143213E+02 0.  0.
    5000000    2    1    2    0    0 -0.80186721083E+03 -0.84680617711E+03  0.24450408585E+03  0.13339482297E+04  0.59963647831E+03 0.  0.
         23    2    4    4    0    0 -0.49750097959E+03 -0.13896434409E+03  0.18343419813E+03  0.55570232950E+03  0.91316265491E+02 0.  0.
         23    2    4    4    0    0 -0.30436623123E+03 -0.70784183302E+03  0.61069887724E+02  0.77824590020E+03  0.90875115936E+02 0.  0.
          2    1    3    3  502    0  0.55960303531E+03  0.61266291276E+03  0.59944677412E+03  0.10236443898E+04  0.00000000000E+00 0. -1.
         -2    1    3    3    0  502  0.24226417552E+03  0.23414326435E+03  0.30978015151E+03  0.45768847620E+03  0.00000000000E+00 0.  1.
         13    1    5    5    0    0 -0.20298844448E+03 -0.69116661386E+02  0.12247006374E+03  0.24694197291E+03  0.00000000000E+00 0.  1.
        -13    1    5    5    0    0 -0.29451253512E+03 -0.69847682701E+02  0.60964134391E+02  0.30876035659E+03  0.00000000000E+00 0. -1.
          5    1    6    6  503    0 -0.16421407454E+03 -0.48929172936E+03  0.44402257006E+02  0.51804083731E+03  0.47000000000E+01 0. -1.
         -5    1    6    6    0  503 -0.14015215670E+03 -0.21855010367E+03  0.16667630718E+02  0.26020506289E+03  0.47000000000E+01 0.  1.
<mgrwt>
<rscale>  0 0.12298028E+04</rscale>
<asrwt>0</asrwt>
<pdfrwt beam="1">  1        2 0.30530862E+00 0.12298028E+04</pdfrwt>
<pdfrwt beam="2">  1       -2 0.12781154E+00 0.12298028E+04</pdfrwt>
<totfact> 0.30040802E+00</totfact>
</mgrwt>
</event>
<event>
12    1  0.3127365E-008  0.2626868E+04  0.7818608E-02  0.8359132E-01
         -2   -1    0    0    0  501 -0.00000000000E+00  0.00000000000E+00  0.41705672929E+04  0.41705672929E+04  0.00000000000E+00 0.  1.
          2   -1    0    0  501    0  0.00000000000E+00 -0.00000000000E+00 -0.17353507225E+04  0.17353507225E+04  0.00000000000E+00 0. -1.
         23    2    1    2    0    0 -0.25846192489E+04 -0.39607456826E+03  0.69136126069E+03  0.27061977545E+04  0.91619692386E+02 0.  0.
    5000000    2    1    2    0    0  0.25846192489E+04  0.39607456826E+03  0.17438553098E+04  0.31997202609E+04  0.60003889996E+03 0.  0.
         23    2    4    4    0    0  0.13449733018E+03 -0.27343751638E+02  0.24629134242E+03  0.29575539654E+03  0.89300709126E+02 0.  0.
         23    2    4    4    0    0  0.24501219187E+04  0.42341831990E+03  0.14975639673E+04  0.29039648644E+04  0.89070798738E+02 0.  0.
          3    1    3    3  502    0 -0.13581234420E+04 -0.20115485352E+03  0.40976829669E+03  0.14327849161E+04  0.00000000000E+00 0. -1.
         -3    1    3    3    0  502 -0.12264958069E+04 -0.19491971474E+03  0.28159296400E+03  0.12734128384E+04  0.00000000000E+00 0.  1.
         11    1    5    5    0    0  0.14107329810E+03 -0.22856028559E+02  0.18411625981E+03  0.23307267237E+03  0.00000000000E+00 0. -1.
        -11    1    5    5    0    0 -0.65759679114E+01 -0.44877230791E+01  0.62175082604E+02  0.62682724169E+02  0.00000000000E+00 0.  1.
          5    1    6    6  503    0  0.22153069591E+04  0.35640269728E+03  0.13507029342E+04  0.26189746681E+04  0.47000000000E+01 0. -1.
         -5    1    6    6    0  503  0.23481495963E+03  0.67015622620E+02  0.14686103318E+03  0.28499019633E+03  0.47000000000E+01 0.  1.
<mgrwt>
<rscale>  0 0.26268678E+04</rscale>
<asrwt>0</asrwt>
<pdfrwt beam="1">  1        2 0.26697704E+00 0.26268678E+04</pdfrwt>
<pdfrwt beam="2">  1       -2 0.64162573E+00 0.26268678E+04</pdfrwt>
<totfact> 0.27473488E-03</totfact>
</mgrwt>
</event>
<event>
12    1  0.3127365E-008  0.5269977E+03  0.7818608E-02  0.1006963E+00
         -1   -1    0    0    0  501 -0.00000000000E+00  0.00000000000E+00  0.12561905481E+03  0.12561905481E+03  0.00000000000E+00 0.  1.
          1   -1    0    0  501    0  0.00000000000E+00 -0.00000000000E+00 -0.29991362583E+04  0.29991362583E+04  0.00000000000E+00 0. -1.
         23    2    1    2    0    0  0.25414511806E+03 -0.33585678928E+03 -0.62080030350E+03  0.75574956160E+03  0.91514256212E+02 0.  0.
    5000000    2    1    2    0    0 -0.25414511806E+03  0.33585678928E+03 -0.22527169000E+04  0.23690057515E+04  0.60005441025E+03 0.  0.
         23    2    4    4    0    0  0.97921640484E+02  0.21311299739E+03 -0.15281140966E+04  0.15486982836E+04  0.91257242271E+02 0.  0.
         23    2    4    4    0    0 -0.35206675854E+03  0.12274379189E+03 -0.72460280341E+03  0.82030746787E+03  0.94011053663E+02 0.  0.
          4    1    3    3  502    0  0.82179425075E+02 -0.13208935094E+03 -0.30546433802E+03  0.34279661075E+03  0.00000000000E+00 0. -1.
         -4    1    3    3    0  502  0.17196569298E+03 -0.20376743834E+03 -0.31533596548E+03  0.41295295085E+03  0.00000000000E+00 0.  1.
         13    1    5    5    0    0  0.97470338165E+02  0.12152619287E+03 -0.81800704815E+03  0.83270920086E+03  0.00000000000E+00 0. -1.
        -13    1    5    5    0    0  0.45130231912E+00  0.91586804517E+02 -0.71010704842E+03  0.71598908277E+03  0.00000000000E+00 0.  1.
          5    1    6    6  503    0 -0.36873226676E+02  0.47539268783E+02 -0.12059614066E+03  0.13485227497E+03  0.47000000000E+01 0. -1.
         -5    1    6    6    0  503 -0.31519353187E+03  0.75204523108E+02 -0.60400666275E+03  0.68545519290E+03  0.47000000000E+01 0.  1.
<mgrwt>
<rscale>  0 0.52699769E+03</rscale>
<asrwt>0</asrwt>
<pdfrwt beam="1">  1        1 0.46140552E+00 0.52699769E+03</pdfrwt>
<pdfrwt beam="2">  1       -1 0.19326011E-01 0.52699769E+03</pdfrwt>
<totfact> 0.14339778E+01</totfact>
</mgrwt>
</event>
<event>
12    1  0.3127365E-008  0.1158170E+04  0.7818608E-02  0.9150280E-01
          2   -1    0    0  501    0  0.00000000000E+00  0.00000000000E+00  0.32473888686E+04  0.32473888686E+04  0.00000000000E+00 0. -1.
         -2   -1    0    0    0  501 -0.00000000000E+00 -0.00000000000E+00 -0.42562041812E+03  0.42562041812E+03  0.00000000000E+00 0.  1.
         23    2    1    2    0    0 -0.63824136102E+03  0.89037134849E+03  0.12294489533E+04  0.16492222307E+04  0.90972876159E+02 0.  0.
    5000000    2    1    2    0    0  0.63824136102E+03 -0.89037134849E+03  0.15923194971E+04  0.20237870560E+04  0.60009957014E+03 0.  0.
         23    2    4    4    0    0 -0.59463611234E+02 -0.32843110985E+02  0.29771835592E+03  0.31906563446E+03  0.92477395301E+02 0.  0.
         23    2    4    4    0    0  0.69770497225E+03 -0.85752823750E+03  0.12946011412E+04  0.17047214216E+04  0.89084813024E+02 0.  0.
          2    1    3    3  502    0 -0.54178280789E+03  0.70651840485E+03  0.96448341585E+03  0.13126024252E+04  0.00000000000E+00 0. -1.
         -2    1    3    3    0  502 -0.96458553129E+02  0.18385294364E+03  0.26496553748E+03  0.33661980543E+03  0.00000000000E+00 0.  1.
         11    1    5    5    0    0 -0.49935837007E+02  0.21806519365E+02  0.19321137708E+03  0.20074797219E+03  0.00000000000E+00 0. -1.
        -11    1    5    5    0    0 -0.95277742266E+01 -0.54649630350E+02  0.10450697883E+03  0.11831766227E+03  0.00000000000E+00 0.  1.
          5    1    6    6  503    0  0.22944388303E+03 -0.22479370737E+03  0.34863251993E+03  0.47407112366E+03  0.47000000000E+01 0. -1.
         -5    1    6    6    0  503  0.46826108922E+03 -0.63273453013E+03  0.94596862126E+03  0.12306502979E+04  0.47000000000E+01 0.  1.
<mgrwt>
<rscale>  0 0.11581695E+04</rscale>
<asrwt>0</asrwt>
<pdfrwt beam="1">  1        2 0.49959827E+00 0.11581695E+04</pdfrwt>
<pdfrwt beam="2">  1       -2 0.65480066E-01 0.11581695E+04</pdfrwt>
<totfact> 0.26089576E+00</totfact>
</mgrwt>
</event>
<event>
12    1  0.3127365E-008  0.8611590E+03  0.7818608E-02  0.9475481E-01
         -2   -1    0    0    0  501 -0.00000000000E+00  0.00000000000E+00  0.92517991404E+03  0.92517991404E+03  0.00000000000E+00 0.  1.
          2   -1    0    0  501    0  0.00000000000E+00 -0.00000000000E+00 -0.19494074418E+04  0.19494074418E+04  0.00000000000E+00 0. -1.
         23    2    1    2    0    0 -0.42070632774E+03  0.64669767804E+03 -0.15726044206E+04  0.17539178534E+04  0.89058810356E+02 0.  0.
    5000000    2    1    2    0    0  0.42070632774E+03 -0.64669767804E+03  0.54837689285E+03  0.11206695025E+04  0.59997601296E+03 0.  0.
         23    2    4    4    0    0 -0.55127934954E+02  0.53521589508E+02  0.11328714652E+03  0.16350130387E+03  0.89415038136E+02 0.  0.
         23    2    4    4    0    0  0.47583426269E+03 -0.70021926755E+03  0.43508974633E+03  0.95716819858E+03  0.10071050001E+03 0.  0.
          2    1    3    3  502    0 -0.12864077317E+03  0.19815557821E+03 -0.57838447654E+03  0.62477410670E+03  0.00000000000E+00 0. -1.
         -2    1    3    3    0  502 -0.29206555457E+03  0.44854209983E+03 -0.99421994405E+03  0.11291437467E+04  0.00000000000E+00 0.  1.
         11    1    5    5    0    0 -0.25918472174E+02 -0.14781705600E+02  0.73290921539E+02  0.79131695295E+02  0.00000000000E+00 0. -1.
        -11    1    5    5    0    0 -0.29209462780E+02  0.68303295108E+02  0.39996224984E+02  0.84369608577E+02  0.00000000000E+00 0.  1.
          5    1    6    6  503    0  0.21706509406E+03 -0.32719028623E+03  0.25792443702E+03  0.46980617671E+03  0.47000000000E+01 0. -1.
         -5    1    6    6    0  503  0.25876916863E+03 -0.37302898132E+03  0.17716530931E+03  0.48736202187E+03  0.47000000000E+01 0.  1.
<mgrwt>
<rscale>  0 0.86115897E+03</rscale>
<asrwt>0</asrwt>
<pdfrwt beam="1">  1        2 0.29990883E+00 0.86115897E+03</pdfrwt>
<pdfrwt beam="2">  1       -2 0.14233537E+00 0.86115897E+03</pdfrwt>
<totfact> 0.24943164E+00</totfact>
</mgrwt>
</event>
<event>
12    1  0.3127365E-008  0.6210564E+03  0.7818608E-02  0.9862659E-01
          3   -1    0    0  501    0  0.00000000000E+00  0.00000000000E+00  0.17806732370E+03  0.17806732370E+03  0.00000000000E+00 0. -1.
         -3   -1    0    0    0  501 -0.00000000000E+00 -0.00000000000E+00 -0.26640876737E+04  0.26640876737E+04  0.00000000000E+00 0.  1.
         23    2    1    2    0    0  0.96479477586E+01 -0.53983597556E+03 -0.76260782648E+03  0.93907243060E+03  0.93650250914E+02 0.  0.
    5000000    2    1    2    0    0 -0.96479477586E+01  0.53983597556E+03 -0.17234125236E+04  0.19030825669E+04  0.60004713687E+03 0.  0.
         23    2    4    4    0    0 -0.15753623025E+03  0.50996499639E+03 -0.15953407295E+04  0.16847784173E+04  0.92110318831E+02 0.  0.
         23    2    4    4    0    0  0.14788828249E+03  0.29870979173E+02 -0.12807179406E+03  0.21830414955E+03  0.92147152857E+02 0.  0.
          2    1    3    3  502    0  0.34166238435E+02 -0.35602401557E+03 -0.55945241752E+03  0.66400861364E+03  0.00000000000E+00 0. -1.
         -2    1    3    3    0  502 -0.24518290677E+02 -0.18381195999E+03 -0.20315540896E+03  0.27506381696E+03  0.00000000000E+00 0.  1.
         11    1    5    5    0    0 -0.46575371564E+02  0.73565345629E+02 -0.34536704504E+03  0.35617344246E+03  0.00000000000E+00 0. -1.
        -11    1    5    5    0    0 -0.11096085868E+03  0.43639965076E+03 -0.12499736845E+04  0.13286049748E+04  0.00000000000E+00 0.  1.
          5    1    6    6  503    0  0.88024070056E+02 -0.11271552202E+02 -0.25360869792E+02  0.92415088135E+02  0.47000000000E+01 0. -1.
         -5    1    6    6    0  503  0.59864212433E+02  0.41142531374E+02 -0.10271092427E+03  0.12588906141E+03  0.47000000000E+01 0.  1.
<mgrwt>
<rscale>  0 0.62105642E+03</rscale>
<asrwt>0</asrwt>
<pdfrwt beam="1">  1        3 0.27394974E-01 0.62105642E+03</pdfrwt>
<pdfrwt beam="2">  1       -3 0.40985963E+00 0.62105642E+03</pdfrwt>
<totfact> 0.33234624E-01</totfact>
</mgrwt>
</event>
<event>
12    1  0.3127365E-008  0.7444199E+03  0.7818608E-02  0.9644146E-01
          2   -1    0    0  501    0  0.00000000000E+00  0.00000000000E+00  0.12492783287E+04  0.12492783287E+04  0.00000000000E+00 0. -1.
         -2   -1    0    0    0  501 -0.00000000000E+00 -0.00000000000E+00 -0.81127714407E+03  0.81127714407E+03  0.00000000000E+00 0.  1.
         23    2    1    2    0    0 -0.24641700494E+03 -0.63588696829E+03 -0.42401152595E+03  0.80835914884E+03  0.92656152545E+02 0.  0.
    5000000    2    1    2    0    0  0.24641700494E+03  0.63588696829E+03  0.86201271060E+03  0.12521963240E+04  0.59988010780E+03 0.  0.
         23    2    4    4    0    0  0.32110555835E+03  0.63852875967E+03  0.51570643844E+03  0.88636032329E+03  0.94094290620E+02 0.  0.
         23    2    4    4    0    0 -0.74688553411E+02 -0.26417913817E+01  0.34630627217E+03  0.36583600067E+03  0.91228209293E+02 0.  0.
          3    1    3    3  502    0 -0.13233023888E+03 -0.37155467080E+03 -0.19231397339E+03  0.43880386265E+03  0.00000000000E+00 0.  1.
         -3    1    3    3    0  502 -0.11408676606E+03 -0.26433229749E+03 -0.23169755256E+03  0.36955528619E+03  0.00000000000E+00 0. -1.
         13    1    5    5    0    0  0.27269810402E+03  0.59807386172E+03  0.46097683534E+03  0.80284260147E+03  0.00000000000E+00 0.  1.
        -13    1    5    5    0    0  0.48407454339E+02  0.40454897946E+02  0.54729603100E+02  0.83517721825E+02  0.00000000000E+00 0. -1.
          5    1    6    6  503    0 -0.45590854927E+02 -0.22023365768E+02  0.31371372664E+03  0.31780803479E+03  0.47000000000E+01 0. -1.
         -5    1    6    6    0  503 -0.29097698483E+02  0.19381574386E+02  0.32592545523E+02  0.48027965878E+02  0.47000000000E+01 0.  1.
<mgrwt>
<rscale>  0 0.74441987E+03</rscale>
<asrwt>0</asrwt>
<pdfrwt beam="1">  1        2 0.19219667E+00 0.74441987E+03</pdfrwt>
<pdfrwt beam="2">  1       -2 0.12481187E+00 0.74441987E+03</pdfrwt>
<totfact> 0.87046153E+00</totfact>
</mgrwt>
</event>
<event>
12    1  0.3127365E-008  0.9017160E+03  0.7818608E-02  0.9423439E-01
          2   -1    0    0  501    0  0.00000000000E+00  0.00000000000E+00  0.27527841669E+04  0.27527841669E+04  0.00000000000E+00 0. -1.
         -2   -1    0    0    0  501 -0.00000000000E+00 -0.00000000000E+00 -0.37737445490E+03  0.37737445490E+03  0.00000000000E+00 0.  1.
         23    2    1    2    0    0 -0.62107565915E+03  0.53495154557E+03  0.17579520916E+04  0.19413374799E+04  0.80545166780E+02 0.  0.
    5000000    2    1    2    0    0  0.62107565915E+03 -0.53495154557E+03  0.61745762040E+03  0.11888211419E+04  0.60011137635E+03 0.  0.
         23    2    4    4    0    0 -0.75164017956E+02 -0.52276410181E+01  0.15902043465E+03  0.19721653179E+03  0.89050008121E+02 0.  0.
         23    2    4    4    0    0  0.69623967711E+03 -0.52972390455E+03  0.45843718574E+03  0.99160461015E+03  0.88079206168E+02 0.  0.
          1    1    3    3  502    0 -0.52766382326E+03  0.41325949926E+03  0.14280796973E+04  0.15775373676E+04  0.00000000000E+00 0. -1.
         -1    1    3    3    0  502 -0.93411835889E+02  0.12169204630E+03  0.32987239424E+03  0.36380011229E+03  0.00000000000E+00 0.  1.
         13    1    5    5    0    0 -0.46875551721E+02  0.29876346680E+02  0.13529963644E+03  0.14627339150E+03  0.00000000000E+00 0. -1.
        -13    1    5    5    0    0 -0.28288466235E+02 -0.35103987698E+02  0.23720798212E+02  0.50943140285E+02  0.00000000000E+00 0.  1.
          5    1    6    6  503    0  0.11948900020E+03 -0.52855637769E+02  0.61679776407E+02  0.14456079838E+03  0.47000000000E+01 0. -1.
         -5    1    6    6    0  503  0.57675067691E+03 -0.47686826678E+03  0.39675740933E+03  0.84704381176E+03  0.47000000000E+01 0.  1.
<mgrwt>
<rscale>  0 0.90171599E+03</rscale>
<asrwt>0</asrwt>
<pdfrwt beam="1">  1        2 0.42350524E+00 0.90171599E+03</pdfrwt>
<pdfrwt beam="2">  1       -2 0.58057610E-01 0.90171599E+03</pdfrwt>
<totfact> 0.70683001E+00</totfact>
</mgrwt>
</event>
<event>
12    1  0.3127365E-008  0.3867851E+03  0.7818608E-02  0.1048454E+00
         -1   -1    0    0    0  501 -0.00000000000E+00  0.00000000000E+00  0.44461000764E+03  0.44461000764E+03  0.00000000000E+00 0.  1.
          1   -1    0    0  501    0  0.00000000000E+00 -0.00000000000E+00 -0.59336953968E+03  0.59336953968E+03  0.00000000000E+00 0. -1.
         23    2    1    2    0    0  0.28146275977E+03 -0.13855344117E+03 -0.15494806677E+03  0.36084431077E+03  0.88212085472E+02 0.  0.
    5000000    2    1    2    0    0 -0.28146275977E+03  0.13855344117E+03  0.61885347355E+01  0.67713523654E+03  0.60004623939E+03 0.  0.
         23    2    4    4    0    0 -0.22047133854E+03  0.21843455692E+03  0.24320797402E+03  0.40402371059E+03  0.88112276760E+02 0.  0.
         23    2    4    4    0    0 -0.60991421231E+02 -0.79881115748E+02 -0.23701943928E+03  0.27311152596E+03  0.91163286995E+02 0.  0.
          3    1    3    3  502    0  0.28031256089E+03 -0.14629667855E+03 -0.14413480725E+03  0.34749488142E+03  0.00000000000E+00 0. -1.
         -3    1    3    3    0  502  0.11501988743E+01  0.77432373788E+01 -0.10813259529E+02  0.13349429358E+02  0.00000000000E+00 0.  1.
         13    1    5    5    0    0 -0.25835798473E+02  0.69394074349E+02  0.82704778237E+02  0.11100948780E+03  0.00000000000E+00 0.  1.
        -13    1    5    5    0    0 -0.19463554006E+03  0.14904048257E+03  0.16050319578E+03  0.29301422279E+03  0.00000000000E+00 0. -1.
          5    1    6    6  503    0 -0.35384638284E+02  0.97648584961E+01 -0.10571928666E+03  0.11200929720E+03  0.47000000000E+01 0. -1.
         -5    1    6    6    0  503 -0.25606782948E+02 -0.89645974244E+02 -0.13130015263E+03  0.16110222876E+03  0.47000000000E+01 0.  1.
<mgrwt>
<rscale>  0 0.38678510E+03</rscale>
<asrwt>0</asrwt>
<pdfrwt beam="1">  1        1 0.91287621E-01 0.38678510E+03</pdfrwt>
<pdfrwt beam="2">  1       -1 0.68401540E-01 0.38678510E+03</pdfrwt>
<totfact> 0.79707754E+01</totfact>
</mgrwt>
</event>
<event>
12    1  0.3127365E-008  0.7985596E+03  0.7818608E-02  0.9562104E-01
         -1   -1    0    0    0  501 -0.00000000000E+00  0.00000000000E+00  0.86224644770E+03  0.86224644770E+03  0.00000000000E+00 0.  1.
          1   -1    0    0  501    0  0.00000000000E+00 -0.00000000000E+00 -0.12273030231E+04  0.12273030231E+04  0.00000000000E+00 0. -1.
         23    2    1    2    0    0  0.70407800624E+03  0.35684391386E+03 -0.68359624305E+03  0.10482531059E+04  0.92018110880E+02 0.  0.
    5000000    2    1    2    0    0 -0.70407800624E+03 -0.35684391386E+03  0.31853966766E+03  0.10412963649E+04  0.59980595363E+03 0.  0.
         23    2    4    4    0    0 -0.34763654658E+03 -0.14325160922E+03  0.45145530378E+03  0.59512884358E+03  0.94838057171E+02 0.  0.
         23    2    4    4    0    0 -0.35644145966E+03 -0.21359230464E+03 -0.13291563612E+03  0.44616752135E+03  0.93416829394E+02 0.  0.
          1    1    3    3  502    0  0.53758006524E+03  0.31230456895E+03 -0.55204857660E+03  0.83143496514E+03  0.00000000000E+00 0. -1.
         -1    1    3    3    0  502  0.16649794100E+03  0.44539344906E+02 -0.13154766645E+03  0.21681814073E+03  0.00000000000E+00 0.  1.
         11    1    5    5    0    0 -0.29555583805E+02 -0.41952376534E+02  0.38687914307E+02  0.64267325635E+02  0.00000000000E+00 0. -1.
        -11    1    5    5    0    0 -0.31808096277E+03 -0.10129923269E+03  0.41276738947E+03  0.53086151794E+03  0.00000000000E+00 0.  1.
          5    1    6    6  503    0 -0.17126599201E+03 -0.12797608813E+03 -0.11096606109E+03  0.24092628721E+03  0.47000000000E+01 0. -1.
         -5    1    6    6    0  503 -0.18517546765E+03 -0.85616216510E+02 -0.21949575030E+02  0.20524123414E+03  0.47000000000E+01 0.  1.
<mgrwt>
<rscale>  0 0.79855963E+03</rscale>
<asrwt>0</asrwt>
<pdfrwt beam="1">  1        1 0.18881585E+00 0.79855963E+03</pdfrwt>
<pdfrwt beam="2">  1       -1 0.13265330E+00 0.79855963E+03</pdfrwt>
<totfact> 0.50680617E+00</totfact>
</mgrwt>
</event>
<event>
12    1  0.3127365E-008  0.8456897E+03  0.7818608E-02  0.9496140E-01
          1   -1    0    0  501    0  0.00000000000E+00  0.00000000000E+00  0.10411704968E+04  0.10411704968E+04  0.00000000000E+00 0. -1.
         -1   -1    0    0    0  501 -0.00000000000E+00 -0.00000000000E+00 -0.96541318561E+03  0.96541318561E+03  0.00000000000E+00 0.  1.
         23    2    1    2    0    0 -0.74286393035E+03 -0.73396685025E+02 -0.48693936531E+03  0.89592633062E+03  0.91324432794E+02 0.  0.
    5000000    2    1    2    0    0  0.74286393035E+03  0.73396685025E+02  0.56269667653E+03  0.11106573518E+04  0.59974853979E+03 0.  0.
         23    2    4    4    0    0  0.81309611511E+03  0.11027122528E+03  0.53207881045E+03  0.98214893905E+03  0.90684300879E+02 0.  0.
         23    2    4    4    0    0 -0.70232184754E+02 -0.36874540250E+02  0.30617866077E+02  0.12850841277E+03  0.96356976576E+02 0.  0.
          2    1    3    3  502    0 -0.42701364427E+02 -0.75108926229E+01 -0.55939213516E+01  0.43716266859E+02  0.00000000000E+00 0. -1.
         -2    1    3    3    0  502 -0.70016256592E+03 -0.65885792402E+02 -0.48134544396E+03  0.85221006377E+03  0.00000000000E+00 0.  1.
         13    1    5    5    0    0  0.18138934962E+03  0.26981691507E+02  0.16565681386E+03  0.24712807976E+03  0.00000000000E+00 0. -1.
        -13    1    5    5    0    0  0.63170676549E+03  0.83289533769E+02  0.36642199660E+03  0.73502085929E+03  0.00000000000E+00 0.  1.
          5    1    6    6  503    0 -0.88700529141E+02 -0.74312765745E+01  0.16236682919E+02  0.90602028750E+02  0.47000000000E+01 0. -1.
         -5    1    6    6    0  503  0.18468344387E+02 -0.29443263676E+02  0.14381183158E+02  0.37906384018E+02  0.47000000000E+01 0.  1.
<mgrwt>
<rscale>  0 0.84568966E+03</rscale>
<asrwt>0</asrwt>
<pdfrwt beam="1">  1        1 0.16018008E+00 0.84568966E+03</pdfrwt>
<pdfrwt beam="2">  1       -1 0.14852511E+00 0.84568966E+03</pdfrwt>
<totfact> 0.51489477E+00</totfact>
</mgrwt>
</event>
<event>
12    1  0.3127365E-008  0.1249842E+04  0.7818608E-02  0.9070315E-01
          1   -1    0    0  501    0  0.00000000000E+00  0.00000000000E+00  0.21859398287E+04  0.21859398287E+04  0.00000000000E+00 0. -1.
         -1   -1    0    0    0  501 -0.00000000000E+00 -0.00000000000E+00 -0.79642593766E+03  0.79642593766E+03  0.00000000000E+00 0.  1.
         23    2    1    2    0    0 -0.10317242974E+04  0.69154160239E+03  0.50549632986E+03  0.13438370282E+04  0.87673285591E+02 0.  0.
    5000000    2    1    2    0    0  0.10317242974E+04 -0.69154160239E+03  0.88401756114E+03  0.16385287382E+04  0.60050359169E+03 0.  0.
         23    2    4    4    0    0  0.32315964019E+03 -0.28594410787E+03  0.64861164065E+03  0.78447990404E+03  0.92279323656E+02 0.  0.
         23    2    4    4    0    0  0.70856465724E+03 -0.40559749452E+03  0.23540592048E+03  0.85404883412E+03  0.86082882243E+02 0.  0.
          1    1    3    3  502    0 -0.53216791902E+03  0.40881157226E+03  0.26595805214E+03  0.72184713142E+03  0.00000000000E+00 0. -1.
         -1    1    3    3    0  502 -0.49955637841E+03  0.28273003013E+03  0.23953827772E+03  0.62198989674E+03  0.00000000000E+00 0.  1.
         13    1    5    5    0    0  0.10942758779E+03 -0.14459486076E+03  0.21987026306E+03  0.28500000580E+03  0.00000000000E+00 0. -1.
        -13    1    5    5    0    0  0.21373205241E+03 -0.14134924710E+03  0.42874137759E+03  0.49947989824E+03  0.00000000000E+00 0.  1.
          5    1    6    6  503    0  0.50486694610E+03 -0.30402172390E+03  0.20682347870E+03  0.62459417481E+03  0.47000000000E+01 0. -1.
         -5    1    6    6    0  503  0.20369771114E+03 -0.10157577062E+03  0.28582441786E+02  0.22945465931E+03  0.47000000000E+01 0.  1.
<mgrwt>
<rscale>  0 0.12498418E+04</rscale>
<asrwt>0</asrwt>
<pdfrwt beam="1">  1        1 0.33629843E+00 0.12498418E+04</pdfrwt>
<pdfrwt beam="2">  1       -1 0.12252707E+00 0.12498418E+04</pdfrwt>
<totfact> 0.12830822E+00</totfact>
</mgrwt>
</event>
<event>
12    1  0.3127365E-008  0.5793393E+03  0.7818608E-02  0.9949222E-01
          1   -1    0    0  501    0  0.00000000000E+00  0.00000000000E+00  0.11627492409E+04  0.11627492409E+04  0.00000000000E+00 0. -1.
         -1   -1    0    0    0  501 -0.00000000000E+00 -0.00000000000E+00 -0.60980284586E+03  0.60980284586E+03  0.00000000000E+00 0.  1.
         23    2    1    2    0    0 -0.27634345414E+03 -0.50172579673E+03  0.72247301425E+03  0.92612399874E+03  0.87429542903E+02 0.  0.
    5000000    2    1    2    0    0  0.27634345414E+03  0.50172579673E+03 -0.16952661924E+03  0.84642808799E+03  0.59967220526E+03 0.  0.
         23    2    4    4    0    0  0.92979779841E+02  0.11979346241E+03  0.20668579041E+03  0.27197519225E+03  0.90861301708E+02 0.  0.
         23    2    4    4    0    0  0.18336367430E+03  0.38193233432E+03 -0.37621240965E+03  0.57445289574E+03  0.94687946429E+02 0.  0.
          1    1    3    3  502    0 -0.23043566069E+03 -0.41133766704E+03  0.53587969715E+03  0.71376909422E+03  0.00000000000E+00 0. -1.
         -1    1    3    3    0  502 -0.45907793452E+02 -0.90388129691E+02  0.18659331710E+03  0.21235490452E+03  0.00000000000E+00 0.  1.
         13    1    5    5    0    0  0.75354596150E+02  0.88455531565E+02  0.82030113274E+02  0.14223795453E+03  0.00000000000E+00 0. -1.
        -13    1    5    5    0    0  0.17625183691E+02  0.31337930849E+02  0.12465567713E+03  0.12973723772E+03  0.00000000000E+00 0.  1.
          5    1    6    6  503    0  0.91375177364E+02  0.93261674071E+02 -0.10135018886E+03  0.16535148524E+03  0.47000000000E+01 0. -1.
         -5    1    6    6    0  503  0.91988496938E+02  0.28867066025E+03 -0.27486222079E+03  0.40910141050E+03  0.47000000000E+01 0.  1.
<mgrwt>
<rscale>  0 0.57933933E+03</rscale>
<asrwt>0</asrwt>
<pdfrwt beam="1">  1        1 0.17888450E+00 0.57933933E+03</pdfrwt>
<pdfrwt beam="2">  1       -1 0.93815823E-01 0.57933933E+03</pdfrwt>
<totfact> 0.13294694E+01</totfact>
</mgrwt>
</event>
<event>
12    1  0.3127365E-008  0.5928241E+03  0.7818608E-02  0.9920407E-01
         -2   -1    0    0    0  501 -0.00000000000E+00  0.00000000000E+00  0.28154758800E+03  0.28154758800E+03  0.00000000000E+00 0.  1.
          2   -1    0    0  501    0  0.00000000000E+00 -0.00000000000E+00 -0.16854656673E+04  0.16854656673E+04  0.00000000000E+00 0. -1.
         23    2    1    2    0    0  0.55117536109E+03  0.46983434181E+01 -0.64543244086E+03  0.85386583896E+03  0.93206663469E+02 0.  0.
    5000000    2    1    2    0    0 -0.55117536109E+03 -0.46983434181E+01 -0.75848563839E+03  0.11131474163E+04  0.59998362784E+03 0.  0.
         23    2    4    4    0    0 -0.44151067322E+03 -0.10850942335E+03 -0.80536815876E+03  0.92938858351E+03  0.91865654572E+02 0.  0.
         23    2    4    4    0    0 -0.10966468787E+03  0.10381107993E+03  0.46882520364E+02  0.18375883280E+03  0.93628274748E+02 0.  0.
          3    1    3    3  502    0  0.37412253475E+03 -0.40271622589E+02 -0.42850359897E+03  0.57026731357E+03  0.00000000000E+00 0. -1.
         -3    1    3    3    0  502  0.17705282635E+03  0.44969966007E+02 -0.21692884189E+03  0.28359852539E+03  0.00000000000E+00 0.  1.
         13    1    5    5    0    0 -0.12275415798E+03 -0.44958640689E+02 -0.31535170550E+03  0.34137451697E+03  0.00000000000E+00 0. -1.
        -13    1    5    5    0    0 -0.31875651524E+03 -0.63550782663E+02 -0.49001645326E+03  0.58801406654E+03  0.00000000000E+00 0.  1.
          5    1    6    6  503    0 -0.28554388720E+02  0.81783194782E+02 -0.13065967102E+01  0.86761980492E+02  0.47000000000E+01 0. -1.
         -5    1    6    6    0  503 -0.81110299151E+02  0.22027885152E+02  0.48189117075E+02  0.96996852305E+02  0.47000000000E+01 0.  1.
<mgrwt>
<rscale>  0 0.59282406E+03</rscale>
<asrwt>0</asrwt>
<pdfrwt beam="1">  1        2 0.25930242E+00 0.59282406E+03</pdfrwt>
<pdfrwt beam="2">  1       -2 0.43315013E-01 0.59282406E+03</pdfrwt>
<totfact> 0.52738155E+01</totfact>
</mgrwt>
</event>
<event>
12    1  0.3127365E-008  0.8020379E+03  0.7818608E-02  0.9557072E-01
         -2   -1    0    0    0  501 -0.00000000000E+00  0.00000000000E+00  0.80774611456E+03  0.80774611456E+03  0.00000000000E+00 0.  1.
          2   -1    0    0  501    0  0.00000000000E+00 -0.00000000000E+00 -0.87484460465E+03  0.87484460465E+03  0.00000000000E+00 0. -1.
         23    2    1    2    0    0  0.67749247090E+03  0.13873856869E+03  0.20479911919E+03  0.72751274488E+03  0.95329303846E+02 0.  0.
    5000000    2    1    2    0    0 -0.67749247090E+03 -0.13873856869E+03 -0.27189760928E+03  0.95507797433E+03  0.60000099046E+03 0.  0.
         23    2    4    4    0    0 -0.59300385862E+03  0.13638928387E+03 -0.18840079128E+03  0.64332305107E+03  0.90078170441E+02 0.  0.
         23    2    4    4    0    0 -0.84488612279E+02 -0.27512785257E+03 -0.83496818001E+02  0.31175492326E+03  0.85940402017E+02 0.  0.
          1    1    3    3  502    0  0.97754881924E+02  0.30397550006E+02  0.65429783284E+02  0.12149520372E+03  0.00000000000E+00 0. -1.
         -1    1    3    3    0  502  0.57973758898E+03  0.10834101868E+03  0.13936933590E+03  0.60601754116E+03  0.00000000000E+00 0.  1.
         11    1    5    5    0    0 -0.26009278392E+03  0.25063972742E+02 -0.11078669525E+03  0.28381358463E+03  0.00000000000E+00 0.  1.
        -11    1    5    5    0    0 -0.33291107470E+03  0.11132531113E+03 -0.77614096025E+02  0.35950946644E+03  0.00000000000E+00 0. -1.
          5    1    6    6  503    0  0.16574627631E+02 -0.34269472717E+02 -0.18299436094E+02  0.42497934100E+02  0.47000000000E+01 0. -1.
         -5    1    6    6    0  503 -0.10106323991E+03 -0.24085837985E+03 -0.65197381906E+02  0.26925698916E+03  0.47000000000E+01 0.  1.
<mgrwt>
<rscale>  0 0.80203794E+03</rscale>
<asrwt>0</asrwt>
<pdfrwt beam="1">  1        2 0.13459148E+00 0.80203794E+03</pdfrwt>
<pdfrwt beam="2">  1       -2 0.12426863E+00 0.80203794E+03</pdfrwt>
<totfact> 0.14994860E+01</totfact>
</mgrwt>
</event>
<event>
12    1  0.3127365E-008  0.7485784E+03  0.7818608E-02  0.9637583E-01
         -1   -1    0    0    0  501 -0.00000000000E+00  0.00000000000E+00  0.20003694330E+04  0.20003694330E+04  0.00000000000E+00 0.  1.
          1   -1    0    0  501    0  0.00000000000E+00 -0.00000000000E+00 -0.29856719250E+03  0.29856719250E+03  0.00000000000E+00 0. -1.
         23    2    1    2    0    0  0.36128418738E+03 -0.53353974092E+03  0.87871474474E+03  0.10935928167E+04  0.92815553109E+02 0.  0.
    5000000    2    1    2    0    0 -0.36128418738E+03  0.53353974092E+03  0.82308749578E+03  0.12053438088E+04  0.60015810632E+03 0.  0.
         23    2    4    4    0    0  0.98801903703E+02 -0.37830746917E+02  0.10105711687E+03  0.17200728636E+03  0.90448792705E+02 0.  0.
         23    2    4    4    0    0 -0.46008609108E+03  0.57137048784E+03  0.72203037891E+03  0.10333365225E+04  0.91175956420E+02 0.  0.
          1    1    3    3  502    0  0.24870885353E+03 -0.42917448147E+03  0.63885164485E+03  0.80881286680E+03  0.00000000000E+00 0. -1.
         -1    1    3    3    0  502  0.11257533384E+03 -0.10436525945E+03  0.23986309990E+03  0.28477994989E+03  0.00000000000E+00 0.  1.
         13    1    5    5    0    0  0.17992665265E+01  0.57092740522E+01  0.56345688601E+02  0.56662772560E+02  0.00000000000E+00 0. -1.
        -13    1    5    5    0    0  0.97002637176E+02 -0.43540020969E+02  0.44711428271E+02  0.11534451380E+03  0.00000000000E+00 0.  1.
          5    1    6    6  503    0 -0.21663071080E+03  0.30839060326E+03  0.42314803127E+03  0.56666566458E+03  0.47000000000E+01 0. -1.
         -5    1    6    6    0  503 -0.24345538028E+03  0.26297988458E+03  0.29888234764E+03  0.46667085790E+03  0.47000000000E+01 0.  1.
<mgrwt>
<rscale>  0 0.74857836E+03</rscale>
<asrwt>0</asrwt>
<pdfrwt beam="1">  1        1 0.45933415E-01 0.74857836E+03</pdfrwt>
<pdfrwt beam="2">  1       -1 0.30774914E+00 0.74857836E+03</pdfrwt>
<totfact> 0.27255775E+00</totfact>
</mgrwt>
</event>
<event>
12    1  0.3127365E-008  0.1604134E+04  0.7818608E-02  0.8818013E-01
          2   -1    0    0  501    0  0.00000000000E+00  0.00000000000E+00  0.28135547940E+04  0.28135547940E+04  0.00000000000E+00 0. -1.
         -2   -1    0    0    0  501 -0.00000000000E+00 -0.00000000000E+00 -0.98382598911E+03  0.98382598911E+03  0.00000000000E+00 0.  1.
         23    2    1    2    0    0 -0.13993237084E+04  0.68048675467E+03  0.13498634870E+04  0.20620689483E+04  0.93956636919E+02 0.  0.
    5000000    2    1    2    0    0  0.13993237084E+04 -0.68048675467E+03  0.47986531785E+03  0.17353118348E+04  0.59988947034E+03 0.  0.
         23    2    4    4    0    0  0.74657827039E+03 -0.62105075921E+02  0.12972431383E+03  0.76575279951E+03  0.91174547370E+02 0.  0.
         23    2    4    4    0    0  0.65274543802E+03 -0.61838167875E+03  0.35014100403E+03  0.96955903532E+03  0.94728521560E+02 0.  0.
          1    1    3    3  502    0 -0.96412121473E+03  0.44979504069E+03  0.86872548839E+03  0.13735098360E+04  0.00000000000E+00 0. -1.
         -1    1    3    3    0  502 -0.43520249368E+03  0.23069171398E+03  0.48113799866E+03  0.68855911232E+03  0.00000000000E+00 0.  1.
         11    1    5    5    0    0  0.15620925069E+03  0.73995429986E+01  0.58872489325E+02  0.16709893248E+03  0.00000000000E+00 0. -1.
        -11    1    5    5    0    0  0.59036901970E+03 -0.69504618920E+02  0.70851824504E+02  0.59865386703E+03  0.00000000000E+00 0.  1.
          5    1    6    6  503    0  0.14644795137E+03 -0.17246944650E+03  0.12359032968E+03  0.25785533159E+03  0.47000000000E+01 0. -1.
         -5    1    6    6    0  503  0.50629748666E+03 -0.44591223225E+03  0.22655067434E+03  0.71170370373E+03  0.47000000000E+01 0.  1.
<mgrwt>
<rscale>  0 0.16041336E+04</rscale>
<asrwt>0</asrwt>
<pdfrwt beam="1">  1        2 0.43285458E+00 0.16041336E+04</pdfrwt>
<pdfrwt beam="2">  1       -2 0.15135785E+00 0.16041336E+04</pdfrwt>
<totfact> 0.62122320E-01</totfact>
</mgrwt>
</event>
<event>
12    1  0.3127365E-008  0.4734963E+03  0.7818608E-02  0.1020938E+00
          2   -1    0    0  501    0  0.00000000000E+00  0.00000000000E+00  0.14217529817E+04  0.14217529817E+04  0.00000000000E+00 0. -1.
         -2   -1    0    0    0  501 -0.00000000000E+00 -0.00000000000E+00 -0.21355765956E+03  0.21355765956E+03  0.00000000000E+00 0.  1.
         23    2    1    2    0    0 -0.37634845763E+03 -0.57380762084E+01  0.34891813638E+03  0.52141850513E+03  0.91990784987E+02 0.  0.
    5000000    2    1    2    0    0  0.37634845763E+03  0.57380762084E+01  0.85927718574E+03  0.11138921361E+04  0.60060579572E+03 0.  0.
         23    2    4    4    0    0  0.10952932727E+03 -0.17540724909E+03  0.41001852998E+02  0.22957758204E+03  0.90886399758E+02 0.  0.
         23    2    4    4    0    0  0.26681913037E+03  0.18114532530E+03  0.81827533274E+03  0.88431455406E+03  0.91823924693E+02 0.  0.
          2    1    3    3  502    0 -0.64605960302E+02 -0.36490045666E+02  0.64953776583E+02  0.98612608888E+02  0.00000000000E+00 0. -1.
         -2    1    3    3    0  502 -0.31174249733E+03  0.30751969458E+02  0.28396435979E+03  0.42280589624E+03  0.00000000000E+00 0.  1.
         11    1    5    5    0    0  0.19674806002E+01 -0.82814382903E+02  0.41322107848E+01  0.82940750909E+02  0.00000000000E+00 0.  1.
        -11    1    5    5    0    0  0.10756184667E+03 -0.92592866189E+02  0.36869642213E+02  0.14663683113E+03  0.00000000000E+00 0. -1.
          5    1    6    6  503    0  0.17134542744E+03  0.16482973082E+03  0.60351672775E+03  0.64867759815E+03  0.47000000000E+01 0. -1.
         -5    1    6    6    0  503  0.95473702929E+02  0.16315594478E+02  0.21475860499E+03  0.23563695591E+03  0.47000000000E+01 0.  1.
<mgrwt>
<rscale>  0 0.47349633E+03</rscale>
<asrwt>0</asrwt>
<pdfrwt beam="1">  1        2 0.21873122E+00 0.47349633E+03</pdfrwt>
<pdfrwt beam="2">  1       -2 0.32855026E-01 0.47349633E+03</pdfrwt>
<totfact> 0.12706568E+02</totfact>
</mgrwt>
</event>
<event>
12    1  0.3127365E-008  0.9433266E+03  0.7818608E-02  0.9372985E-01
         -2   -1    0    0    0  501 -0.00000000000E+00  0.00000000000E+00  0.44254293269E+03  0.44254293269E+03  0.00000000000E+00 0. -1.
          2   -1    0    0  501    0  0.00000000000E+00 -0.00000000000E+00 -0.21549782252E+04  0.21549782252E+04  0.00000000000E+00 0.  1.
         23    2    1    2    0    0  0.41197119027E+03  0.74432490583E+03 -0.10855842553E+04  0.13823377062E+04  0.92868356874E+02 0.  0.
    5000000    2    1    2    0    0 -0.41197119027E+03 -0.74432490583E+03 -0.62685103719E+03  0.12151834516E+04  0.59999064260E+03 0.  0.
         23    2    4    4    0    0 -0.22863288617E+03  0.18320607580E+02 -0.99076776318E+02  0.26608775329E+03  0.91530560713E+02 0.  0.
         23    2    4    4    0    0 -0.18333830410E+03 -0.76264551341E+03 -0.52777426087E+03  0.94909569833E+03  0.83641265356E+02 0.  0.
          3    1    3    3  502    0  0.11992640198E+03  0.25566465171E+03 -0.42543882318E+03  0.51063191077E+03  0.00000000000E+00 0. -1.
         -3    1    3    3    0  502  0.29204478829E+03  0.48866025412E+03 -0.66014543212E+03  0.87170579548E+03  0.00000000000E+00 0.  1.
         13    1    5    5    0    0 -0.72911635478E+02  0.48461786717E+02 -0.45544484859E+02  0.98686125980E+02  0.00000000000E+00 0. -1.
        -13    1    5    5    0    0 -0.15572125069E+03 -0.30141179137E+02 -0.53532291459E+02  0.16740162731E+03  0.00000000000E+00 0.  1.
          5    1    6    6  503    0  0.38385611431E+00 -0.12833467638E+03 -0.86182790328E+02  0.15465930252E+03  0.47000000000E+01 0. -1.
         -5    1    6    6    0  503 -0.18372216022E+03 -0.63431083703E+03 -0.44159147054E+03  0.79443639581E+03  0.47000000000E+01 0.  1.
<mgrwt>
<rscale>  0 0.94332664E+03</rscale>
<asrwt>0</asrwt>
<pdfrwt beam="1">  1        2 0.33153512E+00 0.94332664E+03</pdfrwt>
<pdfrwt beam="2">  1       -2 0.68083527E-01 0.94332664E+03</pdfrwt>
<totfact> 0.10939960E+01</totfact>
</mgrwt>
</event>
<event>
12    1  0.3127365E-008  0.8242930E+03  0.7818608E-02  0.9525505E-01
         -1   -1    0    0    0  501 -0.00000000000E+00  0.00000000000E+00  0.96915147909E+03  0.96915147909E+03  0.00000000000E+00 0.  1.
          1   -1    0    0  501    0  0.00000000000E+00 -0.00000000000E+00 -0.79047616747E+03  0.79047616747E+03  0.00000000000E+00 0. -1.
         23    2    1    2    0    0 -0.71694374611E+03 -0.13867177767E+03  0.32242751989E+03  0.80364356262E+03  0.92979960960E+02 0.  0.
    5000000    2    1    2    0    0  0.71694374611E+03  0.13867177767E+03 -0.14375220827E+03  0.95598408395E+03  0.60000222863E+03 0.  0.
         23    2    4    4    0    0  0.55009173794E+03  0.33175507824E+03 -0.19995010198E+03  0.67937419545E+03  0.94376385139E+02 0.  0.
         23    2    4    4    0    0  0.16685200817E+03 -0.19308330058E+03  0.56197893710E+02  0.27660988850E+03  0.90741796123E+02 0.  0.
          1    1    3    3  502    0 -0.13056461619E+03 -0.39932550908E+02  0.25119123746E+02  0.13882614307E+03  0.00000000000E+00 0. -1.
         -1    1    3    3    0  502 -0.58637912993E+03 -0.98739226758E+02  0.29730839614E+03  0.66481741954E+03  0.00000000000E+00 0.  1.
         11    1    5    5    0    0  0.91152569757E+02  0.89989414832E+02 -0.63695039932E+02  0.14305224174E+03  0.00000000000E+00 0. -1.
        -11    1    5    5    0    0  0.45893916818E+03  0.24176566341E+03 -0.13625506205E+03  0.53632195371E+03  0.00000000000E+00 0.  1.
          5    1    6    6  503    0  0.23518451766E+00 -0.52042196013E+02  0.15465437228E+02  0.54495093598E+02  0.47000000000E+01 0. -1.
         -5    1    6    6    0  503  0.16661682366E+03 -0.14104110456E+03  0.40732456483E+02  0.22211479490E+03  0.47000000000E+01 0.  1.
<mgrwt>
<rscale>  0 0.82429302E+03</rscale>
<asrwt>0</asrwt>
<pdfrwt beam="1">  1        1 0.12161172E+00 0.82429302E+03</pdfrwt>
<pdfrwt beam="2">  1       -1 0.14910023E+00 0.82429302E+03</pdfrwt>
<totfact> 0.81706096E+00</totfact>
</mgrwt>
</event>
<event>
12    1  0.3127365E-008  0.5495235E+03  0.7818608E-02  0.1001604E+00
          1   -1    0    0  501    0  0.00000000000E+00  0.00000000000E+00  0.16564152477E+04  0.16564152477E+04  0.00000000000E+00 0. -1.
         -1   -1    0    0    0  501 -0.00000000000E+00 -0.00000000000E+00 -0.41016743054E+03  0.41016743054E+03  0.00000000000E+00 0.  1.
         23    2    1    2    0    0 -0.47684657201E+02  0.38516334331E+03 -0.20565801070E+03  0.44833223182E+03  0.89899639400E+02 0.  0.
    5000000    2    1    2    0    0  0.47684657201E+02 -0.38516334331E+03  0.14519058279E+04  0.16182504464E+04  0.60006611871E+03 0.  0.
         23    2    4    4    0    0  0.17324578391E+03 -0.48992920157E+03  0.10743808839E+04  0.11972756942E+04  0.95551452774E+02 0.  0.
         23    2    4    4    0    0 -0.12556112671E+03  0.10476585826E+03  0.37752494398E+03  0.42097475221E+03  0.89180586840E+02 0.  0.
          2    1    3    3  502    0 -0.63473824251E+02  0.21593470907E+03 -0.14564668357E+03  0.26808521291E+03  0.00000000000E+00 0. -1.
         -2    1    3    3    0  502  0.15789167050E+02  0.16922863424E+03 -0.60011327127E+02  0.18024701891E+03  0.00000000000E+00 0.  1.
         11    1    5    5    0    0  0.16745882543E+03 -0.35577800699E+03  0.83005337879E+03  0.91848193239E+03  0.00000000000E+00 0.  1.
        -11    1    5    5    0    0  0.57869584824E+01 -0.13415119458E+03  0.24432750508E+03  0.27879376183E+03  0.00000000000E+00 0. -1.
          5    1    6    6  503    0 -0.76221494474E+02  0.21021170536E+02  0.23825085754E+03  0.25107203538E+03  0.47000000000E+01 0. -1.
         -5    1    6    6    0  503 -0.49339632237E+02  0.83744687725E+02  0.13927408644E+03  0.16990271683E+03  0.47000000000E+01 0.  1.
<mgrwt>
<rscale>  0 0.54952349E+03</rscale>
<asrwt>0</asrwt>
<pdfrwt beam="1">  1        1 0.25483311E+00 0.54952349E+03</pdfrwt>
<pdfrwt beam="2">  1       -1 0.63102683E-01 0.54952349E+03</pdfrwt>
<totfact> 0.13976195E+01</totfact>
</mgrwt>
</event>
<event>
12    1  0.3127365E-008  0.9334134E+03  0.7818608E-02  0.9384751E-01
          1   -1    0    0  501    0  0.00000000000E+00  0.00000000000E+00  0.13540121220E+04  0.13540121220E+04  0.00000000000E+00 0. -1.
         -1   -1    0    0    0  501 -0.00000000000E+00 -0.00000000000E+00 -0.11434120247E+04  0.11434120247E+04  0.00000000000E+00 0.  1.
         23    2    1    2    0    0 -0.25623690924E+03  0.88846498729E+03 -0.62011199095E+03  0.11171924833E+04  0.92481220025E+02 0.  0.
    5000000    2    1    2    0    0  0.25623690924E+03 -0.88846498729E+03  0.83071208820E+03  0.13802316635E+04  0.59994123386E+03 0.  0.
         23    2    4    4    0    0  0.74969903977E+02 -0.44868397684E+03  0.57791034143E+02  0.46800949475E+03  0.93569685110E+02 0.  0.
         23    2    4    4    0    0  0.18126700526E+03 -0.43978101045E+03  0.77292105406E+03  0.91222216873E+03  0.92072063979E+02 0.  0.
          3    1    3    3  502    0 -0.97026313624E+02  0.23915211540E+03 -0.21137554258E+03  0.33359775154E+03  0.00000000000E+00 0. -1.
         -3    1    3    3    0  502 -0.15921059561E+03  0.64931287189E+03 -0.40873644837E+03  0.78359473172E+03  0.00000000000E+00 0.  1.
         13    1    5    5    0    0  0.31169171281E+02 -0.89557463742E+02 -0.22410867029E+02  0.97438716696E+02  0.00000000000E+00 0.  1.
        -13    1    5    5    0    0  0.43800732696E+02 -0.35912651310E+03  0.80201901172E+02  0.37057077805E+03  0.00000000000E+00 0. -1.
          5    1    6    6  503    0  0.10952707657E+03 -0.15490779574E+03  0.27617580232E+03  0.33509367267E+03  0.47000000000E+01 0. -1.
         -5    1    6    6    0  503  0.71739928694E+02 -0.28487321471E+03  0.49674525174E+03  0.57712849605E+03  0.47000000000E+01 0.  1.
<mgrwt>
<rscale>  0 0.93341337E+03</rscale>
<asrwt>0</asrwt>
<pdfrwt beam="1">  1        1 0.20830956E+00 0.93341337E+03</pdfrwt>
<pdfrwt beam="2">  1       -1 0.17590954E+00 0.93341337E+03</pdfrwt>
<totfact> 0.18713111E+00</totfact>
</mgrwt>
</event>
<event>
12    1  0.3127365E-008  0.1012321E+04  0.7818608E-02  0.9295134E-01
         -1   -1    0    0    0  501 -0.00000000000E+00  0.00000000000E+00  0.16770553190E+04  0.16770553190E+04  0.00000000000E+00 0.  1.
          1   -1    0    0  501    0  0.00000000000E+00 -0.00000000000E+00 -0.13371781135E+04  0.13371781135E+04  0.00000000000E+00 0. -1.
         23    2    1    2    0    0  0.21274358071E+03 -0.96072845772E+03 -0.88916251799E+03  0.13294067970E+04  0.91942633464E+02 0.  0.
    5000000    2    1    2    0    0 -0.21274358071E+03  0.96072845772E+03  0.12290397235E+04  0.16848266356E+04  0.59986927696E+03 0.  0.
         23    2    4    4    0    0  0.78792488867E+01  0.63214613232E+03  0.37918173567E+03  0.74290064499E+03  0.91933478641E+02 0.  0.
         23    2    4    4    0    0 -0.22062282959E+03  0.32858232540E+03  0.84985798778E+03  0.94192599057E+03  0.91242505422E+02 0.  0.
          2    1    3    3  502    0  0.93120332129E+02 -0.38755652088E+03 -0.42080480953E+03  0.57961033536E+03  0.00000000000E+00 0. -1.
         -2    1    3    3    0  502  0.11962324858E+03 -0.57317193684E+03 -0.46835770845E+03  0.74979646161E+03  0.00000000000E+00 0.  1.
         11    1    5    5    0    0 -0.37095014788E+02  0.14951286932E+03  0.96324089452E+02  0.18168232832E+03  0.00000000000E+00 0.  1.
        -11    1    5    5    0    0  0.44974263675E+02  0.48263326300E+03  0.28285764622E+03  0.56121831667E+03  0.00000000000E+00 0. -1.
          5    1    6    6  503    0 -0.91358228083E+02  0.19723101811E+03  0.52803477131E+03  0.57104221390E+03  0.47000000000E+01 0. -1.
         -5    1    6    6    0  503 -0.12926460151E+03  0.13135130729E+03  0.32182321647E+03  0.37088377666E+03  0.47000000000E+01 0.  1.
<mgrwt>
<rscale>  0 0.10123205E+04</rscale>
<asrwt>0</asrwt>
<pdfrwt beam="1">  1        1 0.20571971E+00 0.10123205E+04</pdfrwt>
<pdfrwt beam="2">  1       -1 0.25800851E+00 0.10123205E+04</pdfrwt>
<totfact> 0.53066140E-01</totfact>
</mgrwt>
</event>
<event>
12    1  0.3127365E-008  0.1302593E+04  0.7818608E-02  0.9027512E-01
          1   -1    0    0  501    0  0.00000000000E+00  0.00000000000E+00  0.15605393094E+04  0.15605393094E+04  0.00000000000E+00 0. -1.
         -1   -1    0    0    0  501 -0.00000000000E+00 -0.00000000000E+00 -0.11631754957E+04  0.11631754957E+04  0.00000000000E+00 0.  1.
         23    2    1    2    0    0 -0.37800928781E+03 -0.11851223548E+04  0.48871425699E+03  0.13395730588E+04  0.90599875195E+02 0.  0.
    5000000    2    1    2    0    0  0.37800928781E+03  0.11851223548E+04 -0.91350443264E+02  0.13841417462E+04  0.60008120486E+03 0.  0.
         23    2    4    4    0    0  0.28861039190E+03  0.17798366203E+03 -0.11292237176E+03  0.36893329510E+03  0.91576044516E+02 0.  0.
         23    2    4    4    0    0  0.89398895911E+02  0.10071386928E+04  0.21571928492E+02  0.10152084511E+04  0.88669847745E+02 0.  0.
          4    1    3    3  502    0 -0.15326485389E+03 -0.36968799317E+03  0.12964294521E+03  0.42067400796E+03  0.00000000000E+00 0. -1.
         -4    1    3    3    0  502 -0.22474443392E+03 -0.81543436168E+03  0.35907131178E+03  0.91889905089E+03  0.00000000000E+00 0.  1.
         11    1    5    5    0    0  0.25587830731E+03  0.12649452471E+03 -0.68724737742E+02  0.29359438433E+03  0.00000000000E+00 0. -1.
        -11    1    5    5    0    0  0.32732084590E+02  0.51489137318E+02 -0.44197634014E+02  0.75338910769E+02  0.00000000000E+00 0.  1.
          5    1    6    6  503    0  0.96561355282E+02  0.88677738485E+03  0.41074688153E+02  0.89297673297E+03  0.47000000000E+01 0. -1.
         -5    1    6    6    0  503 -0.71624593711E+01  0.12036130797E+03 -0.19502759661E+02  0.12223171812E+03  0.47000000000E+01 0.  1.
<mgrwt>
<rscale>  0 0.13025926E+04</rscale>
<asrwt>0</asrwt>
<pdfrwt beam="1">  1        1 0.24008297E+00 0.13025926E+04</pdfrwt>
<pdfrwt beam="2">  1       -1 0.17895008E+00 0.13025926E+04</pdfrwt>
<totfact> 0.12183145E+00</totfact>
</mgrwt>
</event>
<event>
12    1  0.3127365E-008  0.6992967E+03  0.7818608E-02  0.9718436E-01
          1   -1    0    0  501    0  0.00000000000E+00  0.00000000000E+00  0.12990396676E+04  0.12990396676E+04  0.00000000000E+00 0. -1.
         -1   -1    0    0    0  501 -0.00000000000E+00 -0.00000000000E+00 -0.44580798537E+03  0.44580798537E+03  0.00000000000E+00 0.  1.
         23    2    1    2    0    0  0.49388991162E+03  0.40497716303E+03  0.38428591942E+03  0.75094864592E+03  0.91183625532E+02 0.  0.
    5000000    2    1    2    0    0 -0.49388991162E+03 -0.40497716303E+03  0.46894576276E+03  0.99389900702E+03  0.59999280025E+03 0.  0.
         23    2    4    4    0    0 -0.53255426107E+03 -0.37872286003E+03  0.55295452424E+03  0.86087428990E+03  0.91108679304E+02 0.  0.
         23    2    4    4    0    0  0.38664349451E+02 -0.26254303004E+02 -0.84008761478E+02  0.13302471711E+03  0.91944999935E+02 0.  0.
          2    1    3    3  502    0  0.17984641507E+03  0.18325011593E+03  0.19519402548E+03  0.32253068937E+03  0.00000000000E+00 0. -1.
         -2    1    3    3    0  502  0.31404349654E+03  0.22172704711E+03  0.18909189394E+03  0.42841795655E+03  0.00000000000E+00 0.  1.
         13    1    5    5    0    0 -0.98379706526E+02 -0.10388040998E+03  0.15502431285E+03  0.21095554937E+03  0.00000000000E+00 0.  1.
        -13    1    5    5    0    0 -0.43417455454E+03 -0.27484245005E+03  0.39793021139E+03  0.64991874053E+03  0.00000000000E+00 0. -1.
          5    1    6    6  503    0  0.86901441456E+01 -0.56665389924E+02 -0.32915519280E+02  0.66272214615E+02  0.47000000000E+01 0. -1.
         -5    1    6    6    0  503  0.29974205306E+02  0.30411086920E+02 -0.51093242198E+02  0.66752502497E+02  0.47000000000E+01 0.  1.
<mgrwt>
<rscale>  0 0.69929672E+03</rscale>
<asrwt>0</asrwt>
<pdfrwt beam="1">  1        1 0.19985225E+00 0.69929672E+03</pdfrwt>
<pdfrwt beam="2">  1       -1 0.68585845E-01 0.69929672E+03</pdfrwt>
<totfact> 0.20255052E+01</totfact>
</mgrwt>
</event>
<event>
12    1  0.3127365E-008  0.5045074E+03  0.7818608E-02  0.1012609E+00
         -2   -1    0    0    0  501 -0.00000000000E+00  0.00000000000E+00  0.38393677412E+03  0.38393677412E+03  0.00000000000E+00 0.  1.
          2   -1    0    0  501    0  0.00000000000E+00 -0.00000000000E+00 -0.10442742411E+04  0.10442742411E+04  0.00000000000E+00 0. -1.
         23    2    1    2    0    0  0.46800256193E+03  0.86081430304E+02 -0.14467438998E+03  0.50553026657E+03  0.90519393978E+02 0.  0.
    5000000    2    1    2    0    0 -0.46800256193E+03 -0.86081430304E+02 -0.51566307702E+03  0.92268074866E+03  0.59916186822E+03 0.  0.
         23    2    4    4    0    0 -0.24727315317E+03  0.22310164174E+02  0.76178603785E+02  0.27528527251E+03  0.91307425114E+02 0.  0.
         23    2    4    4    0    0 -0.22072940876E+03 -0.10839159448E+03 -0.59184168080E+03  0.64739547615E+03  0.91510205762E+02 0.  0.
          1    1    3    3  502    0  0.23210528598E+03  0.88492899514E+02 -0.78624415112E+02  0.26054875877E+03  0.00000000000E+00 0. -1.
         -1    1    3    3    0  502  0.23589727595E+03 -0.24114692097E+01 -0.66049974866E+02  0.24498150780E+03  0.00000000000E+00 0.  1.
         13    1    5    5    0    0 -0.47646726632E+02  0.42281629542E+02  0.23083125408E+02  0.67755276060E+02  0.00000000000E+00 0. -1.
        -13    1    5    5    0    0 -0.19962642654E+03 -0.19971465367E+02  0.53095478377E+02  0.20752999645E+03  0.00000000000E+00 0.  1.
          5    1    6    6  503    0 -0.71864498551E+02  0.64476745611E+01 -0.20219251020E+03  0.21473234465E+03  0.47000000000E+01 0. -1.
         -5    1    6    6    0  503 -0.14886491021E+03 -0.11483926904E+03 -0.38964917060E+03  0.43266313150E+03  0.47000000000E+01 0.  1.
<mgrwt>
<rscale>  0 0.50450741E+03</rscale>
<asrwt>0</asrwt>
<pdfrwt beam="1">  1        2 0.16065758E+00 0.50450741E+03</pdfrwt>
<pdfrwt beam="2">  1       -2 0.59067196E-01 0.50450741E+03</pdfrwt>
<totfact> 0.65776840E+01</totfact>
</mgrwt>
</event>
<event>
12    1  0.3127365E-008  0.3755647E+03  0.7818608E-02  0.1052585E+00
          2   -1    0    0  501    0  0.00000000000E+00  0.00000000000E+00  0.26372283110E+03  0.26372283110E+03  0.00000000000E+00 0. -1.
         -2   -1    0    0    0  501 -0.00000000000E+00 -0.00000000000E+00 -0.11343488534E+04  0.11343488534E+04  0.00000000000E+00 0.  1.
         23    2    1    2    0    0  0.19882932875E+03  0.21146553819E+03 -0.61154814344E+03  0.68301230326E+03  0.90905989041E+02 0.  0.
    5000000    2    1    2    0    0 -0.19882932875E+03 -0.21146553819E+03 -0.25907787884E+03  0.71505938122E+03  0.59994816072E+03 0.  0.
         23    2    4    4    0    0 -0.69723335137E+02  0.70674788451E+02  0.14474166060E+03  0.19752311044E+03  0.90603320367E+02 0.  0.
         23    2    4    4    0    0 -0.12910599362E+03 -0.28214032664E+03 -0.40381953944E+03  0.51753627078E+03  0.92206559619E+02 0.  0.
          3    1    3    3  502    0  0.43799171262E+02  0.10639809465E+03 -0.19734653524E+03  0.22843943819E+03  0.00000000000E+00 0. -1.
         -3    1    3    3    0  502  0.15503015749E+03  0.10506744354E+03 -0.41420160820E+03  0.45457286507E+03  0.00000000000E+00 0.  1.
         11    1    5    5    0    0 -0.67283418455E+02  0.13616119811E+02  0.11290957569E+03  0.13214018844E+03  0.00000000000E+00 0.  1.
        -11    1    5    5    0    0 -0.24399166823E+01  0.57058668641E+02  0.31832084906E+02  0.65382922005E+02  0.00000000000E+00 0. -1.
          5    1    6    6  503    0  0.13659243244E+02 -0.27472855054E+02 -0.29719328081E+02  0.42972795492E+02  0.47000000000E+01 0. -1.
         -5    1    6    6    0  503 -0.14276523686E+03 -0.25466747159E+03 -0.37410021135E+03  0.47456347529E+03  0.47000000000E+01 0.  1.
<mgrwt>
<rscale>  0 0.37556465E+03</rscale>
<asrwt>0</asrwt>
<pdfrwt beam="1">  1        2 0.40572744E-01 0.37556465E+03</pdfrwt>
<pdfrwt beam="2">  1       -2 0.17451521E+00 0.37556465E+03</pdfrwt>
<totfact> 0.26428658E+01</totfact>
</mgrwt>
</event>
<event>
12    1  0.3127365E-008  0.1035571E+04  0.7818608E-02  0.9270369E-01
          1   -1    0    0  501    0  0.00000000000E+00  0.00000000000E+00  0.10214128423E+04  0.10214128423E+04  0.00000000000E+00 0. -1.
         -1   -1    0    0    0  501 -0.00000000000E+00 -0.00000000000E+00 -0.11932732466E+04  0.11932732466E+04  0.00000000000E+00 0.  1.
         23    2    1    2    0    0  0.27130059703E+03 -0.93816032552E+03 -0.37584515889E+03  0.10504490266E+04  0.91840969329E+02 0.  0.
    5000000    2    1    2    0    0 -0.27130059703E+03  0.93816032552E+03  0.20398475462E+03  0.11642370624E+04  0.60007445116E+03 0.  0.
         23    2    4    4    0    0 -0.36145147994E+03  0.90770318880E+03  0.26858671452E+03  0.10173695478E+04  0.91267311988E+02 0.  0.
         23    2    4    4    0    0  0.90150882910E+02  0.30457136714E+02 -0.64601959908E+02  0.14686751457E+03  0.91333645203E+02 0.  0.
          4    1    3    3  502    0  0.16298775574E+03 -0.50790691486E+03 -0.25112814702E+03  0.58957593990E+03  0.00000000000E+00 0. -1.
         -4    1    3    3    0  502  0.10831284129E+03 -0.43025341066E+03 -0.12471701187E+03  0.46087308667E+03  0.00000000000E+00 0.  1.
         11    1    5    5    0    0 -0.23210956617E+03  0.67606587163E+03  0.17363332383E+03  0.73558714279E+03  0.00000000000E+00 0.  1.
        -11    1    5    5    0    0 -0.12934191377E+03  0.23163731717E+03  0.94953390693E+02  0.28178240500E+03  0.00000000000E+00 0. -1.
          5    1    6    6  503    0 -0.88114388073E+01  0.68105821565E+01 -0.40407404380E+02  0.42176697498E+02  0.47000000000E+01 0. -1.
         -5    1    6    6    0  503  0.98962321717E+02  0.23646554557E+02 -0.24194555528E+02  0.10469081707E+03  0.47000000000E+01 0.  1.
<mgrwt>
<rscale>  0 0.10355712E+04</rscale>
<asrwt>0</asrwt>
<pdfrwt beam="1">  1        1 0.15714044E+00 0.10355712E+04</pdfrwt>
<pdfrwt beam="2">  1       -1 0.18358050E+00 0.10355712E+04</pdfrwt>
<totfact> 0.28541101E+00</totfact>
</mgrwt>
</event>
<event>
12    1  0.3127365E-008  0.1238993E+04  0.7818608E-02  0.9079395E-01
          2   -1    0    0  501    0  0.00000000000E+00  0.00000000000E+00  0.14121105918E+04  0.14121105918E+04  0.00000000000E+00 0. -1.
         -2   -1    0    0    0  501 -0.00000000000E+00 -0.00000000000E+00 -0.31078978634E+04  0.31078978634E+04  0.00000000000E+00 0.  1.
         23    2    1    2    0    0  0.85740316266E+03 -0.81935791803E+03 -0.26359995042E+04  0.28919939812E+04  0.92995806603E+02 0.  0.
    5000000    2    1    2    0    0 -0.85740316266E+03  0.81935791803E+03  0.94021223253E+03  0.16280144740E+04  0.59995375168E+03 0.  0.
         23    2    4    4    0    0 -0.75090622786E+03  0.87085461933E+03  0.91796807786E+03  0.14742011042E+04  0.91408820607E+02 0.  0.
         23    2    4    4    0    0 -0.10649693480E+03 -0.51496701310E+02  0.22244154663E+02  0.15381336983E+03  0.95761385499E+02 0.  0.
          3    1    3    3  502    0  0.39306069327E+03 -0.42432949011E+03 -0.12096826989E+04  0.13408521383E+04  0.00000000000E+00 0. -1.
         -3    1    3    3    0  502  0.46434246940E+03 -0.39502842792E+03 -0.14263168053E+04  0.15511418429E+04  0.00000000000E+00 0.  1.
         13    1    5    5    0    0 -0.33420100976E+03  0.34109146145E+03  0.33843018613E+03  0.58529367918E+03  0.00000000000E+00 0.  1.
        -13    1    5    5    0    0 -0.41670521810E+03  0.52976315788E+03  0.57953789173E+03  0.88890742498E+03  0.00000000000E+00 0. -1.
          5    1    6    6  503    0 -0.36422417282E+02 -0.57158571697E+02  0.42946334969E+02  0.80375198204E+02  0.47000000000E+01 0. -1.
         -5    1    6    6    0  503 -0.70074517519E+02  0.56618703869E+01 -0.20702180305E+02  0.73438171622E+02  0.47000000000E+01 0.  1.
<mgrwt>
<rscale>  0 0.12389927E+04</rscale>
<asrwt>0</asrwt>
<pdfrwt beam="1">  1        2 0.21724779E+00 0.12389927E+04</pdfrwt>
<pdfrwt beam="2">  1       -2 0.47813813E+00 0.12389927E+04</pdfrwt>
<totfact> 0.31471445E-02</totfact>
</mgrwt>
</event>
<event>
12    1  0.3127365E-008  0.1430060E+04  0.7818608E-02  0.8932342E-01
         -2   -1    0    0    0  501 -0.00000000000E+00  0.00000000000E+00  0.77131300041E+03  0.77131300041E+03  0.00000000000E+00 0. -1.
          2   -1    0    0  501    0  0.00000000000E+00 -0.00000000000E+00 -0.28622700228E+04  0.28622700228E+04  0.00000000000E+00 0.  1.
         23    2    1    2    0    0 -0.80491918857E+03  0.11378997074E+04 -0.64967442149E+03  0.15408537915E+04  0.97174629730E+02 0.  0.
    5000000    2    1    2    0    0  0.80491918857E+03 -0.11378997074E+04 -0.14412826009E+04  0.20927292317E+04  0.59959107495E+03 0.  0.
         23    2    4    4    0    0  0.58427839601E+02 -0.41759325761E+03 -0.66950341236E+03  0.79655052670E+03  0.91978155984E+02 0.  0.
         23    2    4    4    0    0  0.74649134897E+03 -0.72030644982E+03 -0.77177918857E+03  0.12961787050E+04  0.91353180813E+02 0.  0.
          2    1    3    3  502    0 -0.49949301459E+03  0.70132094043E+03 -0.45295177781E+03  0.97288727309E+03  0.00000000000E+00 0. -1.
         -2    1    3    3    0  502 -0.30542617398E+03  0.43657876700E+03 -0.19672264368E+03  0.56796651845E+03  0.00000000000E+00 0.  1.
         13    1    5    5    0    0  0.63811720206E+00 -0.19406583414E+03 -0.37593990441E+03  0.42307536788E+03  0.00000000000E+00 0.  1.
        -13    1    5    5    0    0  0.57789722399E+02 -0.22352742347E+03 -0.29356350795E+03  0.37347515882E+03  0.00000000000E+00 0. -1.
          5    1    6    6  503    0  0.26121749428E+03 -0.31360256937E+03 -0.30512737127E+03  0.50961353351E+03  0.47000000000E+01 0. -1.
         -5    1    6    6    0  503  0.48527385469E+03 -0.40670388045E+03 -0.46665181730E+03  0.78656517150E+03  0.47000000000E+01 0.  1.
<mgrwt>
<rscale>  0 0.14300604E+04</rscale>
<asrwt>0</asrwt>
<pdfrwt beam="1">  1        2 0.44034922E+00 0.14300604E+04</pdfrwt>
<pdfrwt beam="2">  1       -2 0.11866354E+00 0.14300604E+04</pdfrwt>
<totfact> 0.11096058E+00</totfact>
</mgrwt>
</event>
<event>
12    1  0.3127365E-008  0.1421255E+04  0.7818608E-02  0.8938575E-01
         -2   -1    0    0    0  501 -0.00000000000E+00  0.00000000000E+00  0.90139268047E+03  0.90139268047E+03  0.00000000000E+00 0.  1.
          2   -1    0    0  501    0  0.00000000000E+00 -0.00000000000E+00 -0.25913296012E+04  0.25913296012E+04  0.00000000000E+00 0. -1.
         23    2    1    2    0    0  0.13557263713E+04  0.86871491580E+02 -0.17740876484E+03  0.13730812646E+04  0.91310675975E+02 0.  0.
    5000000    2    1    2    0    0 -0.13557263713E+04 -0.86871491580E+02 -0.15125281559E+04  0.21196410170E+04  0.59966321279E+03 0.  0.
         23    2    4    4    0    0 -0.12280408653E+03  0.16095630869E+03 -0.20255835227E+03  0.30153291382E+03  0.94363314177E+02 0.  0.
         23    2    4    4    0    0 -0.12329222848E+04 -0.24782780027E+03 -0.13099698036E+04  0.18181081032E+04  0.89332019265E+02 0.  0.
          1    1    3    3  502    0  0.55860767553E+03  0.78415058893E+02 -0.88274562400E+02  0.57094995840E+03  0.00000000000E+00 0. -1.
         -1    1    3    3    0  502  0.79711869578E+03  0.84564326875E+01 -0.89134202438E+02  0.80213130625E+03  0.00000000000E+00 0.  1.
         11    1    5    5    0    0 -0.17667817928E+02  0.10020540808E+03 -0.98533498930E+02  0.14164083455E+03  0.00000000000E+00 0. -1.
        -11    1    5    5    0    0 -0.10513626860E+03  0.60750900610E+02 -0.10402485334E+03  0.15989207927E+03  0.00000000000E+00 0.  1.
          5    1    6    6  503    0 -0.10630681786E+04 -0.22514410806E+03 -0.10888100023E+04  0.15382890278E+04  0.47000000000E+01 0.  1.
         -5    1    6    6    0  503 -0.16985410616E+03 -0.22683692219E+02 -0.22115980130E+03  0.27981907545E+03  0.47000000000E+01 0.  1.
<mgrwt>
<rscale>  0 0.14212550E+04</rscale>
<asrwt>0</asrwt>
<pdfrwt beam="1">  1        2 0.39866609E+00 0.14212550E+04</pdfrwt>
<pdfrwt beam="2">  1       -2 0.13867580E+00 0.14212550E+04</pdfrwt>
<totfact> 0.10822625E+00</totfact>
</mgrwt>
</event>
<event>
12    1  0.3127365E-008  0.7116083E+03  0.7818608E-02  0.9697584E-01
          4   -1    0    0  501    0  0.00000000000E+00  0.00000000000E+00  0.22081902487E+03  0.22081902487E+03  0.00000000000E+00 0.  1.
         -4   -1    0    0    0  501 -0.00000000000E+00 -0.00000000000E+00 -0.27690870011E+04  0.27690870011E+04  0.00000000000E+00 0. -1.
         23    2    1    2    0    0  0.16863045132E+03  0.60800374613E+03 -0.69747463708E+03  0.94453461321E+03  0.87005642129E+02 0.  0.
    5000000    2    1    2    0    0 -0.16863045132E+03 -0.60800374613E+03 -0.18507933392E+04  0.20453714128E+04  0.60000287288E+03 0.  0.
         23    2    4    4    0    0 -0.27450511072E+03 -0.59026382846E+03 -0.11004980545E+04  0.12818227420E+04  0.90604254921E+02 0.  0.
         23    2    4    4    0    0  0.10587465940E+03 -0.17739917675E+02 -0.75029528470E+03  0.76354867078E+03  0.92408929377E+02 0.  0.
          1    1    3    3  502    0  0.16222014848E+03  0.48952119768E+03 -0.59839610145E+03  0.78995207056E+03  0.00000000000E+00 0. -1.
         -1    1    3    3    0  502  0.64103028402E+01  0.11848254845E+03 -0.99078535628E+02  0.15458254265E+03  0.00000000000E+00 0.  1.
         13    1    5    5    0    0 -0.18804896569E+03 -0.39390159107E+03 -0.65158246502E+03  0.78427073493E+03  0.00000000000E+00 0. -1.
        -13    1    5    5    0    0 -0.86456145034E+02 -0.19636223739E+03 -0.44891558946E+03  0.49755200708E+03  0.00000000000E+00 0.  1.
          5    1    6    6  503    0  0.55283372332E+02  0.34188523558E+02 -0.26787664905E+03  0.27569021656E+03  0.47000000000E+01 0. -1.
         -5    1    6    6    0  503  0.50591287064E+02 -0.51928441233E+02 -0.48241863565E+03  0.48785845422E+03  0.47000000000E+01 0.  1.
<mgrwt>
<rscale>  0 0.71160825E+03</rscale>
<asrwt>0</asrwt>
<pdfrwt beam="1">  1        4 0.33972156E-01 0.71160825E+03</pdfrwt>
<pdfrwt beam="2">  1       -4 0.42601340E+00 0.71160825E+03</pdfrwt>
<totfact> 0.79007854E-02</totfact>
</mgrwt>
</event>
<event>
12    1  0.3127365E-008  0.8536654E+03  0.7818608E-02  0.9485431E-01
         -1   -1    0    0    0  501 -0.00000000000E+00  0.00000000000E+00  0.30803611056E+03  0.30803611056E+03  0.00000000000E+00 0.  1.
          1   -1    0    0  501    0  0.00000000000E+00 -0.00000000000E+00 -0.31466558032E+04  0.31466558032E+04  0.00000000000E+00 0. -1.
         23    2    1    2    0    0 -0.70637942634E+03 -0.33601721528E+03 -0.20373551427E+04  0.21842613377E+04  0.91116140156E+02 0.  0.
    5000000    2    1    2    0    0  0.70637942634E+03  0.33601721528E+03 -0.80126454994E+03  0.12704305761E+04  0.60007458426E+03 0.  0.
         23    2    4    4    0    0  0.77244859296E+03  0.26307999443E+03 -0.78491752483E+03  0.11357982240E+04  0.89745042085E+02 0.  0.
         23    2    4    4    0    0 -0.66069166627E+02  0.72937220842E+02 -0.16347025113E+02  0.13463235207E+03  0.90408362621E+02 0.  0.
          4    1    3    3  502    0 -0.27314978959E+03 -0.17811249825E+03 -0.87459756815E+03  0.93341082905E+03  0.00000000000E+00 0. -1.
         -4    1    3    3    0  502 -0.43322963675E+03 -0.15790471703E+03 -0.11627575745E+04  0.12508505086E+04  0.00000000000E+00 0.  1.
         11    1    5    5    0    0  0.92463341083E+02  0.63383936760E+02 -0.11437497791E+03  0.16015189183E+03  0.00000000000E+00 0. -1.
        -11    1    5    5    0    0  0.67998525188E+03  0.19969605767E+03 -0.67054254692E+03  0.97564633216E+03  0.00000000000E+00 0.  1.
          5    1    6    6  503    0 -0.56350103210E+02  0.59386897989E+02 -0.50522745876E+02  0.96316019620E+02  0.47000000000E+01 0. -1.
         -5    1    6    6    0  503 -0.97190634174E+01  0.13550322853E+02  0.34175720762E+02  0.38316332454E+02  0.47000000000E+01 0.  1.
<mgrwt>
<rscale>  0 0.85366536E+03</rscale>
<asrwt>0</asrwt>
<pdfrwt beam="1">  1        1 0.48410092E+00 0.85366536E+03</pdfrwt>
<pdfrwt beam="2">  1       -1 0.47390169E-01 0.85366536E+03</pdfrwt>
<totfact> 0.21862597E+00</totfact>
</mgrwt>
</event>
<event>
12    1  0.3127365E-008  0.8837897E+03  0.7818608E-02  0.9446075E-01
          2   -1    0    0  501    0  0.00000000000E+00  0.00000000000E+00  0.14749163038E+04  0.14749163038E+04  0.00000000000E+00 0. -1.
         -2   -1    0    0    0  501 -0.00000000000E+00 -0.00000000000E+00 -0.81667583602E+03  0.81667583602E+03  0.00000000000E+00 0.  1.
         23    2    1    2    0    0  0.82802628710E+03 -0.15710401154E+03  0.89230706453E+03  0.12308093024E+04  0.91490103349E+02 0.  0.
    5000000    2    1    2    0    0 -0.82802628710E+03  0.15710401154E+03 -0.23406659670E+03  0.10607828374E+04  0.60013652940E+03 0.  0.
         23    2    4    4    0    0 -0.48896045385E+02 -0.46670681139E+02 -0.22243502531E+03  0.25029241427E+03  0.92736057853E+02 0.  0.
         23    2    4    4    0    0 -0.77913024171E+03  0.20377469267E+03 -0.11631571385E+02  0.81049042315E+03  0.90506207722E+02 0.  0.
          1    1    3    3  502    0  0.32362637543E+03 -0.10613829961E+03  0.37154365513E+03  0.50402783374E+03  0.00000000000E+00 0. -1.
         -1    1    3    3    0  502  0.50439991167E+03 -0.50965711923E+02  0.52076340940E+03  0.72678146870E+03  0.00000000000E+00 0.  1.
         11    1    5    5    0    0  0.21954074856E+02 -0.36545117500E+02 -0.95188303813E+02  0.10429928187E+03  0.00000000000E+00 0.  1.
        -11    1    5    5    0    0 -0.70850120241E+02 -0.10125563639E+02 -0.12724672150E+03  0.14599313240E+03  0.00000000000E+00 0. -1.
          5    1    6    6  503    0 -0.31159696517E+03  0.68231803738E+02 -0.46732154660E+02  0.32241934188E+03  0.47000000000E+01 0. -1.
         -5    1    6    6    0  503 -0.46753327655E+03  0.13554288894E+03  0.35100583275E+02  0.48807108126E+03  0.47000000000E+01 0.  1.
<mgrwt>
<rscale>  0 0.88378971E+03</rscale>
<asrwt>0</asrwt>
<pdfrwt beam="1">  1        2 0.22691020E+00 0.88378971E+03</pdfrwt>
<pdfrwt beam="2">  1       -2 0.12564244E+00 0.88378971E+03</pdfrwt>
<totfact> 0.62502797E+00</totfact>
</mgrwt>
</event>
<event>
12    1  0.3127365E-008  0.8693067E+03  0.7818608E-02  0.9464784E-01
         -1   -1    0    0    0  501 -0.00000000000E+00  0.00000000000E+00  0.37204670762E+03  0.37204670762E+03  0.00000000000E+00 0.  1.
          1   -1    0    0  501    0  0.00000000000E+00 -0.00000000000E+00 -0.25351980127E+04  0.25351980127E+04  0.00000000000E+00 0. -1.
         23    2    1    2    0    0 -0.75020939193E+03 -0.39773314238E+03 -0.66105517492E+03  0.10804593581E+04  0.96915922210E+02 0.  0.
    5000000    2    1    2    0    0  0.75020939193E+03  0.39773314238E+03 -0.15020961302E+04  0.18267853622E+04  0.59987181214E+03 0.  0.
         23    2    4    4    0    0  0.55219058026E+03  0.17153257880E+03 -0.47577580410E+03  0.75401903905E+03  0.88567674492E+02 0.  0.
         23    2    4    4    0    0  0.19801881167E+03  0.22620056359E+03 -0.10263203261E+04  0.10727663231E+04  0.84356550698E+02 0.  0.
          1    1    3    3  502    0 -0.18008437143E+02  0.51260204530E+01 -0.11217497643E+02  0.21826867558E+02  0.00000000000E+00 0. -1.
         -1    1    3    3    0  502 -0.73220095479E+03 -0.40285916284E+03 -0.64983767727E+03  0.10586324906E+04  0.00000000000E+00 0.  1.
         11    1    5    5    0    0  0.30894054100E+03  0.63320788878E+02 -0.29800026676E+03  0.43388701198E+03  0.00000000000E+00 0. -1.
        -11    1    5    5    0    0  0.24325003926E+03  0.10821178992E+03 -0.17777553734E+03  0.32013202707E+03  0.00000000000E+00 0.  1.
          5    1    6    6  503    0  0.28107040328E+02  0.17587090824E+02 -0.22479574262E+03  0.22727632385E+03  0.47000000000E+01 0. -1.
         -5    1    6    6    0  503  0.16991177134E+03  0.20861347276E+03 -0.80152458344E+03  0.84548999930E+03  0.47000000000E+01 0.  1.
<mgrwt>
<rscale>  0 0.86930672E+03</rscale>
<asrwt>0</asrwt>
<pdfrwt beam="1">  1        1 0.39003046E+00 0.86930672E+03</pdfrwt>
<pdfrwt beam="2">  1       -1 0.57237956E-01 0.86930672E+03</pdfrwt>
<totfact> 0.41122028E+00</totfact>
</mgrwt>
</event>
<event>
12    1  0.3127365E-008  0.2194945E+04  0.7818608E-02  0.8520535E-01
         -2   -1    0    0    0  501 -0.00000000000E+00  0.00000000000E+00  0.24670483152E+04  0.24670483152E+04  0.00000000000E+00 0. -1.
          2   -1    0    0  501    0  0.00000000000E+00 -0.00000000000E+00 -0.21671183736E+04  0.21671183736E+04  0.00000000000E+00 0.  1.
         23    2    1    2    0    0 -0.98722086636E+03 -0.19490718348E+04  0.77365835386E+03  0.23194773451E+04  0.89117057152E+02 0.  0.
    5000000    2    1    2    0    0  0.98722086636E+03  0.19490718348E+04 -0.47372841219E+03  0.23146893436E+04  0.59990173598E+03 0.  0.
         23    2    4    4    0    0  0.66925670157E+03  0.15662474294E+04 -0.57422179088E+03  0.17995306774E+04  0.86858800652E+02 0.  0.
         23    2    4    4    0    0  0.31796416479E+03  0.38282440544E+03  0.10049337869E+03  0.51515866623E+03  0.87371601411E+02 0.  0.
          1    1    3    3  502    0 -0.27063611495E+03 -0.60112656727E+03  0.20417866010E+03  0.69013475628E+03  0.00000000000E+00 0. -1.
         -1    1    3    3    0  502 -0.71658475141E+03 -0.13479452675E+04  0.56947969376E+03  0.16293425889E+04  0.00000000000E+00 0.  1.
         11    1    5    5    0    0  0.24770705645E+03  0.51969184367E+03 -0.22966921211E+03  0.61982767378E+03  0.00000000000E+00 0.  1.
        -11    1    5    5    0    0  0.42154964511E+03  0.10465555857E+04 -0.34455257877E+03  0.11797030036E+04  0.00000000000E+00 0. -1.
          5    1    6    6  503    0  0.22640393053E+03  0.23658385994E+03  0.30527121754E+02  0.32891436227E+03  0.47000000000E+01 0. -1.
         -5    1    6    6    0  503  0.91560234260E+02  0.14624054551E+03  0.69966256936E+02  0.18624430396E+03  0.47000000000E+01 0.  1.
<mgrwt>
<rscale>  0 0.21949452E+04</rscale>
<asrwt>0</asrwt>
<pdfrwt beam="1">  1        2 0.33340283E+00 0.21949452E+04</pdfrwt>
<pdfrwt beam="2">  1       -2 0.37954589E+00 0.21949452E+04</pdfrwt>
<totfact> 0.47187616E-02</totfact>
</mgrwt>
</event>
<event>
12    1  0.3127365E-008  0.4426379E+03  0.7818608E-02  0.1029941E+00
          2   -1    0    0  501    0  0.00000000000E+00  0.00000000000E+00  0.32729411961E+04  0.32729411961E+04  0.00000000000E+00 0. -1.
         -2   -1    0    0    0  501 -0.00000000000E+00 -0.00000000000E+00 -0.10599309481E+03  0.10599309481E+03  0.00000000000E+00 0.  1.
         23    2    1    2    0    0  0.33636173989E+03 -0.13615619085E+03  0.51869959932E+03  0.63944993986E+03  0.90383753423E+02 0.  0.
    5000000    2    1    2    0    0 -0.33636173989E+03  0.13615619085E+03  0.26482485019E+04  0.27394843510E+04  0.59989720215E+03 0.  0.
         23    2    4    4    0    0 -0.14698050907E+03  0.24478953400E+03  0.53723372774E+03  0.61525106602E+03  0.91589355371E+02 0.  0.
         23    2    4    4    0    0 -0.18938123081E+03 -0.10863334315E+03  0.21110147742E+04  0.21242332850E+04  0.91198785115E+02 0.  0.
          3    1    3    3  502    0  0.83958814568E+02 -0.21037596487E+01  0.80807516134E+02  0.11654768557E+03  0.00000000000E+00 0. -1.
         -3    1    3    3    0  502  0.25240292532E+03 -0.13405243120E+03  0.43789208319E+03  0.52290225429E+03  0.00000000000E+00 0.  1.
         11    1    5    5    0    0 -0.40905438284E+01  0.55092859418E+02  0.16215081720E+03  0.17130336607E+03  0.00000000000E+00 0.  1.
        -11    1    5    5    0    0 -0.14288996525E+03  0.18969667459E+03  0.37508291053E+03  0.44394769995E+03  0.00000000000E+00 0. -1.
          5    1    6    6  503    0 -0.18027198879E+03 -0.11162326536E+03  0.17135154088E+04  0.17265905390E+04  0.47000000000E+01 0. -1.
         -5    1    6    6    0  503 -0.91092420237E+01  0.29899222021E+01  0.39749936540E+03  0.39764274597E+03  0.47000000000E+01 0.  1.
<mgrwt>
<rscale>  0 0.44263792E+03</rscale>
<asrwt>0</asrwt>
<pdfrwt beam="1">  1        2 0.50352934E+00 0.44263792E+03</pdfrwt>
<pdfrwt beam="2">  1       -2 0.16306632E-01 0.44263792E+03</pdfrwt>
<totfact> 0.40062572E+01</totfact>
</mgrwt>
</event>
<event>
12    1  0.3127365E-008  0.1189040E+04  0.7818608E-02  0.9122504E-01
         -1   -1    0    0    0  501 -0.00000000000E+00  0.00000000000E+00  0.99585324685E+03  0.99585324685E+03  0.00000000000E+00 0.  1.
          1   -1    0    0  501    0  0.00000000000E+00 -0.00000000000E+00 -0.15534742019E+04  0.15534742019E+04  0.00000000000E+00 0. -1.
         23    2    1    2    0    0  0.11321058435E+04 -0.44385871897E+02  0.34248788086E+02  0.11372609008E+04  0.92496651030E+02 0.  0.
    5000000    2    1    2    0    0 -0.11321058435E+04  0.44385871897E+02 -0.59186974311E+03  0.14120665479E+04  0.59999033036E+03 0.  0.
         23    2    4    4    0    0 -0.11294939772E+04  0.14260319659E+03 -0.56881812604E+03  0.12758794827E+04  0.90675673071E+02 0.  0.
         23    2    4    4    0    0 -0.26118662921E+01 -0.98217324689E+02 -0.23051617067E+02  0.13618706523E+03  0.91444381851E+02 0.  0.
          4    1    3    3  502    0  0.83333510171E+03 -0.53467733322E+02 -0.99130650214E+01  0.83510745363E+03  0.00000000000E+00 0. -1.
         -4    1    3    3    0  502  0.29877074178E+03  0.90818614247E+01  0.44161853107E+02  0.30215344715E+03  0.00000000000E+00 0.  1.
         11    1    5    5    0    0 -0.19408353080E+03  0.57267908708E+02 -0.87821631295E+02  0.22059163451E+03  0.00000000000E+00 0.  1.
        -11    1    5    5    0    0 -0.93541044641E+03  0.85335287879E+02 -0.48099649475E+03  0.10552878482E+04  0.00000000000E+00 0. -1.
          5    1    6    6  503    0  0.12066417559E+02 -0.32805283500E+02 -0.52148606194E+02  0.62955160123E+02  0.47000000000E+01 0.  1.
         -5    1    6    6    0  503 -0.14678283851E+02 -0.65412041189E+02  0.29096989127E+02  0.73231905107E+02  0.47000000000E+01 0. -1.
<mgrwt>
<rscale>  0 0.11890401E+04</rscale>
<asrwt>0</asrwt>
<pdfrwt beam="1">  1        1 0.23899603E+00 0.11890401E+04</pdfrwt>
<pdfrwt beam="2">  1       -1 0.15320819E+00 0.11890401E+04</pdfrwt>
<totfact> 0.19438371E+00</totfact>
</mgrwt>
</event>
<event>
12    1  0.3127365E-008  0.1424285E+04  0.7818608E-02  0.8936425E-01
          1   -1    0    0  501    0  0.00000000000E+00  0.00000000000E+00  0.15211658521E+04  0.15211658521E+04  0.00000000000E+00 0. -1.
         -1   -1    0    0    0  501 -0.00000000000E+00 -0.00000000000E+00 -0.14166983212E+04  0.14166983212E+04  0.00000000000E+00 0.  1.
         23    2    1    2    0    0 -0.12911004617E+04  0.49413280162E+03 -0.20110914424E+03  0.14000310568E+04  0.92382054889E+02 0.  0.
    5000000    2    1    2    0    0  0.12911004617E+04 -0.49413280162E+03  0.30557667514E+03  0.15378331166E+04  0.60037152011E+03 0.  0.
         23    2    4    4    0    0  0.92408885315E+03 -0.11103327929E+03  0.34745748811E+03  0.99777007340E+03  0.92465213524E+02 0.  0.
         23    2    4    4    0    0  0.36701160857E+03 -0.38309952233E+03 -0.41880812969E+02  0.54006304318E+03  0.91931078907E+02 0.  0.
          4    1    3    3  502    0 -0.34296776608E+03  0.91664011677E+02 -0.67802086213E+02  0.36142260928E+03  0.00000000000E+00 0. -1.
         -4    1    3    3    0  502 -0.94813269565E+03  0.40246878995E+03 -0.13330705802E+03  0.10386084475E+04  0.00000000000E+00 0.  1.
         11    1    5    5    0    0  0.57698042791E+03 -0.10033104907E+03  0.25246339734E+03  0.63773858327E+03  0.00000000000E+00 0. -1.
        -11    1    5    5    0    0  0.34710842524E+03 -0.10702230215E+02  0.94994090767E+02  0.36003149013E+03  0.00000000000E+00 0.  1.
          5    1    6    6  503    0  0.11559984134E+03 -0.12267262321E+03  0.29216765542E+02  0.17113621823E+03  0.47000000000E+01 0. -1.
         -5    1    6    6    0  503  0.25141176723E+03 -0.26042689912E+03 -0.71097578510E+02  0.36892682494E+03  0.47000000000E+01 0.  1.
<mgrwt>
<rscale>  0 0.14242854E+04</rscale>
<asrwt>0</asrwt>
<pdfrwt beam="1">  1        1 0.23402552E+00 0.14242854E+04</pdfrwt>
<pdfrwt beam="2">  1       -1 0.21795359E+00 0.14242854E+04</pdfrwt>
<totfact> 0.68554465E-01</totfact>
</mgrwt>
</event>
<event>
12    1  0.3127365E-008  0.5412797E+03  0.7818608E-02  0.1003533E+00
          1   -1    0    0  501    0  0.00000000000E+00  0.00000000000E+00  0.10210883821E+04  0.10210883821E+04  0.00000000000E+00 0. -1.
         -1   -1    0    0    0  501 -0.00000000000E+00 -0.00000000000E+00 -0.12209648869E+04  0.12209648869E+04  0.00000000000E+00 0.  1.
         23    2    1    2    0    0 -0.82061467174E+02  0.52832789185E+03 -0.98152753521E+03  0.11212284761E+04  0.88840010925E+02 0.  0.
    5000000    2    1    2    0    0  0.82061467174E+02 -0.52832789185E+03  0.78165103044E+03  0.11208247929E+04  0.59950432626E+03 0.  0.
         23    2    4    4    0    0  0.57788562439E+02 -0.24318578617E+03 -0.18618045203E+02  0.26606847452E+03  0.89257811883E+02 0.  0.
         23    2    4    4    0    0  0.24272904736E+02 -0.28514210568E+03  0.80026907564E+03  0.85475631834E+03  0.91008658840E+02 0.  0.
          1    1    3    3  502    0 -0.62312857663E+01  0.93981033974E+02 -0.11231375324E+03  0.14657981729E+03  0.00000000000E+00 0. -1.
         -1    1    3    3    0  502 -0.75830181408E+02  0.43434685787E+03 -0.86921378197E+03  0.97464865881E+03  0.00000000000E+00 0.  1.
         11    1    5    5    0    0  0.59307153997E+02 -0.19839220409E+03  0.18476227161E+02  0.20788981728E+03  0.00000000000E+00 0. -1.
        -11    1    5    5    0    0 -0.15185915581E+01 -0.44793582081E+02 -0.37094272364E+02  0.58178657239E+02  0.00000000000E+00 0.  1.
          5    1    6    6  503    0  0.49950308214E+02 -0.15798389126E+03  0.37229119432E+03  0.40752517291E+03  0.47000000000E+01 0. -1.
         -5    1    6    6    0  503 -0.25677403479E+02 -0.12715821442E+03  0.42797788132E+03  0.44723114543E+03  0.47000000000E+01 0.  1.
<mgrwt>
<rscale>  0 0.54127967E+03</rscale>
<asrwt>0</asrwt>
<pdfrwt beam="1">  1        1 0.15709052E+00 0.54127967E+03</pdfrwt>
<pdfrwt beam="2">  1       -1 0.18784075E+00 0.54127967E+03</pdfrwt>
<totfact> 0.28960134E+00</totfact>
</mgrwt>
</event>
<event>
12    1  0.3127365E-008  0.4943391E+03  0.7818608E-02  0.1015267E+00
          1   -1    0    0  501    0  0.00000000000E+00  0.00000000000E+00  0.25267957969E+03  0.25267957969E+03  0.00000000000E+00 0. -1.
         -1   -1    0    0    0  501 -0.00000000000E+00 -0.00000000000E+00 -0.11430387199E+04  0.11430387199E+04  0.00000000000E+00 0.  1.
         23    2    1    2    0    0 -0.11076027402E+03  0.34473493836E+03 -0.29197156256E+03  0.47395143853E+03  0.90953596466E+02 0.  0.
    5000000    2    1    2    0    0  0.11076027402E+03 -0.34473493836E+03 -0.59838757763E+03  0.92176686104E+03  0.60039689958E+03 0.  0.
         23    2    4    4    0    0 -0.12140745875E+03 -0.34822764418E+03 -0.14896087447E+03  0.40764274121E+03  0.89336437820E+02 0.  0.
         23    2    4    4    0    0  0.23216773276E+03  0.34927058223E+01 -0.44942670316E+03  0.51412411983E+03  0.91788855286E+02 0.  0.
          3    1    3    3  502    0 -0.12320614240E+03  0.26365125147E+03 -0.23535315598E+03  0.37427642720E+03  0.00000000000E+00 0. -1.
         -3    1    3    3    0  502  0.12445868381E+02  0.81083686891E+02 -0.56618406580E+02  0.99675011329E+02  0.00000000000E+00 0.  1.
         13    1    5    5    0    0 -0.14626865257E+02 -0.69967845472E+01  0.68732719723E+01  0.17610850316E+02  0.00000000000E+00 0.  1.
        -13    1    5    5    0    0 -0.10678059349E+03 -0.34123085964E+03 -0.15583414645E+03  0.39003189089E+03  0.00000000000E+00 0. -1.
          5    1    6    6  503    0  0.16822982628E+03  0.32652663838E+02 -0.37112638411E+03  0.40880845623E+03  0.47000000000E+01 0. -1.
         -5    1    6    6    0  503  0.63937906482E+02 -0.29159958015E+02 -0.78300319049E+02  0.10531566360E+03  0.47000000000E+01 0.  1.
<mgrwt>
<rscale>  0 0.49433914E+03</rscale>
<asrwt>0</asrwt>
<pdfrwt beam="1">  1        1 0.38873781E-01 0.49433914E+03</pdfrwt>
<pdfrwt beam="2">  1       -1 0.17585211E+00 0.49433914E+03</pdfrwt>
<totfact> 0.25798982E+01</totfact>
</mgrwt>
</event>
<event>
12    1  0.3127365E-008  0.1114886E+04  0.7818608E-02  0.9190803E-01
         -1   -1    0    0    0  501 -0.00000000000E+00  0.00000000000E+00  0.71076061063E+03  0.71076061063E+03  0.00000000000E+00 0.  1.
          1   -1    0    0  501    0  0.00000000000E+00 -0.00000000000E+00 -0.23416010190E+04  0.23416010190E+04  0.00000000000E+00 0. -1.
         23    2    1    2    0    0 -0.37495932825E+03  0.10268494563E+04 -0.13512323593E+03  0.11050043503E+04  0.88102334496E+02 0.  0.
    5000000    2    1    2    0    0  0.37495932825E+03 -0.10268494563E+04 -0.14957171725E+04  0.19473572794E+04  0.60001350800E+03 0.  0.
         23    2    4    4    0    0  0.37858790502E+02 -0.51861009502E+03 -0.10848816629E+04  0.12063876852E+04  0.89517070107E+02 0.  0.
         23    2    4    4    0    0  0.33710053775E+03 -0.50823936133E+03 -0.41083550954E+03  0.74096959418E+03  0.91137822220E+02 0.  0.
          2    1    3    3  502    0 -0.45338159956E+02  0.89967274644E+02  0.10168395173E+02  0.10125737265E+03  0.00000000000E+00 0. -1.
         -2    1    3    3    0  502 -0.32962116830E+03  0.93688218170E+03 -0.14529163110E+03  0.10037469776E+04  0.00000000000E+00 0.  1.
         11    1    5    5    0    0 -0.13499161523E+02 -0.19926015816E+03 -0.49246616095E+03  0.53142239101E+03  0.00000000000E+00 0. -1.
        -11    1    5    5    0    0  0.51357952025E+02 -0.31934993686E+03 -0.59241550197E+03  0.67496529421E+03  0.00000000000E+00 0.  1.
          5    1    6    6  503    0  0.10419161261E+03 -0.11205541606E+03 -0.67578317824E+02  0.16733567297E+03  0.47000000000E+01 0. -1.
         -5    1    6    6    0  503  0.23290892514E+03 -0.39618394526E+03 -0.34325719172E+03  0.57363392121E+03  0.47000000000E+01 0.  1.
<mgrwt>
<rscale>  0 0.11148863E+04</rscale>
<asrwt>0</asrwt>
<pdfrwt beam="1">  1        1 0.36024631E+00 0.11148863E+04</pdfrwt>
<pdfrwt beam="2">  1       -1 0.10934779E+00 0.11148863E+04</pdfrwt>
<totfact> 0.13477123E+00</totfact>
</mgrwt>
</event>
<event>
12    1  0.3127365E-008  0.5298796E+03  0.7818608E-02  0.1006261E+00
          1   -1    0    0  501    0  0.00000000000E+00  0.00000000000E+00  0.83107254793E+03  0.83107254793E+03  0.00000000000E+00 0. -1.
         -1   -1    0    0    0  501 -0.00000000000E+00 -0.00000000000E+00 -0.35417046229E+03  0.35417046229E+03  0.00000000000E+00 0.  1.
         23    2    1    2    0    0 -0.30295157122E+03 -0.21083308168E+03  0.20208195808E+03  0.42906533425E+03  0.83843308862E+02 0.  0.
    5000000    2    1    2    0    0  0.30295157122E+03  0.21083308168E+03  0.27482012756E+03  0.75617767597E+03  0.60004027555E+03 0.  0.
         23    2    4    4    0    0  0.30368017578E+03 -0.12880289237E+03  0.70182913110E+02  0.34954264169E+03  0.91883528596E+02 0.  0.
         23    2    4    4    0    0 -0.72860456308E+00  0.33963597404E+03  0.20463721445E+03  0.40663503427E+03  0.90125112090E+02 0.  0.
          2    1    3    3  502    0 -0.53476032031E+02 -0.63358306127E+02  0.15370950132E+02  0.84322162360E+02  0.00000000000E+00 0. -1.
         -2    1    3    3    0  502 -0.24947553918E+03 -0.14747477555E+03  0.18671100795E+03  0.34474317189E+03  0.00000000000E+00 0.  1.
         13    1    5    5    0    0  0.23618324739E+03 -0.56816678019E+02  0.60818599981E+02  0.25041877596E+03  0.00000000000E+00 0.  1.
        -13    1    5    5    0    0  0.67496928386E+02 -0.71986214347E+02  0.93643131282E+01  0.99123865734E+02  0.00000000000E+00 0. -1.
          5    1    6    6  503    0 -0.31524619647E+02  0.17859294416E+03  0.70091195574E+02  0.19448420770E+03  0.47000000000E+01 0. -1.
         -5    1    6    6    0  503  0.30796015084E+02  0.16104302988E+03  0.13454601888E+03  0.21215082657E+03  0.47000000000E+01 0.  1.
<mgrwt>
<rscale>  0 0.52987957E+03</rscale>
<asrwt>0</asrwt>
<pdfrwt beam="1">  1        1 0.12785731E+00 0.52987957E+03</pdfrwt>
<pdfrwt beam="2">  1       -1 0.54487764E-01 0.52987957E+03</pdfrwt>
<totfact> 0.73790433E+01</totfact>
</mgrwt>
</event>
<event>
12    1  0.3127365E-008  0.4614334E+03  0.7818608E-02  0.1024366E+00
          1   -1    0    0  501    0  0.00000000000E+00  0.00000000000E+00  0.55177695527E+03  0.55177695527E+03  0.00000000000E+00 0. -1.
         -1   -1    0    0    0  501 -0.00000000000E+00 -0.00000000000E+00 -0.41170519355E+03  0.41170519355E+03  0.00000000000E+00 0.  1.
         23    2    1    2    0    0 -0.13537422572E+03  0.24353447578E+03  0.25755839049E+02  0.29234659552E+03  0.84663727670E+02 0.  0.
    5000000    2    1    2    0    0  0.13537422572E+03 -0.24353447578E+03  0.11431592267E+03  0.67113555330E+03  0.59976627018E+03 0.  0.
         23    2    4    4    0    0  0.35954072637E+03 -0.17017229537E+03  0.70570802935E+02  0.41412979049E+03  0.91077445694E+02 0.  0.
         23    2    4    4    0    0 -0.22416650065E+03 -0.73362180416E+02  0.43745119731E+02  0.25700576281E+03  0.92226336187E+02 0.  0.
          3    1    3    3  502    0 -0.10111770925E+03  0.19498251139E+03 -0.15216824734E+02  0.22016930446E+03  0.00000000000E+00 0. -1.
         -3    1    3    3    0  502 -0.34256516473E+02  0.48551964389E+02  0.40972663783E+02  0.72177291057E+02  0.00000000000E+00 0.  1.
         11    1    5    5    0    0  0.22511151479E+03 -0.13836872215E+03  0.13248699421E+02  0.26456875363E+03  0.00000000000E+00 0.  1.
        -11    1    5    5    0    0  0.13442921158E+03 -0.31803573218E+02  0.57322103514E+02  0.14956103686E+03  0.00000000000E+00 0. -1.
          5    1    6    6  503    0 -0.41256822300E+02  0.60579219918E+01 -0.21489866033E+02  0.47145817919E+02  0.47000000000E+01 0. -1.
         -5    1    6    6    0  503 -0.18290967835E+03 -0.79420102408E+02  0.65234985764E+02  0.20985994489E+03  0.47000000000E+01 0.  1.
<mgrwt>
<rscale>  0 0.46143339E+03</rscale>
<asrwt>0</asrwt>
<pdfrwt beam="1">  1        1 0.84888762E-01 0.46143339E+03</pdfrwt>
<pdfrwt beam="2">  1       -1 0.63339260E-01 0.46143339E+03</pdfrwt>
<totfact> 0.10186260E+02</totfact>
</mgrwt>
</event>
<event>
12    1  0.3127365E-008  0.7911824E+03  0.7818608E-02  0.9572869E-01
         -2   -1    0    0    0  501 -0.00000000000E+00  0.00000000000E+00  0.35616348954E+03  0.35616348954E+03  0.00000000000E+00 0.  1.
          2   -1    0    0  501    0  0.00000000000E+00 -0.00000000000E+00 -0.21876708794E+04  0.21876708794E+04  0.00000000000E+00 0. -1.
         23    2    1    2    0    0  0.30431425384E+03  0.68371246409E+03 -0.50734676278E+03  0.90877798325E+03  0.91688529841E+02 0.  0.
    5000000    2    1    2    0    0 -0.30431425384E+03 -0.68371246409E+03 -0.13241606271E+04  0.16350563857E+04  0.59994843063E+03 0.  0.
         23    2    4    4    0    0  0.61318282539E+02 -0.13869492573E+03 -0.30605763594E+02  0.18166001396E+03  0.95223073411E+02 0.  0.
         23    2    4    4    0    0 -0.36563253638E+03 -0.54501753836E+03 -0.12935548635E+04  0.14533963717E+04  0.91354035068E+02 0.  0.
          1    1    3    3  502    0  0.43282648047E+02  0.18900808145E+03 -0.11340552365E+03  0.22462915054E+03  0.00000000000E+00 0. -1.
         -1    1    3    3    0  502  0.26103160579E+03  0.49470438263E+03 -0.39394123913E+03  0.68414883271E+03  0.00000000000E+00 0.  1.
         13    1    5    5    0    0  0.20653850328E+02 -0.12682103585E+03 -0.46160747770E+02  0.13653194242E+03  0.00000000000E+00 0. -1.
        -13    1    5    5    0    0  0.40664432212E+02 -0.11873889882E+02  0.15554984176E+02  0.45128071538E+02  0.00000000000E+00 0.  1.
          5    1    6    6  503    0 -0.13489394326E+03 -0.24532957563E+03 -0.63388601267E+03  0.69297658233E+03  0.47000000000E+01 0. -1.
         -5    1    6    6    0  503 -0.23073859312E+03 -0.29968796273E+03 -0.65966885079E+03  0.76041978937E+03  0.47000000000E+01 0.  1.
<mgrwt>
<rscale>  0 0.79118236E+03</rscale>
<asrwt>0</asrwt>
<pdfrwt beam="1">  1        2 0.33656475E+00 0.79118236E+03</pdfrwt>
<pdfrwt beam="2">  1       -2 0.54794383E-01 0.79118236E+03</pdfrwt>
<totfact> 0.16978452E+01</totfact>
</mgrwt>
</event>
<event>
12    1  0.3127365E-008  0.9005289E+03  0.7818608E-02  0.9424921E-01
          2   -1    0    0  501    0  0.00000000000E+00  0.00000000000E+00  0.37682306615E+03  0.37682306615E+03  0.00000000000E+00 0. -1.
         -2   -1    0    0    0  501 -0.00000000000E+00 -0.00000000000E+00 -0.22082410941E+04  0.22082410941E+04  0.00000000000E+00 0.  1.
         23    2    1    2    0    0  0.22313125691E+03  0.77828733222E+03 -0.76001813146E+03  0.11141653481E+04  0.90653921454E+02 0.  0.
    5000000    2    1    2    0    0 -0.22313125691E+03 -0.77828733222E+03 -0.10713998965E+04  0.14708988122E+04  0.60010569741E+03 0.  0.
         23    2    4    4    0    0 -0.39555622044E+03 -0.63311833154E+03 -0.90449187407E+03  0.11764249416E+04  0.92555646976E+02 0.  0.
         23    2    4    4    0    0  0.17242496353E+03 -0.14516900068E+03 -0.16690802247E+03  0.29447387054E+03  0.89733860165E+02 0.  0.
          2    1    3    3  502    0  0.19121437535E+03  0.68951399621E+03 -0.70722371572E+03  0.10060605709E+04  0.00000000000E+00 0. -1.
         -2    1    3    3    0  502  0.31916881563E+02  0.88773336017E+02 -0.52794415744E+02  0.10810477718E+03  0.00000000000E+00 0.  1.
         11    1    5    5    0    0 -0.27533941326E+03 -0.51339150071E+03 -0.69773439095E+03  0.90896419391E+03  0.00000000000E+00 0. -1.
        -11    1    5    5    0    0 -0.12021680718E+03 -0.11972683083E+03 -0.20675748312E+03  0.26746074773E+03  0.00000000000E+00 0.  1.
          5    1    6    6  503    0  0.84444036491E+02 -0.21775904154E+02 -0.86209670141E+02  0.12271586094E+03  0.47000000000E+01 0. -1.
         -5    1    6    6    0  503  0.87980927039E+02 -0.12339309653E+03 -0.80698352326E+02  0.17175800960E+03  0.47000000000E+01 0.  1.
<mgrwt>
<rscale>  0 0.90052890E+03</rscale>
<asrwt>0</asrwt>
<pdfrwt beam="1">  1        2 0.57972778E-01 0.90052890E+03</pdfrwt>
<pdfrwt beam="2">  1       -2 0.33972940E+00 0.90052890E+03</pdfrwt>
<totfact> 0.15775656E+00</totfact>
</mgrwt>
</event>
<event>
12    1  0.3127365E-008  0.3459317E+03  0.7818608E-02  0.1064297E+00
         -1   -1    0    0    0  501 -0.00000000000E+00  0.00000000000E+00  0.68371991875E+02  0.68371991875E+02  0.00000000000E+00 0.  1.
          1   -1    0    0  501    0  0.00000000000E+00 -0.00000000000E+00 -0.30848674049E+04  0.30848674049E+04  0.00000000000E+00 0. -1.
         23    2    1    2    0    0 -0.16802836172E+03 -0.15268809093E+03 -0.50747827300E+03  0.56351156785E+03  0.91999489601E+02 0.  0.
    5000000    2    1    2    0    0  0.16802836172E+03  0.15268809093E+03 -0.25090171400E+04  0.25897278289E+04  0.59998002924E+03 0.  0.
         23    2    4    4    0    0  0.83395997203E+02 -0.12346990302E+03 -0.22499585739E+03  0.28566955256E+03  0.93724319782E+02 0.  0.
         23    2    4    4    0    0  0.84632364517E+02  0.27615799395E+03 -0.22840212827E+04  0.23040582764E+04  0.92224977958E+02 0.  0.
          2    1    3    3  502    0 -0.78372112191E+02 -0.88554680085E+02 -0.15993447611E+03  0.19890489180E+03  0.00000000000E+00 0. -1.
         -2    1    3    3    0  502 -0.89656249530E+02 -0.64133410842E+02 -0.34754379689E+03  0.36460667605E+03  0.00000000000E+00 0.  1.
         13    1    5    5    0    0 -0.75033196780E+01 -0.63204896017E+02 -0.57376851347E+02  0.85692833756E+02  0.00000000000E+00 0. -1.
        -13    1    5    5    0    0  0.90899316881E+02 -0.60265007002E+02 -0.16761900604E+03  0.19997671881E+03  0.00000000000E+00 0.  1.
          5    1    6    6  503    0  0.18342392559E+02  0.11159203064E+03 -0.58948060674E+03  0.60024886537E+03  0.47000000000E+01 0. -1.
         -5    1    6    6    0  503  0.66289971958E+02  0.16456596331E+03 -0.16945406759E+04  0.17038094110E+04  0.47000000000E+01 0.  1.
<mgrwt>
<rscale>  0 0.34593172E+03</rscale>
<asrwt>0</asrwt>
<pdfrwt beam="1">  1        1 0.47459502E+00 0.34593172E+03</pdfrwt>
<pdfrwt beam="2">  1       -1 0.10518767E-01 0.34593172E+03</pdfrwt>
<totfact> 0.34694143E+01</totfact>
</mgrwt>
</event>
<event>
12    1  0.3127365E-008  0.7842284E+03  0.7818608E-02  0.9583131E-01
          2   -1    0    0  501    0  0.00000000000E+00  0.00000000000E+00  0.12205419747E+04  0.12205419747E+04  0.00000000000E+00 0. -1.
         -2   -1    0    0    0  501 -0.00000000000E+00 -0.00000000000E+00 -0.57154230133E+03  0.57154230133E+03  0.00000000000E+00 0.  1.
         23    2    1    2    0    0  0.57906524188E+03 -0.40656381919E+03  0.11771458956E+03  0.72307682530E+03  0.91502334762E+02 0.  0.
    5000000    2    1    2    0    0 -0.57906524188E+03  0.40656381919E+03  0.53128508380E+03  0.10690074507E+04  0.59991865781E+03 0.  0.
         23    2    4    4    0    0  0.54084112440E+02  0.17013881994E+03  0.27546626946E+03  0.34076194679E+03  0.91458895134E+02 0.  0.
         23    2    4    4    0    0 -0.63314935432E+03  0.23642499925E+03  0.25581881434E+03  0.72824550393E+03  0.90129701429E+02 0.  0.
          1    1    3    3  502    0  0.41789400650E+03 -0.30126141996E+03  0.44422485678E+02  0.51707562412E+03  0.00000000000E+00 0. -1.
         -1    1    3    3    0  502  0.16117123538E+03 -0.10530239923E+03  0.73292103882E+02  0.20600120118E+03  0.00000000000E+00 0.  1.
         11    1    5    5    0    0  0.36203146063E+02  0.13628623476E+03  0.13516499909E+03  0.19533095645E+03  0.00000000000E+00 0. -1.
        -11    1    5    5    0    0  0.17880966377E+02  0.33852585179E+02  0.14030127037E+03  0.14543099034E+03  0.00000000000E+00 0.  1.
          5    1    6    6  503    0 -0.49208419006E+03  0.22111974594E+03  0.21207304432E+03  0.57968772479E+03  0.47000000000E+01 0. -1.
         -5    1    6    6    0  503 -0.14106516426E+03  0.15305253306E+02  0.43745770016E+02  0.14855777913E+03  0.47000000000E+01 0.  1.
<mgrwt>
<rscale>  0 0.78422844E+03</rscale>
<asrwt>0</asrwt>
<pdfrwt beam="1">  1        2 0.18777569E+00 0.78422844E+03</pdfrwt>
<pdfrwt beam="2">  1       -2 0.87929585E-01 0.78422844E+03</pdfrwt>
<totfact> 0.20850990E+01</totfact>
</mgrwt>
</event>
<event>
12    1  0.4142746E-008  0.1605693E+04  0.7818608E-02  0.8817058E-01
          1   -1    0    0  501    0  0.00000000000E+00  0.00000000000E+00  0.21843292612E+04  0.21843292612E+04  0.00000000000E+00 0. -1.
         -1   -1    0    0    0  501 -0.00000000000E+00 -0.00000000000E+00 -0.16297182905E+04  0.16297182905E+04  0.00000000000E+00 0.  1.
         23    2    1    2    0    0 -0.11346187247E+04 -0.11235358195E+04 -0.64938801689E+03  0.17261609450E+04  0.90743723443E+02 0.  0.
    5000000    2    1    2    0    0  0.11346187247E+04  0.11235358195E+04  0.12039989876E+04  0.20878866066E+04  0.59997044243E+03 0.  0.
         23    2    4    4    0    0  0.28824651489E+03  0.21626118414E+03  0.59827775740E+03  0.70393472786E+03  0.87936755588E+02 0.  0.
         23    2    4    4    0    0  0.84637220985E+03  0.90727463537E+03  0.60572123020E+03  0.13839518788E+04  0.94506150378E+02 0.  0.
          1    1    3    3  502    0 -0.30059374211E+03 -0.35489183250E+03 -0.19595196481E+03  0.50468007993E+03  0.00000000000E+00 0. -1.
         -1    1    3    3    0  502 -0.83402498263E+03 -0.76864398702E+03 -0.45343605208E+03  0.12214808651E+04  0.00000000000E+00 0.  1.
         11    1    5    5    0    0  0.78626704630E+02  0.11190393437E+03  0.21914032844E+03  0.25831595529E+03  0.00000000000E+00 0. -1.
        -11    1    5    5    0    0  0.20961981026E+03  0.10435724977E+03  0.37913742896E+03  0.44561877257E+03  0.00000000000E+00 0.  1.
          5    1    6    6  503    0  0.29658662156E+03  0.33939175295E+03  0.17282154968E+03  0.48274192286E+03  0.47000000000E+01 0. -1.
         -5    1    6    6    0  503  0.54978558829E+03  0.56788288242E+03  0.43289968052E+03  0.90120995591E+03  0.47000000000E+01 0.  1.
<mgrwt>
<rscale>  0 0.16056933E+04</rscale>
<asrwt>0</asrwt>
<pdfrwt beam="1">  1        1 0.33605066E+00 0.16056933E+04</pdfrwt>
<pdfrwt beam="2">  1       -1 0.25072589E+00 0.16056933E+04</pdfrwt>
<totfact> 0.14339648E-01</totfact>
</mgrwt>
</event>
<event>
12    1  0.3127365E-008  0.9057351E+03  0.7818608E-02  0.9418441E-01
         -1   -1    0    0    0  501 -0.00000000000E+00  0.00000000000E+00  0.13437496229E+04  0.13437496229E+04  0.00000000000E+00 0.  1.
          1   -1    0    0  501    0  0.00000000000E+00 -0.00000000000E+00 -0.76472431993E+03  0.76472431993E+03  0.00000000000E+00 0. -1.
         23    2    1    2    0    0  0.72342184714E+03 -0.36691884819E+03 -0.19219683114E+03  0.83850380576E+03  0.90445565444E+02 0.  0.
    5000000    2    1    2    0    0 -0.72342184714E+03  0.36691884819E+03  0.77122213409E+03  0.12699701370E+04  0.60005996268E+03 0.  0.
         23    2    4    4    0    0 -0.44891091831E+03  0.50798720142E+03  0.47430379489E+03  0.83234856986E+03  0.90928777143E+02 0.  0.
         23    2    4    4    0    0 -0.27451092883E+03 -0.14106835324E+03  0.29691833920E+03  0.43762156719E+03  0.89975583248E+02 0.  0.
          3    1    3    3  502    0  0.57864871253E+03 -0.27587952513E+03 -0.18552265996E+03  0.66735485482E+03  0.00000000000E+00 0. -1.
         -3    1    3    3    0  502  0.14477313461E+03 -0.91039323059E+02 -0.66741711828E+01  0.17114895094E+03  0.00000000000E+00 0.  1.
         11    1    5    5    0    0 -0.30749688913E+03  0.34725758120E+03  0.27147400385E+03  0.53743864700E+03  0.00000000000E+00 0. -1.
        -11    1    5    5    0    0 -0.14141402918E+03  0.16072962022E+03  0.20282979104E+03  0.29490992286E+03  0.00000000000E+00 0.  1.
          5    1    6    6  503    0 -0.11796093552E+03 -0.11092086088E+03  0.14954954414E+03  0.22046626917E+03  0.47000000000E+01 0. -1.
         -5    1    6    6    0  503 -0.15654999330E+03 -0.30147492353E+02  0.14736879506E+03  0.21715529802E+03  0.47000000000E+01 0.  1.
<mgrwt>
<rscale>  0 0.90573510E+03</rscale>
<asrwt>0</asrwt>
<pdfrwt beam="1">  1        1 0.11764990E+00 0.90573510E+03</pdfrwt>
<pdfrwt beam="2">  1       -1 0.20673071E+00 0.90573510E+03</pdfrwt>
<totfact> 0.32670793E+00</totfact>
</mgrwt>
</event>
<event>
12    1  0.3127365E-008  0.1651470E+04  0.7818608E-02  0.8789537E-01
         -2   -1    0    0    0  501 -0.00000000000E+00  0.00000000000E+00  0.23154039732E+04  0.23154039732E+04  0.00000000000E+00 0.  1.
          2   -1    0    0  501    0  0.00000000000E+00 -0.00000000000E+00 -0.24963212240E+04  0.24963212240E+04  0.00000000000E+00 0. -1.
         23    2    1    2    0    0  0.62638057763E+03  0.14926148817E+04 -0.18156339022E+04  0.24341974487E+04  0.92406379897E+02 0.  0.
    5000000    2    1    2    0    0 -0.62638057763E+03 -0.14926148817E+04  0.16347166514E+04  0.23775277485E+04  0.60007320513E+03 0.  0.
         23    2    4    4    0    0 -0.68202598476E+03 -0.14576575858E+04  0.15702056239E+04  0.22502700655E+04  0.90799696464E+02 0.  0.
         23    2    4    4    0    0  0.55645407123E+02 -0.34957295856E+02  0.64511027494E+02  0.12725768302E+03  0.87831778717E+02 0.  0.
          4    1    3    3  502    0  0.45400614995E+03  0.10469315097E+04 -0.13386065094E+04  0.17589924835E+04  0.00000000000E+00 0. -1.
         -4    1    3    3    0  502  0.17237442768E+03  0.44568337201E+03 -0.47702739284E+03  0.67520496512E+03  0.00000000000E+00 0.  1.
         13    1    5    5    0    0 -0.25188621372E+03 -0.59399589092E+03  0.68226345463E+03  0.93902140796E+03  0.00000000000E+00 0.  1.
        -13    1    5    5    0    0 -0.43013977104E+03 -0.86366169490E+03  0.88794216930E+03  0.13112486575E+04  0.00000000000E+00 0. -1.
          5    1    6    6  503    0  0.30487615506E+02 -0.37068702901E+02 -0.92940136099E+01  0.49112647282E+02  0.47000000000E+01 0. -1.
         -5    1    6    6    0  503  0.25157791617E+02  0.21114070444E+01  0.73805041104E+02  0.78145035742E+02  0.47000000000E+01 0.  1.
<mgrwt>
<rscale>  0 0.16514698E+04</rscale>
<asrwt>0</asrwt>
<pdfrwt beam="1">  1        2 0.38404942E+00 0.16514698E+04</pdfrwt>
<pdfrwt beam="2">  1       -2 0.35621600E+00 0.16514698E+04</pdfrwt>
<totfact> 0.45769578E-02</totfact>
</mgrwt>
</event>
<event>
12    1  0.3127365E-008  0.1174735E+04  0.7818608E-02  0.9135263E-01
          1   -1    0    0  501    0  0.00000000000E+00  0.00000000000E+00  0.19288744011E+04  0.19288744011E+04  0.00000000000E+00 0. -1.
         -1   -1    0    0    0  501 -0.00000000000E+00 -0.00000000000E+00 -0.11015574537E+04  0.11015574537E+04  0.00000000000E+00 0.  1.
         23    2    1    2    0    0 -0.16004418175E+03  0.11376251040E+04 -0.42483451010E+03  0.12283200303E+04  0.92090816688E+02 0.  0.
    5000000    2    1    2    0    0  0.16004418175E+03 -0.11376251040E+04  0.12521514575E+04  0.18021118245E+04  0.59993227798E+03 0.  0.
         23    2    4    4    0    0 -0.60913056543E+02 -0.13593666042E+03 -0.60411677711E+01  0.17626467822E+03  0.94040230617E+02 0.  0.
         23    2    4    4    0    0  0.22095723830E+03 -0.10016884436E+04  0.12581926253E+04  0.16258471463E+04  0.90157759925E+02 0.  0.
          3    1    3    3  502    0 -0.12212590793E+03  0.53803044617E+03 -0.20488304612E+03  0.58853084964E+03  0.00000000000E+00 0. -1.
         -3    1    3    3    0  502 -0.37918273818E+02  0.59959465781E+03 -0.21995146398E+03  0.63978918064E+03  0.00000000000E+00 0.  1.
         11    1    5    5    0    0 -0.58455653931E+02 -0.37729342175E+02  0.23900628264E+02  0.73564983306E+02  0.00000000000E+00 0. -1.
        -11    1    5    5    0    0 -0.24574026128E+01 -0.98207318246E+02 -0.29941796035E+02  0.10269969491E+03  0.00000000000E+00 0.  1.
          5    1    6    6  503    0  0.16996515976E+03 -0.89245373256E+03  0.11276518917E+04  0.14480962327E+04  0.47000000000E+01 0. -1.
         -5    1    6    6    0  503  0.50992078536E+02 -0.10923471100E+03  0.13054073361E+03  0.17775091362E+03  0.47000000000E+01 0.  1.
<mgrwt>
<rscale>  0 0.11747350E+04</rscale>
<asrwt>0</asrwt>
<pdfrwt beam="1">  1        1 0.29674991E+00 0.11747350E+04</pdfrwt>
<pdfrwt beam="2">  1       -1 0.16947038E+00 0.11747350E+04</pdfrwt>
<totfact> 0.81451462E-01</totfact>
</mgrwt>
</event>
<event>
12    1  0.3127365E-008  0.6034765E+03  0.7818608E-02  0.9898220E-01
          1   -1    0    0  501    0  0.00000000000E+00  0.00000000000E+00  0.11151368325E+04  0.11151368325E+04  0.00000000000E+00 0. -1.
         -1   -1    0    0    0  501 -0.00000000000E+00 -0.00000000000E+00 -0.64711212462E+03  0.64711212462E+03  0.00000000000E+00 0.  1.
         23    2    1    2    0    0 -0.48809607448E+03  0.76694080704E+02  0.77754756024E+03  0.92565488623E+03  0.90205321472E+02 0.  0.
    5000000    2    1    2    0    0  0.48809607448E+03 -0.76694080704E+02 -0.30952285233E+03  0.83659407093E+03  0.59997123553E+03 0.  0.
         23    2    4    4    0    0  0.38118145161E+03  0.17706855131E+03 -0.33526346976E+03  0.54518226353E+03  0.90385482216E+02 0.  0.
         23    2    4    4    0    0  0.10691462287E+03 -0.25376263202E+03  0.25740617431E+02  0.29141180740E+03  0.91826206023E+02 0.  0.
          1    1    3    3  502    0 -0.22126809402E+03  0.37314411152E+00  0.29167342189E+03  0.36610530412E+03  0.00000000000E+00 0. -1.
         -1    1    3    3    0  502 -0.26682798047E+03  0.76320936593E+02  0.48587413835E+03  0.55954958211E+03  0.00000000000E+00 0.  1.
         13    1    5    5    0    0  0.19478484591E+03  0.46789448290E+02 -0.12981478628E+03  0.23870958800E+03  0.00000000000E+00 0. -1.
        -13    1    5    5    0    0  0.18639660570E+03  0.13027910302E+03 -0.20544868348E+03  0.30647267553E+03  0.00000000000E+00 0.  1.
          5    1    6    6  503    0  0.34053932468E+02 -0.14774468104E+03 -0.23671787068E+02  0.15352721125E+03  0.47000000000E+01 0. -1.
         -5    1    6    6    0  503  0.72860690403E+02 -0.10601795098E+03  0.49412404498E+02  0.13788459614E+03  0.47000000000E+01 0.  1.
<mgrwt>
<rscale>  0 0.60347646E+03</rscale>
<asrwt>0</asrwt>
<pdfrwt beam="1">  1        1 0.17155951E+00 0.60347646E+03</pdfrwt>
<pdfrwt beam="2">  1       -1 0.99555712E-01 0.60347646E+03</pdfrwt>
<totfact> 0.12556896E+01</totfact>
</mgrwt>
</event>
<event>
12    1  0.3127365E-008  0.8438251E+03  0.7818608E-02  0.9498662E-01
         -2   -1    0    0    0  501 -0.00000000000E+00  0.00000000000E+00  0.52446593788E+03  0.52446593788E+03  0.00000000000E+00 0.  1.
          2   -1    0    0  501    0  0.00000000000E+00 -0.00000000000E+00 -0.16622554153E+04  0.16622554153E+04  0.00000000000E+00 0. -1.
         23    2    1    2    0    0  0.57340572040E+03 -0.48250192175E+03 -0.94163392202E+03  0.12069033900E+04  0.91318809673E+02 0.  0.
    5000000    2    1    2    0    0 -0.57340572040E+03  0.48250192175E+03 -0.19615555538E+03  0.97981796316E+03  0.59997001120E+03 0.  0.
         23    2    4    4    0    0  0.30001169610E+02 -0.83281912021E+02 -0.81592152159E+01  0.12616378492E+03  0.89525308063E+02 0.  0.
         23    2    4    4    0    0 -0.60340689001E+03  0.56578383377E+03 -0.18799634016E+03  0.85365417824E+03  0.95768526402E+02 0.  0.
          4    1    3    3  502    0  0.33373877236E+03 -0.27010743564E+03 -0.46735390400E+03  0.63463317479E+03  0.00000000000E+00 0.  1.
         -4    1    3    3    0  502  0.23966694804E+03 -0.21239448611E+03 -0.47428001802E+03  0.57227021520E+03  0.00000000000E+00 0. -1.
         11    1    5    5    0    0 -0.10706352146E+01 -0.78184489355E+02 -0.34160949160E+02  0.85328372087E+02  0.00000000000E+00 0.  1.
        -11    1    5    5    0    0  0.31071804824E+02 -0.50974226665E+01  0.26001733945E+02  0.40835412830E+02  0.00000000000E+00 0. -1.
          5    1    6    6  503    0 -0.29150563366E+03  0.30339399346E+03 -0.52110527379E+02  0.42398236612E+03  0.47000000000E+01 0. -1.
         -5    1    6    6    0  503 -0.31190125635E+03  0.26238984031E+03 -0.13588581278E+03  0.42967181212E+03  0.47000000000E+01 0.  1.
<mgrwt>
<rscale>  0 0.84382506E+03</rscale>
<asrwt>0</asrwt>
<pdfrwt beam="1">  1        2 0.25573160E+00 0.84382506E+03</pdfrwt>
<pdfrwt beam="2">  1       -2 0.80687067E-01 0.84382506E+03</pdfrwt>
<totfact> 0.14171793E+01</totfact>
</mgrwt>
</event>
<event>
12    1  0.3127365E-008  0.7703823E+03  0.7818608E-02  0.9603905E-01
          1   -1    0    0  501    0  0.00000000000E+00  0.00000000000E+00  0.31166220678E+04  0.31166220678E+04  0.00000000000E+00 0. -1.
         -1   -1    0    0    0  501 -0.00000000000E+00 -0.00000000000E+00 -0.38550991851E+03  0.38550991851E+03  0.00000000000E+00 0.  1.
         23    2    1    2    0    0  0.64662921667E+03 -0.13922924588E+03  0.24880382022E+04  0.25762559312E+04  0.96158206470E+02 0.  0.
    5000000    2    1    2    0    0 -0.64662921667E+03  0.13922924588E+03  0.24307394711E+03  0.92587605512E+03  0.60053925677E+03 0.  0.
         23    2    4    4    0    0  0.75328466909E+02 -0.41264825588E+02  0.98366943209E+02  0.16238426129E+03  0.96516470301E+02 0.  0.
         23    2    4    4    0    0 -0.72195768358E+03  0.18049407147E+03  0.14470700390E+03  0.76349179383E+03  0.90435587889E+02 0.  0.
          2    1    3    3  502    0  0.39940640735E+03 -0.13152730047E+03  0.15154332891E+04  0.15726929016E+04  0.00000000000E+00 0. -1.
         -2    1    3    3    0  502  0.24722280932E+03 -0.77019454159E+01  0.97260491307E+03  0.10035630296E+04  0.00000000000E+00 0.  1.
         13    1    5    5    0    0  0.58530082158E+02 -0.69398958147E+02  0.91517112171E+02  0.12890836951E+03  0.00000000000E+00 0. -1.
        -13    1    5    5    0    0  0.16798384751E+02  0.28134132558E+02  0.68498310382E+01  0.33475891777E+02  0.00000000000E+00 0.  1.
          5    1    6    6  503    0 -0.50342763682E+03  0.83907729612E+02  0.10843035678E+03  0.52178455791E+03  0.47000000000E+01 0. -1.
         -5    1    6    6    0  503 -0.21853004676E+03  0.96586341861E+02  0.36276647112E+02  0.24170723592E+03  0.47000000000E+01 0.  1.
<mgrwt>
<rscale>  0 0.77038233E+03</rscale>
<asrwt>0</asrwt>
<pdfrwt beam="1">  1        1 0.47948030E+00 0.77038233E+03</pdfrwt>
<pdfrwt beam="2">  1       -1 0.59309220E-01 0.77038233E+03</pdfrwt>
<totfact> 0.15189497E+00</totfact>
</mgrwt>
</event>
<event>
12    1  0.3127365E-008  0.1408845E+04  0.7818608E-02  0.8947441E-01
         -1   -1    0    0    0  501 -0.00000000000E+00  0.00000000000E+00  0.12010690400E+04  0.12010690400E+04  0.00000000000E+00 0.  1.
          1   -1    0    0  501    0  0.00000000000E+00 -0.00000000000E+00 -0.17300131438E+04  0.17300131438E+04  0.00000000000E+00 0. -1.
         23    2    1    2    0    0 -0.12952755098E+04 -0.45019871403E+03 -0.38667481259E+03  0.14275730712E+04  0.89609901615E+02 0.  0.
    5000000    2    1    2    0    0  0.12952755098E+04  0.45019871403E+03 -0.14226929118E+03  0.15035091126E+04  0.59990130182E+03 0.  0.
         23    2    4    4    0    0  0.13201861945E+04  0.39353674596E+03 -0.92583355072E+02  0.13837138657E+04  0.91266784810E+02 0.  0.
         23    2    4    4    0    0 -0.24910684634E+02  0.56661968068E+02 -0.49685936106E+02  0.11979524688E+03  0.89727855736E+02 0.  0.
          2    1    3    3  502    0 -0.10727630480E+04 -0.40483407869E+03 -0.30821122634E+03  0.11873101316E+04  0.00000000000E+00 0. -1.
         -2    1    3    3    0  502 -0.22251246182E+03 -0.45364635341E+02 -0.78463586257E+02  0.24026293966E+03  0.00000000000E+00 0.  1.
         13    1    5    5    0    0  0.51356370043E+03  0.15906384950E+03  0.80800428696E+01  0.53769347189E+03  0.00000000000E+00 0.  1.
        -13    1    5    5    0    0  0.80662249405E+03  0.23447289646E+03 -0.10066339794E+03  0.84602039382E+03  0.00000000000E+00 0. -1.
          5    1    6    6  503    0 -0.97580180407E+00  0.29311428646E+02 -0.71306813254E+02  0.77245476598E+02  0.47000000000E+01 0. -1.
         -5    1    6    6    0  503 -0.23934882830E+02  0.27350539423E+02  0.21620877147E+02  0.42549770286E+02  0.47000000000E+01 0.  1.
<mgrwt>
<rscale>  0 0.14088453E+04</rscale>
<asrwt>0</asrwt>
<pdfrwt beam="1">  1        1 0.26615587E+00 0.14088453E+04</pdfrwt>
<pdfrwt beam="2">  1       -1 0.18477985E+00 0.14088453E+04</pdfrwt>
<totfact> 0.83663206E-01</totfact>
</mgrwt>
</event>
<event>
12    1  0.3127365E-008  0.8942894E+03  0.7818608E-02  0.9432748E-01
         -2   -1    0    0    0  501 -0.00000000000E+00  0.00000000000E+00  0.24524206752E+04  0.24524206752E+04  0.00000000000E+00 0.  1.
          2   -1    0    0  501    0  0.00000000000E+00 -0.00000000000E+00 -0.34078131486E+03  0.34078131486E+03  0.00000000000E+00 0. -1.
         23    2    1    2    0    0  0.79737614767E+03 -0.10282915439E+03  0.76088928268E+03  0.11107069241E+04  0.91295206841E+02 0.  0.
    5000000    2    1    2    0    0 -0.79737614767E+03  0.10282915439E+03  0.13507500776E+04  0.16824950659E+04  0.59990109094E+03 0.  0.
         23    2    4    4    0    0 -0.10790599448E+03 -0.19358359694E+03  0.24876638399E+03  0.34600296157E+03  0.93354287313E+02 0.  0.
         23    2    4    4    0    0 -0.68947015319E+03  0.29641275134E+03  0.11019836936E+04  0.13364921044E+04  0.92808796891E+02 0.  0.
          4    1    3    3  502    0  0.46333423048E+03 -0.80707566069E+02  0.49864075734E+03  0.68544505632E+03  0.00000000000E+00 0. -1.
         -4    1    3    3    0  502  0.33404191719E+03 -0.22121588324E+02  0.26224852534E+03  0.42526186774E+03  0.00000000000E+00 0.  1.
         11    1    5    5    0    0 -0.83716919051E+02 -0.77403946714E+02  0.78365646816E+02  0.13835124901E+03  0.00000000000E+00 0. -1.
        -11    1    5    5    0    0 -0.24189075428E+02 -0.11617965023E+03  0.17040073718E+03  0.20765171256E+03  0.00000000000E+00 0.  1.
          5    1    6    6  503    0 -0.47499464348E+02  0.17318346694E+02  0.40443674244E+02  0.64914597988E+02  0.47000000000E+01 0. -1.
         -5    1    6    6    0  503 -0.64197068884E+03  0.27909440464E+03  0.10615400194E+04  0.12715775064E+04  0.47000000000E+01 0.  1.
<mgrwt>
<rscale>  0 0.89428942E+03</rscale>
<asrwt>0</asrwt>
<pdfrwt beam="1">  1        2 0.52427896E-01 0.89428942E+03</pdfrwt>
<pdfrwt beam="2">  1       -2 0.37729548E+00 0.89428942E+03</pdfrwt>
<totfact> 0.10268315E+00</totfact>
</mgrwt>
</event>
<event>
12    1  0.3127365E-008  0.5577957E+03  0.7818608E-02  0.9997055E-01
          3   -1    0    0  501    0  0.00000000000E+00  0.00000000000E+00  0.41994231711E+03  0.41994231711E+03  0.00000000000E+00 0. -1.
         -3   -1    0    0    0  501 -0.00000000000E+00 -0.00000000000E+00 -0.92440024515E+03  0.92440024515E+03  0.00000000000E+00 0.  1.
         23    2    1    2    0    0  0.36102253476E+03 -0.25058025299E+03 -0.38310500840E+03  0.59078656367E+03  0.95559314341E+02 0.  0.
    5000000    2    1    2    0    0 -0.36102253476E+03  0.25058025299E+03 -0.12135291964E+03  0.75355599860E+03  0.59999364841E+03 0.  0.
         23    2    4    4    0    0 -0.47410253645E+03  0.19455195103E+03 -0.22324974176E+03  0.56630349802E+03  0.90749809688E+02 0.  0.
         23    2    4    4    0    0  0.11308000169E+03  0.56028301957E+02  0.10189682212E+03  0.18725250058E+03  0.93564305223E+02 0.  0.
          1    1    3    3  502    0 -0.55741974876E+01 -0.20835550308E+01 -0.10251295859E+02  0.11853351677E+02  0.00000000000E+00 0. -1.
         -1    1    3    3    0  502  0.36659673224E+03 -0.24849669796E+03 -0.37285371254E+03  0.57893321199E+03  0.00000000000E+00 0.  1.
         11    1    5    5    0    0 -0.18150699388E+03  0.10303863913E+03 -0.51802080603E+02  0.21504698449E+03  0.00000000000E+00 0. -1.
        -11    1    5    5    0    0 -0.29259554256E+03  0.91513311904E+02 -0.17144766115E+03  0.35125651353E+03  0.00000000000E+00 0.  1.
          5    1    6    6  503    0  0.73760945430E+02 -0.98948012413E+01  0.75052925239E+02  0.10579988539E+03  0.47000000000E+01 0. -1.
         -5    1    6    6    0  503  0.39319056262E+02  0.65923103199E+02  0.26843896880E+02  0.81452615184E+02  0.47000000000E+01 0.  1.
<mgrwt>
<rscale>  0 0.55779568E+03</rscale>
<asrwt>0</asrwt>
<pdfrwt beam="1">  1        3 0.64606511E-01 0.55779568E+03</pdfrwt>
<pdfrwt beam="2">  1       -3 0.14221542E+00 0.55779568E+03</pdfrwt>
<totfact> 0.22490243E+00</totfact>
</mgrwt>
</event>
<event>
12    1  0.3127365E-008  0.5192037E+03  0.7818608E-02  0.1008885E+00
          2   -1    0    0  501    0  0.00000000000E+00  0.00000000000E+00  0.13573385558E+04  0.13573385558E+04  0.00000000000E+00 0. -1.
         -2   -1    0    0    0  501 -0.00000000000E+00 -0.00000000000E+00 -0.26244043004E+03  0.26244043004E+03  0.00000000000E+00 0.  1.
         23    2    1    2    0    0  0.42398248510E+03  0.98532824120E+02  0.50300369069E+03  0.67135563768E+03  0.90751387310E+02 0.  0.
    5000000    2    1    2    0    0 -0.42398248510E+03 -0.98532824120E+02  0.59189443508E+03  0.94842334818E+03  0.59974824718E+03 0.  0.
         23    2    4    4    0    0  0.45997697267E+02 -0.63265247030E+02  0.42152917878E+03  0.43906045858E+03  0.94704583239E+02 0.  0.
         23    2    4    4    0    0 -0.46998018236E+03 -0.35267577090E+02  0.17036525630E+03  0.50936288960E+03  0.91110147295E+02 0.  0.
          1    1    3    3  502    0  0.28925490474E+03  0.22967140267E+02  0.32698803488E+03  0.43716937725E+03  0.00000000000E+00 0. -1.
         -1    1    3    3    0  502  0.13472758035E+03  0.75565683853E+02  0.17601565581E+03  0.23418626043E+03  0.00000000000E+00 0.  1.
         11    1    5    5    0    0  0.33271138747E+02 -0.88221689245E+02  0.30685613216E+03  0.32101514135E+03  0.00000000000E+00 0. -1.
        -11    1    5    5    0    0  0.12726558520E+02  0.24956442215E+02  0.11467304662E+03  0.11804531723E+03  0.00000000000E+00 0.  1.
          5    1    6    6  503    0 -0.79297530479E+02 -0.61003386127E+01 -0.55928714151E+01  0.79866655633E+02  0.47000000000E+01 0. -1.
         -5    1    6    6    0  503 -0.39068265188E+03 -0.29167238477E+02  0.17595812772E+03  0.42949623397E+03  0.47000000000E+01 0.  1.
<mgrwt>
<rscale>  0 0.51920367E+03</rscale>
<asrwt>0</asrwt>
<pdfrwt beam="1">  1        2 0.20882131E+00 0.51920367E+03</pdfrwt>
<pdfrwt beam="2">  1       -2 0.40375451E-01 0.51920367E+03</pdfrwt>
<totfact> 0.92656476E+01</totfact>
</mgrwt>
</event>
<event>
12    1  0.3127365E-008  0.1838493E+04  0.7818608E-02  0.8686093E-01
         -2   -1    0    0    0  501 -0.00000000000E+00  0.00000000000E+00  0.85901576731E+03  0.85901576731E+03  0.00000000000E+00 0.  1.
          2   -1    0    0  501    0  0.00000000000E+00 -0.00000000000E+00 -0.43770893874E+04  0.43770893874E+04  0.00000000000E+00 0. -1.
         23    2    1    2    0    0  0.17058604296E+04 -0.59786442566E+03 -0.24708679310E+04  0.30626048205E+04  0.83416289322E+02 0.  0.
    5000000    2    1    2    0    0 -0.17058604296E+04  0.59786442566E+03 -0.10472056891E+04  0.21735003342E+04  0.60005189029E+03 0.  0.
         23    2    4    4    0    0 -0.50628259808E+03  0.40074204723E+03 -0.56277180250E+03  0.86164577261E+03  0.93835378335E+02 0.  0.
         23    2    4    4    0    0 -0.11995778315E+04  0.19712237843E+03 -0.48443388658E+03  0.13118545616E+04  0.91880327187E+02 0.  0.
          1    1    3    3  502    0  0.12256792208E+04 -0.39329874348E+03 -0.17849161306E+04  0.22006587758E+04  0.00000000000E+00 0. -1.
         -1    1    3    3    0  502  0.48018120878E+03 -0.20456568218E+03 -0.68595180038E+03  0.86194604474E+03  0.00000000000E+00 0.  1.
         11    1    5    5    0    0 -0.23148372322E+02  0.49945707216E+02 -0.39724883849E+02  0.67885839520E+02  0.00000000000E+00 0. -1.
        -11    1    5    5    0    0 -0.48313422576E+03  0.35079634002E+03 -0.52304691865E+03  0.79375993309E+03  0.00000000000E+00 0.  1.
          5    1    6    6  503    0 -0.56976353047E+03  0.92518451364E+02 -0.18099126150E+03  0.60495460263E+03  0.47000000000E+01 0. -1.
         -5    1    6    6    0  503 -0.62981430100E+03  0.10460392706E+03 -0.30344262509E+03  0.70689995899E+03  0.47000000000E+01 0.  1.
<mgrwt>
<rscale>  0 0.18384926E+04</rscale>
<asrwt>0</asrwt>
<pdfrwt beam="1">  1        2 0.67339837E+00 0.18384926E+04</pdfrwt>
<pdfrwt beam="2">  1       -2 0.13215627E+00 0.18384926E+04</pdfrwt>
<totfact> 0.62368491E-02</totfact>
</mgrwt>
</event>
<event>
12    1  0.3127365E-008  0.4758360E+03  0.7818608E-02  0.1020286E+00
         -2   -1    0    0    0  501 -0.00000000000E+00  0.00000000000E+00  0.43064185080E+03  0.43064185080E+03  0.00000000000E+00 0.  1.
          2   -1    0    0  501    0  0.00000000000E+00 -0.00000000000E+00 -0.64986159639E+03  0.64986159639E+03  0.00000000000E+00 0. -1.
         23    2    1    2    0    0  0.29014553776E+03  0.46198385123E+02 -0.27184683679E+03  0.41040639603E+03  0.90631028660E+02 0.  0.
    5000000    2    1    2    0    0 -0.29014553776E+03 -0.46198385123E+02  0.52627091204E+02  0.67009705117E+03  0.59995143419E+03 0.  0.
         23    2    4    4    0    0 -0.35310649390E+03 -0.24381528558E+03  0.53666036652E+02  0.44179467192E+03  0.90401322635E+02 0.  0.
         23    2    4    4    0    0  0.62960956142E+02  0.19761690045E+03 -0.10389454471E+01  0.22830237924E+03  0.95416851854E+02 0.  0.
          3    1    3    3  502    0  0.63555157142E+02 -0.22217408490E+02 -0.36334937549E+02  0.76505548335E+02  0.00000000000E+00 0. -1.
         -3    1    3    3    0  502  0.22659038062E+03  0.68415793614E+02 -0.23551189924E+03  0.33390084769E+03  0.00000000000E+00 0.  1.
         13    1    5    5    0    0 -0.31782209175E+03 -0.22302412379E+03  0.75264679020E+02  0.39549388580E+03  0.00000000000E+00 0. -1.
        -13    1    5    5    0    0 -0.35284402157E+02 -0.20791161787E+02 -0.21598642368E+02  0.46300786129E+02  0.00000000000E+00 0.  1.
          5    1    6    6  503    0  0.57713419789E+02  0.71000383685E+02 -0.33245694287E+02  0.97464144667E+02  0.47000000000E+01 0. -1.
         -5    1    6    6    0  503  0.52475363536E+01  0.12661651677E+03  0.32206748840E+02  0.13083823458E+03  0.47000000000E+01 0.  1.
<mgrwt>
<rscale>  0 0.47583597E+03</rscale>
<asrwt>0</asrwt>
<pdfrwt beam="1">  1        2 0.99978706E-01 0.47583597E+03</pdfrwt>
<pdfrwt beam="2">  1       -2 0.66252593E-01 0.47583597E+03</pdfrwt>
<totfact> 0.97299303E+01</totfact>
</mgrwt>
</event>
<event>
12    1  0.3127365E-008  0.9155307E+03  0.7818608E-02  0.9406373E-01
         -1   -1    0    0    0  501 -0.00000000000E+00  0.00000000000E+00  0.13972400959E+04  0.13972400959E+04  0.00000000000E+00 0.  1.
          1   -1    0    0  501    0  0.00000000000E+00 -0.00000000000E+00 -0.78473635562E+03  0.78473635562E+03  0.00000000000E+00 0. -1.
         23    2    1    2    0    0  0.73513123051E+03 -0.43486603955E+03 -0.17234074045E+03  0.87591252891E+03  0.89414926375E+02 0.  0.
    5000000    2    1    2    0    0 -0.73513123051E+03  0.43486603955E+03  0.78484448072E+03  0.13060639226E+04  0.60024637656E+03 0.  0.
         23    2    4    4    0    0 -0.51247290169E+03  0.50873751488E+03  0.76653492716E+03  0.10570405046E+04  0.91194844913E+02 0.  0.
         23    2    4    4    0    0 -0.22265832883E+03 -0.73871475323E+02  0.18309553560E+02  0.24902341803E+03  0.81508875073E+02 0.  0.
          2    1    3    3  502    0  0.24158368021E+03 -0.19254351069E+03 -0.65919170749E+02  0.31588133077E+03  0.00000000000E+00 0. -1.
         -2    1    3    3    0  502  0.49354755030E+03 -0.24232252886E+03 -0.10642156970E+03  0.56003119815E+03  0.00000000000E+00 0.  1.
         13    1    5    5    0    0 -0.10589402991E+03  0.13620882880E+03  0.23132457235E+03  0.28857832279E+03  0.00000000000E+00 0. -1.
        -13    1    5    5    0    0 -0.40657887177E+03  0.37252868607E+03  0.53521035482E+03  0.76846218178E+03  0.00000000000E+00 0.  1.
          5    1    6    6  503    0 -0.55364136966E+01 -0.24598661762E+02  0.12513535588E+01  0.25678822458E+02  0.47000000000E+01 0. -1.
         -5    1    6    6    0  503 -0.21712191513E+03 -0.49272813561E+02  0.17058200001E+02  0.22334459557E+03  0.47000000000E+01 0.  1.
<mgrwt>
<rscale>  0 0.91553070E+03</rscale>
<asrwt>0</asrwt>
<pdfrwt beam="1">  1        1 0.12072867E+00 0.91553070E+03</pdfrwt>
<pdfrwt beam="2">  1       -1 0.21496001E+00 0.91553070E+03</pdfrwt>
<totfact> 0.27563319E+00</totfact>
</mgrwt>
</event>
<event>
12    1  0.3127365E-008  0.2183248E+04  0.7818608E-02  0.8525433E-01
          1   -1    0    0  501    0  0.00000000000E+00  0.00000000000E+00  0.24430315345E+04  0.24430315345E+04  0.00000000000E+00 0. -1.
         -1   -1    0    0    0  501 -0.00000000000E+00 -0.00000000000E+00 -0.20568419162E+04  0.20568419162E+04  0.00000000000E+00 0.  1.
         23    2    1    2    0    0  0.20240870280E+04 -0.81555203083E+03 -0.94690901261E+02  0.21861470326E+04  0.90659084407E+02 0.  0.
    5000000    2    1    2    0    0 -0.20240870280E+04  0.81555203083E+03  0.48088051958E+03  0.23137264181E+04  0.60002537606E+03 0.  0.
         23    2    4    4    0    0 -0.90541270488E+03  0.36263427952E+03  0.50504236551E+03  0.11022477764E+04  0.92771670674E+02 0.  0.
         23    2    4    4    0    0 -0.11186743231E+04  0.45291775130E+03 -0.24161845929E+02  0.12114786417E+04  0.10261566054E+03 0.  0.
          2    1    3    3  502    0  0.16806427437E+04 -0.64638196074E+03 -0.97385842267E+02  0.18032896810E+04  0.00000000000E+00 0. -1.
         -2    1    3    3    0  502  0.34344428426E+03 -0.16917007009E+03  0.26949410059E+01  0.38285735165E+03  0.00000000000E+00 0.  1.
         11    1    5    5    0    0 -0.31149714744E+03  0.11742347227E+03  0.12414654062E+03  0.35529017472E+03  0.00000000000E+00 0. -1.
        -11    1    5    5    0    0 -0.59391555743E+03  0.24521080725E+03  0.38089582488E+03  0.74695760172E+03  0.00000000000E+00 0.  1.
          5    1    6    6  503    0 -0.69594015876E+02  0.19251800981E+02  0.21137266109E+02  0.75384566758E+02  0.47000000000E+01 0. -1.
         -5    1    6    6    0  503 -0.10490803073E+04  0.43366595032E+03 -0.45299112038E+02  0.11360940749E+04  0.47000000000E+01 0.  1.
<mgrwt>
<rscale>  0 0.21832483E+04</rscale>
<asrwt>0</asrwt>
<pdfrwt beam="1">  1        1 0.37585101E+00 0.21832483E+04</pdfrwt>
<pdfrwt beam="2">  1       -1 0.31643722E+00 0.21832483E+04</pdfrwt>
<totfact> 0.33372239E-02</totfact>
</mgrwt>
</event>
<event>
12    1  0.3127365E-008  0.1241699E+04  0.7818608E-02  0.9077120E-01
          2   -1    0    0  501    0  0.00000000000E+00  0.00000000000E+00  0.27344910224E+04  0.27344910224E+04  0.00000000000E+00 0.  1.
         -2   -1    0    0    0  501 -0.00000000000E+00 -0.00000000000E+00 -0.15291998354E+04  0.15291998354E+04  0.00000000000E+00 0. -1.
         23    2    1    2    0    0 -0.49296068850E+03  0.11109410842E+04 -0.10656726083E+04  0.16190301321E+04  0.91652210102E+02 0.  0.
    5000000    2    1    2    0    0  0.49296068850E+03 -0.11109410842E+04  0.22709637953E+04  0.26446607257E+04  0.59979451585E+03 0.  0.
         23    2    4    4    0    0 -0.11073498573E+02 -0.50905879408E+02  0.54775569853E+03  0.55769521366E+03  0.90959414771E+02 0.  0.
         23    2    4    4    0    0  0.50403418707E+03 -0.10600352048E+04  0.17232080968E+04  0.20869655120E+04  0.90850461403E+02 0.  0.
          3    1    3    3  502    0 -0.27308994568E+03  0.71227864934E+03 -0.63989072276E+03  0.99568023472E+03  0.00000000000E+00 0. -1.
         -3    1    3    3    0  502 -0.21987074282E+03  0.39866243484E+03 -0.42578188554E+03  0.62334989737E+03  0.00000000000E+00 0.  1.
         13    1    5    5    0    0 -0.35876157186E+02 -0.54226262867E+02  0.49560106177E+03  0.49984797555E+03  0.00000000000E+00 0. -1.
        -13    1    5    5    0    0  0.24802658613E+02  0.33203834584E+01  0.52154636766E+02  0.57847238109E+02  0.00000000000E+00 0.  1.
          5    1    6    6  503    0  0.32182529134E+03 -0.73956178464E+03  0.12384013739E+04  0.14778982388E+04  0.47000000000E+01 0. -1.
         -5    1    6    6    0  503  0.18220889573E+03 -0.32047342013E+03  0.48480672296E+03  0.60906727323E+03  0.47000000000E+01 0.  1.
<mgrwt>
<rscale>  0 0.12416995E+04</rscale>
<asrwt>0</asrwt>
<pdfrwt beam="1">  1        2 0.42069093E+00 0.12416995E+04</pdfrwt>
<pdfrwt beam="2">  1       -2 0.23526151E+00 0.12416995E+04</pdfrwt>
<totfact> 0.19536647E-01</totfact>
</mgrwt>
</event>
<event>
12    1  0.3127365E-008  0.1224969E+04  0.7818608E-02  0.9091278E-01
          1   -1    0    0  501    0  0.00000000000E+00  0.00000000000E+00  0.13122798388E+04  0.13122798388E+04  0.00000000000E+00 0. -1.
         -1   -1    0    0    0  501 -0.00000000000E+00 -0.00000000000E+00 -0.13829863331E+04  0.13829863331E+04  0.00000000000E+00 0.  1.
         23    2    1    2    0    0 -0.74723518141E+03 -0.96371276317E+03  0.35123772481E+03  0.12722110547E+04  0.89723587171E+02 0.  0.
    5000000    2    1    2    0    0  0.74723518141E+03  0.96371276317E+03 -0.42194421907E+03  0.14230551173E+04  0.59995519545E+03 0.  0.
         23    2    4    4    0    0  0.24420092114E+03  0.38608987125E+03  0.11856856560E+03  0.48133363038E+03  0.94467351110E+02 0.  0.
         23    2    4    4    0    0  0.50303426027E+03  0.57762289193E+03 -0.54051278467E+03  0.94172148689E+03  0.89407025440E+02 0.  0.
          2    1    3    3  502    0 -0.95953980067E+02 -0.14248929970E+03  0.80314597701E+02  0.18963333416E+03  0.00000000000E+00 0. -1.
         -2    1    3    3    0  502 -0.65128120134E+03 -0.82122346347E+03  0.27092312710E+03  0.10825777205E+04  0.00000000000E+00 0.  1.
         11    1    5    5    0    0  0.57502855422E+02  0.12974320053E+03 -0.23527453943E+01  0.14193453377E+03  0.00000000000E+00 0.  1.
        -11    1    5    5    0    0  0.18669806572E+03  0.25634667071E+03  0.12092131099E+03  0.33939909661E+03  0.00000000000E+00 0. -1.
          5    1    6    6  503    0  0.36495987608E+03  0.35622937003E+03 -0.34793016782E+03  0.61739174508E+03  0.47000000000E+01 0. -1.
         -5    1    6    6    0  503  0.13807438420E+03  0.22139352190E+03 -0.19258261685E+03  0.32432974181E+03  0.47000000000E+01 0.  1.
<mgrwt>
<rscale>  0 0.12249687E+04</rscale>
<asrwt>0</asrwt>
<pdfrwt beam="1">  1        1 0.20188920E+00 0.12249687E+04</pdfrwt>
<pdfrwt beam="2">  1       -1 0.21276713E+00 0.12249687E+04</pdfrwt>
<totfact> 0.10663428E+00</totfact>
</mgrwt>
</event>
<event>
12    1  0.3127365E-008  0.1678865E+04  0.7818608E-02  0.8773511E-01
         -2   -1    0    0    0  501 -0.00000000000E+00  0.00000000000E+00  0.13811096960E+04  0.13811096960E+04  0.00000000000E+00 0.  1.
          2   -1    0    0  501    0  0.00000000000E+00 -0.00000000000E+00 -0.26343562403E+04  0.26343562403E+04  0.00000000000E+00 0. -1.
         23    2    1    2    0    0  0.16667427239E+04  0.13957586828E+03  0.24233801292E+03  0.16928762467E+04  0.97926213544E+02 0.  0.
    5000000    2    1    2    0    0 -0.16667427239E+04 -0.13957586828E+03 -0.14955845572E+04  0.23225896896E+04  0.60011412873E+03 0.  0.
         23    2    4    4    0    0 -0.58477934269E+03  0.11322358351E+02 -0.19925485782E+03  0.62478265481E+03  0.92497524046E+02 0.  0.
         23    2    4    4    0    0 -0.10819633812E+04 -0.15089822664E+03 -0.12963296994E+04  0.16978070347E+04  0.93075262806E+02 0.  0.
          1    1    3    3  502    0  0.11671299769E+04  0.13164968424E+03  0.19966700320E+03  0.11913819431E+04  0.00000000000E+00 0. -1.
         -1    1    3    3    0  502  0.49961274705E+03  0.79261840454E+01  0.42671009722E+02  0.50149430353E+03  0.00000000000E+00 0.  1.
         11    1    5    5    0    0 -0.24107151166E+03  0.44430295634E+02 -0.10632439580E+03  0.26719730921E+03  0.00000000000E+00 0. -1.
        -11    1    5    5    0    0 -0.34370783103E+03 -0.33107937283E+02 -0.92930462018E+02  0.35758534561E+03  0.00000000000E+00 0.  1.
          5    1    6    6  503    0 -0.70519163710E+02 -0.18105437213E+02 -0.12304857770E+03  0.14305174512E+03  0.47000000000E+01 0. -1.
         -5    1    6    6    0  503 -0.10114442175E+04 -0.13279278942E+03 -0.11732811217E+04  0.15547552896E+04  0.47000000000E+01 0.  1.
<mgrwt>
<rscale>  0 0.16788651E+04</rscale>
<asrwt>0</asrwt>
<pdfrwt beam="1">  1        2 0.40528557E+00 0.16788651E+04</pdfrwt>
<pdfrwt beam="2">  1       -2 0.21247842E+00 0.16788651E+04</pdfrwt>
<totfact> 0.29532224E-01</totfact>
</mgrwt>
</event>
<event>
12    1  0.3127365E-008  0.1007796E+04  0.7818608E-02  0.9300035E-01
          2   -1    0    0  501    0  0.00000000000E+00  0.00000000000E+00  0.21406132767E+04  0.21406132767E+04  0.00000000000E+00 0.  1.
         -2   -1    0    0    0  501 -0.00000000000E+00 -0.00000000000E+00 -0.53179436456E+03  0.53179436456E+03  0.00000000000E+00 0. -1.
         23    2    1    2    0    0  0.95125204288E+03  0.33289266209E+02  0.45090603274E+03  0.10579085238E+04  0.99325576261E+02 0.  0.
    5000000    2    1    2    0    0 -0.95125204288E+03 -0.33289266209E+02  0.11579128794E+04  0.16144991174E+04  0.59988043769E+03 0.  0.
         23    2    4    4    0    0 -0.59040428823E+03 -0.24436100532E+03  0.92291826520E+03  0.11262356476E+04  0.91318592310E+02 0.  0.
         23    2    4    4    0    0 -0.36084775465E+03  0.21107173912E+03  0.23499461419E+03  0.48826346977E+03  0.91740754943E+02 0.  0.
          1    1    3    3  502    0  0.80652198882E+03  0.51689270735E+02  0.41085852415E+03  0.90661691249E+03  0.00000000000E+00 0. -1.
         -1    1    3    3    0  502  0.14473005406E+03 -0.18400004526E+02  0.40047508588E+02  0.15129161133E+03  0.00000000000E+00 0.  1.
         13    1    5    5    0    0 -0.14306326449E+03 -0.47436765423E+02  0.28715982388E+03  0.32431174633E+03  0.00000000000E+00 0.  1.
        -13    1    5    5    0    0 -0.44734102374E+03 -0.19692423990E+03  0.63575844132E+03  0.80192390131E+03  0.00000000000E+00 0. -1.
          5    1    6    6  503    0 -0.96967423246E+02  0.87166258921E+02  0.36267941618E+02  0.13541820946E+03  0.47000000000E+01 0. -1.
         -5    1    6    6    0  503 -0.26388033141E+03  0.12390548019E+03  0.19872667257E+03  0.35284526030E+03  0.47000000000E+01 0.  1.
<mgrwt>
<rscale>  0 0.10077965E+04</rscale>
<asrwt>0</asrwt>
<pdfrwt beam="1">  1        2 0.32932511E+00 0.10077965E+04</pdfrwt>
<pdfrwt beam="2">  1       -2 0.81814519E-01 0.10077965E+04</pdfrwt>
<totfact> 0.73497940E+00</totfact>
</mgrwt>
</event>
<event>
12    1  0.3127365E-008  0.2051546E+04  0.7818608E-02  0.8582893E-01
         -2   -1    0    0    0  501 -0.00000000000E+00  0.00000000000E+00  0.15068283007E+04  0.15068283007E+04  0.00000000000E+00 0. -1.
          2   -1    0    0  501    0  0.00000000000E+00 -0.00000000000E+00 -0.35841580665E+04  0.35841580665E+04  0.00000000000E+00 0.  1.
         23    2    1    2    0    0 -0.26372805279E+03  0.19970263916E+04  0.15805772704E+03  0.20226537204E+04  0.92081121705E+02 0.  0.
    5000000    2    1    2    0    0  0.26372805279E+03 -0.19970263916E+04 -0.22353874929E+04  0.30683326468E+04  0.60003424344E+03 0.  0.
         23    2    4    4    0    0  0.38192538236E+03 -0.85596993966E+03 -0.86342172811E+03  0.12777939472E+04  0.93320713755E+02 0.  0.
         23    2    4    4    0    0 -0.11819732957E+03 -0.11410564520E+04 -0.13719657647E+04  0.17905386996E+04  0.88081438128E+02 0.  0.
          4    1    3    3  502    0 -0.99125285408E+02  0.10156580572E+04  0.49679180167E+02  0.10216922885E+04  0.00000000000E+00 0.  1.
         -4    1    3    3    0  502 -0.16460276738E+03  0.98136833441E+03  0.10837854687E+03  0.10009614319E+04  0.00000000000E+00 0. -1.
         13    1    5    5    0    0  0.20871111529E+03 -0.42497441487E+03 -0.49450878611E+03  0.68461852333E+03  0.00000000000E+00 0. -1.
        -13    1    5    5    0    0  0.17321426707E+03 -0.43099552478E+03 -0.36891294200E+03  0.59317542387E+03  0.00000000000E+00 0.  1.
          5    1    6    6  503    0 -0.10852603588E+03 -0.69939999267E+03 -0.88012326741E+03  0.11294145855E+04  0.47000000000E+01 0. -1.
         -5    1    6    6    0  503 -0.96712936896E+01 -0.44165645931E+03 -0.49184249734E+03  0.66112411404E+03  0.47000000000E+01 0.  1.
<mgrwt>
<rscale>  0 0.20515463E+04</rscale>
<asrwt>0</asrwt>
<pdfrwt beam="1">  1        2 0.55140893E+00 0.20515463E+04</pdfrwt>
<pdfrwt beam="2">  1       -2 0.23181974E+00 0.20515463E+04</pdfrwt>
<totfact> 0.52267264E-02</totfact>
</mgrwt>
</event>
<event>
12    1  0.3127365E-008  0.7564137E+03  0.7818608E-02  0.9625342E-01
          1   -1    0    0  501    0  0.00000000000E+00  0.00000000000E+00  0.19210021369E+04  0.19210021369E+04  0.00000000000E+00 0. -1.
         -1   -1    0    0    0  501 -0.00000000000E+00 -0.00000000000E+00 -0.53288251610E+03  0.53288251610E+03  0.00000000000E+00 0.  1.
         23    2    1    2    0    0 -0.30400490825E+03  0.66949208916E+03  0.13058142602E+04  0.15013740977E+04  0.91294345933E+02 0.  0.
    5000000    2    1    2    0    0  0.30400490825E+03 -0.66949208916E+03  0.82305360673E+02  0.95251055530E+03  0.59988627579E+03 0.  0.
         23    2    4    4    0    0  0.30970511076E+03 -0.52784263395E+03  0.29124646624E+03  0.68445688390E+03  0.95507172328E+02 0.  0.
         23    2    4    4    0    0 -0.57002025163E+01 -0.14164945521E+03 -0.20894110557E+03  0.26805367140E+03  0.89996248178E+02 0.  0.
          1    1    3    3  502    0 -0.20935594696E+03  0.46840156629E+03  0.82237436788E+03  0.96929332030E+03  0.00000000000E+00 0. -1.
         -1    1    3    3    0  502 -0.94648961292E+02  0.20109052288E+03  0.48343989227E+03  0.53208077742E+03  0.00000000000E+00 0.  1.
         13    1    5    5    0    0  0.45470536189E+02 -0.62095402513E+02  0.73418159936E+02  0.10636557189E+03  0.00000000000E+00 0. -1.
        -13    1    5    5    0    0  0.26423457457E+03 -0.46574723144E+03  0.21782830631E+03  0.57809131201E+03  0.00000000000E+00 0.  1.
          5    1    6    6  503    0  0.36133496601E+02 -0.97416022599E+02 -0.15449231892E+03  0.18624037597E+03  0.47000000000E+01 0. -1.
         -5    1    6    6    0  503 -0.41833699117E+02 -0.44233432610E+02 -0.54448786652E+02  0.81813295436E+02  0.47000000000E+01 0.  1.
<mgrwt>
<rscale>  0 0.75641370E+03</rscale>
<asrwt>0</asrwt>
<pdfrwt beam="1">  1        1 0.29553879E+00 0.75641370E+03</pdfrwt>
<pdfrwt beam="2">  1       -1 0.81981927E-01 0.75641370E+03</pdfrwt>
<totfact> 0.52262168E+00</totfact>
</mgrwt>
</event>
<event>
12    1  0.3127365E-008  0.7789074E+03  0.7818608E-02  0.9591060E-01
          2   -1    0    0  501    0  0.00000000000E+00  0.00000000000E+00  0.21999428739E+04  0.21999428739E+04  0.00000000000E+00 0. -1.
         -2   -1    0    0    0  501 -0.00000000000E+00 -0.00000000000E+00 -0.32728074812E+03  0.32728074812E+03  0.00000000000E+00 0.  1.
         23    2    1    2    0    0 -0.51681218866E+03 -0.44299559249E+03  0.12519654380E+04  0.14278799541E+04  0.89909799417E+02 0.  0.
    5000000    2    1    2    0    0  0.51681218866E+03  0.44299559249E+03  0.62069668781E+03  0.10993436680E+04  0.59996015592E+03 0.  0.
         23    2    4    4    0    0  0.59469828065E+03  0.46234533102E+03  0.43174210520E+03  0.87319328625E+03  0.92930186817E+02 0.  0.
         23    2    4    4    0    0 -0.77886091989E+02 -0.19349738530E+02  0.18895458260E+03  0.22615038170E+03  0.94865721681E+02 0.  0.
          3    1    3    3  502    0 -0.45870528147E+03 -0.35066836423E+03  0.10429819912E+04  0.11921368507E+04  0.00000000000E+00 0. -1.
         -3    1    3    3    0  502 -0.58106907192E+02 -0.92327228264E+02  0.20898344679E+03  0.23574310335E+03  0.00000000000E+00 0.  1.
         11    1    5    5    0    0  0.11581276048E+03  0.99773583942E+02  0.47189087468E+02  0.15998179121E+03  0.00000000000E+00 0.  1.
        -11    1    5    5    0    0  0.47888552017E+03  0.36257174708E+03  0.38455301774E+03  0.71321149504E+03  0.00000000000E+00 0. -1.
          5    1    6    6  503    0 -0.42303027278E+02 -0.53435135162E+02  0.14357245508E+03  0.15899685419E+03  0.47000000000E+01 0. -1.
         -5    1    6    6    0  503 -0.35583064711E+02  0.34085396632E+02  0.45382127526E+02  0.67153527507E+02  0.47000000000E+01 0.  1.
<mgrwt>
<rscale>  0 0.77890740E+03</rscale>
<asrwt>0</asrwt>
<pdfrwt beam="1">  1        2 0.33845274E+00 0.77890740E+03</pdfrwt>
<pdfrwt beam="2">  1       -2 0.50350886E-01 0.77890740E+03</pdfrwt>
<totfact> 0.19926300E+01</totfact>
</mgrwt>
</event>
<event>
12    1  0.3127365E-008  0.7508122E+03  0.7818608E-02  0.9634077E-01
          2   -1    0    0  501    0  0.00000000000E+00  0.00000000000E+00  0.30668206517E+04  0.30668206517E+04  0.00000000000E+00 0. -1.
         -2   -1    0    0    0  501 -0.00000000000E+00 -0.00000000000E+00 -0.22118250681E+03  0.22118250681E+03  0.00000000000E+00 0.  1.
         23    2    1    2    0    0  0.22918729855E+03  0.62427770391E+03  0.17392017698E+04  0.18644025184E+04  0.94469493837E+02 0.  0.
    5000000    2    1    2    0    0 -0.22918729855E+03 -0.62427770391E+03  0.11064363752E+04  0.14236006402E+04  0.60015653036E+03 0.  0.
         23    2    4    4    0    0  0.91255252118E+02 -0.42312822453E+03  0.31842040763E+03  0.54478330742E+03  0.89622991568E+02 0.  0.
         23    2    4    4    0    0 -0.32044255066E+03 -0.20114947938E+03  0.78801596754E+03  0.87881733274E+03  0.90588067009E+02 0.  0.
          4    1    3    3  502    0  0.98323635982E+02  0.15260207138E+03  0.43438952648E+03  0.47079633633E+03  0.00000000000E+00 0.  1.
         -4    1    3    3    0  502  0.13086366256E+03  0.47167563254E+03  0.13048122433E+04  0.13936061821E+04  0.00000000000E+00 0. -1.
         11    1    5    5    0    0  0.89110714354E+02 -0.20446628893E+03  0.17121638576E+03  0.28118007304E+03  0.00000000000E+00 0. -1.
        -11    1    5    5    0    0  0.21445377640E+01 -0.21866193560E+03  0.14720402187E+03  0.26360323438E+03  0.00000000000E+00 0.  1.
          5    1    6    6  503    0 -0.13536741986E+03 -0.13776612102E+03  0.40388329480E+03  0.44771380175E+03  0.47000000000E+01 0. -1.
         -5    1    6    6    0  503 -0.18507513080E+03 -0.63383358361E+02  0.38413267274E+03  0.43110353098E+03  0.47000000000E+01 0.  1.
<mgrwt>
<rscale>  0 0.75081222E+03</rscale>
<asrwt>0</asrwt>
<pdfrwt beam="1">  1        2 0.47181853E+00 0.75081222E+03</pdfrwt>
<pdfrwt beam="2">  1       -2 0.34028080E-01 0.75081222E+03</pdfrwt>
<totfact> 0.13581263E+01</totfact>
</mgrwt>
</event>
<event>
12    1  0.3127365E-008  0.4725744E+03  0.7818608E-02  0.1021196E+00
         -2   -1    0    0    0  501 -0.00000000000E+00  0.00000000000E+00  0.34664678889E+03  0.34664678889E+03  0.00000000000E+00 0.  1.
          2   -1    0    0  501    0  0.00000000000E+00 -0.00000000000E+00 -0.74818693695E+03  0.74818693695E+03  0.00000000000E+00 0. -1.
         23    2    1    2    0    0  0.22198914767E+03  0.19905466294E+03 -0.26929829841E+03  0.41192630621E+03  0.90883264163E+02 0.  0.
    5000000    2    1    2    0    0 -0.22198914767E+03 -0.19905466294E+03 -0.13224184966E+03  0.68290741963E+03  0.59997724662E+03 0.  0.
         23    2    4    4    0    0  0.15860804441E+03  0.40364530415E+02  0.45457639131E+02  0.19078316720E+03  0.86867789580E+02 0.  0.
         23    2    4    4    0    0 -0.38059719208E+03 -0.23941919335E+03 -0.17769948879E+03  0.49212425242E+03  0.91833538224E+02 0.  0.
          1    1    3    3  502    0  0.75841367433E+02  0.10551489131E+03 -0.16292024946E+03  0.20839460883E+03  0.00000000000E+00 0. -1.
         -1    1    3    3    0  502  0.14614778024E+03  0.93539771627E+02 -0.10637804894E+03  0.20353169739E+03  0.00000000000E+00 0.  1.
         13    1    5    5    0    0  0.47375824991E+01  0.29305730059E+02  0.16017615614E+02  0.33731802682E+02  0.00000000000E+00 0. -1.
        -13    1    5    5    0    0  0.15387046191E+03  0.11058800355E+02  0.29440023517E+02  0.15705136452E+03  0.00000000000E+00 0.  1.
          5    1    6    6  503    0 -0.30831584791E+02  0.41869272379E+01 -0.35881599040E+01  0.31671467789E+02  0.47000000000E+01 0. -1.
         -5    1    6    6    0  503 -0.34976560729E+03 -0.24360612059E+03 -0.17411132888E+03  0.46045278463E+03  0.47000000000E+01 0.  1.
<mgrwt>
<rscale>  0 0.47257441E+03</rscale>
<asrwt>0</asrwt>
<pdfrwt beam="1">  1        2 0.11510568E+00 0.47257441E+03</pdfrwt>
<pdfrwt beam="2">  1       -2 0.53330276E-01 0.47257441E+03</pdfrwt>
<totfact> 0.12867644E+02</totfact>
</mgrwt>
</event>
<event>
12    1  0.3127365E-008  0.6429651E+03  0.7818608E-02  0.9820070E-01
         -4   -1    0    0    0  501 -0.00000000000E+00  0.00000000000E+00  0.15324899350E+04  0.15324899350E+04  0.00000000000E+00 0.  1.
          4   -1    0    0  501    0  0.00000000000E+00 -0.00000000000E+00 -0.29354200092E+03  0.29354200092E+03  0.00000000000E+00 0. -1.
         23    2    1    2    0    0  0.36006608019E+03 -0.38872818530E+03  0.55802892449E+03  0.77494252216E+03  0.91555709415E+02 0.  0.
    5000000    2    1    2    0    0 -0.36006608019E+03  0.38872818530E+03  0.68091900955E+03  0.10510894137E+04  0.60031747760E+03 0.  0.
         23    2    4    4    0    0 -0.43155212161E+03  0.44362568134E+03  0.40084885279E+03  0.74311675129E+03  0.92204796287E+02 0.  0.
         23    2    4    4    0    0  0.71486041417E+02 -0.54897496035E+02  0.28007015676E+03  0.30797266243E+03  0.91015816795E+02 0.  0.
          2    1    3    3  502    0  0.13141523635E+03 -0.20746129728E+03  0.26898335573E+03  0.36422822498E+03  0.00000000000E+00 0.  1.
         -2    1    3    3    0  502  0.22865084385E+03 -0.18126688802E+03  0.28904556876E+03  0.41071429718E+03  0.00000000000E+00 0. -1.
         13    1    5    5    0    0 -0.20179605343E+03  0.27297463936E+03  0.21195914607E+03  0.40020429847E+03  0.00000000000E+00 0. -1.
        -13    1    5    5    0    0 -0.22975606818E+03  0.17065104198E+03  0.18888970672E+03  0.34291245282E+03  0.00000000000E+00 0.  1.
          5    1    6    6  503    0  0.13368944740E+02 -0.62511138666E+02  0.18895752728E+03  0.19953297536E+03  0.47000000000E+01 0.  1.
         -5    1    6    6    0  503  0.58117096678E+02  0.76136426305E+01  0.91112629480E+02  0.10843968707E+03  0.47000000000E+01 0. -1.
<mgrwt>
<rscale>  0 0.64296505E+03</rscale>
<asrwt>0</asrwt>
<pdfrwt beam="1">  1        4 0.45160309E-01 0.64296505E+03</pdfrwt>
<pdfrwt beam="2">  1       -4 0.23576768E+00 0.64296505E+03</pdfrwt>
<totfact> 0.73772514E-01</totfact>
</mgrwt>
</event>
<event>
12    1  0.3127365E-008  0.6627413E+03  0.7818608E-02  0.9783161E-01
          3   -1    0    0  501    0  0.00000000000E+00  0.00000000000E+00  0.73467335814E+03  0.73467335814E+03  0.00000000000E+00 0. -1.
         -3   -1    0    0    0  501 -0.00000000000E+00 -0.00000000000E+00 -0.69717025750E+03  0.69717025750E+03  0.00000000000E+00 0.  1.
         23    2    1    2    0    0  0.46313781307E+03 -0.33710865278E+03  0.13695194404E+03  0.59629080062E+03  0.93102128129E+02 0.  0.
    5000000    2    1    2    0    0 -0.46313781307E+03  0.33710865278E+03 -0.99448843399E+02  0.83555281501E+03  0.60009962218E+03 0.  0.
         23    2    4    4    0    0 -0.54628006865E+03  0.23473946437E+03  0.65666641311E+02  0.60497803305E+03  0.90342587704E+02 0.  0.
         23    2    4    4    0    0  0.83142255584E+02  0.10236918841E+03 -0.16511548471E+03  0.23057478196E+03  0.92247067087E+02 0.  0.
          1    1    3    3  502    0  0.31566998423E+03 -0.27056998330E+03  0.12463357839E+03  0.43403822835E+03  0.00000000000E+00 0. -1.
         -1    1    3    3    0  502  0.14746782883E+03 -0.66538669477E+02  0.12318365654E+02  0.16225257227E+03  0.00000000000E+00 0.  1.
         11    1    5    5    0    0 -0.17246423989E+03  0.35931158528E+02  0.40940188320E+02  0.18086199494E+03  0.00000000000E+00 0.  1.
        -11    1    5    5    0    0 -0.37381582876E+03  0.19880830584E+03  0.24726452991E+02  0.42411603811E+03  0.00000000000E+00 0. -1.
          5    1    6    6  503    0  0.22612529164E+02 -0.62636794654E+01 -0.14640374113E+00  0.23930557655E+02  0.47000000000E+01 0. -1.
         -5    1    6    6    0  503  0.60529726420E+02  0.10863286788E+03 -0.16496908097E+03  0.20664422431E+03  0.47000000000E+01 0.  1.
<mgrwt>
<rscale>  0 0.66274126E+03</rscale>
<asrwt>0</asrwt>
<pdfrwt beam="1">  1        3 0.11302667E+00 0.66274126E+03</pdfrwt>
<pdfrwt beam="2">  1       -3 0.10725696E+00 0.66274126E+03</pdfrwt>
<totfact> 0.12620608E+00</totfact>
</mgrwt>
</event>
<event>
12    1  0.3127365E-008  0.4821824E+03  0.7818608E-02  0.1018537E+00
          2   -1    0    0  501    0  0.00000000000E+00  0.00000000000E+00  0.96014951910E+03  0.96014951910E+03  0.00000000000E+00 0. -1.
         -2   -1    0    0    0  501 -0.00000000000E+00 -0.00000000000E+00 -0.52281282779E+03  0.52281282779E+03  0.00000000000E+00 0.  1.
         23    2    1    2    0    0  0.14828359155E+03 -0.34302463601E+03  0.64150596882E+03  0.74723561964E+03  0.84718585903E+02 0.  0.
    5000000    2    1    2    0    0 -0.14828359155E+03  0.34302463601E+03 -0.20416927751E+03  0.73572672725E+03  0.59996233121E+03 0.  0.
         23    2    4    4    0    0  0.10453565803E+03  0.27042992559E+03  0.10371955158E+03  0.32094931095E+03  0.90502300347E+02 0.  0.
         23    2    4    4    0    0 -0.25281924958E+03  0.72594710419E+02 -0.30788882909E+03  0.41477741630E+03  0.89761957707E+02 0.  0.
          4    1    3    3  502    0  0.13314587968E+03 -0.20678107518E+03  0.40135243364E+03  0.47071224152E+03  0.00000000000E+00 0. -1.
         -4    1    3    3    0  502  0.15137711871E+02 -0.13624356083E+03  0.24015353518E+03  0.27652337813E+03  0.00000000000E+00 0.  1.
         13    1    5    5    0    0  0.26311682164E+02  0.18807435481E+03  0.71023906130E+02  0.20275271341E+03  0.00000000000E+00 0.  1.
        -13    1    5    5    0    0  0.78223975862E+02  0.82355570781E+02  0.32695645448E+02  0.11819659754E+03  0.00000000000E+00 0. -1.
          5    1    6    6  503    0 -0.55806770534E+02  0.57406985605E+02 -0.84496290638E+02  0.11649751399E+03  0.47000000000E+01 0. -1.
         -5    1    6    6    0  503 -0.19701247904E+03  0.15187724814E+02 -0.22339253845E+03  0.29827990231E+03  0.47000000000E+01 0.  1.
<mgrwt>
<rscale>  0 0.48218240E+03</rscale>
<asrwt>0</asrwt>
<pdfrwt beam="1">  1        2 0.14771531E+00 0.48218240E+03</pdfrwt>
<pdfrwt beam="2">  1       -2 0.80432743E-01 0.48218240E+03</pdfrwt>
<totfact> 0.38211680E+01</totfact>
</mgrwt>
</event>
<event>
12    1  0.3127365E-008  0.5554122E+03  0.7818608E-02  0.1000249E+00
         -2   -1    0    0    0  501 -0.00000000000E+00  0.00000000000E+00  0.41148954239E+03  0.41148954239E+03  0.00000000000E+00 0.  1.
          2   -1    0    0  501    0  0.00000000000E+00 -0.00000000000E+00 -0.92485841800E+03  0.92485841800E+03  0.00000000000E+00 0. -1.
         23    2    1    2    0    0  0.14854234232E+03 -0.43859909063E+03 -0.14963398507E+03  0.49562609184E+03  0.93919666029E+02 0.  0.
    5000000    2    1    2    0    0 -0.14854234232E+03  0.43859909063E+03 -0.36373489054E+03  0.84072186855E+03  0.60006349655E+03 0.  0.
         23    2    4    4    0    0 -0.18973265059E+03 -0.57361282068E+00 -0.32934875183E+03  0.38890753608E+03  0.82338712399E+02 0.  0.
         23    2    4    4    0    0  0.41190308273E+02  0.43917270345E+03 -0.34386138714E+02  0.45181433246E+03  0.91566803674E+02 0.  0.
          1    1    3    3  502    0  0.14114089291E+03 -0.28098563678E+03 -0.91711744306E+02  0.32754346852E+03  0.00000000000E+00 0. -1.
         -1    1    3    3    0  502  0.74014494076E+01 -0.15761345385E+03 -0.57922240760E+02  0.16808262332E+03  0.00000000000E+00 0.  1.
         13    1    5    5    0    0 -0.13553063147E+03  0.16180137368E+02 -0.28799559836E+03  0.31870333162E+03  0.00000000000E+00 0. -1.
        -13    1    5    5    0    0 -0.54202019122E+02 -0.16753750189E+02 -0.41353153465E+02  0.70204204460E+02  0.00000000000E+00 0.  1.
          5    1    6    6  503    0  0.55427158572E+02  0.39045854940E+03 -0.52159911296E+02  0.39783513552E+03  0.47000000000E+01 0. -1.
         -5    1    6    6    0  503 -0.14236850299E+02  0.48714154044E+02  0.17773772582E+02  0.53979196942E+02  0.47000000000E+01 0.  1.
<mgrwt>
<rscale>  0 0.55541217E+03</rscale>
<asrwt>0</asrwt>
<pdfrwt beam="1">  1        2 0.14228591E+00 0.55541217E+03</pdfrwt>
<pdfrwt beam="2">  1       -2 0.63306083E-01 0.55541217E+03</pdfrwt>
<totfact> 0.67292745E+01</totfact>
</mgrwt>
</event>
<event>
12    1  0.3127365E-008  0.9301114E+03  0.7818608E-02  0.9388704E-01
          2   -1    0    0  501    0  0.00000000000E+00  0.00000000000E+00  0.24582153565E+04  0.24582153565E+04  0.00000000000E+00 0.  1.
         -2   -1    0    0    0  501 -0.00000000000E+00 -0.00000000000E+00 -0.39569577199E+03  0.39569577199E+03  0.00000000000E+00 0. -1.
         23    2    1    2    0    0 -0.83986216633E+03 -0.28104980276E+03  0.76912229504E+03  0.11755605031E+04  0.77691322505E+02 0.  0.
    5000000    2    1    2    0    0  0.83986216633E+03  0.28104980276E+03  0.12933972895E+04  0.16783506254E+04  0.59968893882E+03 0.  0.
         23    2    4    4    0    0  0.42864047184E+03 -0.63366056548E+02  0.91242666265E+03  0.10141905213E+04  0.91170650863E+02 0.  0.
         23    2    4    4    0    0  0.41122169449E+03  0.34441585931E+03  0.38097062682E+03  0.66416010410E+03  0.90799004481E+02 0.  0.
          4    1    3    3  502    0 -0.11117478896E+03 -0.10430256952E+02  0.10123735193E+03  0.15072367228E+03  0.00000000000E+00 0. -1.
         -4    1    3    3    0  502 -0.72868737737E+03 -0.27061954581E+03  0.66788494311E+03  0.10248368308E+04  0.00000000000E+00 0.  1.
         13    1    5    5    0    0  0.15603894654E+03 -0.92197514869E+01  0.42867754670E+03  0.45628674723E+03  0.00000000000E+00 0. -1.
        -13    1    5    5    0    0  0.27260152530E+03 -0.54146305061E+02  0.48374911595E+03  0.55790377408E+03  0.00000000000E+00 0.  1.
          5    1    6    6  503    0  0.39692212542E+03  0.33117873211E+03  0.38388175651E+03  0.64390513217E+03  0.47000000000E+01 0. -1.
         -5    1    6    6    0  503  0.14299569063E+02  0.13237127201E+02 -0.29111296847E+01  0.20254971932E+02  0.47000000000E+01 0.  1.
<mgrwt>
<rscale>  0 0.93011137E+03</rscale>
<asrwt>0</asrwt>
<pdfrwt beam="1">  1        2 0.37818697E+00 0.93011137E+03</pdfrwt>
<pdfrwt beam="2">  1       -2 0.60876275E-01 0.93011137E+03</pdfrwt>
<totfact> 0.94280468E+00</totfact>
</mgrwt>
</event>
<event>
12    1  0.3127365E-008  0.6588910E+03  0.7818608E-02  0.9790237E-01
          2   -1    0    0  501    0  0.00000000000E+00  0.00000000000E+00  0.21312814675E+04  0.21312814675E+04  0.00000000000E+00 0. -1.
         -2   -1    0    0    0  501 -0.00000000000E+00 -0.00000000000E+00 -0.23068744455E+03  0.23068744455E+03  0.00000000000E+00 0.  1.
         23    2    1    2    0    0  0.54794423851E+02  0.55472165296E+03  0.96933285793E+03  0.11217775298E+04  0.89778036074E+02 0.  0.
    5000000    2    1    2    0    0 -0.54794423851E+02 -0.55472165296E+03  0.93126116502E+03  0.12401913822E+04  0.60009063146E+03 0.  0.
         23    2    4    4    0    0 -0.27423707914E+03 -0.37141314586E+03  0.35013713060E+03  0.58640487903E+03  0.90116432589E+02 0.  0.
         23    2    4    4    0    0  0.21944265529E+03 -0.18330850710E+03  0.58112403442E+03  0.65378650322E+03  0.89300395707E+02 0.  0.
          2    1    3    3  502    0 -0.38383784208E+01  0.13073321060E+03  0.16400300534E+03  0.20976866130E+03  0.00000000000E+00 0. -1.
         -2    1    3    3    0  502  0.58632802272E+02  0.42398844236E+03  0.80532985259E+03  0.91200886851E+03  0.00000000000E+00 0.  1.
         13    1    5    5    0    0 -0.19572473085E+03 -0.25935703124E+03  0.29509351237E+03  0.43892416311E+03  0.00000000000E+00 0. -1.
        -13    1    5    5    0    0 -0.78512348296E+02 -0.11205611462E+03  0.55043618232E+02  0.14748071591E+03  0.00000000000E+00 0.  1.
          5    1    6    6  503    0  0.15077443502E+03 -0.16971630901E+03  0.47623279977E+03  0.52759484965E+03  0.47000000000E+01 0. -1.
         -5    1    6    6    0  503  0.68668220275E+02 -0.13592198096E+02  0.10489123465E+03  0.12619165357E+03  0.47000000000E+01 0.  1.
<mgrwt>
<rscale>  0 0.65889103E+03</rscale>
<asrwt>0</asrwt>
<pdfrwt beam="1">  1        2 0.32788944E+00 0.65889103E+03</pdfrwt>
<pdfrwt beam="2">  1       -2 0.35490378E-01 0.65889103E+03</pdfrwt>
<totfact> 0.44032523E+01</totfact>
</mgrwt>
</event>
<event>
12    1  0.3127365E-008  0.1140644E+04  0.7818608E-02  0.9166458E-01
          1   -1    0    0  501    0  0.00000000000E+00  0.00000000000E+00  0.20336781024E+04  0.20336781024E+04  0.00000000000E+00 0. -1.
         -1   -1    0    0    0  501 -0.00000000000E+00 -0.00000000000E+00 -0.11248492053E+04  0.11248492053E+04  0.00000000000E+00 0.  1.
         23    2    1    2    0    0  0.93558483330E+03 -0.53530480243E+03  0.14521591419E+04  0.18105530850E+04  0.86406529392E+02 0.  0.
    5000000    2    1    2    0    0 -0.93558483330E+03  0.53530480243E+03 -0.54333024481E+03  0.13479742228E+04  0.59996378097E+03 0.  0.
         23    2    4    4    0    0 -0.99434463743E+03  0.44877752578E+03 -0.49058625372E+03  0.12001073639E+04  0.97264006650E+02 0.  0.
         23    2    4    4    0    0  0.58759804132E+02  0.86527276648E+02 -0.52743991089E+02  0.14786685882E+03  0.90238545841E+02 0.  0.
          2    1    3    3  502    0  0.85950605832E+03 -0.49609356987E+03  0.12941666347E+04  0.16308668777E+04  0.00000000000E+00 0. -1.
         -2    1    3    3    0  502  0.76078774975E+02 -0.39211232552E+02  0.15799250718E+03  0.17968620727E+03  0.00000000000E+00 0.  1.
         11    1    5    5    0    0 -0.77693950127E+03  0.30595783431E+03 -0.36639248930E+03  0.91185998992E+03  0.00000000000E+00 0.  1.
        -11    1    5    5    0    0 -0.21740513616E+03  0.14281969147E+03 -0.12419376442E+03  0.28824737401E+03  0.00000000000E+00 0. -1.
          5    1    6    6  503    0  0.53457342839E+02  0.59057438323E+02  0.86213501809E+01  0.80261361835E+02  0.47000000000E+01 0. -1.
         -5    1    6    6    0  503  0.53024612932E+01  0.27469838325E+02 -0.61365341270E+02  0.67605496985E+02  0.47000000000E+01 0.  1.
<mgrwt>
<rscale>  0 0.11406441E+04</rscale>
<asrwt>0</asrwt>
<pdfrwt beam="1">  1        1 0.31287355E+00 0.11406441E+04</pdfrwt>
<pdfrwt beam="2">  1       -1 0.17305372E+00 0.11406441E+04</pdfrwt>
<totfact> 0.65438891E-01</totfact>
</mgrwt>
</event>
<event>
12    1  0.3127365E-008  0.4023778E+03  0.7818608E-02  0.1042959E+00
          2   -1    0    0  501    0  0.00000000000E+00  0.00000000000E+00  0.27031221585E+04  0.27031221585E+04  0.00000000000E+00 0. -1.
         -2   -1    0    0    0  501 -0.00000000000E+00 -0.00000000000E+00 -0.73874726873E+02  0.73874726873E+02  0.00000000000E+00 0.  1.
         23    2    1    2    0    0 -0.27929197199E+02 -0.21103690404E+03  0.10306076417E+04  0.10562826565E+04  0.90908329529E+02 0.  0.
    5000000    2    1    2    0    0  0.27929197199E+02  0.21103690404E+03  0.15986397899E+04  0.17207142288E+04  0.59990971367E+03 0.  0.
         23    2    4    4    0    0 -0.24827521456E+03  0.14820541780E+03  0.10853897925E+04  0.11271729354E+04  0.94034018086E+02 0.  0.
         23    2    4    4    0    0  0.27620441176E+03  0.62831486245E+02  0.51324999739E+03  0.59354129345E+03  0.92892596444E+02 0.  0.
          1    1    3    3  502    0  0.10615838080E+02 -0.39554866496E+02  0.38519788192E+03  0.38736893489E+03  0.00000000000E+00 0. -1.
         -1    1    3    3    0  502 -0.38545035279E+02 -0.17148203755E+03  0.64540975978E+03  0.66891372161E+03  0.00000000000E+00 0.  1.
         11    1    5    5    0    0 -0.13227860068E+03  0.13180559158E+03  0.64869595503E+03  0.67503835761E+03  0.00000000000E+00 0. -1.
        -11    1    5    5    0    0 -0.11599661388E+03  0.16399826218E+02  0.43669383748E+03  0.45213457778E+03  0.00000000000E+00 0.  1.
          5    1    6    6  503    0  0.21756074371E+03  0.57507800512E+02  0.46736913943E+03  0.51874447160E+03  0.47000000000E+01 0. -1.
         -5    1    6    6    0  503  0.58643668049E+02  0.53236857335E+01  0.45880857954E+02  0.74796821848E+02  0.47000000000E+01 0.  1.
<mgrwt>
<rscale>  0 0.40237782E+03</rscale>
<asrwt>0</asrwt>
<pdfrwt beam="1">  1        2 0.41586487E+00 0.40237782E+03</pdfrwt>
<pdfrwt beam="2">  1       -2 0.11365345E-01 0.40237782E+03</pdfrwt>
<totfact> 0.16199200E+02</totfact>
</mgrwt>
</event>
<event>
12    1  0.3127365E-008  0.3219407E+03  0.7818608E-02  0.1074760E+00
          3   -1    0    0  501    0  0.00000000000E+00  0.00000000000E+00  0.14832335113E+03  0.14832335113E+03  0.00000000000E+00 0. -1.
         -3   -1    0    0    0  501 -0.00000000000E+00 -0.00000000000E+00 -0.92341376629E+03  0.92341376629E+03  0.00000000000E+00 0.  1.
         23    2    1    2    0    0  0.18227806458E+01  0.87665574489E+02 -0.82674368491E+02  0.15144018237E+03  0.91708789939E+02 0.  0.
    5000000    2    1    2    0    0 -0.18227806458E+01 -0.87665574489E+02 -0.69241604667E+03  0.92029693505E+03  0.59984822371E+03 0.  0.
         23    2    4    4    0    0  0.13097876176E+03 -0.25923430549E+03 -0.58936150633E+03  0.66353032161E+03  0.92561554561E+02 0.  0.
         23    2    4    4    0    0 -0.13280154241E+03  0.17156873101E+03 -0.10305454035E+03  0.25676661343E+03  0.90756687700E+02 0.  0.
          3    1    3    3  502    0 -0.37117061329E+02  0.65111140417E+02 -0.74552666448E+02  0.10571299316E+03  0.00000000000E+00 0. -1.
         -3    1    3    3    0  502  0.38939841975E+02  0.22554434072E+02 -0.81217020429E+01  0.45727189214E+02  0.00000000000E+00 0.  1.
         11    1    5    5    0    0 -0.12420101510E+02 -0.59504700606E+01 -0.27413560614E+02  0.30678499328E+02  0.00000000000E+00 0.  1.
        -11    1    5    5    0    0  0.14339886327E+03 -0.25328383543E+03 -0.56194794571E+03  0.63285182229E+03  0.00000000000E+00 0. -1.
          5    1    6    6  503    0 -0.75598726634E+02  0.73936028215E+02 -0.33866269928E+01  0.10590213869E+03  0.47000000000E+01 0. -1.
         -5    1    6    6    0  503 -0.57202815776E+02  0.97632702790E+02 -0.99667913352E+02  0.15086447474E+03  0.47000000000E+01 0.  1.
<mgrwt>
<rscale>  0 0.32194068E+03</rscale>
<asrwt>0</asrwt>
<pdfrwt beam="1">  1        3 0.22818977E-01 0.32194068E+03</pdfrwt>
<pdfrwt beam="2">  1       -3 0.14206365E+00 0.32194068E+03</pdfrwt>
<totfact> 0.17333191E+01</totfact>
</mgrwt>
</event>
<event>
12    1  0.3127365E-008  0.4108075E+03  0.7818608E-02  0.1040100E+00
         -1   -1    0    0    0  501 -0.00000000000E+00  0.00000000000E+00  0.87620359824E+03  0.87620359824E+03  0.00000000000E+00 0.  1.
          1   -1    0    0  501    0  0.00000000000E+00 -0.00000000000E+00 -0.21603288276E+03  0.21603288276E+03  0.00000000000E+00 0. -1.
         23    2    1    2    0    0  0.20629025746E+03 -0.35910503794E+02  0.11826791115E+03  0.25705908490E+03  0.90812112141E+02 0.  0.
    5000000    2    1    2    0    0 -0.20629025746E+03  0.35910503794E+02  0.54190280433E+03  0.83517739611E+03  0.60001449901E+03 0.  0.
         23    2    4    4    0    0 -0.38794896130E+03  0.36285097453E+02  0.22573131156E+03  0.45933752908E+03  0.90638489270E+02 0.  0.
         23    2    4    4    0    0  0.18165870383E+03 -0.37459365880E+00  0.31617149277E+03  0.37583986702E+03  0.91055849930E+02 0.  0.
          4    1    3    3  502    0  0.15039431726E+03 -0.56122004426E+02  0.11512230008E+03  0.19753803183E+03  0.00000000000E+00 0. -1.
         -4    1    3    3    0  502  0.55895940204E+02  0.20211500631E+02  0.31456110798E+01  0.59521053066E+02  0.00000000000E+00 0.  1.
         11    1    5    5    0    0 -0.93500763640E+02 -0.28089180261E+02  0.41460337353E+02  0.10606768793E+03  0.00000000000E+00 0.  1.
        -11    1    5    5    0    0 -0.29444819766E+03  0.64374277714E+02  0.18427097420E+03  0.35326984115E+03  0.00000000000E+00 0. -1.
          5    1    6    6  503    0  0.12768907124E+03  0.41286263085E+02  0.19579861399E+03  0.23741996899E+03  0.47000000000E+01 0. -1.
         -5    1    6    6    0  503  0.53969632590E+02 -0.41660856743E+02  0.12037287878E+03  0.13841989804E+03  0.47000000000E+01 0.  1.
<mgrwt>
<rscale>  0 0.41080751E+03</rscale>
<asrwt>0</asrwt>
<pdfrwt beam="1">  1        1 0.33235829E-01 0.41080751E+03</pdfrwt>
<pdfrwt beam="2">  1       -1 0.13480055E+00 0.41080751E+03</pdfrwt>
<totfact> 0.65333391E+01</totfact>
</mgrwt>
</event>
<event>
12    1  0.3127365E-008  0.7323697E+03  0.7818608E-02  0.9663423E-01
          1   -1    0    0  501    0  0.00000000000E+00  0.00000000000E+00  0.35356684443E+03  0.35356684443E+03  0.00000000000E+00 0. -1.
         -1   -1    0    0    0  501 -0.00000000000E+00 -0.00000000000E+00 -0.15955734671E+04  0.15955734671E+04  0.00000000000E+00 0.  1.
         23    2    1    2    0    0  0.61082102763E+03  0.10431468417E+03 -0.65440005570E+03  0.90559809345E+03  0.88795229782E+02 0.  0.
    5000000    2    1    2    0    0 -0.61082102763E+03 -0.10431468417E+03 -0.58760656698E+03  0.10435422181E+04  0.59976245486E+03 0.  0.
         23    2    4    4    0    0 -0.33070283018E+03 -0.33498878354E+03 -0.25488102213E+03  0.54257843431E+03  0.88572992197E+02 0.  0.
         23    2    4    4    0    0 -0.28011819745E+03  0.23067409937E+03 -0.33272554485E+03  0.50096378379E+03  0.92637356433E+02 0.  0.
          4    1    3    3  502    0  0.14148585920E+03 -0.11580885255E+02 -0.16552853477E+03  0.21806435078E+03  0.00000000000E+00 0. -1.
         -4    1    3    3    0  502  0.46933516843E+03  0.11589556942E+03 -0.48887152093E+03  0.68753374268E+03  0.00000000000E+00 0.  1.
         11    1    5    5    0    0 -0.11941430062E+03 -0.17198198935E+03 -0.83406685084E+02  0.22537580831E+03  0.00000000000E+00 0.  1.
        -11    1    5    5    0    0 -0.21128852956E+03 -0.16300679419E+03 -0.17147433705E+03  0.31720262600E+03  0.00000000000E+00 0. -1.
          5    1    6    6  503    0 -0.10747325561E+03  0.94243562714E+02 -0.19317779178E+03  0.24035827222E+03  0.47000000000E+01 0. -1.
         -5    1    6    6    0  503 -0.17264494184E+03  0.13643053666E+03 -0.13954775307E+03  0.26060551157E+03  0.47000000000E+01 0.  1.
<mgrwt>
<rscale>  0 0.73236970E+03</rscale>
<asrwt>0</asrwt>
<pdfrwt beam="1">  1        1 0.54394899E-01 0.73236970E+03</pdfrwt>
<pdfrwt beam="2">  1       -1 0.24547284E+00 0.73236970E+03</pdfrwt>
<totfact> 0.54914769E+00</totfact>
</mgrwt>
</event>
<event>
12    1  0.3190804E-008  0.1399665E+04  0.7818608E-02  0.8954061E-01
         -2   -1    0    0    0  501 -0.00000000000E+00  0.00000000000E+00  0.11312093056E+04  0.11312093056E+04  0.00000000000E+00 0.  1.
          2   -1    0    0  501    0  0.00000000000E+00 -0.00000000000E+00 -0.20127454822E+04  0.20127454822E+04  0.00000000000E+00 0. -1.
         23    2    1    2    0    0  0.16520915716E+03  0.13321605761E+04 -0.98804655650E+03  0.16692860483E+04  0.91291002719E+02 0.  0.
    5000000    2    1    2    0    0 -0.16520915716E+03 -0.13321605761E+04  0.10651037987E+03  0.14746687395E+04  0.60113023888E+03 0.  0.
         23    2    4    4    0    0 -0.34052061566E+03 -0.56846146506E+03 -0.50230387132E+02  0.67059299980E+03  0.89828462317E+02 0.  0.
         23    2    4    4    0    0  0.17531145850E+03 -0.76369911099E+03  0.15674076700E+03  0.80407573965E+03  0.89440971854E+02 0.  0.
          1    1    3    3  502    0  0.11164736745E+03  0.60081019722E+03 -0.41617313729E+03  0.73934978727E+03  0.00000000000E+00 0. -1.
         -1    1    3    3    0  502  0.53561789709E+02  0.73135037884E+03 -0.57187341920E+03  0.92993626101E+03  0.00000000000E+00 0.  1.
         13    1    5    5    0    0 -0.18895157052E+03 -0.38240598999E+03 -0.58133749378E+02  0.43048411120E+03  0.00000000000E+00 0.  1.
        -13    1    5    5    0    0 -0.15156904514E+03 -0.18605547507E+03  0.79033622460E+01  0.24010888860E+03  0.00000000000E+00 0. -1.
          5    1    6    6  503    0  0.79557667576E+02 -0.17955543720E+03  0.30413179931E+02  0.19878789956E+03  0.47000000000E+01 0. -1.
         -5    1    6    6    0  503  0.95753790919E+02 -0.58414367380E+03  0.12632758707E+03  0.60528784009E+03  0.47000000000E+01 0.  1.
<mgrwt>
<rscale>  0 0.13996652E+04</rscale>
<asrwt>0</asrwt>
<pdfrwt beam="1">  1        2 0.30965315E+00 0.13996652E+04</pdfrwt>
<pdfrwt beam="2">  1       -2 0.17403220E+00 0.13996652E+04</pdfrwt>
<totfact> 0.12474954E+00</totfact>
</mgrwt>
</event>
<event>
12    1  0.3127365E-008  0.1184561E+04  0.7818608E-02  0.9126479E-01
         -2   -1    0    0    0  501 -0.00000000000E+00  0.00000000000E+00  0.99117335096E+03  0.99117335096E+03  0.00000000000E+00 0. -1.
          2   -1    0    0  501    0  0.00000000000E+00 -0.00000000000E+00 -0.15757801256E+04  0.15757801256E+04  0.00000000000E+00 0.  1.
         23    2    1    2    0    0 -0.17077892257E+03  0.11124239451E+04  0.74161943159E+02  0.11316204095E+04  0.91718501098E+02 0.  0.
    5000000    2    1    2    0    0  0.17077892257E+03 -0.11124239451E+04 -0.65876871781E+03  0.14353330670E+04  0.59962681379E+03 0.  0.
         23    2    4    4    0    0 -0.16677931256E+03 -0.22823010023E+03 -0.29138807176E+03  0.41615936039E+03  0.91527521150E+02 0.  0.
         23    2    4    4    0    0  0.33755823514E+03 -0.88419384486E+03 -0.36738064604E+03  0.10191737067E+04  0.89454948782E+02 0.  0.
          1    1    3    3  502    0 -0.58435881444E+02  0.37871102040E+03  0.68900092697E+02  0.38933791491E+03  0.00000000000E+00 0. -1.
         -1    1    3    3    0  502 -0.11234304113E+03  0.73371292469E+03  0.52618504614E+01  0.74228249462E+03  0.00000000000E+00 0.  1.
         13    1    5    5    0    0 -0.12270384725E+03 -0.95704776612E+02 -0.17659249301E+03  0.23537320787E+03  0.00000000000E+00 0.  1.
        -13    1    5    5    0    0 -0.44075465311E+02 -0.13252532361E+03 -0.11479557875E+03  0.18078615252E+03  0.00000000000E+00 0. -1.
          5    1    6    6  503    0  0.10904413959E+03 -0.36825554879E+03 -0.18348910760E+03  0.42566784727E+03  0.47000000000E+01 0. -1.
         -5    1    6    6    0  503  0.22851409555E+03 -0.51593829607E+03 -0.18389153844E+03  0.59350585939E+03  0.47000000000E+01 0.  1.
<mgrwt>
<rscale>  0 0.11845607E+04</rscale>
<asrwt>0</asrwt>
<pdfrwt beam="1">  1        2 0.24242771E+00 0.11845607E+04</pdfrwt>
<pdfrwt beam="2">  1       -2 0.15248821E+00 0.11845607E+04</pdfrwt>
<totfact> 0.32117585E+00</totfact>
</mgrwt>
</event>
<event>
12    1  0.3127365E-008  0.8611507E+03  0.7818608E-02  0.9475492E-01
         -1   -1    0    0    0  501 -0.00000000000E+00  0.00000000000E+00  0.58519492146E+03  0.58519492146E+03  0.00000000000E+00 0.  1.
          1   -1    0    0  501    0  0.00000000000E+00 -0.00000000000E+00 -0.15405335976E+04  0.15405335976E+04  0.00000000000E+00 0. -1.
         23    2    1    2    0    0  0.72650467599E+03 -0.43078860009E+03 -0.55737023303E+03  0.10159715099E+04  0.90269983760E+02 0.  0.
    5000000    2    1    2    0    0 -0.72650467599E+03  0.43078860009E+03 -0.39796844315E+03  0.11097570093E+04  0.59982820511E+03 0.  0.
         23    2    4    4    0    0 -0.58616221373E+03  0.31190752823E+03 -0.53938086702E+03  0.86005356116E+03  0.88814195858E+02 0.  0.
         23    2    4    4    0    0 -0.14034246226E+03  0.11888107186E+03  0.14141242387E+03  0.24970344810E+03  0.92334297029E+02 0.  0.
          3    1    3    3  502    0  0.52310131155E+03 -0.26193325995E+03 -0.38942468129E+03  0.70277706081E+03  0.00000000000E+00 0. -1.
         -3    1    3    3    0  502  0.20340336444E+03 -0.16885534014E+03 -0.16794555174E+03  0.31319444904E+03  0.00000000000E+00 0.  1.
         11    1    5    5    0    0 -0.23188929891E+03  0.75028334276E+02 -0.19677572990E+03  0.31324524860E+03  0.00000000000E+00 0. -1.
        -11    1    5    5    0    0 -0.35427291482E+03  0.23687919395E+03 -0.34260513712E+03  0.54680831256E+03  0.00000000000E+00 0.  1.
          5    1    6    6  503    0  0.79457102421E+01 -0.43129176549E+01 -0.60872334085E+00  0.10207649781E+02  0.47000000000E+01 0. -1.
         -5    1    6    6    0  503 -0.14828817250E+03  0.12319398952E+03  0.14202114721E+03  0.23949579832E+03  0.47000000000E+01 0.  1.
<mgrwt>
<rscale>  0 0.86115066E+03</rscale>
<asrwt>0</asrwt>
<pdfrwt beam="1">  1        1 0.23700517E+00 0.86115066E+03</pdfrwt>
<pdfrwt beam="2">  1       -1 0.90029988E-01 0.86115066E+03</pdfrwt>
<totfact> 0.75770054E+00</totfact>
</mgrwt>
</event>
<event>
12    1  0.3127365E-008  0.7954640E+03  0.7818608E-02  0.9566606E-01
          1   -1    0    0  501    0  0.00000000000E+00  0.00000000000E+00  0.17569553602E+04  0.17569553602E+04  0.00000000000E+00 0. -1.
         -1   -1    0    0    0  501 -0.00000000000E+00 -0.00000000000E+00 -0.45427301600E+03  0.45427301600E+03  0.00000000000E+00 0.  1.
         23    2    1    2    0    0  0.34348661951E+03  0.59841923843E+03  0.10479175750E+03  0.70424709382E+03  0.94308080320E+02 0.  0.
    5000000    2    1    2    0    0 -0.34348661951E+03 -0.59841923843E+03  0.11978905867E+04  0.15069812824E+04  0.59996840335E+03 0.  0.
         23    2    4    4    0    0  0.11436746245E+03 -0.35928420840E+03  0.57178600238E+03  0.69096080717E+03  0.91227987278E+02 0.  0.
         23    2    4    4    0    0 -0.45785408197E+03 -0.23913503003E+03  0.62610458429E+03  0.81602047518E+03  0.84062729428E+02 0.  0.
          4    1    3    3  502    0  0.31949209567E+03  0.52507379165E+03  0.11826073996E+03  0.62590996836E+03  0.00000000000E+00 0. -1.
         -4    1    3    3    0  502  0.23994523839E+02  0.73345446774E+02 -0.13468982464E+02  0.78337125461E+02  0.00000000000E+00 0.  1.
         11    1    5    5    0    0  0.86182176243E+02 -0.16974689955E+03  0.22478935947E+03  0.29457025230E+03  0.00000000000E+00 0.  1.
        -11    1    5    5    0    0  0.28185286209E+02 -0.18953730885E+03  0.34699664291E+03  0.39639055487E+03  0.00000000000E+00 0. -1.
          5    1    6    6  503    0 -0.11828796718E+03 -0.72883515349E+02  0.22747411738E+03  0.26659072390E+03  0.47000000000E+01 0. -1.
         -5    1    6    6    0  503 -0.33956611479E+03 -0.16625151468E+03  0.39863046691E+03  0.54942975128E+03  0.47000000000E+01 0.  1.
<mgrwt>
<rscale>  0 0.79546397E+03</rscale>
<asrwt>0</asrwt>
<pdfrwt beam="1">  1        1 0.27030082E+00 0.79546397E+03</pdfrwt>
<pdfrwt beam="2">  1       -1 0.69888157E-01 0.79546397E+03</pdfrwt>
<totfact> 0.93414364E+00</totfact>
</mgrwt>
</event>
<event>
12    1  0.3127365E-008  0.5089013E+03  0.7818608E-02  0.1011481E+00
         -1   -1    0    0    0  501 -0.00000000000E+00  0.00000000000E+00  0.18478027377E+03  0.18478027377E+03  0.00000000000E+00 0.  1.
          1   -1    0    0  501    0  0.00000000000E+00 -0.00000000000E+00 -0.16898050115E+04  0.16898050115E+04  0.00000000000E+00 0. -1.
         23    2    1    2    0    0 -0.64426598136E+02  0.38484530652E+03 -0.61971076586E+03  0.73606451406E+03  0.74113689976E+02 0.  0.
    5000000    2    1    2    0    0  0.64426598136E+02 -0.38484530652E+03 -0.88531397184E+03  0.11385207712E+04  0.60015999632E+03 0.  0.
         23    2    4    4    0    0 -0.19526487326E+03 -0.86945446770E+02 -0.96930794894E+02  0.25191187841E+03  0.91521221807E+02 0.  0.
         23    2    4    4    0    0  0.25969147139E+03 -0.29789985975E+03 -0.78838317694E+03  0.88660889277E+03  0.91341711775E+02 0.  0.
          3    1    3    3  502    0 -0.77468456192E+02  0.25484883869E+03 -0.42565184016E+03  0.50212426881E+03  0.00000000000E+00 0. -1.
         -3    1    3    3    0  502  0.13041858056E+02  0.12999646782E+03 -0.19405892569E+03  0.23394024525E+03  0.00000000000E+00 0.  1.
         13    1    5    5    0    0 -0.15443875008E+03 -0.83737814924E+02 -0.37336701628E+02  0.17960339213E+03  0.00000000000E+00 0. -1.
        -13    1    5    5    0    0 -0.40826123172E+02 -0.32076318456E+01 -0.59594093266E+02  0.72308486276E+02  0.00000000000E+00 0.  1.
          5    1    6    6  503    0  0.18983950299E+03 -0.26697512223E+03 -0.60780395234E+03  0.69047989635E+03  0.47000000000E+01 0. -1.
         -5    1    6    6    0  503  0.69851968398E+02 -0.30924737518E+02 -0.18057922460E+03  0.19612899642E+03  0.47000000000E+01 0.  1.
<mgrwt>
<rscale>  0 0.50890127E+03</rscale>
<asrwt>0</asrwt>
<pdfrwt beam="1">  1        1 0.25997000E+00 0.50890127E+03</pdfrwt>
<pdfrwt beam="2">  1       -1 0.28427735E-01 0.50890127E+03</pdfrwt>
<totfact> 0.57688397E+01</totfact>
</mgrwt>
</event>
<event>
12    1  0.3127365E-008  0.4337346E+03  0.7818608E-02  0.1032687E+00
         -1   -1    0    0    0  501 -0.00000000000E+00  0.00000000000E+00  0.15831814624E+03  0.15831814624E+03  0.00000000000E+00 0.  1.
          1   -1    0    0  501    0  0.00000000000E+00 -0.00000000000E+00 -0.14600474389E+04  0.14600474389E+04  0.00000000000E+00 0. -1.
         23    2    1    2    0    0 -0.19310851658E+03  0.16509470961E+03 -0.19066603029E+03  0.33035510661E+03  0.90740283458E+02 0.  0.
    5000000    2    1    2    0    0  0.19310851658E+03 -0.16509470961E+03 -0.11110632624E+04  0.12880104786E+04  0.59996854709E+03 0.  0.
         23    2    4    4    0    0  0.11776722472E+03 -0.35987951663E+03 -0.87901357777E+03  0.96130717603E+03  0.89801063818E+02 0.  0.
         23    2    4    4    0    0  0.75341291862E+02  0.19478480702E+03 -0.23204968463E+03  0.32670330253E+03  0.96283749632E+02 0.  0.
          3    1    3    3  502    0 -0.15333205650E+03  0.78262726759E+02 -0.10238758286E+03  0.20029725678E+03  0.00000000000E+00 0. -1.
         -3    1    3    3    0  502 -0.39776460080E+02  0.86831982854E+02 -0.88278447427E+02  0.13005784983E+03  0.00000000000E+00 0.  1.
         13    1    5    5    0    0  0.41208079207E+02 -0.18923352681E+03 -0.54650014702E+03  0.57980155584E+03  0.00000000000E+00 0. -1.
        -13    1    5    5    0    0  0.76559145509E+02 -0.17064598982E+03 -0.33251343075E+03  0.38150562018E+03  0.00000000000E+00 0.  1.
          5    1    6    6  503    0 -0.79851608894E+01  0.59017409941E+02 -0.11285579002E+03  0.12769235221E+03  0.47000000000E+01 0. -1.
         -5    1    6    6    0  503  0.83326452752E+02  0.13576739708E+03 -0.11919389461E+03  0.19901095033E+03  0.47000000000E+01 0.  1.
<mgrwt>
<rscale>  0 0.43373458E+03</rscale>
<asrwt>0</asrwt>
<pdfrwt beam="1">  1        1 0.22462268E+00 0.43373458E+03</pdfrwt>
<pdfrwt beam="2">  1       -1 0.24356638E-01 0.43373458E+03</pdfrwt>
<totfact> 0.10828040E+02</totfact>
</mgrwt>
</event>
<event>
12    1  0.3127365E-008  0.8126943E+03  0.7818608E-02  0.9541822E-01
         -2   -1    0    0    0  501 -0.00000000000E+00  0.00000000000E+00  0.87742332483E+03  0.87742332483E+03  0.00000000000E+00 0.  1.
          2   -1    0    0  501    0  0.00000000000E+00 -0.00000000000E+00 -0.13131742539E+04  0.13131742539E+04  0.00000000000E+00 0. -1.
         23    2    1    2    0    0 -0.49199044514E+03 -0.60575871867E+03  0.41581620372E+03  0.88902347414E+03  0.91985862702E+02 0.  0.
    5000000    2    1    2    0    0  0.49199044514E+03  0.60575871867E+03 -0.85156713279E+03  0.13015741046E+04  0.59994195114E+03 0.  0.
         23    2    4    4    0    0  0.18556228952E+02  0.20205322810E+03  0.24504508868E+02  0.22367972306E+03  0.90897232815E+02 0.  0.
         23    2    4    4    0    0  0.47343421619E+03  0.40370549057E+03 -0.87607164166E+03  0.10778943815E+04  0.85068773662E+02 0.  0.
          3    1    3    3  502    0 -0.44676115679E+03 -0.56694138197E+03  0.40734095724E+03  0.82882128185E+03  0.00000000000E+00 0. -1.
         -3    1    3    3    0  502 -0.45229288356E+02 -0.38817336703E+02  0.84752464866E+01  0.60202192293E+02  0.00000000000E+00 0.  1.
         11    1    5    5    0    0  0.47938127287E+02  0.12572189746E+03  0.40132718868E+02  0.14040902632E+03  0.00000000000E+00 0. -1.
        -11    1    5    5    0    0 -0.29381898335E+02  0.76331330636E+02 -0.15628210000E+02  0.83270696732E+02  0.00000000000E+00 0.  1.
          5    1    6    6  503    0  0.49411641605E+02  0.13673541506E+02 -0.82140666491E+02  0.96941503780E+02  0.47000000000E+01 0. -1.
         -5    1    6    6    0  503  0.42402257458E+03  0.39003194906E+03 -0.79393097517E+03  0.98095287775E+03  0.47000000000E+01 0.  1.
<mgrwt>
<rscale>  0 0.81269432E+03</rscale>
<asrwt>0</asrwt>
<pdfrwt beam="1">  1        2 0.20202681E+00 0.81269432E+03</pdfrwt>
<pdfrwt beam="2">  1       -2 0.13498820E+00 0.81269432E+03</pdfrwt>
<totfact> 0.64970837E+00</totfact>
</mgrwt>
</event>
<event>
12    1  0.3127365E-008  0.3370867E+03  0.7818608E-02  0.1068044E+00
          1   -1    0    0  501    0  0.00000000000E+00  0.00000000000E+00  0.22355360955E+04  0.22355360955E+04  0.00000000000E+00 0. -1.
         -1   -1    0    0    0  501 -0.00000000000E+00 -0.00000000000E+00 -0.89529859737E+02  0.89529859737E+02  0.00000000000E+00 0.  1.
         23    2    1    2    0    0 -0.17694841127E+03 -0.84158658605E+02  0.93203770161E+03  0.95679934750E+03  0.91527559137E+02 0.  0.
    5000000    2    1    2    0    0  0.17694841127E+03  0.84158658605E+02  0.12139685341E+04  0.13682666077E+04  0.60003373893E+03 0.  0.
         23    2    4    4    0    0  0.16825723688E+03  0.23159928531E+03  0.11397319968E+04  0.11787100873E+04  0.91759025035E+02 0.  0.
         23    2    4    4    0    0  0.86911743849E+01 -0.14744062670E+03  0.74236537366E+02  0.18955652044E+03  0.92770340342E+02 0.  0.
          3    1    3    3  502    0 -0.10931638040E+03 -0.83828591971E+02  0.46783217358E+03  0.48769277880E+03  0.00000000000E+00 0. -1.
         -3    1    3    3    0  502 -0.67632030866E+02 -0.33006663407E+00  0.46420552803E+03  0.46910656870E+03  0.00000000000E+00 0.  1.
         11    1    5    5    0    0  0.13467545827E+02  0.77691658737E+02  0.38782662603E+03  0.39576111543E+03  0.00000000000E+00 0. -1.
        -11    1    5    5    0    0  0.15478969106E+03  0.15390762657E+03  0.75190537072E+03  0.78294897184E+03  0.00000000000E+00 0.  1.
          5    1    6    6  503    0 -0.27233921047E+02 -0.12715916179E+03  0.41195421620E+02  0.13649282635E+03  0.47000000000E+01 0. -1.
         -5    1    6    6    0  503  0.35925095432E+02 -0.20281464912E+02  0.33041115745E+02  0.53063694090E+02  0.47000000000E+01 0.  1.
<mgrwt>
<rscale>  0 0.33708671E+03</rscale>
<asrwt>0</asrwt>
<pdfrwt beam="1">  1        1 0.34392859E+00 0.33708671E+03</pdfrwt>
<pdfrwt beam="2">  1       -1 0.13773826E-01 0.33708671E+03</pdfrwt>
<totfact> 0.86079738E+01</totfact>
</mgrwt>
</event>
<event>
12    1  0.3127365E-008  0.8986772E+03  0.7818608E-02  0.9427237E-01
          1   -1    0    0  501    0  0.00000000000E+00  0.00000000000E+00  0.86843970574E+03  0.86843970574E+03  0.00000000000E+00 0. -1.
         -1   -1    0    0    0  501 -0.00000000000E+00 -0.00000000000E+00 -0.95241229712E+03  0.95241229712E+03  0.00000000000E+00 0.  1.
         23    2    1    2    0    0 -0.68367157246E+03 -0.43006392547E+03 -0.38626516586E+02  0.81364358935E+03  0.90344251195E+02 0.  0.
    5000000    2    1    2    0    0  0.68367157246E+03  0.43006392547E+03 -0.45346074795E+02  0.10072084135E+04  0.60004226750E+03 0.  0.
         23    2    4    4    0    0  0.26875462614E+03  0.49598774070E+03 -0.72943467760E+02  0.57636386381E+03  0.92960561643E+02 0.  0.
         23    2    4    4    0    0  0.41491694632E+03 -0.65923815230E+02  0.27597392965E+02  0.43084454971E+03  0.91451561821E+02 0.  0.
          3    1    3    3  502    0 -0.63495202291E+03 -0.38409767778E+03 -0.13822075724E+02  0.74221704862E+03  0.00000000000E+00 0. -1.
         -3    1    3    3    0  502 -0.48719549545E+02 -0.45966247684E+02 -0.24804440862E+02  0.71426540729E+02  0.00000000000E+00 0.  1.
         13    1    5    5    0    0  0.10544347532E+03  0.14204791424E+03  0.12365132182E+02  0.17733818800E+03  0.00000000000E+00 0.  1.
        -13    1    5    5    0    0  0.16331115083E+03  0.35393982645E+03 -0.85308599942E+02  0.39902567581E+03  0.00000000000E+00 0. -1.
          5    1    6    6  503    0  0.63989610319E+02  0.16040574147E+01  0.35530162261E+02  0.73360245769E+02  0.47000000000E+01 0. -1.
         -5    1    6    6    0  503  0.35092733600E+03 -0.67527872645E+02 -0.79327692955E+01  0.35748430394E+03  0.47000000000E+01 0.  1.
<mgrwt>
<rscale>  0 0.89867718E+03</rscale>
<asrwt>0</asrwt>
<pdfrwt beam="1">  1        1 0.13360611E+00 0.89867718E+03</pdfrwt>
<pdfrwt beam="2">  1       -1 0.14652497E+00 0.89867718E+03</pdfrwt>
<totfact> 0.72790487E+00</totfact>
</mgrwt>
</event>
<event>
12    1  0.3127365E-008  0.1301913E+04  0.7818608E-02  0.9028049E-01
         -1   -1    0    0    0  501 -0.00000000000E+00  0.00000000000E+00  0.12478989960E+04  0.12478989960E+04  0.00000000000E+00 0.  1.
          1   -1    0    0  501    0  0.00000000000E+00 -0.00000000000E+00 -0.15699220137E+04  0.15699220137E+04  0.00000000000E+00 0. -1.
         23    2    1    2    0    0 -0.22484804748E+03  0.12719003968E+04  0.18119388448E+03  0.13075637161E+04  0.92759818729E+02 0.  0.
    5000000    2    1    2    0    0  0.22484804748E+03 -0.12719003968E+04 -0.50321690221E+03  0.15102572936E+04  0.59946857992E+03 0.  0.
         23    2    4    4    0    0  0.11180648626E+03 -0.36571071137E+03 -0.44028954152E+03  0.59025040315E+03  0.91080421985E+02 0.  0.
         23    2    4    4    0    0  0.11304156122E+03 -0.90618968542E+03 -0.62927360696E+02  0.92000689042E+03  0.92166616430E+02 0.  0.
          2    1    3    3  502    0 -0.60531302515E+02  0.59577894728E+03  0.69768373066E+02  0.60289652386E+03  0.00000000000E+00 0. -1.
         -2    1    3    3    0  502 -0.16431674496E+03  0.67612144952E+03  0.11142551141E+03  0.70466719220E+03  0.00000000000E+00 0.  1.
         11    1    5    5    0    0  0.62368392519E+02 -0.72223966129E+02 -0.11167903041E+03  0.14689562111E+03  0.00000000000E+00 0. -1.
        -11    1    5    5    0    0  0.49438093737E+02 -0.29348674525E+03 -0.32861051111E+03  0.44335478204E+03  0.00000000000E+00 0.  1.
          5    1    6    6  503    0  0.86912337040E+02 -0.84447317493E+03 -0.43458852517E+02  0.85005850349E+03  0.47000000000E+01 0. -1.
         -5    1    6    6    0  503  0.26129224181E+02 -0.61716510492E+02 -0.19468508179E+02  0.69948386931E+02  0.47000000000E+01 0.  1.
<mgrwt>
<rscale>  0 0.13019134E+04</rscale>
<asrwt>0</asrwt>
<pdfrwt beam="1">  1        1 0.24152646E+00 0.13019134E+04</pdfrwt>
<pdfrwt beam="2">  1       -1 0.19198446E+00 0.13019134E+04</pdfrwt>
<totfact> 0.96952452E-01</totfact>
</mgrwt>
</event>
<event>
12    1  0.3127365E-008  0.3887644E+03  0.7818608E-02  0.1047741E+00
          2   -1    0    0  501    0  0.00000000000E+00  0.00000000000E+00  0.14615023121E+04  0.14615023121E+04  0.00000000000E+00 0.  1.
         -2   -1    0    0    0  501 -0.00000000000E+00 -0.00000000000E+00 -0.17987163776E+03  0.17987163776E+03  0.00000000000E+00 0. -1.
         23    2    1    2    0    0  0.25034396645E+03  0.77296383571E+01  0.85589810288E+02  0.27999676890E+03  0.91327575913E+02 0.  0.
    5000000    2    1    2    0    0 -0.25034396645E+03 -0.77296383571E+01  0.11960408641E+04  0.13613771810E+04  0.60008518686E+03 0.  0.
         23    2    4    4    0    0 -0.28751647969E+03 -0.16040177394E+03  0.32540980566E+03  0.47181117445E+03  0.91212869376E+02 0.  0.
         23    2    4    4    0    0  0.37172513240E+02  0.15267213558E+03  0.87063105843E+03  0.88956600653E+03  0.92944410043E+02 0.  0.
          4    1    3    3  502    0  0.17554536674E+03  0.40153829992E+02  0.83372523094E+02  0.19844264525E+03  0.00000000000E+00 0. -1.
         -4    1    3    3    0  502  0.74798599713E+02 -0.32424191634E+02  0.22172871941E+01  0.81554123652E+02  0.00000000000E+00 0.  1.
         11    1    5    5    0    0 -0.24479142911E+03 -0.16157247321E+03  0.25120213695E+03  0.38617485868E+03  0.00000000000E+00 0.  1.
        -11    1    5    5    0    0 -0.42725050584E+02  0.11706992745E+01  0.74207668709E+02  0.85636315775E+02  0.00000000000E+00 0. -1.
          5    1    6    6  503    0 -0.28364350638E+02  0.56646193028E+02  0.38394316162E+03  0.38916290795E+03  0.47000000000E+01 0. -1.
         -5    1    6    6    0  503  0.65536863878E+02  0.96025942553E+02  0.48668789681E+03  0.50040309858E+03  0.47000000000E+01 0.  1.
<mgrwt>
<rscale>  0 0.38876445E+03</rscale>
<asrwt>0</asrwt>
<pdfrwt beam="1">  1        2 0.22484650E+00 0.38876445E+03</pdfrwt>
<pdfrwt beam="2">  1       -2 0.27672561E-01 0.38876445E+03</pdfrwt>
<totfact> 0.16769414E+02</totfact>
</mgrwt>
</event>
<event>
12    1  0.3127365E-008  0.3305251E+03  0.7818608E-02  0.1070905E+00
          2   -1    0    0  501    0  0.00000000000E+00  0.00000000000E+00  0.39212077188E+03  0.39212077188E+03  0.00000000000E+00 0. -1.
         -2   -1    0    0    0  501 -0.00000000000E+00 -0.00000000000E+00 -0.37136052523E+03  0.37136052523E+03  0.00000000000E+00 0.  1.
         23    2    1    2    0    0 -0.64879269443E+02 -0.19221453922E+02  0.10513952329E+03  0.15455789989E+03  0.90857257087E+02 0.  0.
    5000000    2    1    2    0    0  0.64879269443E+02  0.19221453922E+02 -0.84379276630E+02  0.60892339722E+03  0.59924040040E+03 0.  0.
         23    2    4    4    0    0 -0.15502337128E+03 -0.17498366285E+03  0.74919837594E+02  0.26160147699E+03  0.90392603632E+02 0.  0.
         23    2    4    4    0    0  0.21990264073E+03  0.19420511677E+03 -0.15929911422E+03  0.34732192023E+03  0.95830630305E+02 0.  0.
          2    1    3    3  502    0 -0.83051694056E+02 -0.97481175020E+00  0.96665980451E+02  0.12744742414E+03  0.00000000000E+00 0. -1.
         -2    1    3    3    0  502  0.18172424614E+02 -0.18246642171E+02  0.84735428371E+01  0.27110475744E+02  0.00000000000E+00 0.  1.
         11    1    5    5    0    0 -0.10751240236E+03 -0.16669535452E+03  0.78302180483E+02  0.21325451777E+03  0.00000000000E+00 0. -1.
        -11    1    5    5    0    0 -0.47510968920E+02 -0.82883083288E+01 -0.33823428898E+01  0.48346959223E+02  0.00000000000E+00 0.  1.
          5    1    6    6  503    0  0.67064096637E+02  0.11558553161E+03 -0.45979853747E+02  0.14139959380E+03  0.47000000000E+01 0. -1.
         -5    1    6    6    0  503  0.15283854409E+03  0.78619585158E+02 -0.11331926048E+03  0.20592232643E+03  0.47000000000E+01 0.  1.
<mgrwt>
<rscale>  0 0.33052513E+03</rscale>
<asrwt>0</asrwt>
<pdfrwt beam="1">  1        2 0.60326272E-01 0.33052513E+03</pdfrwt>
<pdfrwt beam="2">  1       -2 0.57132389E-01 0.33052513E+03</pdfrwt>
<totfact> 0.23984291E+02</totfact>
</mgrwt>
</event>
<event>
12    1  0.3127365E-008  0.1751903E+04  0.7818608E-02  0.8732304E-01
          2   -1    0    0  501    0  0.00000000000E+00  0.00000000000E+00  0.10629760810E+04  0.10629760810E+04  0.00000000000E+00 0. -1.
         -2   -1    0    0    0  501 -0.00000000000E+00 -0.00000000000E+00 -0.45560443368E+04  0.45560443368E+04  0.00000000000E+00 0.  1.
         23    2    1    2    0    0 -0.15978309928E+04  0.61424290871E+03 -0.33940471511E+04  0.38023396269E+04  0.88726220708E+02 0.  0.
    5000000    2    1    2    0    0  0.15978309928E+04 -0.61424290871E+03 -0.99021104725E+02  0.18166807909E+04  0.60013805442E+03 0.  0.
         23    2    4    4    0    0  0.15202298348E+04 -0.42882650624E+03 -0.23396571269E+02  0.15824463368E+04  0.92725866361E+02 0.  0.
         23    2    4    4    0    0  0.77601158009E+02 -0.18541640247E+03 -0.75624533457E+02  0.23423445408E+03  0.93517524500E+02 0.  0.
          4    1    3    3  502    0 -0.98393537986E+03  0.34870769875E+03 -0.21420445723E+04  0.23828723928E+04  0.00000000000E+00 0. -1.
         -4    1    3    3    0  502 -0.61389561295E+03  0.26553520996E+03 -0.12520025788E+04  0.14194672341E+04  0.00000000000E+00 0.  1.
         13    1    5    5    0    0  0.13885826044E+04 -0.37335128389E+03 -0.41161024569E+02  0.14384877686E+04  0.00000000000E+00 0. -1.
        -13    1    5    5    0    0  0.13164723039E+03 -0.55475222345E+02  0.17764453301E+02  0.14395856822E+03  0.00000000000E+00 0.  1.
          5    1    6    6  503    0  0.63471944452E+02 -0.72836170469E+02 -0.72060950458E+02  0.12061785126E+03  0.47000000000E+01 0. -1.
         -5    1    6    6    0  503  0.14129213557E+02 -0.11258023200E+03 -0.35635829986E+01  0.11361660282E+03  0.47000000000E+01 0.  1.
<mgrwt>
<rscale>  0 0.17519026E+04</rscale>
<asrwt>0</asrwt>
<pdfrwt beam="1">  1        2 0.16353478E+00 0.17519026E+04</pdfrwt>
<pdfrwt beam="2">  1       -2 0.70092989E+00 0.17519026E+04</pdfrwt>
<totfact> 0.47007234E-03</totfact>
</mgrwt>
</event>
<event>
12    1  0.3993161E-008  0.2005735E+04  0.7818608E-02  0.8603944E-01
         -1   -1    0    0    0  501 -0.00000000000E+00  0.00000000000E+00  0.17010750202E+04  0.17010750202E+04  0.00000000000E+00 0.  1.
          1   -1    0    0  501    0  0.00000000000E+00 -0.00000000000E+00 -0.24520465059E+04  0.24520465059E+04  0.00000000000E+00 0. -1.
         23    2    1    2    0    0  0.30717770758E+03  0.19447129550E+04 -0.25212666348E+02  0.19709847128E+04  0.88760565834E+02 0.  0.
    5000000    2    1    2    0    0 -0.30717770758E+03 -0.19447129550E+04 -0.72575881939E+03  0.21821368133E+04  0.59893955181E+03 0.  0.
         23    2    4    4    0    0 -0.29513597361E+03 -0.43519468300E+03 -0.89310184549E+02  0.54139916262E+03  0.92935941314E+02 0.  0.
         23    2    4    4    0    0 -0.12041733969E+02 -0.15095182720E+04 -0.63644863484E+03  0.16407376507E+04  0.90347975958E+02 0.  0.
          4    1    3    3  502    0  0.18870612722E+03  0.10142233201E+04 -0.47448721186E+02  0.10327198684E+04  0.00000000000E+00 0.  1.
         -4    1    3    3    0  502  0.11847158036E+03  0.93048963490E+03  0.22236054838E+02  0.93826484435E+03  0.00000000000E+00 0. -1.
         11    1    5    5    0    0 -0.83716104762E+02 -0.75121178192E+02  0.76376978638E+01  0.11273824568E+03  0.00000000000E+00 0.  1.
        -11    1    5    5    0    0 -0.21141986885E+03 -0.36007350481E+03 -0.96947882413E+02  0.42866091695E+03  0.00000000000E+00 0. -1.
          5    1    6    6  503    0  0.34805079778E+02 -0.53484071067E+03 -0.20632426391E+03  0.57433245707E+03  0.47000000000E+01 0. -1.
         -5    1    6    6    0  503 -0.46846813747E+02 -0.97467756134E+03 -0.43012437093E+03  0.10664051936E+04  0.47000000000E+01 0.  1.
<mgrwt>
<rscale>  0 0.20057352E+04</rscale>
<asrwt>0</asrwt>
<pdfrwt beam="1">  1        1 0.37723792E+00 0.20057352E+04</pdfrwt>
<pdfrwt beam="2">  1       -1 0.26170385E+00 0.20057352E+04</pdfrwt>
<totfact> 0.76172223E-02</totfact>
</mgrwt>
</event>
<event>
12    1  0.3127365E-008  0.3796275E+03  0.7818608E-02  0.1051072E+00
          2   -1    0    0  501    0  0.00000000000E+00  0.00000000000E+00  0.32082319250E+04  0.32082319250E+04  0.00000000000E+00 0.  1.
         -2   -1    0    0    0  501 -0.00000000000E+00 -0.00000000000E+00 -0.70159622347E+02  0.70159622347E+02  0.00000000000E+00 0. -1.
         23    2    1    2    0    0 -0.22830846956E+03 -0.10581669303E+03  0.13258136346E+04  0.13526509214E+04  0.92524545818E+02 0.  0.
    5000000    2    1    2    0    0  0.22830846956E+03  0.10581669303E+03  0.18122586680E+04  0.19257406259E+04  0.60072751629E+03 0.  0.
         23    2    4    4    0    0 -0.10007255633E+03 -0.61689279728E+02  0.12171318045E+03  0.19301170093E+03  0.92840371811E+02 0.  0.
         23    2    4    4    0    0  0.32838102589E+03  0.16750597275E+03  0.16905454876E+04  0.17327289250E+04  0.92266640601E+02 0.  0.
          2    1    3    3  502    0 -0.16812858000E+03 -0.93375660159E+02  0.77871311313E+03  0.80210993379E+03  0.00000000000E+00 0. -1.
         -2    1    3    3    0  502 -0.60179889561E+02 -0.12441032866E+02  0.54710052149E+03  0.55054098759E+03  0.00000000000E+00 0.  1.
         11    1    5    5    0    0  0.94440300127E+01  0.19676604358E+01 -0.73826291776E+01  0.12147617217E+02  0.00000000000E+00 0. -1.
        -11    1    5    5    0    0 -0.10951658634E+03 -0.63656940164E+02  0.12909580962E+03  0.18086408372E+03  0.00000000000E+00 0.  1.
          5    1    6    6  503    0  0.21456966858E+02  0.96201670637E+01  0.41385067090E+02  0.47830563651E+02  0.47000000000E+01 0. -1.
         -5    1    6    6    0  503  0.30692405903E+03  0.15788580569E+03  0.16491604205E+04  0.16848983614E+04  0.47000000000E+01 0.  1.
<mgrwt>
<rscale>  0 0.37962750E+03</rscale>
<asrwt>0</asrwt>
<pdfrwt beam="1">  1        2 0.49357403E+00 0.37962750E+03</pdfrwt>
<pdfrwt beam="2">  1       -2 0.10793791E-01 0.37962750E+03</pdfrwt>
<totfact> 0.88553902E+01</totfact>
</mgrwt>
</event>
<event>
12    1  0.3127365E-008  0.1326094E+04  0.7818608E-02  0.9009125E-01
         -2   -1    0    0    0  501 -0.00000000000E+00  0.00000000000E+00  0.59843054447E+03  0.59843054447E+03  0.00000000000E+00 0. -1.
          2   -1    0    0  501    0  0.00000000000E+00 -0.00000000000E+00 -0.30391432764E+04  0.30391432764E+04  0.00000000000E+00 0.  1.
         23    2    1    2    0    0 -0.11325558159E+04  0.58276380010E+03 -0.98794900562E+03  0.16144750926E+04  0.90500077409E+02 0.  0.
    5000000    2    1    2    0    0  0.11325558159E+04 -0.58276380010E+03 -0.14527637263E+04  0.20230987283E+04  0.60009140749E+03 0.  0.
         23    2    4    4    0    0  0.94899988549E+03 -0.67637220307E+03 -0.11047424979E+04  0.16087046149E+04  0.96924772046E+02 0.  0.
         23    2    4    4    0    0  0.18355593037E+03  0.93608402971E+02 -0.34802122841E+03  0.41439411348E+03  0.90268450630E+02 0.  0.
          4    1    3    3  502    0 -0.46482085501E+03  0.28824092653E+03 -0.41047150405E+03  0.68383339682E+03  0.00000000000E+00 0. -1.
         -4    1    3    3    0  502 -0.66773496085E+03  0.29452287357E+03 -0.57747750157E+03  0.93064169573E+03  0.00000000000E+00 0.  1.
         11    1    5    5    0    0  0.61118337001E+03 -0.38251515192E+03 -0.70714429859E+03  0.10099089128E+04  0.00000000000E+00 0.  1.
        -11    1    5    5    0    0  0.33781651548E+03 -0.29385705116E+03 -0.39759819931E+03  0.59879570201E+03  0.00000000000E+00 0. -1.
          5    1    6    6  503    0  0.82059275433E+02  0.34489019018E+02 -0.23493721845E+03  0.25127833916E+03  0.47000000000E+01 0. -1.
         -5    1    6    6    0  503  0.10149665494E+03  0.59119383952E+02 -0.11308400996E+03  0.16311577431E+03  0.47000000000E+01 0.  1.
<mgrwt>
<rscale>  0 0.13260939E+04</rscale>
<asrwt>0</asrwt>
<pdfrwt beam="1">  1        2 0.46756050E+00 0.13260939E+04</pdfrwt>
<pdfrwt beam="2">  1       -2 0.92066238E-01 0.13260939E+04</pdfrwt>
<totfact> 0.16116751E+00</totfact>
</mgrwt>
</event>
<event>
12    1  0.3127365E-008  0.1363029E+04  0.7818608E-02  0.8981024E-01
          1   -1    0    0  501    0  0.00000000000E+00  0.00000000000E+00  0.14710116152E+04  0.14710116152E+04  0.00000000000E+00 0.  1.
         -1   -1    0    0    0  501 -0.00000000000E+00 -0.00000000000E+00 -0.13824858466E+04  0.13824858466E+04  0.00000000000E+00 0. -1.
         23    2    1    2    0    0 -0.22947869627E+03 -0.13382288023E+04 -0.56819623707E+02  0.13619958178E+04  0.91034821465E+02 0.  0.
    5000000    2    1    2    0    0  0.22947869627E+03  0.13382288023E+04  0.14534539228E+03  0.14915016440E+04  0.59994589053E+03 0.  0.
         23    2    4    4    0    0  0.10421564153E+03  0.94771291553E+03 -0.16226699143E+03  0.97089399117E+03  0.85345740188E+02 0.  0.
         23    2    4    4    0    0  0.12526305474E+03  0.39051588676E+03  0.30761238371E+03  0.52060765279E+03  0.90628134931E+02 0.  0.
          2    1    3    3  502    0 -0.96388923507E+02 -0.35655495087E+03  0.53479244255E+01  0.36939255253E+03  0.00000000000E+00 0. -1.
         -2    1    3    3    0  502 -0.13308977276E+03 -0.98167385141E+03 -0.62167548132E+02  0.99260326526E+03  0.00000000000E+00 0.  1.
         13    1    5    5    0    0  0.11232804127E+02  0.15513734872E+03 -0.58427691121E+02  0.16615525254E+03  0.00000000000E+00 0.  1.
        -13    1    5    5    0    0  0.92982837402E+02  0.79257556681E+03 -0.10383930031E+03  0.80473873863E+03  0.00000000000E+00 0. -1.
          5    1    6    6  503    0  0.97712093867E+02  0.23600302448E+03  0.14156447185E+03  0.29207476875E+03  0.47000000000E+01 0. -1.
         -5    1    6    6    0  503  0.27550960874E+02  0.15451286228E+03  0.16604791186E+03  0.22853288404E+03  0.47000000000E+01 0.  1.
<mgrwt>
<rscale>  0 0.13630289E+04</rscale>
<asrwt>0</asrwt>
<pdfrwt beam="1">  1        1 0.22630948E+00 0.13630289E+04</pdfrwt>
<pdfrwt beam="2">  1       -1 0.21269013E+00 0.13630289E+04</pdfrwt>
<totfact> 0.81185339E-01</totfact>
</mgrwt>
</event>
<event>
12    1  0.3127365E-008  0.7690486E+03  0.7818608E-02  0.9605931E-01
         -1   -1    0    0    0  501 -0.00000000000E+00  0.00000000000E+00  0.77405174657E+03  0.77405174657E+03  0.00000000000E+00 0.  1.
          1   -1    0    0  501    0  0.00000000000E+00 -0.00000000000E+00 -0.13534579470E+04  0.13534579470E+04  0.00000000000E+00 0. -1.
         23    2    1    2    0    0  0.13017991573E+03  0.68144849705E+03  0.38318376475E+03  0.79790588677E+03  0.92223326670E+02 0.  0.
    5000000    2    1    2    0    0 -0.13017991573E+03 -0.68144849705E+03 -0.96258996524E+03  0.13296038068E+04  0.59995664627E+03 0.  0.
         23    2    4    4    0    0  0.97847342549E+02  0.27678882740E+01 -0.16423343582E+02  0.13646729072E+03  0.93658056642E+02 0.  0.
         23    2    4    4    0    0 -0.22802725828E+03 -0.68421638533E+03 -0.94616662166E+03  0.11931365161E+04  0.90526116098E+02 0.  0.
          4    1    3    3  502    0  0.54427872793E+00  0.17699865497E+03  0.71264790240E+02  0.19080746953E+03  0.00000000000E+00 0. -1.
         -4    1    3    3    0  502  0.12963563700E+03  0.50444984209E+03  0.31191897451E+03  0.60709841725E+03  0.00000000000E+00 0.  1.
         13    1    5    5    0    0  0.16422749684E+02  0.26521390292E+02 -0.37787114741E+02  0.48999560107E+02  0.00000000000E+00 0.  1.
        -13    1    5    5    0    0  0.81424592865E+02 -0.23753502018E+02  0.21363771160E+02  0.87467730618E+02  0.00000000000E+00 0. -1.
          5    1    6    6  503    0 -0.13069167496E+03 -0.48717335441E+03 -0.61100266219E+03  0.79231593090E+03  0.47000000000E+01 0. -1.
         -5    1    6    6    0  503 -0.97335583321E+02 -0.19704303091E+03 -0.33516395947E+03  0.40082058522E+03  0.47000000000E+01 0. -1.
<mgrwt>
<rscale>  0 0.76904859E+03</rscale>
<asrwt>0</asrwt>
<pdfrwt beam="1">  1        1 0.20822430E+00 0.76904859E+03</pdfrwt>
<pdfrwt beam="2">  1       -1 0.11908489E+00 0.76904859E+03</pdfrwt>
<totfact> 0.54175334E+00</totfact>
</mgrwt>
</event>
<event>
12    1  0.3127365E-008  0.8852138E+03  0.7818608E-02  0.9444256E-01
          1   -1    0    0  501    0  0.00000000000E+00  0.00000000000E+00  0.75454834621E+03  0.75454834621E+03  0.00000000000E+00 0.  1.
         -1   -1    0    0    0  501 -0.00000000000E+00 -0.00000000000E+00 -0.11200187570E+04  0.11200187570E+04  0.00000000000E+00 0. -1.
         23    2    1    2    0    0 -0.32100291606E+03  0.75265905236E+03 -0.18459823565E+03  0.84376535513E+03  0.91241134870E+02 0.  0.
    5000000    2    1    2    0    0  0.32100291606E+03 -0.75265905236E+03 -0.18087217512E+03  0.10308017481E+04  0.60024909735E+03 0.  0.
         23    2    4    4    0    0  0.79037977904E+02 -0.67392387487E+03  0.35293253954E+02  0.68555487254E+03  0.91211174816E+02 0.  0.
         23    2    4    4    0    0  0.24196493816E+03 -0.78735177491E+02 -0.21616542908E+03  0.34524687553E+03  0.87872935900E+02 0.  0.
          1    1    3    3  502    0 -0.18864192038E+03  0.51851121490E+03 -0.92471212750E+02  0.55945560975E+03  0.00000000000E+00 0. -1.
         -1    1    3    3    0  502 -0.13236099569E+03  0.23414783746E+03 -0.92127022899E+02  0.28430974538E+03  0.00000000000E+00 0.  1.
         11    1    5    5    0    0  0.83957458078E+02 -0.51433340086E+03 -0.38723677488E+01  0.52115515659E+03  0.00000000000E+00 0. -1.
        -11    1    5    5    0    0 -0.49194801742E+01 -0.15959047401E+03  0.39165621703E+02  0.16439971595E+03  0.00000000000E+00 0.  1.
          5    1    6    6  503    0  0.14091700976E+03 -0.89747516213E+02 -0.12629207105E+03  0.20948507708E+03  0.47000000000E+01 0. -1.
         -5    1    6    6    0  503  0.10104792839E+03  0.11012338722E+02 -0.89873358027E+02  0.13576179846E+03  0.47000000000E+01 0.  1.
<mgrwt>
<rscale>  0 0.88521379E+03</rscale>
<asrwt>0</asrwt>
<pdfrwt beam="1">  1        1 0.11608436E+00 0.88521379E+03</pdfrwt>
<pdfrwt beam="2">  1       -1 0.17231058E+00 0.88521379E+03</pdfrwt>
<totfact> 0.58335802E+00</totfact>
</mgrwt>
</event>
<event>
12    1  0.3127365E-008  0.8625679E+03  0.7818608E-02  0.9473622E-01
         -1   -1    0    0    0  501 -0.00000000000E+00  0.00000000000E+00  0.58660723851E+03  0.58660723851E+03  0.00000000000E+00 0.  1.
          1   -1    0    0  501    0  0.00000000000E+00 -0.00000000000E+00 -0.14065574562E+04  0.14065574562E+04  0.00000000000E+00 0. -1.
         23    2    1    2    0    0 -0.10180022138E+03 -0.79232181867E+03 -0.48863092416E+03  0.94059246114E+03  0.88412943029E+02 0.  0.
    5000000    2    1    2    0    0  0.10180022138E+03  0.79232181867E+03 -0.33131929353E+03  0.10525722336E+04  0.59999890267E+03 0.  0.
         23    2    4    4    0    0  0.11565673443E+02  0.82718677691E+03 -0.37674715706E+03  0.91362836407E+03  0.91687723258E+02 0.  0.
         23    2    4    4    0    0  0.90234547935E+02 -0.34864958235E+02  0.45427863523E+02  0.13894386950E+03  0.88791154595E+02 0.  0.
          3    1    3    3  502    0 -0.59132739739E+02 -0.27252117885E+03 -0.13025313170E+03  0.30778296274E+03  0.00000000000E+00 0. -1.
         -3    1    3    3    0  502 -0.42667481639E+02 -0.51980063982E+03 -0.35837779246E+03  0.63280949841E+03  0.00000000000E+00 0.  1.
         11    1    5    5    0    0  0.13021369039E+02  0.47755241148E+03 -0.16795862143E+03  0.50639506344E+03  0.00000000000E+00 0.  1.
        -11    1    5    5    0    0 -0.14556955957E+01  0.34963436543E+03 -0.20878853562E+03  0.40723330063E+03  0.00000000000E+00 0. -1.
          5    1    6    6  503    0  0.32717056813E+02 -0.15289931876E+02  0.65365906253E+02  0.74826329080E+02  0.47000000000E+01 0. -1.
         -5    1    6    6    0  503  0.57517491122E+02 -0.19575026359E+02 -0.19938042730E+02  0.64117540423E+02  0.47000000000E+01 0.  1.
<mgrwt>
<rscale>  0 0.86256793E+03</rscale>
<asrwt>0</asrwt>
<pdfrwt beam="1">  1        1 0.21639346E+00 0.86256793E+03</pdfrwt>
<pdfrwt beam="2">  1       -1 0.90247267E-01 0.86256793E+03</pdfrwt>
<totfact> 0.93225904E+00</totfact>
</mgrwt>
</event>
<event>
12    1  0.3127365E-008  0.2195638E+04  0.7818608E-02  0.8520246E-01
         -2   -1    0    0    0  501 -0.00000000000E+00  0.00000000000E+00  0.16405258313E+04  0.16405258313E+04  0.00000000000E+00 0.  1.
          2   -1    0    0  501    0  0.00000000000E+00 -0.00000000000E+00 -0.31105157635E+04  0.31105157635E+04  0.00000000000E+00 0. -1.
         23    2    1    2    0    0 -0.53700588948E+03  0.21230535306E+04 -0.10935419401E+04  0.24494359733E+04  0.90393547396E+02 0.  0.
    5000000    2    1    2    0    0  0.53700588948E+03 -0.21230535306E+04 -0.37644799207E+03  0.23016056215E+04  0.59995310423E+03 0.  0.
         23    2    4    4    0    0  0.35405760245E+03 -0.11245882982E+04  0.78470395735E+02  0.11852585617E+04  0.92868879276E+02 0.  0.
         23    2    4    4    0    0  0.18294828703E+03 -0.99846523238E+03 -0.45491838781E+03  0.11163470598E+04  0.94218482576E+02 0.  0.
          3    1    3    3  502    0 -0.39726467707E+03  0.14041692449E+04 -0.74189904468E+03  0.16370475511E+04  0.00000000000E+00 0. -1.
         -3    1    3    3    0  502 -0.13974121241E+03  0.71888428571E+03 -0.35164289541E+03  0.81238842223E+03  0.00000000000E+00 0.  1.
         13    1    5    5    0    0  0.18341782833E+03 -0.43175770079E+03  0.34582893895E+02  0.47037515718E+03  0.00000000000E+00 0.  1.
        -13    1    5    5    0    0  0.17063977412E+03 -0.69283059742E+03  0.43887501840E+02  0.71488340452E+03  0.00000000000E+00 0. -1.
          5    1    6    6  503    0  0.99630984254E+01 -0.18596093954E+03 -0.54135565901E+02  0.19399351500E+03  0.47000000000E+01 0. -1.
         -5    1    6    6    0  503  0.17298518861E+03 -0.81250429284E+03 -0.40078282191E+03  0.92235354485E+03  0.47000000000E+01 0.  1.
<mgrwt>
<rscale>  0 0.21956383E+04</rscale>
<asrwt>0</asrwt>
<pdfrwt beam="1">  1        2 0.47854089E+00 0.21956383E+04</pdfrwt>
<pdfrwt beam="2">  1       -2 0.25238859E+00 0.21956383E+04</pdfrwt>
<totfact> 0.80184425E-02</totfact>
</mgrwt>
</event>
<event>
12    1  0.3127365E-008  0.3990339E+03  0.7818608E-02  0.1044115E+00
         -1   -1    0    0    0  501 -0.00000000000E+00  0.00000000000E+00  0.26539924909E+03  0.26539924909E+03  0.00000000000E+00 0.  1.
          1   -1    0    0  501    0  0.00000000000E+00 -0.00000000000E+00 -0.15519436474E+04  0.15519436474E+04  0.00000000000E+00 0. -1.
         23    2    1    2    0    0 -0.26021800578E+03 -0.23589667979E+03 -0.10029057094E+04  0.10666079642E+04  0.92043649322E+02 0.  0.
    5000000    2    1    2    0    0  0.26021800578E+03  0.23589667979E+03 -0.28363868893E+03  0.75073493225E+03  0.59982612362E+03 0.  0.
         23    2    4    4    0    0  0.46081484935E+02  0.19803585476E+03  0.14302697373E+03  0.26356835477E+03  0.87577733459E+02 0.  0.
         23    2    4    4    0    0  0.21413652084E+03  0.37860825038E+02 -0.42666566265E+03  0.48716657748E+03  0.89441572531E+02 0.  0.
          1    1    3    3  502    0 -0.14165338276E+03 -0.16910206982E+03 -0.51907700780E+03  0.56400543516E+03  0.00000000000E+00 0. -1.
         -1    1    3    3    0  502 -0.11856462302E+03 -0.66794609973E+02 -0.48382870156E+03  0.50260252905E+03  0.00000000000E+00 0.  1.
         11    1    5    5    0    0  0.56906165166E+02  0.14814744510E+03  0.14130106714E+03  0.21248992611E+03  0.00000000000E+00 0.  1.
        -11    1    5    5    0    0 -0.10824680231E+02  0.49888409659E+02  0.17259065841E+01  0.51078428655E+02  0.00000000000E+00 0. -1.
          5    1    6    6  503    0  0.29372951911E+02  0.36141214765E+02 -0.12383416077E+03  0.13238559998E+03  0.47000000000E+01 0. -1.
         -5    1    6    6    0  503  0.18476356893E+03  0.17196102733E+01 -0.30283150189E+03  0.35478097750E+03  0.47000000000E+01 0.  1.
<mgrwt>
<rscale>  0 0.39903391E+03</rscale>
<asrwt>0</asrwt>
<pdfrwt beam="1">  1        1 0.23876056E+00 0.39903391E+03</pdfrwt>
<pdfrwt beam="2">  1       -1 0.40830654E-01 0.39903391E+03</pdfrwt>
<totfact> 0.38527652E+01</totfact>
</mgrwt>
</event>
<event>
12    1  0.3127365E-008  0.1525341E+04  0.7818608E-02  0.8867774E-01
          2   -1    0    0  501    0  0.00000000000E+00  0.00000000000E+00  0.45386314841E+04  0.45386314841E+04  0.00000000000E+00 0. -1.
         -2   -1    0    0    0  501 -0.00000000000E+00 -0.00000000000E+00 -0.51944942057E+03  0.51944942057E+03  0.00000000000E+00 0.  1.
         23    2    1    2    0    0 -0.13405964249E+04 -0.59612534095E+03  0.16763883719E+04  0.22294388777E+04  0.86922607251E+02 0.  0.
    5000000    2    1    2    0    0  0.13405964249E+04  0.59612534095E+03  0.23427936916E+04  0.28286420269E+04  0.59997436485E+03 0.  0.
         23    2    4    4    0    0  0.83375572563E+02 -0.86223486600E+02  0.20596406059E+03  0.25561813562E+03  0.92376735495E+02 0.  0.
         23    2    4    4    0    0  0.12572208523E+04  0.68234882755E+03  0.21368296311E+04  0.25730238913E+04  0.90591827660E+02 0.  0.
          2    1    3    3  502    0 -0.99360025905E+03 -0.40789311202E+03  0.12600581934E+04  0.16557067724E+04  0.00000000000E+00 0.  1.
         -2    1    3    3    0  502 -0.34699616582E+03 -0.18823222894E+03  0.41633017852E+03  0.57373210530E+03  0.00000000000E+00 0. -1.
         11    1    5    5    0    0  0.64903260241E+02 -0.48430388258E+01  0.11525580954E+03  0.13236234301E+03  0.00000000000E+00 0.  1.
        -11    1    5    5    0    0  0.18472312322E+02 -0.81380447774E+02  0.90708251050E+02  0.12325579261E+03  0.00000000000E+00 0. -1.
          5    1    6    6  503    0  0.11220364237E+04  0.63917409384E+03  0.19267277932E+04  0.23194420315E+04  0.47000000000E+01 0. -1.
         -5    1    6    6    0  503  0.13518442860E+03  0.43174733719E+02  0.21010183790E+03  0.25358185987E+03  0.47000000000E+01 0.  1.
<mgrwt>
<rscale>  0 0.15253410E+04</rscale>
<asrwt>0</asrwt>
<pdfrwt beam="1">  1        2 0.69825097E+00 0.15253410E+04</pdfrwt>
<pdfrwt beam="2">  1       -2 0.79915298E-01 0.15253410E+04</pdfrwt>
<totfact> 0.15342396E-01</totfact>
</mgrwt>
</event>
<event>
12    1  0.3127365E-008  0.5488450E+03  0.7818608E-02  0.1001762E+00
         -1   -1    0    0    0  501 -0.00000000000E+00  0.00000000000E+00  0.36694976975E+03  0.36694976975E+03  0.00000000000E+00 0.  1.
          1   -1    0    0  501    0  0.00000000000E+00 -0.00000000000E+00 -0.15953216352E+04  0.15953216352E+04  0.00000000000E+00 0. -1.
         23    2    1    2    0    0 -0.35026250076E+03  0.26755907684E+03  0.79223855242E+02  0.45783115718E+03  0.95190704405E+02 0.  0.
    5000000    2    1    2    0    0  0.35026250076E+03 -0.26755907684E+03 -0.13075957207E+04  0.15044402478E+04  0.59938486076E+03 0.  0.
         23    2    4    4    0    0  0.24258020399E+03  0.93150500891E+02 -0.22665832297E+03  0.35624950023E+03  0.89540716218E+02 0.  0.
         23    2    4    4    0    0  0.10768229677E+03 -0.36070957773E+03 -0.10809373977E+04  0.11481907476E+04  0.90606061774E+02 0.  0.
          2    1    3    3  502    0 -0.13722177022E+03  0.75368488530E+02 -0.11311090914E+02  0.15696548685E+03  0.00000000000E+00 0. -1.
         -2    1    3    3    0  502 -0.21304073054E+03  0.19219058831E+03  0.90534946156E+02  0.30086567033E+03  0.00000000000E+00 0.  1.
         13    1    5    5    0    0  0.10020586931E+03 -0.40061968931E+01 -0.10551802066E+03  0.14557238248E+03  0.00000000000E+00 0.  1.
        -13    1    5    5    0    0  0.14237433469E+03  0.97156697784E+02 -0.12114030231E+03  0.21067711775E+03  0.00000000000E+00 0. -1.
          5    1    6    6  503    0  0.42217740518E+02 -0.58440026471E+02 -0.29149032117E+03  0.30031029227E+03  0.47000000000E+01 0. -1.
         -5    1    6    6    0  503  0.65464556248E+02 -0.30226955126E+03 -0.78944707657E+03  0.84788045529E+03  0.47000000000E+01 0.  1.
<mgrwt>
<rscale>  0 0.54884502E+03</rscale>
<asrwt>0</asrwt>
<pdfrwt beam="1">  1        1 0.24543410E+00 0.54884502E+03</pdfrwt>
<pdfrwt beam="2">  1       -1 0.56453811E-01 0.54884502E+03</pdfrwt>
<totfact> 0.19100210E+01</totfact>
</mgrwt>
</event>
<event>
12    1  0.3200058E-008  0.9437500E+03  0.7818608E-02  0.9372486E-01
          1   -1    0    0  501    0  0.00000000000E+00  0.00000000000E+00  0.18763285787E+04  0.18763285787E+04  0.00000000000E+00 0. -1.
         -1   -1    0    0    0  501 -0.00000000000E+00 -0.00000000000E+00 -0.55674582421E+03  0.55674582421E+03  0.00000000000E+00 0.  1.
         23    2    1    2    0    0 -0.22758365104E+00  0.91198017397E+03  0.83108133059E+03  0.12371184283E+04  0.89766018457E+02 0.  0.
    5000000    2    1    2    0    0  0.22758365104E+00 -0.91198017397E+03  0.48850142386E+03  0.11959559746E+04  0.59997430153E+03 0.  0.
         23    2    4    4    0    0 -0.14729951228E+03 -0.40613960826E+03  0.49180924754E+03  0.66080917930E+03  0.90254682803E+02 0.  0.
         23    2    4    4    0    0  0.14752709593E+03 -0.50584056571E+03 -0.33078236786E+01  0.53514679528E+03  0.93446395580E+02 0.  0.
          1    1    3    3  502    0  0.40403351766E+02  0.55408692420E+03  0.52659963370E+03  0.76547496669E+03  0.00000000000E+00 0. -1.
         -1    1    3    3    0  502 -0.40630935417E+02  0.35789324977E+03  0.30448169688E+03  0.47164346161E+03  0.00000000000E+00 0.  1.
         11    1    5    5    0    0 -0.25647793364E+02 -0.16569431029E+03  0.23406478257E+03  0.28792140630E+03  0.00000000000E+00 0. -1.
        -11    1    5    5    0    0 -0.12165171891E+03 -0.24044529797E+03  0.25774446497E+03  0.37288777300E+03  0.00000000000E+00 0.  1.
          5    1    6    6  503    0  0.14701603075E+03 -0.36264249026E+03  0.80550291922E+01  0.39142082537E+03  0.47000000000E+01 0. -1.
         -5    1    6    6    0  503  0.51106518085E+00 -0.14319807545E+03 -0.11362852871E+02  0.14372596990E+03  0.47000000000E+01 0.  1.
<mgrwt>
<rscale>  0 0.94375002E+03</rscale>
<asrwt>0</asrwt>
<pdfrwt beam="1">  1        1 0.28866593E+00 0.94375002E+03</pdfrwt>
<pdfrwt beam="2">  1       -1 0.85653204E-01 0.94375002E+03</pdfrwt>
<totfact> 0.49520539E+00</totfact>
</mgrwt>
</event>
<event>
12    1  0.3127365E-008  0.5333055E+03  0.7818608E-02  0.1005434E+00
          4   -1    0    0  501    0  0.00000000000E+00  0.00000000000E+00  0.19939308542E+03  0.19939308542E+03  0.00000000000E+00 0. -1.
         -4   -1    0    0    0  501 -0.00000000000E+00 -0.00000000000E+00 -0.16836372645E+04  0.16836372645E+04  0.00000000000E+00 0.  1.
         23    2    1    2    0    0  0.30601471546E+03  0.28608550329E+03 -0.58003767831E+03  0.71985840988E+03  0.79135963657E+02 0.  0.
    5000000    2    1    2    0    0 -0.30601471546E+03 -0.28608550329E+03 -0.90420650077E+03  0.11631719400E+04  0.59990803026E+03 0.  0.
         23    2    4    4    0    0 -0.42001971643E+03 -0.17068733721E+03 -0.35329937783E+03  0.58211872977E+03  0.92146817087E+02 0.  0.
         23    2    4    4    0    0  0.11400500098E+03 -0.11539816608E+03 -0.55090712294E+03  0.58105321026E+03  0.88375890759E+02 0.  0.
          3    1    3    3  502    0  0.85175734699E+02  0.61726600450E+02 -0.95760750374E+02  0.14225048435E+03  0.00000000000E+00 0. -1.
         -3    1    3    3    0  502  0.22083898076E+03  0.22435890284E+03 -0.48427692794E+03  0.57760792554E+03  0.00000000000E+00 0.  1.
         13    1    5    5    0    0 -0.25709093702E+03 -0.15077093891E+03 -0.21523196364E+03  0.36763082581E+03  0.00000000000E+00 0.  1.
        -13    1    5    5    0    0 -0.16292877941E+03 -0.19916398300E+02 -0.13806741419E+03  0.21448790396E+03  0.00000000000E+00 0. -1.
          5    1    6    6  503    0  0.91173333647E+02 -0.30296195131E+02 -0.27074405569E+03  0.28732363269E+03  0.47000000000E+01 0. -1.
         -5    1    6    6    0  503  0.22831667328E+02 -0.85101970953E+02 -0.28016306725E+03  0.29372957757E+03  0.47000000000E+01 0.  1.
<mgrwt>
<rscale>  0 0.53330547E+03</rscale>
<asrwt>0</asrwt>
<pdfrwt beam="1">  1        4 0.30675859E-01 0.53330547E+03</pdfrwt>
<pdfrwt beam="2">  1       -4 0.25902112E+00 0.53330547E+03</pdfrwt>
<totfact> 0.11574468E+00</totfact>
</mgrwt>
</event>
<event>
12    1  0.3127365E-008  0.1355897E+04  0.7818608E-02  0.8986376E-01
         -1   -1    0    0    0  501 -0.00000000000E+00  0.00000000000E+00  0.81506667417E+03  0.81506667417E+03  0.00000000000E+00 0.  1.
          1   -1    0    0  501    0  0.00000000000E+00 -0.00000000000E+00 -0.27726377539E+04  0.27726377539E+04  0.00000000000E+00 0. -1.
         23    2    1    2    0    0  0.75274448860E+03 -0.11058529217E+04 -0.29992741838E+03  0.13747067988E+04  0.10162370166E+03 0.  0.
    5000000    2    1    2    0    0 -0.75274448860E+03  0.11058529217E+04 -0.16576436614E+04  0.22129976294E+04  0.60003420719E+03 0.  0.
         23    2    4    4    0    0 -0.58357890038E+03  0.98318983579E+03 -0.10165229411E+04  0.15327007524E+04  0.92876910410E+02 0.  0.
         23    2    4    4    0    0 -0.16916558823E+03  0.12266308590E+03 -0.64112072034E+03  0.68029687697E+03  0.90026850882E+02 0.  0.
          4    1    3    3  502    0  0.15943091922E+03 -0.30357830886E+03 -0.55293984738E+02  0.34732611817E+03  0.00000000000E+00 0. -1.
         -4    1    3    3    0  502  0.59331356938E+03 -0.80227461283E+03 -0.24463343364E+03  0.10273806806E+04  0.00000000000E+00 0.  1.
         13    1    5    5    0    0 -0.18953152994E+03  0.23977627838E+03 -0.26300256972E+03  0.40321857125E+03  0.00000000000E+00 0.  1.
        -13    1    5    5    0    0 -0.39404737043E+03  0.74341355741E+03 -0.75352037133E+03  0.11294821811E+04  0.00000000000E+00 0. -1.
          5    1    6    6  503    0  0.35805871952E+01  0.24690640212E+02 -0.11864942609E+03  0.12133517474E+03  0.47000000000E+01 0. -1.
         -5    1    6    6    0  503 -0.17274617542E+03  0.97972445691E+02 -0.52247129425E+03  0.55896170223E+03  0.47000000000E+01 0.  1.
<mgrwt>
<rscale>  0 0.13558967E+04</rscale>
<asrwt>0</asrwt>
<pdfrwt beam="1">  1        1 0.42655966E+00 0.13558967E+04</pdfrwt>
<pdfrwt beam="2">  1       -1 0.12539487E+00 0.13558967E+04</pdfrwt>
<totfact> 0.46976263E-01</totfact>
</mgrwt>
</event>
<event>
12    1  0.3127365E-008  0.1818596E+04  0.7818608E-02  0.8696472E-01
         -2   -1    0    0    0  501 -0.00000000000E+00  0.00000000000E+00  0.81380404183E+03  0.81380404183E+03  0.00000000000E+00 0.  1.
          2   -1    0    0  501    0  0.00000000000E+00 -0.00000000000E+00 -0.44329291919E+04  0.44329291919E+04  0.00000000000E+00 0. -1.
         23    2    1    2    0    0 -0.93884355416E+03 -0.15034161654E+04 -0.10297043267E+04  0.20519080478E+04  0.91368761006E+02 0.  0.
    5000000    2    1    2    0    0  0.93884355416E+03  0.15034161654E+04 -0.25894208234E+04  0.31948251860E+04  0.60010031067E+03 0.  0.
         23    2    4    4    0    0  0.63381112216E+03  0.48320561477E+03 -0.11438980699E+04  0.13971211222E+04  0.90776819101E+02 0.  0.
         23    2    4    4    0    0  0.30503243200E+03  0.10202105506E+04 -0.14455227535E+04  0.17977040638E+04  0.91266193952E+02 0.  0.
          1    1    3    3  502    0 -0.27821983042E+03 -0.45570420536E+03 -0.35877552247E+03  0.64326703035E+03  0.00000000000E+00 0. -1.
         -1    1    3    3    0  502 -0.66062372374E+03 -0.10477119600E+04 -0.67092880423E+03  0.14086410174E+04  0.00000000000E+00 0.  1.
         13    1    5    5    0    0  0.54794244188E+03  0.43351318304E+03 -0.10448157230E+04  0.12569067167E+04  0.00000000000E+00 0.  1.
        -13    1    5    5    0    0  0.85868680278E+02  0.49692431732E+02 -0.99082346953E+02  0.14021440547E+03  0.00000000000E+00 0. -1.
          5    1    6    6  503    0  0.77107173671E+02  0.36330799256E+03 -0.55613660965E+03  0.66876620151E+03  0.47000000000E+01 0. -1.
         -5    1    6    6    0  503  0.22792525833E+03  0.65690255806E+03 -0.88938614383E+03  0.11289378623E+04  0.47000000000E+01 0.  1.
<mgrwt>
<rscale>  0 0.18185959E+04</rscale>
<asrwt>0</asrwt>
<pdfrwt beam="1">  1        2 0.68198911E+00 0.18185959E+04</pdfrwt>
<pdfrwt beam="2">  1       -2 0.12520062E+00 0.18185959E+04</pdfrwt>
<totfact> 0.63668630E-02</totfact>
</mgrwt>
</event>
<event>
12    1  0.3127365E-008  0.6162220E+03  0.7818608E-02  0.9872311E-01
          2   -1    0    0  501    0  0.00000000000E+00  0.00000000000E+00  0.28299907478E+03  0.28299907478E+03  0.00000000000E+00 0. -1.
         -2   -1    0    0    0  501 -0.00000000000E+00 -0.00000000000E+00 -0.17624489250E+04  0.17624489250E+04  0.00000000000E+00 0.  1.
         23    2    1    2    0    0  0.15538317979E+03 -0.45738383365E+03 -0.10600251905E+04  0.11683883498E+04  0.90188843641E+02 0.  0.
    5000000    2    1    2    0    0 -0.15538317979E+03  0.45738383365E+03 -0.41942465966E+03  0.87705964996E+03  0.59997723341E+03 0.  0.
         23    2    4    4    0    0  0.20738572893E+03  0.18088155671E+03 -0.76721823220E+02  0.29921937586E+03  0.88988867893E+02 0.  0.
         23    2    4    4    0    0 -0.36276890872E+03  0.27650227694E+03 -0.34270283644E+03  0.57784027410E+03  0.91648011352E+02 0.  0.
          4    1    3    3  502    0  0.60999812284E+02 -0.28899764571E+03 -0.70280015276E+03  0.76234419460E+03  0.00000000000E+00 0. -1.
         -4    1    3    3    0  502  0.94383367506E+02 -0.16838618794E+03 -0.35722503776E+03  0.40604415518E+03  0.00000000000E+00 0.  1.
         13    1    5    5    0    0  0.46759349834E+02  0.67811240161E+02  0.12783800876E+02  0.83356023501E+02  0.00000000000E+00 0.  1.
        -13    1    5    5    0    0  0.16062637909E+03  0.11307031655E+03 -0.89505624096E+02  0.21586335236E+03  0.00000000000E+00 0. -1.
          5    1    6    6  503    0 -0.25743652180E+03  0.24445905914E+03 -0.26050103877E+03  0.44035971155E+03  0.47000000000E+01 0. -1.
         -5    1    6    6    0  503 -0.10533238691E+03  0.32043217799E+02 -0.82201797674E+02  0.13748056256E+03  0.47000000000E+01 0.  1.
<mgrwt>
<rscale>  0 0.61622196E+03</rscale>
<asrwt>0</asrwt>
<pdfrwt beam="1">  1        2 0.43538319E-01 0.61622196E+03</pdfrwt>
<pdfrwt beam="2">  1       -2 0.27114599E+00 0.61622196E+03</pdfrwt>
<totfact> 0.58715407E+00</totfact>
</mgrwt>
</event>
<event>
12    1  0.3127365E-008  0.3472600E+03  0.7818608E-02  0.1063745E+00
          2   -1    0    0  501    0  0.00000000000E+00  0.00000000000E+00  0.11833213092E+04  0.11833213092E+04  0.00000000000E+00 0. -1.
         -2   -1    0    0    0  501 -0.00000000000E+00 -0.00000000000E+00 -0.23675382910E+03  0.23675382910E+03  0.00000000000E+00 0.  1.
         23    2    1    2    0    0  0.13151927033E+03  0.10164032411E+03  0.74027852393E+03  0.76418069247E+03  0.91278495798E+02 0.  0.
    5000000    2    1    2    0    0 -0.13151927033E+03 -0.10164032411E+03  0.20628895614E+03  0.65589444580E+03  0.60001193043E+03 0.  0.
         23    2    4    4    0    0 -0.24137038195E+03 -0.21805621513E+03  0.29896785676E+03  0.45128893795E+03  0.92042120281E+02 0.  0.
         23    2    4    4    0    0  0.10985111162E+03  0.11641589102E+03 -0.92678900619E+02  0.20460550785E+03  0.87487763816E+02 0.  0.
          1    1    3    3  502    0  0.86122585085E+02  0.33153098285E+02  0.23872183913E+03  0.25593816453E+03  0.00000000000E+00 0. -1.
         -1    1    3    3    0  502  0.45396685246E+02  0.68487225824E+02  0.50155668480E+03  0.50824252794E+03  0.00000000000E+00 0.  1.
         13    1    5    5    0    0 -0.13190788966E+03 -0.57953847047E+02  0.12445045982E+03  0.19038449699E+03  0.00000000000E+00 0. -1.
        -13    1    5    5    0    0 -0.10946249229E+03 -0.16010236808E+03  0.17451739693E+03  0.26090444096E+03  0.00000000000E+00 0.  1.
          5    1    6    6  503    0  0.52107868523E+02  0.11239228879E+03 -0.57016976013E+02  0.13645615448E+03  0.47000000000E+01 0. -1.
         -5    1    6    6    0  503  0.57743243097E+02  0.40236022246E+01 -0.35661924606E+02  0.68149353370E+02  0.47000000000E+01 0.  1.
<mgrwt>
<rscale>  0 0.34725995E+03</rscale>
<asrwt>0</asrwt>
<pdfrwt beam="1">  1        2 0.18204943E+00 0.34725995E+03</pdfrwt>
<pdfrwt beam="2">  1       -2 0.36423667E-01 0.34725995E+03</pdfrwt>
<totfact> 0.14527294E+02</totfact>
</mgrwt>
</event>
<event>
12    1  0.3127365E-008  0.5164374E+03  0.7818608E-02  0.1009575E+00
          1   -1    0    0  501    0  0.00000000000E+00  0.00000000000E+00  0.21771656740E+04  0.21771656740E+04  0.00000000000E+00 0. -1.
         -1   -1    0    0    0  501 -0.00000000000E+00 -0.00000000000E+00 -0.12700345171E+03  0.12700345171E+03  0.00000000000E+00 0.  1.
         23    2    1    2    0    0  0.26441936358E+01  0.34743410950E+03  0.74340822105E+03  0.82474796856E+03  0.82679963244E+02 0.  0.
    5000000    2    1    2    0    0 -0.26441936358E+01 -0.34743410950E+03  0.13067540013E+04  0.14794211572E+04  0.60030283046E+03 0.  0.
         23    2    4    4    0    0 -0.14646503494E+03  0.10974736881E+03  0.43197292891E+03  0.47769461146E+03  0.89972435110E+02 0.  0.
         23    2    4    4    0    0  0.14382084130E+03 -0.45718147831E+03  0.87478107235E+03  0.10017265457E+04  0.92275724574E+02 0.  0.
          3    1    3    3  502    0 -0.27798325142E+02  0.27718732908E+03  0.61679297864E+03  0.67678588991E+03  0.00000000000E+00 0.  1.
         -3    1    3    3    0  502  0.30442518778E+02  0.70246780415E+02  0.12661524241E+03  0.14796207865E+03  0.00000000000E+00 0. -1.
         13    1    5    5    0    0 -0.98288428799E+02  0.37032669975E+02  0.31313252322E+03  0.33027868683E+03  0.00000000000E+00 0. -1.
        -13    1    5    5    0    0 -0.48176606137E+02  0.72714698835E+02  0.11884040570E+03  0.14741592462E+03  0.00000000000E+00 0.  1.
          5    1    6    6  503    0  0.39256816854E+01 -0.12317680049E+03  0.26948165899E+03  0.29636192348E+03  0.47000000000E+01 0. -1.
         -5    1    6    6    0  503  0.13989515962E+03 -0.33400467782E+03  0.60529941336E+03  0.70536462224E+03  0.47000000000E+01 0.  1.
<mgrwt>
<rscale>  0 0.51643742E+03</rscale>
<asrwt>0</asrwt>
<pdfrwt beam="1">  1        1 0.33494854E+00 0.51643742E+03</pdfrwt>
<pdfrwt beam="2">  1       -1 0.19538994E-01 0.51643742E+03</pdfrwt>
<totfact> 0.51465876E+01</totfact>
</mgrwt>
</event>
<event>
12    1  0.3127365E-008  0.3019698E+03  0.7818608E-02  0.1084260E+00
          2   -1    0    0  501    0  0.00000000000E+00  0.00000000000E+00  0.16794527461E+04  0.16794527461E+04  0.00000000000E+00 0.  1.
         -2   -1    0    0    0  501 -0.00000000000E+00 -0.00000000000E+00 -0.10442363320E+03  0.10442363320E+03  0.00000000000E+00 0. -1.
         23    2    1    2    0    0  0.70352697391E+02 -0.17261186865E+03  0.44937505619E+03  0.49478616165E+03  0.90172309535E+02 0.  0.
    5000000    2    1    2    0    0 -0.70352697391E+02  0.17261186865E+03  0.11256540567E+04  0.12890902176E+04  0.59992680774E+03 0.  0.
         23    2    4    4    0    0  0.79051866867E+02 -0.46966876750E+02  0.94875615611E+03  0.95780760694E+03  0.93819416918E+02 0.  0.
         23    2    4    4    0    0 -0.14940456426E+03  0.21957874540E+03  0.17689790057E+03  0.33128261069E+03  0.88987368023E+02 0.  0.
          1    1    3    3  502    0 -0.51182000216E+01 -0.70080566406E+02  0.23677141552E+03  0.24697810625E+03  0.00000000000E+00 0. -1.
         -1    1    3    3    0  502  0.75470897413E+02 -0.10253130224E+03  0.21260364067E+03  0.24780805540E+03  0.00000000000E+00 0.  1.
         11    1    5    5    0    0  0.49772845954E+02 -0.72843279312E+02  0.53670307887E+03  0.54390594261E+03  0.00000000000E+00 0. -1.
        -11    1    5    5    0    0  0.29279020913E+02  0.25876402562E+02  0.41205307724E+03  0.41390166433E+03  0.00000000000E+00 0.  1.
          5    1    6    6  503    0 -0.13619376633E+03  0.12981852641E+03  0.13243925570E+03  0.23013873693E+03  0.47000000000E+01 0. -1.
         -5    1    6    6    0  503 -0.13210797926E+02  0.89760218989E+02  0.44458644869E+02  0.10114387376E+03  0.47000000000E+01 0.  1.
<mgrwt>
<rscale>  0 0.30196976E+03</rscale>
<asrwt>0</asrwt>
<pdfrwt beam="1">  1        2 0.25837732E+00 0.30196976E+03</pdfrwt>
<pdfrwt beam="2">  1       -2 0.16065176E-01 0.30196976E+03</pdfrwt>
<totfact> 0.33422836E+02</totfact>
</mgrwt>
</event>
<event>
12    1  0.3127365E-008  0.5003044E+03  0.7818608E-02  0.1013699E+00
          2   -1    0    0  501    0  0.00000000000E+00  0.00000000000E+00  0.43511748277E+03  0.43511748277E+03  0.00000000000E+00 0. -1.
         -2   -1    0    0    0  501 -0.00000000000E+00 -0.00000000000E+00 -0.64382641159E+03  0.64382641159E+03  0.00000000000E+00 0.  1.
         23    2    1    2    0    0 -0.34120991985E+03  0.10718643786E+02 -0.15556465583E+03  0.38644012312E+03  0.92717354831E+02 0.  0.
    5000000    2    1    2    0    0  0.34120991985E+03 -0.10718643786E+02 -0.53144272994E+02  0.69250377124E+03  0.60016502788E+03 0.  0.
         23    2    4    4    0    0  0.49122864007E+02  0.23970404272E+03  0.82194535374E+02  0.27435876724E+03  0.92982297540E+02 0.  0.
         23    2    4    4    0    0  0.29208705584E+03 -0.25042268650E+03 -0.13533880837E+03  0.41814500399E+03  0.92207815321E+02 0.  0.
          2    1    3    3  502    0 -0.18884514977E+03 -0.33059026955E+02 -0.58018025957E+02  0.20030347273E+03  0.00000000000E+00 0. -1.
         -2    1    3    3    0  502 -0.15236477008E+03  0.43777670741E+02 -0.97546629875E+02  0.18613665039E+03  0.00000000000E+00 0.  1.
         11    1    5    5    0    0  0.67045976317E+02  0.96986864342E+02  0.35624031621E+02  0.12316934044E+03  0.00000000000E+00 0.  1.
        -11    1    5    5    0    0 -0.17923112310E+02  0.14271717837E+03  0.46570503753E+02  0.15118942681E+03  0.00000000000E+00 0. -1.
          5    1    6    6  503    0  0.24086459529E+03 -0.23061941140E+03 -0.86582788332E+02  0.34455730353E+03  0.47000000000E+01 0. -1.
         -5    1    6    6    0  503  0.51222460555E+02 -0.19803275103E+02 -0.48756020036E+02  0.73587700466E+02  0.47000000000E+01 0.  1.
<mgrwt>
<rscale>  0 0.50030444E+03</rscale>
<asrwt>0</asrwt>
<pdfrwt beam="1">  1        2 0.66941151E-01 0.50030444E+03</pdfrwt>
<pdfrwt beam="2">  1       -2 0.99050217E-01 0.50030444E+03</pdfrwt>
<totfact> 0.62862351E+01</totfact>
</mgrwt>
</event>
<event>
12    1  0.3127365E-008  0.7064993E+03  0.7818608E-02  0.9706182E-01
         -2   -1    0    0    0  501 -0.00000000000E+00  0.00000000000E+00  0.53266918576E+03  0.53266918576E+03  0.00000000000E+00 0.  1.
          2   -1    0    0  501    0  0.00000000000E+00 -0.00000000000E+00 -0.14336462721E+04  0.14336462721E+04  0.00000000000E+00 0. -1.
         23    2    1    2    0    0  0.46064874807E+03 -0.48213405171E+03  0.29578372949E+02  0.67371299175E+03  0.91453825471E+02 0.  0.
    5000000    2    1    2    0    0 -0.46064874807E+03  0.48213405171E+03 -0.93055545928E+03  0.12926024661E+04  0.60019760050E+03 0.  0.
         23    2    4    4    0    0 -0.43475185040E+03  0.25367791182E+03 -0.91068106213E+03  0.10447975294E+04  0.94341010348E+02 0.  0.
         23    2    4    4    0    0 -0.25896897665E+02  0.22845613989E+03 -0.19874397148E+02  0.24780493665E+03  0.90274236663E+02 0.  0.
          2    1    3    3  502    0  0.26239120470E+02 -0.67151872123E+02  0.82501566764E+01  0.72566731067E+02  0.00000000000E+00 0. -1.
         -2    1    3    3    0  502  0.43440962760E+03 -0.41498217959E+03  0.21328216273E+02  0.60114626069E+03  0.00000000000E+00 0.  1.
         13    1    5    5    0    0 -0.13373353824E+03  0.11102744118E+03 -0.38565740256E+03  0.42301700213E+03  0.00000000000E+00 0. -1.
        -13    1    5    5    0    0 -0.30101831217E+03  0.14265047064E+03 -0.52502365957E+03  0.62178052731E+03  0.00000000000E+00 0.  1.
          5    1    6    6  503    0  0.80210791185E+01  0.94171499092E+02 -0.48444564084E+02  0.10630886483E+03  0.47000000000E+01 0. -1.
         -5    1    6    6    0  503 -0.33917976784E+02  0.13428464080E+03  0.28570166936E+02  0.14149607183E+03  0.47000000000E+01 0.  1.
<mgrwt>
<rscale>  0 0.70649931E+03</rscale>
<asrwt>0</asrwt>
<pdfrwt beam="1">  1        2 0.22056096E+00 0.70649931E+03</pdfrwt>
<pdfrwt beam="2">  1       -2 0.81949107E-01 0.70649931E+03</pdfrwt>
<totfact> 0.18640174E+01</totfact>
</mgrwt>
</event>
<event>
12    1  0.3127365E-008  0.3751877E+03  0.7818608E-02  0.1052727E+00
          1   -1    0    0  501    0  0.00000000000E+00  0.00000000000E+00  0.96085738213E+03  0.96085738213E+03  0.00000000000E+00 0. -1.
         -1   -1    0    0    0  501 -0.00000000000E+00 -0.00000000000E+00 -0.27200662567E+03  0.27200662567E+03  0.00000000000E+00 0.  1.
         23    2    1    2    0    0  0.22863276739E+03 -0.16114304906E+03  0.43177364362E+03  0.52250159340E+03  0.91320376684E+02 0.  0.
    5000000    2    1    2    0    0 -0.22863276739E+03  0.16114304906E+03  0.25707711284E+03  0.71036241440E+03  0.60023836370E+03 0.  0.
         23    2    4    4    0    0 -0.27440506689E+03  0.24465784007E+02  0.39471089051E+03  0.48965423246E+03  0.89821294528E+02 0.  0.
         23    2    4    4    0    0  0.45772299507E+02  0.13667726506E+03 -0.13763377767E+03  0.22070818194E+03  0.94832835219E+02 0.  0.
          4    1    3    3  502    0  0.10738051966E+03 -0.12398789156E+03  0.28217174489E+03  0.32638086168E+03  0.00000000000E+00 0. -1.
         -4    1    3    3    0  502  0.12125224772E+03 -0.37155157501E+02  0.14960189873E+03  0.19612073172E+03  0.00000000000E+00 0.  1.
         13    1    5    5    0    0 -0.26259031878E+02  0.28917898806E+02  0.33863881026E+02  0.51696654289E+02  0.00000000000E+00 0. -1.
        -13    1    5    5    0    0 -0.24814603501E+03 -0.44521147990E+01  0.36084700949E+03  0.43795757817E+03  0.00000000000E+00 0.  1.
          5    1    6    6  503    0 -0.25639969112E+02  0.69117445667E+02 -0.53169639628E+02  0.91014998159E+02  0.47000000000E+01 0. -1.
         -5    1    6    6    0  503  0.71412268618E+02  0.67559819389E+02 -0.84464138043E+02  0.12969318379E+03  0.47000000000E+01 0.  1.
<mgrwt>
<rscale>  0 0.37518766E+03</rscale>
<asrwt>0</asrwt>
<pdfrwt beam="1">  1        1 0.14782421E+00 0.37518766E+03</pdfrwt>
<pdfrwt beam="2">  1       -1 0.41847173E-01 0.37518766E+03</pdfrwt>
<totfact> 0.96856312E+01</totfact>
</mgrwt>
</event>
<event>
12    1  0.3127365E-008  0.9828321E+03  0.7818608E-02  0.9327577E-01
         -1   -1    0    0    0  501 -0.00000000000E+00  0.00000000000E+00  0.79932331377E+03  0.79932331377E+03  0.00000000000E+00 0.  1.
          1   -1    0    0  501    0  0.00000000000E+00 -0.00000000000E+00 -0.21698074120E+04  0.21698074120E+04  0.00000000000E+00 0. -1.
         23    2    1    2    0    0  0.81665224604E+03 -0.40518218965E+03  0.30574450701E+03  0.96891910710E+03  0.11929390076E+03 0.  0.
    5000000    2    1    2    0    0 -0.81665224604E+03  0.40518218965E+03 -0.16762286052E+04  0.20002116187E+04  0.60000890385E+03 0.  0.
         23    2    4    4    0    0  0.72955139356E+02  0.64012096127E+02 -0.18897041759E+03  0.23153393545E+03  0.92076836031E+02 0.  0.
         23    2    4    4    0    0 -0.88960738540E+03  0.34117009352E+03 -0.14872581877E+04  0.17686776832E+04  0.92116760362E+02 0.  0.
          2    1    3    3  502    0  0.54222029034E+03 -0.30501522913E+03  0.25523075290E+03  0.67244320986E+03  0.00000000000E+00 0. -1.
         -2    1    3    3    0  502  0.27443195570E+03 -0.10016696052E+03  0.50513754106E+02  0.29647589724E+03  0.00000000000E+00 0.  1.
         11    1    5    5    0    0  0.19928162095E+02  0.13217121539E+02  0.47353547727E+01  0.24377192847E+02  0.00000000000E+00 0.  1.
        -11    1    5    5    0    0  0.53026977261E+02  0.50794974588E+02 -0.19370577236E+03  0.20715674261E+03  0.00000000000E+00 0. -1.
          5    1    6    6  503    0 -0.28347014389E+03  0.84837279349E+02 -0.52974976332E+03  0.60680275888E+03  0.47000000000E+01 0. -1.
         -5    1    6    6    0  503 -0.60613724151E+03  0.25633281417E+03 -0.95750842433E+03  0.11618749244E+04  0.47000000000E+01 0.  1.
<mgrwt>
<rscale>  0 0.98283211E+03</rscale>
<asrwt>0</asrwt>
<pdfrwt beam="1">  1        1 0.33381652E+00 0.98283211E+03</pdfrwt>
<pdfrwt beam="2">  1       -1 0.12297282E+00 0.98283211E+03</pdfrwt>
<totfact> 0.13526680E+00</totfact>
</mgrwt>
</event>
<event>
12    1  0.3127365E-008  0.1644145E+04  0.7818608E-02  0.8793878E-01
         -2   -1    0    0    0  501 -0.00000000000E+00  0.00000000000E+00  0.91444416254E+03  0.91444416254E+03  0.00000000000E+00 0. -1.
          2   -1    0    0  501    0  0.00000000000E+00 -0.00000000000E+00 -0.29780620755E+04  0.29780620755E+04  0.00000000000E+00 0.  1.
         23    2    1    2    0    0  0.14635816718E+04  0.62897448281E+03 -0.92174240743E+03  0.18427460682E+04  0.91781241124E+02 0.  0.
    5000000    2    1    2    0    0 -0.14635816718E+04 -0.62897448281E+03 -0.11418755055E+04  0.20497601699E+04  0.59996406040E+03 0.  0.
         23    2    4    4    0    0 -0.12175807376E+04 -0.26253593909E+03 -0.78912379123E+03  0.14773471645E+04  0.91707768428E+02 0.  0.
         23    2    4    4    0    0 -0.24600093421E+03 -0.36643854372E+03 -0.35275171432E+03  0.57241300535E+03  0.91810733481E+02 0.  0.
          3    1    3    3  502    0  0.38996610999E+03  0.14545467789E+03 -0.20105104791E+03  0.46222522014E+03  0.00000000000E+00 0. -1.
         -3    1    3    3    0  502  0.10736155618E+04  0.48351980492E+03 -0.72069135952E+03  0.13805208481E+04  0.00000000000E+00 0.  1.
         13    1    5    5    0    0 -0.74755044478E+03 -0.18936545847E+03 -0.52916783053E+03  0.93525907492E+03  0.00000000000E+00 0. -1.
        -13    1    5    5    0    0 -0.47003029278E+03 -0.73170480622E+02 -0.25995596070E+03  0.54208808958E+03  0.00000000000E+00 0.  1.
          5    1    6    6  503    0 -0.16428079745E+03 -0.17780066969E+03 -0.22367227001E+03  0.32962498832E+03  0.47000000000E+01 0. -1.
         -5    1    6    6    0  503 -0.81720136760E+02 -0.18863787403E+03 -0.12907944431E+03  0.24278801703E+03  0.47000000000E+01 0.  1.
<mgrwt>
<rscale>  0 0.16441453E+04</rscale>
<asrwt>0</asrwt>
<pdfrwt beam="1">  1        2 0.45816339E+00 0.16441453E+04</pdfrwt>
<pdfrwt beam="2">  1       -2 0.14068372E+00 0.16441453E+04</pdfrwt>
<totfact> 0.59565606E-01</totfact>
</mgrwt>
</event>
